 Gaussian 16, Revision C.01,

 ----------------------------------------------------------------------
 #t hf aug-cc-pvdz symm=none int=(grid=ultrafine) guess=(read,tcheck) s
 table=(opt,rrhf)
 ----------------------------------------------------------------------
 -----
 title
 -----
 Symbolic Z-matrix:
 Charge =  0 Multiplicity = 1

 SCF Done:  E(RHF) =  -758.167963940     A.U. after   16 cycles
 Normal termination of Gaussian 16 at Wed Apr  9 02:27:40 2025.
 Gaussian 16:  ES64L-G16RevC.01  3-Jul-2019

 ----------------------------------------------------------------------
 #t hf aug-cc-pvdz iop(5/13=1,5/36=2,99/5=2) pseudo=read geom=check gue
 ss=(read,tcheck) scf=(maxcycle=1)
 ----------------------------------------------------------------------
 -----
 title
 -----
 Structure from the checkpoint file:  "DCONF_38_0_mol1.chk"
 Charge =  0 Multiplicity = 1

                         Standard orientation:
 ---------------------------------------------------------------------
 Center     Atomic      Atomic             Coordinates (Angstroms)
 Number     Number       Type             X           Y           Z
 ---------------------------------------------------------------------
      1          6           0       -2.133714    0.162402   -0.044728
      2          7           0       -0.979536   -0.599602   -0.020078
      3          1           0       -1.091444   -1.580293    0.195531
      4          6           0        0.758730    1.226350    0.078548
      5          1           0        0.081587    2.067050    0.112863
      6          6           0        2.180087    1.308968    0.068533
      7          1           0        2.729371    2.242859    0.112220
      8          6           0        2.798065    0.079767    0.006668
      9          1           0        3.855393   -0.147629    0.006283
     10         16           0        1.649878   -1.199761   -0.056768
     11          6           0        0.325436   -0.087187    0.036254
     12          8           0       -2.129161    1.377837   -0.159135
     13          6           0       -3.408501   -0.645927    0.098832
     14          1           0       -3.277130   -1.701742   -0.150167
     15          1           0       -4.167791   -0.210257   -0.551691
     16          1           0       -3.758604   -0.565545    1.132229
 ---------------------------------------------------------------------

 SCF Done:  E(RHF) =  -760.049700990     A.U. after    2 cycles

 The electronic state is 1-A.
 Alpha  occ. eigenvalues --  -75.71520 -21.03561 -15.79485 -13.18291 -13.15639
 Alpha  occ. eigenvalues --  -13.03455 -11.51679 -11.49508 -11.44995 -11.41363
 Alpha  occ. eigenvalues --  -11.40103 -11.37109  -8.06134  -1.71384  -1.44990
 Alpha  occ. eigenvalues --   -1.32034  -1.11603  -1.08567  -1.02115  -0.85234
 Alpha  occ. eigenvalues --   -0.81019  -0.74963  -0.70936  -0.65506  -0.62614
 Alpha  occ. eigenvalues --   -0.59859  -0.55328  -0.53985  -0.51650  -0.49016
 Alpha  occ. eigenvalues --   -0.47939  -0.45927  -0.39283  -0.37741  -0.29630
 Alpha  occ. eigenvalues --   -0.28124  -0.25852
 Alpha virt. eigenvalues --    0.02919   0.03899   0.05317   0.05735   0.05993
 Alpha virt. eigenvalues --    0.06721   0.07572   0.08414   0.09697   0.11103
 Alpha virt. eigenvalues --    0.11550   0.12199   0.12609   0.13321   0.13731

 Mulliken charges:
               1
     1  C    4.805006
     2  N   -3.987811
     3  H    0.928469
     4  C   -2.378032
     5  H    1.873211
     6  C   -0.366435
     7  H    1.512511
     8  C   -3.872720
     9  H    1.278419
    10  S    1.843564
    11  C    2.302253
    12  O   -3.378616
    13  C   -4.380971
    14  H    1.356073
    15  H    1.178394
    16  H    1.286684
 Sum of Mulliken charges =  -0.00000

 Dipole moment (field-independent basis, Debye):
    X=              0.1041    Y=             -3.6507    Z=              0.1870  Tot=              3.6570

 Test job not archived.
 1\1\GINC-SE036\SP\RHF\Aug-CC-pVDZ\C6H7N1O1S1\OHZDE\09-Apr-2025\0\\#t h
 f aug-cc-pvdz iop(5/13=1,5/36=2,99/5=2) pseudo=read geom=check guess=(
 read,tcheck) scf=(maxcycle=1)\\title\\0,1\C,0,28.2598,-5.378,0.0923\N,
 0,29.4598,-4.6926,0.0322\H,0,29.4092,-3.717,-0.2255\C,0,31.0784,-6.627
 8,0.0092\H,0,30.3492,-7.4245,0.0128\C,0,32.4917,-6.8,0.0198\H,0,32.980
 5,-7.7679,0.0155\C,0,33.1866,-5.611,0.027\H,0,34.2562,-5.4514,0.0153\S
 ,0,32.1221,-4.2596,0.0373\C,0,30.7294,-5.2888,-0.0046\O,0,28.1879,-6.5
 852,0.2593\C,0,27.0381,-4.4973,-0.0835\H,0,27.2373,-3.4422,0.1192\H,0,

 Normal termination of Gaussian 16 at Wed Apr  9 02:27:49 2025.
