 Gaussian 16, Revision C.01,

 ----------------------------------------------------------------------
 #t hf aug-cc-pvdz symm=none int=(grid=ultrafine) guess=(read,tcheck) s
 table=(opt,rrhf)
 ----------------------------------------------------------------------
 -----
 title
 -----
 Symbolic Z-matrix:
 Charge =  0 Multiplicity = 1

 SCF Done:  E(RHF) =  -256.175828831     A.U. after   12 cycles
 Normal termination of Gaussian 16 at Wed Apr  9 02:31:23 2025.
 Gaussian 16:  ES64L-G16RevC.01  3-Jul-2019

 ----------------------------------------------------------------------
 #t hf aug-cc-pvdz iop(5/13=1,5/36=2,99/5=2) pseudo=read geom=check gue
 ss=(read,tcheck) scf=(maxcycle=1)
 ----------------------------------------------------------------------
 -----
 title
 -----
 Structure from the checkpoint file:  "DCONF_8_110_mol1.chk"
 Charge =  0 Multiplicity = 1

                         Standard orientation:
 ---------------------------------------------------------------------
 Center     Atomic      Atomic             Coordinates (Angstroms)
 Number     Number       Type             X           Y           Z
 ---------------------------------------------------------------------
      1          6           0       -0.027358    0.007086    0.553052
      2          1           0        0.228336    0.454411    1.521127
      3          1           0       -0.119969   -1.071539    0.720136
      4          6           0        1.100343    0.292732   -0.440164
      5          1           0        1.182798    1.376636   -0.587052
      6          1           0        0.836396   -0.138710   -1.413385
      7          6           0        2.443846   -0.265451    0.026686
      8          1           0        2.729921    0.168176    0.990681
      9          1           0        3.239140   -0.046629   -0.691554
     10          1           0        2.388437   -1.351588    0.150644
     11          6           0       -1.389754    0.522108    0.090350
     12          1           0       -1.303287    1.145869   -0.804477
     13          1           0       -1.902246    1.087847    0.872420
     14          9           0       -2.226887   -0.551480   -0.237566
 ---------------------------------------------------------------------

 SCF Done:  E(RHF) =  -257.334695829     A.U. after    2 cycles

 The electronic state is 1-A.
 Alpha  occ. eigenvalues --  -29.23875 -11.45687 -11.41431 -11.38422 -11.35144
 Alpha  occ. eigenvalues --   -1.26921  -1.12077  -0.95741  -0.84466  -0.69337
 Alpha  occ. eigenvalues --   -0.64898  -0.61692  -0.60198  -0.53961  -0.52014
 Alpha  occ. eigenvalues --   -0.47477  -0.46388  -0.45053  -0.35362  -0.23937
 Alpha  occ. eigenvalues --   -0.23340
 Alpha virt. eigenvalues --    0.04111   0.05148   0.05592   0.06056   0.06221
 Alpha virt. eigenvalues --    0.06311   0.06594   0.08156   0.08732   0.11526
 Alpha virt. eigenvalues --    0.13092   0.14050   0.14186   0.15281   0.16557

 Mulliken charges:
               1
     1  C   -2.763030
     2  H    1.321284
     3  H    1.441343
     4  C   -2.897002
     5  H    1.409673
     6  H    1.442383
     7  C   -3.993544
     8  H    1.271790
     9  H    1.094395
    10  H    1.261834
    11  C   -2.630301
    12  H    1.495415
    13  H    1.374770
    14  F    0.170990
 Sum of Mulliken charges =   0.00000

 Dipole moment (field-independent basis, Debye):
    X=             -0.3080    Y=             -0.5517    Z=             -0.2398  Tot=              0.6758

 Test job not archived.
 1\1\GINC-SE333\SP\RHF\Aug-CC-pVDZ\C4H9F1\OHZDE\09-Apr-2025\0\\#t hf au
 g-cc-pvdz iop(5/13=1,5/36=2,99/5=2) pseudo=read geom=check guess=(read
 ,tcheck) scf=(maxcycle=1)\\title\\0,1\C,0,0.0312,-0.0327,-0.006\H,0,0.
 0224,-0.6789,-0.892\H,0,0.0466,-0.6955,0.866\C,0,-1.2391,0.8194,0.0007
 \H,0,-1.24,1.4687,-0.8834\H,0,-1.2217,1.4789,0.8769\C,0,-2.51,-0.0286,
 0.0158\H,0,-2.5506,-0.6819,-0.8621\H,0,-3.4077,0.5962,0.0138\H,0,-2.54
 03,-0.6627,0.9075\C,0,1.317,0.7929,0.0178\H,0,1.115,1.8594,-0.1202\H,0
 ,2.031,0.4631,-0.741\F,0,1.9584,0.6538,1.2548\\Version=ES64L-G16RevC.0

 Normal termination of Gaussian 16 at Wed Apr  9 02:31:26 2025.
