 Gaussian 16, Revision C.01,

 ----------------------------------------------------------------------
 #t hf aug-cc-pvdz symm=none int=(grid=ultrafine) guess=(read,tcheck) s
 table=(opt,rrhf)
 ----------------------------------------------------------------------
 -----
 title
 -----
 Symbolic Z-matrix:
 Charge =  0 Multiplicity = 1

 SCF Done:  E(RHF) =  -780.897781432     A.U. after   17 cycles

 1\1\GINC-SE336\Stability\RHF\Aug-CC-pVDZ\C10H8S1\OHZDE\09-Apr-2025\0\\
 #t hf aug-cc-pvdz symm=none int=(grid=ultrafine) guess=(read,tcheck) s
 table=(opt,rrhf)\\title\\0,1\C,0,21.7692,-10.9442,-0.0045\H,0,22.2917,
 -11.8978,-0.0271\C,0,20.3716,-10.9317,0.0058\H,0,19.8265,-11.8718,-0.0
 111\C,0,19.6772,-9.7162,-0.0127\H,0,18.5907,-9.705,-0.0158\C,0,20.3965
 ,-8.5146,-0.0037\H,0,19.8696,-7.564,-0.0155\C,0,21.7938,-8.5267,0.0051
 \H,0,22.3364,-7.5859,0.0396\C,0,22.5048,-9.7429,0.035\C,0,24.8296,-8.6
 893,-0.3016\H,0,24.4778,-7.7203,-0.6384\C,0,26.1979,-9.0227,-0.1496\H,

 Normal termination of Gaussian 16 at Wed Apr  9 02:31:30 2025.
 Gaussian 16:  ES64L-G16RevC.01  3-Jul-2019

 ----------------------------------------------------------------------
 #t hf aug-cc-pvdz iop(5/13=1,5/36=2,99/5=2) pseudo=read geom=check gue
 ss=(read,tcheck) scf=(maxcycle=1)
 ----------------------------------------------------------------------
 -----
 title
 -----
 Structure from the checkpoint file:  "DCONF_51_-10_mol1.chk"
 Charge =  0 Multiplicity = 1

                         Standard orientation:
 ---------------------------------------------------------------------
 Center     Atomic      Atomic             Coordinates (Angstroms)
 Number     Number       Type             X           Y           Z
 ---------------------------------------------------------------------
      1          6           0        1.338499   -1.129515    0.204801
      2          1           0        0.754064   -2.030050    0.378991
      3          6           0        2.732875   -1.217563    0.165954
      4          1           0        3.213907   -2.181140    0.312025
      5          6           0        3.507537   -0.064755   -0.009849
      6          1           0        4.591958   -0.130108   -0.029287
      7          6           0        2.870558    1.170301   -0.183660
      8          1           0        3.460193    2.072623   -0.323477
      9          6           0        1.475945    1.255914   -0.163762
     10          1           0        0.996935    2.217416   -0.327386
     11          6           0        0.684345    0.101913    0.001192
     12          6           0       -1.553574    1.355342    0.221877
     13          1           0       -1.127764    2.335992    0.404007
     14          6           0       -2.945047    1.100854    0.147423
     15          1           0       -3.714308    1.857552    0.255835
     16          6           0       -3.223168   -0.236909   -0.068427
     17          1           0       -4.190245   -0.716269   -0.150093
     18         16           0       -1.790707   -1.167999   -0.184510
     19          6           0       -0.776877    0.208078    0.089706
 ---------------------------------------------------------------------

 SCF Done:  E(RHF) =  -782.963439666     A.U. after    2 cycles

 The electronic state is 1-A.
 Alpha  occ. eigenvalues --  -75.71256 -13.18649 -13.16119 -13.03615 -11.52243
 Alpha  occ. eigenvalues --  -11.48043 -11.45441 -11.43885 -11.43238 -11.42532
 Alpha  occ. eigenvalues --  -11.41325 -11.41085 -11.39448 -11.36998  -8.05856
 Alpha  occ. eigenvalues --   -1.40197  -1.31260  -1.12803  -1.09763  -1.07934
 Alpha  occ. eigenvalues --   -1.01926  -0.88002  -0.86702  -0.78922  -0.76394
 Alpha  occ. eigenvalues --   -0.72282  -0.68435  -0.63217  -0.58532  -0.57574
 Alpha  occ. eigenvalues --   -0.55617  -0.53221  -0.50944  -0.48805  -0.47181
 Alpha  occ. eigenvalues --   -0.44419  -0.43571  -0.38027  -0.36870  -0.33183
 Alpha  occ. eigenvalues --   -0.28188  -0.26367
 Alpha virt. eigenvalues --    0.03170   0.04333   0.04892   0.05440   0.05956
 Alpha virt. eigenvalues --    0.06512   0.06810   0.07540   0.08543   0.09184
 Alpha virt. eigenvalues --    0.10018   0.11024   0.11274   0.12705   0.13171

 Mulliken charges:
               1
     1  C   -1.670875
     2  H    1.933831
     3  C   -2.794094
     4  H    1.470221
     5  C   -2.709049
     6  H    1.519159
     7  C   -3.179844
     8  H    1.435799
     9  C   -1.792926
    10  H    1.938204
    11  C    5.278338
    12  C   -3.433301
    13  H    1.460873
    14  C   -2.211543
    15  H    1.416522
    16  C   -4.583896
    17  H    1.212818
    18  S    1.669228
    19  C    3.040534
 Sum of Mulliken charges =   0.00000

 Dipole moment (field-independent basis, Debye):
    X=              0.3030    Y=             -1.7370    Z=             -0.3687  Tot=              1.8014

 Test job not archived.
 1\1\GINC-SE336\SP\RHF\Aug-CC-pVDZ\C10H8S1\OHZDE\09-Apr-2025\0\\#t hf a
 ug-cc-pvdz iop(5/13=1,5/36=2,99/5=2) pseudo=read geom=check guess=(rea
 d,tcheck) scf=(maxcycle=1)\\title\\0,1\C,0,21.7692,-10.9442,-0.0045\H,
 0,22.2917,-11.8978,-0.0271\C,0,20.3716,-10.9317,0.0058\H,0,19.8265,-11
 .8718,-0.0111\C,0,19.6772,-9.7162,-0.0127\H,0,18.5907,-9.705,-0.0158\C
 ,0,20.3965,-8.5146,-0.0037\H,0,19.8696,-7.564,-0.0155\C,0,21.7938,-8.5
 267,0.0051\H,0,22.3364,-7.5859,0.0396\C,0,22.5048,-9.7429,0.035\C,0,24
 .8296,-8.6893,-0.3016\H,0,24.4778,-7.7203,-0.6384\C,0,26.1979,-9.0227,

 Normal termination of Gaussian 16 at Wed Apr  9 02:31:42 2025.
