 Gaussian 16, Revision C.01,

 ----------------------------------------------------------------------
 #t hf aug-cc-pvdz symm=none int=(grid=ultrafine) guess=(read,tcheck) s
 table=(opt,rrhf)
 ----------------------------------------------------------------------
 -----
 title
 -----
 Symbolic Z-matrix:
 Charge =  0 Multiplicity = 1

 SCF Done:  E(RHF) =  -355.052971396     A.U. after   12 cycles
 Normal termination of Gaussian 16 at Wed Apr  9 02:32:27 2025.
 Gaussian 16:  ES64L-G16RevC.01  3-Jul-2019

 ----------------------------------------------------------------------
 #t hf aug-cc-pvdz iop(5/13=1,5/36=2,99/5=2) pseudo=read geom=check gue
 ss=(read,tcheck) scf=(maxcycle=1)
 ----------------------------------------------------------------------
 -----
 title
 -----
 Structure from the checkpoint file:  "DCONF_9_0_mol1.chk"
 Charge =  0 Multiplicity = 1

                         Standard orientation:
 ---------------------------------------------------------------------
 Center     Atomic      Atomic             Coordinates (Angstroms)
 Number     Number       Type             X           Y           Z
 ---------------------------------------------------------------------
      1          6           0        0.259368   -0.576933    0.369866
      2          1           0        0.527349   -0.894982    1.383572
      3          1           0        0.278587   -1.471215   -0.260446
      4          6           0        1.293592    0.433076   -0.133098
      5          1           0        1.267751    1.328366    0.495636
      6          1           0        1.029642    0.752778   -1.145227
      7          6           0        2.698022   -0.169987   -0.123839
      8          1           0        2.985536   -0.475323    0.887550
      9          1           0        3.438114    0.551176   -0.481677
     10          1           0        2.747300   -1.053215   -0.768643
     11          6           0       -1.179864   -0.066944    0.391844
     12          1           0       -1.651832   -0.096176    1.375781
     13          9           0       -1.960300   -0.819927   -0.448654
     14          9           0       -1.267384    1.224741   -0.053033
 ---------------------------------------------------------------------

 SCF Done:  E(RHF) =  -356.525813703     A.U. after    2 cycles

 The electronic state is 1-A.
 Alpha  occ. eigenvalues --  -29.27035 -29.26905 -11.52747 -11.42465 -11.39453
 Alpha  occ. eigenvalues --  -11.35813  -1.33287  -1.17047  -0.99354  -0.86981
 Alpha  occ. eigenvalues --   -0.77923  -0.73756  -0.65461  -0.63474  -0.56684
 Alpha  occ. eigenvalues --   -0.53863  -0.49248  -0.47771  -0.46912  -0.42130
 Alpha  occ. eigenvalues --   -0.37130  -0.29842  -0.27456  -0.25548  -0.20602
 Alpha virt. eigenvalues --    0.03919   0.05017   0.05829   0.05998   0.06257
 Alpha virt. eigenvalues --    0.06543   0.07368   0.08556   0.11043   0.12782
 Alpha virt. eigenvalues --    0.12969   0.13700   0.14309   0.15036   0.16247

 Mulliken charges:
               1
     1  C   -3.562391
     2  H    1.214284
     3  H    1.424912
     4  C   -3.017143
     5  H    1.532468
     6  H    1.487439
     7  C   -3.805169
     8  H    1.275727
     9  H    1.086599
    10  H    1.255199
    11  C   -1.278073
    12  H    1.769555
    13  F    0.279714
    14  F    0.336881
 Sum of Mulliken charges =  -0.00000

 Dipole moment (field-independent basis, Debye):
    X=             -0.3988    Y=              0.6185    Z=             -0.9353  Tot=              1.1901

 Test job not archived.
 1\1\GINC-SE123\SP\RHF\Aug-CC-pVDZ\C4H8F2\OHZDE\09-Apr-2025\0\\#t hf au
 g-cc-pvdz iop(5/13=1,5/36=2,99/5=2) pseudo=read geom=check guess=(read
 ,tcheck) scf=(maxcycle=1)\\title\\0,1\C,0,-0.1165,-0.0982,-0.0706\H,0,
 -0.1674,0.4244,-1.0323\H,0,-0.2101,0.6621,0.7108\C,0,1.2373,-0.8018,0.
 0514\H,0,1.3253,-1.5653,-0.7276\H,0,1.2921,-1.3245,1.0106\C,0,2.3872,0
 .1982,-0.0666\H,0,2.3586,0.7145,-1.0317\H,0,3.3551,-0.3035,0.019\H,0,2
 .3279,0.9553,0.7218\C,0,-1.3312,-1.0169,0.041\H,0,-1.9906,-0.9974,-0.8
 288\F,0,-2.0915,-0.6642,1.1273\F,0,-0.9646,-2.3218,0.233\\Version=ES64

 Normal termination of Gaussian 16 at Wed Apr  9 02:32:31 2025.
