 Gaussian 16, Revision C.01,

 ----------------------------------------------------------------------
 #t hf aug-cc-pvdz symm=none int=(grid=ultrafine) guess=(read,tcheck) s
 table=(opt,rrhf)
 ----------------------------------------------------------------------
 -----
 title
 -----
 Symbolic Z-matrix:
 Charge =  0 Multiplicity = 1

 SCF Done:  E(RHF) =  -681.462429610     A.U. after   13 cycles
 Normal termination of Gaussian 16 at Wed Apr  9 02:23:23 2025.
 Gaussian 16:  ES64L-G16RevC.01  3-Jul-2019

 ----------------------------------------------------------------------
 #t hf aug-cc-pvdz iop(5/13=1,5/36=2,99/5=2) pseudo=read geom=check gue
 ss=(read,tcheck) scf=(maxcycle=1)
 ----------------------------------------------------------------------
 -----
 title
 -----
 Structure from the checkpoint file:  "DCONF_16_30_mol1.chk"
 Charge =  0 Multiplicity = 1

                         Standard orientation:
 ---------------------------------------------------------------------
 Center     Atomic      Atomic             Coordinates (Angstroms)
 Number     Number       Type             X           Y           Z
 ---------------------------------------------------------------------
      1          6           0       -0.375968    1.587431   -0.418096
      2          1           0        0.318716    2.097174    0.248029
      3          1           0       -0.067744    1.666870   -1.461624
      4          1           0       -1.377685    2.001247   -0.291125
      5         16           0       -0.509307   -0.129452    0.057574
      6          8           0       -0.798272   -0.110194    1.479625
      7          7           0        1.016080   -0.795276   -0.144916
      8          1           0        1.021602   -1.273854   -1.041531
      9          8           0       -1.368323   -0.824222   -0.886955
     10          6           0        2.198110    0.055783    0.024621
     11          1           0        2.287819    0.842389   -0.733555
     12          1           0        2.175119    0.507549    1.018697
     13          1           0        3.078428   -0.587175   -0.026186
 ---------------------------------------------------------------------

 SCF Done:  E(RHF) =  -683.027213658     A.U. after    2 cycles

 The electronic state is 1-A.
 Alpha  occ. eigenvalues --  -75.89720 -21.04530 -21.03859 -15.77127 -13.51683
 Alpha  occ. eigenvalues --  -13.42431 -13.34759 -11.42941 -11.42480  -8.24850
 Alpha  occ. eigenvalues --   -1.83243  -1.64847  -1.40805  -1.14414  -1.03406
 Alpha  occ. eigenvalues --   -0.87919  -0.69984  -0.66635  -0.63949  -0.63406
 Alpha  occ. eigenvalues --   -0.59804  -0.56843  -0.53669  -0.44970  -0.41083
 Alpha  occ. eigenvalues --   -0.39485  -0.37483  -0.36950  -0.34849
 Alpha virt. eigenvalues --    0.02117   0.03875   0.04844   0.05275   0.06524
 Alpha virt. eigenvalues --    0.06808   0.07804   0.10733   0.11099   0.12218
 Alpha virt. eigenvalues --    0.13033   0.14505   0.14926   0.15295   0.16141

 Mulliken charges:
               1
     1  C   -4.595196
     2  H    1.294157
     3  H    1.376613
     4  H    1.300188
     5  S    7.085268
     6  O   -2.541997
     7  N   -2.645622
     8  H    0.511989
     9  O   -2.578169
    10  C   -3.307927
    11  H    1.401503
    12  H    1.416002
    13  H    1.283191
 Sum of Mulliken charges =  -0.00000

 Dipole moment (field-independent basis, Debye):
    X=              2.6310    Y=              1.5533    Z=             -1.4030  Tot=              3.3621

 Test job not archived.
 1\1\GINC-SE021\SP\RHF\Aug-CC-pVDZ\C2H7N1O2S1\OHZDE\09-Apr-2025\0\\#t h
 f aug-cc-pvdz iop(5/13=1,5/36=2,99/5=2) pseudo=read geom=check guess=(
 read,tcheck) scf=(maxcycle=1)\\title\\0,1\C,0,-1.1708,-1.3749,-0.6099\
 H,0,-0.9664,-0.7558,0.2625\H,0,-0.5173,-1.1233,-1.4465\H,0,-2.2156,-1.
 2622,-0.904\S,0,-0.9842,-3.0981,-0.1769\O,0,-1.7962,-3.2831,1.0116\N,0
 ,0.6205,-3.3031,0.2636\H,0,1.1104,-3.6815,-0.5425\O,0,-1.1716,-3.9148,
 -1.3646\C,0,1.348,-2.1807,0.8646\H,0,1.4978,-1.336,0.1822\H,0,0.8125,-
 1.8413,1.7539\H,0,2.322,-2.5527,1.1869\\Version=ES64L-G16RevC.01\State

 Normal termination of Gaussian 16 at Wed Apr  9 02:23:27 2025.
