 Gaussian 16, Revision C.01,

 ----------------------------------------------------------------------
 #t hf aug-cc-pvdz symm=none int=(grid=ultrafine) guess=(read,tcheck) s
 table=(opt,rrhf)
 ----------------------------------------------------------------------
 -----
 title
 -----
 Symbolic Z-matrix:
 Charge =  0 Multiplicity = 1

 SCF Done:  E(RHF) =  -796.892191690     A.U. after   16 cycles
 Normal termination of Gaussian 16 at Wed Apr  9 02:30:52 2025.
 Gaussian 16:  ES64L-G16RevC.01  3-Jul-2019

 ----------------------------------------------------------------------
 #t hf aug-cc-pvdz iop(5/13=1,5/36=2,99/5=2) pseudo=read geom=check gue
 ss=(read,tcheck) scf=(maxcycle=1)
 ----------------------------------------------------------------------
 -----
 title
 -----
 Structure from the checkpoint file:  "DCONF_52_-100_mol1.chk"
 Charge =  0 Multiplicity = 1

                         Standard orientation:
 ---------------------------------------------------------------------
 Center     Atomic      Atomic             Coordinates (Angstroms)
 Number     Number       Type             X           Y           Z
 ---------------------------------------------------------------------
      1          6           0       -1.457816    0.980075   -0.746043
      2          1           0       -0.940933    1.725254   -1.344087
      3          6           0       -2.851946    0.892389   -0.734546
      4          1           0       -3.455571    1.575131   -1.326484
      5          6           0       -3.447969   -0.096962    0.051865
      6          1           0       -4.527298   -0.209690    0.095684
      7          6           0       -2.621337   -0.950203    0.792048
      8          1           0       -3.052582   -1.730829    1.415751
      9          7           0       -1.279179   -0.874276    0.801032
     10          6           0       -0.711467    0.081105    0.033162
     11          6           0        1.516274    1.105954    0.797775
     12          1           0        1.065387    1.894063    1.391969
     13          6           0        2.911804    0.879615    0.672693
     14          1           0        3.677954    1.480497    1.150400
     15          6           0        3.195483   -0.212848   -0.127492
     16          1           0        4.165924   -0.605963   -0.402401
     17         16           0        1.766465   -0.952610   -0.718403
     18          6           0        0.759962    0.193080    0.078269
 ---------------------------------------------------------------------

 SCF Done:  E(RHF) =  -799.002215818     A.U. after    2 cycles

 The electronic state is 1-A.
 Alpha  occ. eigenvalues --  -75.71102 -15.74362 -13.18096 -13.15478 -13.03661
 Alpha  occ. eigenvalues --  -11.51785 -11.48124 -11.46771 -11.44631 -11.43796
 Alpha  occ. eigenvalues --  -11.41814 -11.41540 -11.38801 -11.37420  -8.05683
 Alpha  occ. eigenvalues --   -1.46285  -1.35467  -1.19100  -1.14120  -1.08155
 Alpha  occ. eigenvalues --   -1.03088  -0.89910  -0.89366  -0.79342  -0.77279
 Alpha  occ. eigenvalues --   -0.71886  -0.68485  -0.63366  -0.61278  -0.57050
 Alpha  occ. eigenvalues --   -0.55682  -0.54770  -0.51602  -0.49439  -0.47827
 Alpha  occ. eigenvalues --   -0.44711  -0.38735  -0.37056  -0.36333  -0.33416
 Alpha  occ. eigenvalues --   -0.30975  -0.26592
 Alpha virt. eigenvalues --    0.03015   0.04448   0.05235   0.05315   0.05636
 Alpha virt. eigenvalues --    0.06035   0.06711   0.08521   0.09594   0.10195
 Alpha virt. eigenvalues --    0.10351   0.10993   0.11569   0.12366   0.12508

 Mulliken charges:
               1
     1  C   -2.465801
     2  H    1.763820
     3  C   -0.018464
     4  H    1.568674
     5  C   -1.322156
     6  H    1.477690
     7  C   -1.118672
     8  H    1.643219
     9  N   -3.589366
    10  C    2.387710
    11  C   -3.426684
    12  H    1.650998
    13  C   -0.854410
    14  H    1.463030
    15  C   -3.724003
    16  H    1.306347
    17  S    1.192641
    18  C    2.065427
 Sum of Mulliken charges =  -0.00000

 Dipole moment (field-independent basis, Debye):
    X=             -1.4190    Y=             -0.5722    Z=             -1.8082  Tot=              2.3687

 Test job not archived.
 1\1\GINC-SE345\SP\RHF\Aug-CC-pVDZ\C9H7N1S1\OHZDE\09-Apr-2025\0\\#t hf
 aug-cc-pvdz iop(5/13=1,5/36=2,99/5=2) pseudo=read geom=check guess=(re
 ad,tcheck) scf=(maxcycle=1)\\title\\0,1\C,0,30.1873,-8.3608,-0.012\H,0
 ,30.7671,-7.4422,-0.023\C,0,28.7906,-8.3421,0.0053\H,0,28.2485,-7.4003
 ,0.0109\C,0,28.1108,-9.5629,0.0099\H,0,27.0256,-9.6051,0.0217\C,0,28.8
 603,-10.745,-0.0001\H,0,28.3628,-11.7129,0.0042\N,0,30.2041,-10.7823,-
 0.0067\C,0,30.8528,-9.5975,-0.0173\C,0,33.1506,-9.4471,1.1208\H,0,32.7
 607,-9.1905,2.1004\C,0,34.5241,-9.6346,0.8163\H,0,35.3329,-9.529,1.531

 Normal termination of Gaussian 16 at Wed Apr  9 02:31:03 2025.
