 Gaussian 16, Revision C.01,

 ----------------------------------------------------------------------
 #t hf aug-cc-pvdz symm=none int=(grid=ultrafine) guess=(read,tcheck) s
 table=(opt,rrhf)
 ----------------------------------------------------------------------
 -----
 title
 -----
 Symbolic Z-matrix:
 Charge =  0 Multiplicity = 1

 SCF Done:  E(RHF) =  -719.109527197     A.U. after   16 cycles
 Normal termination of Gaussian 16 at Wed Apr  9 02:25:41 2025.
 Gaussian 16:  ES64L-G16RevC.01  3-Jul-2019

 ----------------------------------------------------------------------
 #t hf aug-cc-pvdz iop(5/13=1,5/36=2,99/5=2) pseudo=read geom=check gue
 ss=(read,tcheck) scf=(maxcycle=1)
 ----------------------------------------------------------------------
 -----
 title
 -----
 Structure from the checkpoint file:  "DCONF_28_100_mol1.chk"
 Charge =  0 Multiplicity = 1

                         Standard orientation:
 ---------------------------------------------------------------------
 Center     Atomic      Atomic             Coordinates (Angstroms)
 Number     Number       Type             X           Y           Z
 ---------------------------------------------------------------------
      1          8           0        2.138527    0.456716   -1.210099
      2          6           0        2.360413   -0.340283    1.054646
      3          1           0        2.135869    0.332490    1.889050
      4          1           0        2.016581   -1.339855    1.341700
      5          1           0        3.432730   -0.352919    0.853969
      6          6           0        1.607498    0.128881   -0.164780
      7          7           0       -0.523380    1.342833    0.207201
      8          6           0       -1.876869    1.130685    0.245387
      9          1           0       -2.543587    1.965593    0.426082
     10          6           0       -2.282100   -0.171995    0.043674
     11          1           0       -3.287922   -0.569347    0.021624
     12         16           0       -0.917738   -1.175511   -0.202490
     13          6           0        0.105322    0.205824   -0.022626
 ---------------------------------------------------------------------

 SCF Done:  E(RHF) =  -720.787810514     A.U. after    2 cycles

 The electronic state is 1-A.
 Alpha  occ. eigenvalues --  -75.74120 -21.07441 -15.76084 -13.20308 -13.18661
 Alpha  occ. eigenvalues --  -13.06279 -11.52165 -11.46256 -11.45713 -11.40828
 Alpha  occ. eigenvalues --  -11.40087  -8.08744  -1.72173  -1.48735  -1.20100
 Alpha  occ. eigenvalues --   -1.15506  -1.07815  -0.89979  -0.82286  -0.72580
 Alpha  occ. eigenvalues --   -0.69212  -0.61474  -0.61104  -0.59321  -0.54818
 Alpha  occ. eigenvalues --   -0.53689  -0.49757  -0.44186  -0.42858  -0.37643
 Alpha  occ. eigenvalues --   -0.35501  -0.30541  -0.29162
 Alpha virt. eigenvalues --    0.02820   0.03946   0.05311   0.05966   0.06575
 Alpha virt. eigenvalues --    0.07682   0.09168   0.09763   0.10023   0.11335
 Alpha virt. eigenvalues --    0.12201   0.12691   0.13126   0.13758   0.13905

 Mulliken charges:
               1
     1  O   -3.198878
     2  C   -4.204473
     3  H    1.345604
     4  H    1.370675
     5  H    1.286068
     6  C    3.541849
     7  N   -3.422458
     8  C    0.645958
     9  H    1.524238
    10  C   -2.509990
    11  H    1.196257
    12  S    1.316734
    13  C    1.108417
 Sum of Mulliken charges =  -0.00000

 Dipole moment (field-independent basis, Debye):
    X=             -1.1782    Y=             -3.5845    Z=              0.5192  Tot=              3.8087

 Test job not archived.
 1\1\GINC-SE339\SP\RHF\Aug-CC-pVDZ\C5H5N1O1S1\OHZDE\09-Apr-2025\0\\#t h
 f aug-cc-pvdz iop(5/13=1,5/36=2,99/5=2) pseudo=read geom=check guess=(
 read,tcheck) scf=(maxcycle=1)\\title\\0,1\O,0,21.4383,-17.8041,-1.0655
 \C,0,21.4361,-17.3999,1.3115\H,0,21.5663,-18.2392,2.0028\H,0,21.9601,-
 16.5399,1.7423\H,0,20.3767,-17.172,1.1849\C,0,22.0534,-17.7625,-0.0157
 \N,0,23.9482,-19.3631,0.0067\C,0,25.3184,-19.3911,-0.0061\H,0,25.8332,
 -20.3446,-0.0135\C,0,25.9399,-18.16,-0.0081\H,0,26.9987,-17.9394,-0.02
 63\S,0,24.7663,-16.9144,0.0083\C,0,23.5224,-18.1143,0.0149\\Version=ES

 Normal termination of Gaussian 16 at Wed Apr  9 02:25:46 2025.
