 Gaussian 16, Revision C.01,

 ----------------------------------------------------------------------
 #t hf aug-cc-pvdz symm=none int=(grid=ultrafine) guess=(read,tcheck) s
 table=(opt,rrhf)
 ----------------------------------------------------------------------
 -----
 title
 -----
 Symbolic Z-matrix:
 Charge =  0 Multiplicity = 1

 SCF Done:  E(RHF) =  -796.895218006     A.U. after   16 cycles
 Normal termination of Gaussian 16 at Wed Apr  9 02:31:03 2025.
 Gaussian 16:  ES64L-G16RevC.01  3-Jul-2019

 ----------------------------------------------------------------------
 #t hf aug-cc-pvdz iop(5/13=1,5/36=2,99/5=2) pseudo=read geom=check gue
 ss=(read,tcheck) scf=(maxcycle=1)
 ----------------------------------------------------------------------
 -----
 title
 -----
 Structure from the checkpoint file:  "DCONF_52_-50_mol1.chk"
 Charge =  0 Multiplicity = 1

                         Standard orientation:
 ---------------------------------------------------------------------
 Center     Atomic      Atomic             Coordinates (Angstroms)
 Number     Number       Type             X           Y           Z
 ---------------------------------------------------------------------
      1          6           0        1.346073   -1.043147    0.514456
      2          1           0        0.754333   -1.857607    0.922627
      3          6           0        2.739395   -1.113157    0.479839
      4          1           0        3.256767   -1.996524    0.844275
      5          6           0        3.451045   -0.019052   -0.019943
      6          1           0        4.536006   -0.022910   -0.065972
      7          6           0        2.730533    1.095198   -0.463741
      8          1           0        3.250774    1.966149   -0.857753
      9          7           0        1.389023    1.174052   -0.458184
     10          6           0        0.708771    0.115777    0.035625
     11          6           0       -1.523466    1.277018    0.503774
     12          1           0       -1.072953    2.190849    0.875676
     13          6           0       -2.914999    1.019191    0.431830
     14          1           0       -3.686903    1.713423    0.745667
     15          6           0       -3.192158   -0.238590   -0.075398
     16          1           0       -4.159363   -0.689056   -0.258585
     17         16           0       -1.758167   -1.088576   -0.475130
     18          6           0       -0.757051    0.222517    0.027467
 ---------------------------------------------------------------------

 SCF Done:  E(RHF) =  -799.004622459     A.U. after    2 cycles

 The electronic state is 1-A.
 Alpha  occ. eigenvalues --  -75.71420 -15.74095 -13.18485 -13.16196 -13.04194
 Alpha  occ. eigenvalues --  -11.51484 -11.48463 -11.46608 -11.44554 -11.43964
 Alpha  occ. eigenvalues --  -11.41765 -11.41616 -11.38860 -11.37715  -8.06002
 Alpha  occ. eigenvalues --   -1.46309  -1.35577  -1.19031  -1.14227  -1.08377
 Alpha  occ. eigenvalues --   -1.03091  -0.90058  -0.89322  -0.79464  -0.77171
 Alpha  occ. eigenvalues --   -0.72020  -0.68425  -0.63449  -0.61040  -0.57010
 Alpha  occ. eigenvalues --   -0.55742  -0.54830  -0.51331  -0.49727  -0.47492
 Alpha  occ. eigenvalues --   -0.44874  -0.38911  -0.36986  -0.36360  -0.35488
 Alpha  occ. eigenvalues --   -0.29426  -0.26920
 Alpha virt. eigenvalues --    0.03097   0.04272   0.05286   0.05361   0.05699
 Alpha virt. eigenvalues --    0.06585   0.06686   0.08516   0.09435   0.09709
 Alpha virt. eigenvalues --    0.10242   0.10589   0.12278   0.12370   0.12984

 Mulliken charges:
               1
     1  C   -2.419042
     2  H    1.809400
     3  C   -0.312847
     4  H    1.554793
     5  C   -1.424104
     6  H    1.464984
     7  C   -0.916434
     8  H    1.663308
     9  N   -3.991653
    10  C    3.223411
    11  C   -3.679296
    12  H    1.578305
    13  C   -1.019569
    14  H    1.427213
    15  C   -3.932816
    16  H    1.291475
    17  S    1.271017
    18  C    2.411855
 Sum of Mulliken charges =  -0.00000

 Dipole moment (field-independent basis, Debye):
    X=              1.0683    Y=             -2.8531    Z=             -0.1077  Tot=              3.0485

 Test job not archived.
 1\1\GINC-SE080\SP\RHF\Aug-CC-pVDZ\C9H7N1S1\OHZDE\09-Apr-2025\0\\#t hf
 aug-cc-pvdz iop(5/13=1,5/36=2,99/5=2) pseudo=read geom=check guess=(re
 ad,tcheck) scf=(maxcycle=1)\\title\\0,1\C,0,30.1839,-8.3557,0.0077\H,0
 ,30.7517,-7.4301,0.0389\C,0,28.7885,-8.3437,-0.0049\H,0,28.2447,-7.402
 9,-0.0038\C,0,28.1099,-9.5655,-0.0051\H,0,27.0249,-9.6102,-0.0123\C,0,
 28.864,-10.744,0.0058\H,0,28.3701,-11.7138,0.0076\N,0,30.2074,-10.7771
 ,-0.003\C,0,30.8559,-9.5914,0.007\C,0,33.1403,-10.4085,0.8221\H,0,32.7
 33,-11.111,1.5411\C,0,34.5191,-10.1623,0.6069\H,0,35.3234,-10.6528,1.1

 Normal termination of Gaussian 16 at Wed Apr  9 02:31:14 2025.
