 Gaussian 16, Revision C.01,

 ----------------------------------------------------------------------
 #t hf aug-cc-pvdz symm=none int=(grid=ultrafine) guess=(read,tcheck) s
 table=(opt,rrhf)
 ----------------------------------------------------------------------
 -----
 title
 -----
 Symbolic Z-matrix:
 Charge =  0 Multiplicity = 1

 SCF Done:  E(RHF) =  -575.152710856     A.U. after   16 cycles
 Normal termination of Gaussian 16 at Wed Apr  9 02:33:17 2025.
 Gaussian 16:  ES64L-G16RevC.01  3-Jul-2019

 ----------------------------------------------------------------------
 #t hf aug-cc-pvdz iop(5/13=1,5/36=2,99/5=2) pseudo=read geom=check gue
 ss=(read,tcheck) scf=(maxcycle=1)
 ----------------------------------------------------------------------
 -----
 title
 -----
 Structure from the checkpoint file:  "DCONF_48_-20_mol1.chk"
 Charge =  0 Multiplicity = 1

                         Standard orientation:
 ---------------------------------------------------------------------
 Center     Atomic      Atomic             Coordinates (Angstroms)
 Number     Number       Type             X           Y           Z
 ---------------------------------------------------------------------
      1          6           0        1.622986   -1.276444    0.379524
      2          1           0        1.137015   -2.177733    0.739412
      3          6           0        3.015439   -1.204325    0.327994
      4          1           0        3.621850   -2.055087    0.626765
      5          6           0        3.608079   -0.008485   -0.085395
      6          1           0        4.687229    0.102033   -0.136787
      7          6           0        2.770399    1.060418   -0.421106
      8          1           0        3.192566    2.014709   -0.730705
      9          7           0        1.429882    1.005796   -0.383065
     10          6           0        0.858593   -0.162500   -0.019935
     11          6           0       -2.675230   -1.543830   -0.237913
     12          1           0       -3.142661   -2.507789   -0.416185
     13          6           0       -1.283445   -1.443854   -0.196832
     14          1           0       -0.687068   -2.337408   -0.357333
     15          6           0       -0.623083   -0.218674    0.037449
     16          6           0       -1.443831    0.919560    0.139269
     17          6           0       -2.834879    0.842687    0.095939
     18          1           0       -3.405336    1.759977    0.206887
     19          6           0       -3.457430   -0.390684   -0.109443
     20          1           0       -4.541413   -0.448889   -0.151203
     21          9           0       -0.912994    2.129600    0.382589
 ---------------------------------------------------------------------

 SCF Done:  E(RHF) =  -577.733941253     A.U. after    2 cycles

 The electronic state is 1-A.
 Alpha  occ. eigenvalues --  -29.27309 -15.73528 -11.53768 -11.51108 -11.47981
 Alpha  occ. eigenvalues --  -11.46926 -11.44492 -11.44191 -11.42962 -11.41876
 Alpha  occ. eigenvalues --  -11.41616 -11.39113 -11.38096  -1.46084  -1.35537
 Alpha  occ. eigenvalues --   -1.19040  -1.16102  -1.14643  -1.07195  -0.93770
 Alpha  occ. eigenvalues --   -0.91186  -0.88008  -0.85203  -0.76436  -0.71971
 Alpha  occ. eigenvalues --   -0.68146  -0.64327  -0.63026  -0.60790  -0.58801
 Alpha  occ. eigenvalues --   -0.58621  -0.56589  -0.54362  -0.52643  -0.49856
 Alpha  occ. eigenvalues --   -0.47566  -0.45237  -0.41287  -0.38971  -0.37728
 Alpha  occ. eigenvalues --   -0.36247  -0.35802  -0.30963  -0.24712  -0.22101
 Alpha virt. eigenvalues --    0.03197   0.04663   0.05205   0.05290   0.05687
 Alpha virt. eigenvalues --    0.06034   0.06638   0.07287   0.08919   0.09345
 Alpha virt. eigenvalues --    0.09689   0.10295   0.11832   0.12059   0.12249

 Mulliken charges:
               1
     1  C   -2.569766
     2  H    1.793618
     3  C   -0.658934
     4  H    1.507756
     5  C   -1.523219
     6  H    1.473888
     7  C   -1.010473
     8  H    1.694624
     9  N   -3.867399
    10  C    1.726064
    11  C   -3.317222
    12  H    1.432289
    13  C   -1.293342
    14  H    1.894330
    15  C    0.185333
    16  C    5.016225
    17  C   -4.980078
    18  H    1.751825
    19  C   -1.506879
    20  H    1.506516
    21  F    0.744844
 Sum of Mulliken charges =   0.00000

 Dipole moment (field-independent basis, Debye):
    X=              1.7110    Y=              0.9364    Z=              0.6524  Tot=              2.0567

 Test job not archived.
 1\1\GINC-SE059\SP\RHF\Aug-CC-pVDZ\C11H8F1N1\OHZDE\09-Apr-2025\0\\#t hf
  aug-cc-pvdz iop(5/13=1,5/36=2,99/5=2) pseudo=read geom=check guess=(r
 ead,tcheck) scf=(maxcycle=1)\\title\\0,1\C,0,21.8522,-32.1101,0.5015\H
 ,0,22.4109,-31.3277,1.0052\C,0,20.4619,-32.0322,0.4133\H,0,19.9312,-31
 .1796,0.8283\C,0,19.7703,-33.0853,-0.1907\H,0,18.6879,-33.0769,-0.2788
 \C,0,20.5111,-34.1702,-0.6715\H,0,20.009,-35.0188,-1.1325\N,0,21.8485,
 -34.258,-0.6003\C,0,22.5179,-33.2222,-0.0506\C,0,26.1746,-32.1888,0.01
 36\H,0,26.7393,-31.2613,-0.005\C,0,24.7791,-32.1524,0.0126\H,0,24.2782

 Normal termination of Gaussian 16 at Wed Apr  9 02:33:33 2025.
