 Gaussian 16, Revision C.01,

 ----------------------------------------------------------------------
 #t hf aug-cc-pvdz symm=none int=(grid=ultrafine) guess=(read,tcheck) s
 table=(opt,rrhf)
 ----------------------------------------------------------------------
 -----
 title
 -----
 Symbolic Z-matrix:
 Charge =  0 Multiplicity = 1

 SCF Done:  E(RHF) =  -812.895256103     A.U. after   16 cycles
 Normal termination of Gaussian 16 at Wed Apr  9 02:31:51 2025.
 Gaussian 16:  ES64L-G16RevC.01  3-Jul-2019

 ----------------------------------------------------------------------
 #t hf aug-cc-pvdz iop(5/13=1,5/36=2,99/5=2) pseudo=read geom=check gue
 ss=(read,tcheck) scf=(maxcycle=1)
 ----------------------------------------------------------------------
 -----
 title
 -----
 Structure from the checkpoint file:  "DCONF_56_-100_mol1.chk"
 Charge =  0 Multiplicity = 1

                         Standard orientation:
 ---------------------------------------------------------------------
 Center     Atomic      Atomic             Coordinates (Angstroms)
 Number     Number       Type             X           Y           Z
 ---------------------------------------------------------------------
      1          6           0       -1.439057    1.026695   -0.686611
      2          1           0       -0.924279    1.817603   -1.224156
      3          6           0       -2.832619    0.936662   -0.673212
      4          1           0       -3.440127    1.657899   -1.212878
      5          6           0       -3.424181   -0.102292    0.050580
      6          1           0       -4.503289   -0.216217    0.093833
      7          6           0       -2.595713   -1.001323    0.731877
      8          1           0       -3.024263   -1.818588    1.308442
      9          7           0       -1.253389   -0.926559    0.736927
     10          6           0       -0.696532    0.075201    0.027073
     11          7           0        1.414150    1.051232    0.863321
     12          6           0        2.766811    0.868395    0.758625
     13          1           0        3.437175    1.501931    1.328189
     14          6           0        3.169851   -0.146537   -0.086871
     15          1           0        4.176696   -0.463141   -0.324554
     16         16           0        1.800003   -0.901284   -0.777706
     17          6           0        0.776892    0.187925    0.090653
 ---------------------------------------------------------------------

 SCF Done:  E(RHF) =  -815.050182592     A.U. after    2 cycles

 The electronic state is 1-A.
 Alpha  occ. eigenvalues --  -75.72457 -15.75029 -15.74544 -13.18885 -13.17172
 Alpha  occ. eigenvalues --  -13.05050 -11.52185 -11.47618 -11.45365 -11.44929
 Alpha  occ. eigenvalues --  -11.44843 -11.42265 -11.39458 -11.38986  -8.07090
 Alpha  occ. eigenvalues --   -1.50156  -1.42850  -1.19668  -1.18540  -1.15515
 Alpha  occ. eigenvalues --   -1.05710  -0.91450  -0.89951  -0.82049  -0.78061
 Alpha  occ. eigenvalues --   -0.71108  -0.68973  -0.64098  -0.62201  -0.57669
 Alpha  occ. eigenvalues --   -0.56980  -0.55240  -0.53253  -0.51379  -0.47244
 Alpha  occ. eigenvalues --   -0.42538  -0.37695  -0.37403  -0.36094  -0.34171
 Alpha  occ. eigenvalues --   -0.33276  -0.28674
 Alpha virt. eigenvalues --    0.03002   0.04140   0.05188   0.05343   0.05742
 Alpha virt. eigenvalues --    0.06654   0.07664   0.09448   0.09767   0.10141
 Alpha virt. eigenvalues --    0.11065   0.11160   0.11832   0.12292   0.12508

 Mulliken charges:
               1
     1  C   -2.141660
     2  H    1.711505
     3  C   -0.033631
     4  H    1.564077
     5  C   -1.120839
     6  H    1.477182
     7  C   -1.247118
     8  H    1.634405
     9  N   -3.498639
    10  C    2.519722
    11  N   -3.729091
    12  C    0.988635
    13  H    1.583852
    14  C   -2.912790
    15  H    1.256099
    16  S    0.936146
    17  C    1.012143
 Sum of Mulliken charges =   0.00000

 Dipole moment (field-independent basis, Debye):
    X=             -0.9799    Y=             -1.5131    Z=             -2.8008  Tot=              3.3308

 Test job not archived.
 1\1\GINC-SE090\SP\RHF\Aug-CC-pVDZ\C8H6N2S1\OHZDE\09-Apr-2025\0\\#t hf
 aug-cc-pvdz iop(5/13=1,5/36=2,99/5=2) pseudo=read geom=check guess=(re
 ad,tcheck) scf=(maxcycle=1)\\title\\0,1\C,0,30.1261,-21.0954,-0.0138\H
 ,0,30.7064,-20.1774,-0.0101\C,0,28.7298,-21.0797,0.0062\H,0,28.1859,-2
 0.1392,0.0172\C,0,28.0518,-22.3018,0.0119\H,0,26.9668,-22.3446,0.0282\
 C,0,28.8007,-23.4841,0.002\H,0,28.304,-24.4522,0.0107\N,0,30.1446,-23.
 5194,-0.0097\C,0,30.7849,-22.3331,-0.0243\N,0,32.9646,-22.1808,1.1301\
 C,0,34.2982,-22.3605,0.8785\H,0,35.0156,-22.229,1.6805\C,0,34.6206,-22

 Normal termination of Gaussian 16 at Wed Apr  9 02:32:01 2025.
