 Gaussian 16, Revision C.01,

 ----------------------------------------------------------------------
 #t hf aug-cc-pvdz symm=none int=(grid=ultrafine) guess=(read,tcheck) s
 table=(opt,rrhf)
 ----------------------------------------------------------------------
 -----
 title
 -----
 Symbolic Z-matrix:
 Charge =  0 Multiplicity = 1

 SCF Done:  E(RHF) =  -719.117758819     A.U. after   16 cycles
 Normal termination of Gaussian 16 at Wed Apr  9 02:25:41 2025.
 Gaussian 16:  ES64L-G16RevC.01  3-Jul-2019

 ----------------------------------------------------------------------
 #t hf aug-cc-pvdz iop(5/13=1,5/36=2,99/5=2) pseudo=read geom=check gue
 ss=(read,tcheck) scf=(maxcycle=1)
 ----------------------------------------------------------------------
 -----
 title
 -----
 Structure from the checkpoint file:  "DCONF_28_-40_mol1.chk"
 Charge =  0 Multiplicity = 1

                         Standard orientation:
 ---------------------------------------------------------------------
 Center     Atomic      Atomic             Coordinates (Angstroms)
 Number     Number       Type             X           Y           Z
 ---------------------------------------------------------------------
      1          8           0       -1.964315   -1.232172   -0.505342
      2          6           0       -2.504947    0.942811    0.388042
      3          1           0       -2.210302    1.913629   -0.017451
      4          1           0       -3.534868    0.700630    0.123105
      5          1           0       -2.404622    0.999139    1.477265
      6          6           0       -1.582385   -0.140145   -0.108720
      7          7           0        0.410418    1.337794   -0.234453
      8          6           0        1.769897    1.253390   -0.212103
      9          1           0        2.367630    2.140670   -0.386521
     10          6           0        2.283265   -0.008470    0.037473
     11          1           0        3.320916   -0.301465    0.128177
     12         16           0        1.015548   -1.133025    0.228834
     13          6           0       -0.123484    0.147183    0.011639
 ---------------------------------------------------------------------

 SCF Done:  E(RHF) =  -720.797513058     A.U. after    2 cycles

 The electronic state is 1-A.
 Alpha  occ. eigenvalues --  -75.74059 -21.06679 -15.76814 -13.20215 -13.18481
 Alpha  occ. eigenvalues --  -13.05932 -11.51935 -11.46543 -11.45116 -11.41063
 Alpha  occ. eigenvalues --  -11.39258  -8.08659  -1.71838  -1.49022  -1.20313
 Alpha  occ. eigenvalues --   -1.15175  -1.07217  -0.90164  -0.82255  -0.72873
 Alpha  occ. eigenvalues --   -0.68985  -0.61096  -0.60855  -0.59107  -0.55988
 Alpha  occ. eigenvalues --   -0.50909  -0.49276  -0.44834  -0.43201  -0.37884
 Alpha  occ. eigenvalues --   -0.34829  -0.31105  -0.28719
 Alpha virt. eigenvalues --    0.02780   0.04459   0.05168   0.06345   0.06937
 Alpha virt. eigenvalues --    0.07871   0.08788   0.09578   0.10279   0.11541
 Alpha virt. eigenvalues --    0.11623   0.12188   0.13095   0.13445   0.13693

 Mulliken charges:
               1
     1  O   -3.188182
     2  C   -4.375058
     3  H    1.379132
     4  H    1.252433
     5  H    1.284572
     6  C    3.984881
     7  N   -3.482416
     8  C    0.624049
     9  H    1.528694
    10  C   -2.537627
    11  H    1.210959
    12  S    1.586745
    13  C    0.731818
 Sum of Mulliken charges =   0.00000

 Dipole moment (field-independent basis, Debye):
    X=              1.4079    Y=             -2.2978    Z=              0.8929  Tot=              2.8389

 Test job not archived.
 1\1\GINC-SE292\SP\RHF\Aug-CC-pVDZ\C5H5N1O1S1\OHZDE\09-Apr-2025\0\\#t h
 f aug-cc-pvdz iop(5/13=1,5/36=2,99/5=2) pseudo=read geom=check guess=(
 read,tcheck) scf=(maxcycle=1)\\title\\0,1\O,0,21.7565,-16.7151,0.625\C
 ,0,21.1066,-18.6531,-0.6567\H,0,21.3129,-19.6995,-0.4196\H,0,20.085,-1
 8.3816,-0.388\H,0,21.2536,-18.5268,-1.7347\C,0,22.0788,-17.7478,0.0546
 \N,0,23.9546,-19.375,-0.0159\C,0,25.3162,-19.3936,0.0229\H,0,25.8412,-
 20.3413,0.0577\C,0,25.9282,-18.1512,0.0179\H,0,26.987,-17.9282,0.0155\
 S,0,24.7531,-16.9157,-0.0142\C,0,23.5179,-18.122,-0.0654\\Version=ES64

 Normal termination of Gaussian 16 at Wed Apr  9 02:25:46 2025.
