 Gaussian 16, Revision C.01,

 ----------------------------------------------------------------------
 #t hf aug-cc-pvdz symm=none int=(grid=ultrafine) guess=(read,tcheck) s
 table=(opt,rrhf)
 ----------------------------------------------------------------------
 -----
 title
 -----
 Symbolic Z-matrix:
 Charge =  0 Multiplicity = 1

 SCF Done:  E(RHF) =  -780.897109771     A.U. after   17 cycles

 1\1\GINC-SE338\Stability\RHF\Aug-CC-pVDZ\C10H8S1\OHZDE\09-Apr-2025\0\\
 #t hf aug-cc-pvdz symm=none int=(grid=ultrafine) guess=(read,tcheck) s
 table=(opt,rrhf)\\title\\0,1\C,0,21.768,-10.943,0.0094\H,0,22.2864,-11
 .8992,0.0171\C,0,20.3708,-10.9307,-0.0073\H,0,19.8267,-11.8715,0.0099\
 C,0,19.6756,-9.7161,0.0123\H,0,18.5892,-9.7047,0.0096\C,0,20.3961,-8.5
 154,-0.0009\H,0,19.8706,-7.564,0.015\C,0,21.793,-8.5287,0.0029\H,0,22.
 3315,-7.5855,-0.02\C,0,22.5064,-9.7436,-0.0375\C,0,24.8396,-8.6618,0.1
 176\H,0,24.4966,-7.6467,0.2839\C,0,26.2059,-9.0207,0.0168\H,0,27.0312,

 Normal termination of Gaussian 16 at Wed Apr  9 02:31:19 2025.
 Gaussian 16:  ES64L-G16RevC.01  3-Jul-2019

 ----------------------------------------------------------------------
 #t hf aug-cc-pvdz iop(5/13=1,5/36=2,99/5=2) pseudo=read geom=check gue
 ss=(read,tcheck) scf=(maxcycle=1)
 ----------------------------------------------------------------------
 -----
 title
 -----
 Structure from the checkpoint file:  "DCONF_51_0_mol1.chk"
 Charge =  0 Multiplicity = 1

                         Standard orientation:
 ---------------------------------------------------------------------
 Center     Atomic      Atomic             Coordinates (Angstroms)
 Number     Number       Type             X           Y           Z
 ---------------------------------------------------------------------
      1          6           0       -1.334065   -1.136340    0.109073
      2          1           0       -0.747219   -2.048335    0.192701
      3          6           0       -2.727681   -1.229666    0.067552
      4          1           0       -3.201548   -2.205090    0.141322
      5          6           0       -3.510372   -0.071944   -0.010002
      6          1           0       -4.594349   -0.141977   -0.032158
      7          6           0       -2.879779    1.175497   -0.094975
      8          1           0       -3.473879    2.083805   -0.154851
      9          6           0       -1.486101    1.266919   -0.066255
     10          1           0       -1.017866    2.243922   -0.145975
     11          6           0       -0.684777    0.108831   -0.009113
     12          6           0        1.558731    1.370058    0.109816
     13          1           0        1.138562    2.365701    0.198617
     14          6           0        2.949587    1.108198    0.057915
     15          1           0        3.719414    1.870925    0.100959
     16          6           0        3.224892   -0.242610   -0.049489
     17          1           0        4.190708   -0.729867   -0.087874
     18         16           0        1.791032   -1.177463   -0.084324
     19          6           0        0.777844    0.217777    0.074888
 ---------------------------------------------------------------------

 SCF Done:  E(RHF) =  -782.963137842     A.U. after    2 cycles

 The electronic state is 1-A.
 Alpha  occ. eigenvalues --  -75.71266 -13.18693 -13.16226 -13.03411 -11.52311
 Alpha  occ. eigenvalues --  -11.48230 -11.45849 -11.43880 -11.43279 -11.42723
 Alpha  occ. eigenvalues --  -11.41311 -11.41228 -11.39769 -11.37081  -8.05870
 Alpha  occ. eigenvalues --   -1.40228  -1.31286  -1.12809  -1.09818  -1.07922
 Alpha  occ. eigenvalues --   -1.01956  -0.88051  -0.86712  -0.78929  -0.76410
 Alpha  occ. eigenvalues --   -0.72388  -0.68428  -0.63246  -0.58516  -0.57575
 Alpha  occ. eigenvalues --   -0.55682  -0.53230  -0.50976  -0.48707  -0.47290
 Alpha  occ. eigenvalues --   -0.44402  -0.43594  -0.37772  -0.37284  -0.33192
 Alpha  occ. eigenvalues --   -0.28133  -0.26318
 Alpha virt. eigenvalues --    0.03168   0.04309   0.04863   0.05429   0.05971
 Alpha virt. eigenvalues --    0.06518   0.06905   0.07854   0.08439   0.09340
 Alpha virt. eigenvalues --    0.10174   0.11161   0.11362   0.12622   0.13226

 Mulliken charges:
               1
     1  C   -1.260242
     2  H    1.936788
     3  C   -3.164596
     4  H    1.449752
     5  C   -2.681313
     6  H    1.511896
     7  C   -3.560372
     8  H    1.405825
     9  C   -1.449557
    10  H    1.979453
    11  C    4.917308
    12  C   -3.122374
    13  H    1.447799
    14  C   -2.457148
    15  H    1.402175
    16  C   -4.728848
    17  H    1.189952
    18  S    1.820914
    19  C    3.362587
 Sum of Mulliken charges =  -0.00000

 Dipole moment (field-independent basis, Debye):
    X=             -0.2784    Y=             -1.7629    Z=             -0.2290  Tot=              1.7994

 Test job not archived.
 1\1\GINC-SE338\SP\RHF\Aug-CC-pVDZ\C10H8S1\OHZDE\09-Apr-2025\0\\#t hf a
 ug-cc-pvdz iop(5/13=1,5/36=2,99/5=2) pseudo=read geom=check guess=(rea
 d,tcheck) scf=(maxcycle=1)\\title\\0,1\C,0,21.768,-10.943,0.0094\H,0,2
 2.2864,-11.8992,0.0171\C,0,20.3708,-10.9307,-0.0073\H,0,19.8267,-11.87
 15,0.0099\C,0,19.6756,-9.7161,0.0123\H,0,18.5892,-9.7047,0.0096\C,0,20
 .3961,-8.5154,-0.0009\H,0,19.8706,-7.564,0.015\C,0,21.793,-8.5287,0.00
 29\H,0,22.3315,-7.5855,-0.02\C,0,22.5064,-9.7436,-0.0375\C,0,24.8396,-
 8.6618,0.1176\H,0,24.4966,-7.6467,0.2839\C,0,26.2059,-9.0207,0.0168\H,

 Normal termination of Gaussian 16 at Wed Apr  9 02:31:31 2025.
