 Gaussian 16, Revision C.01,

 ----------------------------------------------------------------------
 #t hf aug-cc-pvdz symm=none int=(grid=ultrafine) guess=(read,tcheck) s
 table=(opt,rrhf)
 ----------------------------------------------------------------------
 -----
 title
 -----
 Symbolic Z-matrix:
 Charge =  0 Multiplicity = 1

 SCF Done:  E(RHF) =  -758.168062939     A.U. after   16 cycles
 Normal termination of Gaussian 16 at Wed Apr  9 02:27:41 2025.
 Gaussian 16:  ES64L-G16RevC.01  3-Jul-2019

 ----------------------------------------------------------------------
 #t hf aug-cc-pvdz iop(5/13=1,5/36=2,99/5=2) pseudo=read geom=check gue
 ss=(read,tcheck) scf=(maxcycle=1)
 ----------------------------------------------------------------------
 -----
 title
 -----
 Structure from the checkpoint file:  "DCONF_38_0_mol2.chk"
 Charge =  0 Multiplicity = 1

                         Standard orientation:
 ---------------------------------------------------------------------
 Center     Atomic      Atomic             Coordinates (Angstroms)
 Number     Number       Type             X           Y           Z
 ---------------------------------------------------------------------
      1          6           0        2.015703   -0.094713   -0.029936
      2          7           0        0.987940    0.820080   -0.040971
      3          1           0        1.217159    1.797713    0.070869
      4          6           0       -1.396864    1.446389   -0.033630
      5          1           0       -1.216279    2.515960   -0.067890
      6          6           0       -2.680123    0.842548    0.003749
      7          1           0       -3.613578    1.393811    0.000237
      8          6           0       -2.606387   -0.534903    0.035667
      9          1           0       -3.421283   -1.246659    0.057460
     10         16           0       -0.985575   -1.108523    0.025766
     11          6           0       -0.377679    0.507569   -0.021922
     12          8           0        1.811387   -1.300117   -0.083465
     13          6           0        3.401681    0.505937    0.072920
     14          1           0        3.426503    1.570382   -0.172223
     15          1           0        4.064284   -0.038625   -0.601407
     16          1           0        3.767747    0.367199    1.094136
 ---------------------------------------------------------------------

 SCF Done:  E(RHF) =  -760.053902268     A.U. after    2 cycles

 The electronic state is 1-A.
 Alpha  occ. eigenvalues --  -75.70960 -21.03507 -15.79591 -13.18226 -13.15241
 Alpha  occ. eigenvalues --  -13.02741 -11.51771 -11.49140 -11.44553 -11.40884
 Alpha  occ. eigenvalues --  -11.40273 -11.37050  -8.05437  -1.71639  -1.44886
 Alpha  occ. eigenvalues --   -1.31798  -1.11793  -1.08380  -1.01964  -0.85066
 Alpha  occ. eigenvalues --   -0.79623  -0.76760  -0.71140  -0.65434  -0.62809
 Alpha  occ. eigenvalues --   -0.59874  -0.55401  -0.54110  -0.50939  -0.49586
 Alpha  occ. eigenvalues --   -0.47636  -0.45798  -0.39270  -0.37665  -0.29309
 Alpha  occ. eigenvalues --   -0.27202  -0.26038
 Alpha virt. eigenvalues --    0.02761   0.04182   0.05048   0.05394   0.06037
 Alpha virt. eigenvalues --    0.06453   0.07638   0.09376   0.09615   0.11396
 Alpha virt. eigenvalues --    0.11693   0.12362   0.13111   0.13510   0.13776

 Mulliken charges:
               1
     1  C    4.374718
     2  N   -4.249585
     3  H    0.823399
     4  C   -3.071692
     5  H    1.669402
     6  C   -0.104576
     7  H    1.492662
     8  C   -3.774757
     9  H    1.294232
    10  S    2.063429
    11  C    3.176179
    12  O   -3.103558
    13  C   -4.484269
    14  H    1.376258
    15  H    1.216288
    16  H    1.301870
 Sum of Mulliken charges =   0.00000

 Dipole moment (field-independent basis, Debye):
    X=              1.9586    Y=             -0.0206    Z=              0.2252  Tot=              1.9716

 Test job not archived.
 1\1\GINC-SE143\SP\RHF\Aug-CC-pVDZ\C6H7N1O1S1\OHZDE\09-Apr-2025\0\\#t h
 f aug-cc-pvdz iop(5/13=1,5/36=2,99/5=2) pseudo=read geom=check guess=(
 read,tcheck) scf=(maxcycle=1)\\title\\0,1\C,0,29.0938,-3.4194,0.034\N,
 0,29.439,-4.7513,0.022\H,0,28.7072,-5.4358,0.1514\C,0,31.0726,-6.5981,
 0.0051\H,0,30.3272,-7.3867,-0.0109\C,0,32.4754,-6.8098,0.0156\H,0,32.9
 445,-7.7871,0.0071\C,0,33.1806,-5.6239,0.0283\H,0,34.2539,-5.4855,0.02
 82\S,0,32.1525,-4.2458,0.0327\C,0,30.7479,-5.251,0.0173\O,0,29.9327,-2
 .5315,-0.0401\C,0,27.6102,-3.1473,0.1651\H,0,26.9929,-4.0192,-0.064\H,

 Normal termination of Gaussian 16 at Wed Apr  9 02:27:48 2025.
