 Gaussian 16, Revision C.01,

 ----------------------------------------------------------------------
 #t hf aug-cc-pvdz symm=none int=(grid=ultrafine) guess=(read,tcheck) s
 table=(opt,rrhf)
 ----------------------------------------------------------------------
 -----
 title
 -----
 Symbolic Z-matrix:
 Charge =  0 Multiplicity = 1

 SCF Done:  E(RHF) =  -1153.54883500     A.U. after   15 cycles
 Normal termination of Gaussian 16 at Wed Apr  9 02:26:35 2025.
 Gaussian 16:  ES64L-G16RevC.01  3-Jul-2019

 ----------------------------------------------------------------------
 #t hf aug-cc-pvdz iop(5/13=1,5/36=2,99/5=2) pseudo=read geom=check gue
 ss=(read,tcheck) scf=(maxcycle=1)
 ----------------------------------------------------------------------
 -----
 title
 -----
 Structure from the checkpoint file:  "DCONF_29_-100_mol1.chk"
 Charge =  0 Multiplicity = 1

                         Standard orientation:
 ---------------------------------------------------------------------
 Center     Atomic      Atomic             Coordinates (Angstroms)
 Number     Number       Type             X           Y           Z
 ---------------------------------------------------------------------
      1          6           0        2.740971   -0.142952    0.069648
      2          1           0        3.747511   -0.539585    0.096363
      3          6           0        2.338657    1.181874    0.081949
      4          1           0        3.009595    2.032013    0.121352
      5          7           0        0.991464    1.388646    0.027241
      6          6           0        0.372062    0.225072   -0.014731
      7         16           0        1.381624   -1.171710   -0.034033
      8         16           0       -1.402455    0.063916   -0.176664
      9          6           0       -1.917866   -0.249365    1.500458
     10          1           0       -1.446110   -1.168745    1.848186
     11          1           0       -3.003519   -0.366058    1.467651
     12          1           0       -1.643696    0.607318    2.117962
     13          8           0       -1.610671   -1.168327   -0.931885
     14          8           0       -1.948539    1.337258   -0.604989
 ---------------------------------------------------------------------

 SCF Done:  E(RHF) =  -1155.65055756     A.U. after    2 cycles

 The electronic state is 1-A.
 Alpha  occ. eigenvalues --  -75.90026 -75.75895 -21.05208 -21.05022 -15.78550
 Alpha  occ. eigenvalues --  -13.52255 -13.41887 -13.38456 -13.21679 -13.20386
 Alpha  occ. eigenvalues --  -13.08194 -11.47894 -11.47361 -11.43451 -11.42367
 Alpha  occ. eigenvalues --   -8.25015  -8.10451  -1.83269  -1.65331  -1.50808
 Alpha  occ. eigenvalues --   -1.21963  -1.18211  -1.10514  -0.95762  -0.84704
 Alpha  occ. eigenvalues --   -0.77563  -0.72715  -0.64576  -0.63954  -0.61832
 Alpha  occ. eigenvalues --   -0.57676  -0.56096  -0.55164  -0.45353  -0.43911
 Alpha  occ. eigenvalues --   -0.41897  -0.39753  -0.38519  -0.37455  -0.35647
 Alpha  occ. eigenvalues --   -0.35448  -0.31763
 Alpha virt. eigenvalues --    0.02109   0.03343   0.04752   0.05566   0.06222
 Alpha virt. eigenvalues --    0.07554   0.08123   0.08948   0.10159   0.11132
 Alpha virt. eigenvalues --    0.11667   0.12132   0.12895   0.13394   0.13598

 Mulliken charges:
               1
     1  C   -2.655777
     2  H    1.232783
     3  C    0.751303
     4  H    1.578318
     5  N   -3.670636
     6  C    0.527121
     7  S    1.342329
     8  S    6.504562
     9  C   -4.711199
    10  H    1.362845
    11  H    1.354922
    12  H    1.372138
    13  O   -2.494600
    14  O   -2.494109
 Sum of Mulliken charges =  -0.00000

 Dipole moment (field-independent basis, Debye):
    X=              2.3405    Y=             -3.6431    Z=              1.5341  Tot=              4.5939

 Test job not archived.
 1\1\GINC-SE049\SP\RHF\Aug-CC-pVDZ\C4H5N1O2S2\OHZDE\09-Apr-2025\0\\#t h
 f aug-cc-pvdz iop(5/13=1,5/36=2,99/5=2) pseudo=read geom=check guess=(
 read,tcheck) scf=(maxcycle=1)\\title\\0,1\C,0,2.0288,-24.6278,-0.9033\
 H,0,0.9847,-24.6433,-1.1875\C,0,2.8202,-25.6824,-0.4806\H,0,2.4818,-26
 .7065,-0.375\N,0,4.1173,-25.3688,-0.198\C,0,4.3077,-24.0786,-0.3941\S,
 0,2.9476,-23.1896,-0.9689\S,0,5.9004,-23.2837,-0.2137\C,0,5.784,-22.54
 52,1.4042\H,0,4.9596,-21.8317,1.4074\H,0,6.7336,-22.0322,1.5728\H,0,5.
 6403,-23.3362,2.1418\O,0,5.9014,-22.1961,-1.188\O,0,6.9303,-24.3044,-0

 Normal termination of Gaussian 16 at Wed Apr  9 02:26:43 2025.
