 Gaussian 16, Revision C.01,

 ----------------------------------------------------------------------
 #t hf aug-cc-pvdz symm=none int=(grid=ultrafine) guess=(read,tcheck) s
 table=(opt,rrhf)
 ----------------------------------------------------------------------
 -----
 title
 -----
 Symbolic Z-matrix:
 Charge =  0 Multiplicity = 1

 SCF Done:  E(RHF) =  -796.901803477     A.U. after   17 cycles
 Normal termination of Gaussian 16 at Wed Apr  9 02:30:51 2025.
 Gaussian 16:  ES64L-G16RevC.01  3-Jul-2019

 ----------------------------------------------------------------------
 #t hf aug-cc-pvdz iop(5/13=1,5/36=2,99/5=2) pseudo=read geom=check gue
 ss=(read,tcheck) scf=(maxcycle=1)
 ----------------------------------------------------------------------
 -----
 title
 -----
 Structure from the checkpoint file:  "DCONF_55_-110_mol1.chk"
 Charge =  0 Multiplicity = 1

                         Standard orientation:
 ---------------------------------------------------------------------
 Center     Atomic      Atomic             Coordinates (Angstroms)
 Number     Number       Type             X           Y           Z
 ---------------------------------------------------------------------
      1          6           0       -1.416738    1.103982   -0.569950
      2          1           0       -0.892946    1.945818   -1.015457
      3          6           0       -2.812939    1.034275   -0.595740
      4          1           0       -3.384391    1.826966   -1.071499
      5          6           0       -3.474673   -0.050194   -0.005330
      6          1           0       -4.559865   -0.102828   -0.026670
      7          6           0       -2.735717   -1.065628    0.613928
      8          1           0       -3.246477   -1.901225    1.085320
      9          6           0       -1.338676   -0.997278    0.646898
     10          1           0       -0.760400   -1.772456    1.144371
     11          6           0       -0.673182    0.080256    0.039779
     12          7           0        1.448561    1.094884    0.812477
     13          6           0        2.800248    0.909900    0.692481
     14          1           0        3.478209    1.576343    1.213331
     15          6           0        3.193057   -0.151046   -0.099033
     16          1           0        4.197154   -0.479155   -0.333017
     17         16           0        1.813036   -0.941458   -0.728981
     18          6           0        0.795324    0.186680    0.106964
 ---------------------------------------------------------------------

 SCF Done:  E(RHF) =  -799.013434833     A.U. after    2 cycles

 The electronic state is 1-A.
 Alpha  occ. eigenvalues --  -75.72478 -15.74399 -13.18843 -13.17353 -13.05315
 Alpha  occ. eigenvalues --  -11.53039 -11.46788 -11.45020 -11.44203 -11.43934
 Alpha  occ. eigenvalues --  -11.41955 -11.41410 -11.39543 -11.37260  -8.07088
 Alpha  occ. eigenvalues --   -1.48516  -1.33739  -1.18511  -1.14103  -1.09629
 Alpha  occ. eigenvalues --   -1.04501  -0.89096  -0.87030  -0.81641  -0.76792
 Alpha  occ. eigenvalues --   -0.70892  -0.69013  -0.63698  -0.59446  -0.58502
 Alpha  occ. eigenvalues --   -0.56146  -0.54699  -0.52821  -0.49285  -0.45456
 Alpha  occ. eigenvalues --   -0.45167  -0.42543  -0.36245  -0.34454  -0.33493
 Alpha  occ. eigenvalues --   -0.32011  -0.28568
 Alpha virt. eigenvalues --    0.03088   0.04093   0.05241   0.05435   0.05706
 Alpha virt. eigenvalues --    0.06673   0.07016   0.07978   0.09548   0.10071
 Alpha virt. eigenvalues --    0.10830   0.11610   0.11826   0.12002   0.12730

 Mulliken charges:
               1
     1  C   -3.580085
     2  H    1.705168
     3  C   -1.650145
     4  H    1.506738
     5  C   -2.872050
     6  H    1.559812
     7  C   -1.776140
     8  H    1.517722
     9  C   -3.036781
    10  H    1.842146
    11  C    6.520771
    12  N   -3.685936
    13  C    0.872966
    14  H    1.573741
    15  C   -2.841518
    16  H    1.249270
    17  S    0.993004
    18  C    0.101317
 Sum of Mulliken charges =   0.00000

 Dipole moment (field-independent basis, Debye):
    X=             -0.0965    Y=             -2.4887    Z=             -1.9088  Tot=              3.1379

 Test job not archived.
 1\1\GINC-SE462\SP\RHF\Aug-CC-pVDZ\C9H7N1S1\OHZDE\09-Apr-2025\0\\#t hf
 aug-cc-pvdz iop(5/13=1,5/36=2,99/5=2) pseudo=read geom=check guess=(re
 ad,tcheck) scf=(maxcycle=1)\\title\\0,1\C,0,21.8292,-21.141,-0.0052\H,
 0,22.3938,-20.2122,0.0037\C,0,20.4311,-21.1294,0.004\H,0,19.8991,-20.1
 817,0.0142\C,0,19.7171,-22.3347,0.0062\H,0,18.6305,-22.3237,0.013\C,0,
 20.4057,-23.5539,0.0013\H,0,19.855,-24.4908,0.0173\C,0,21.8047,-23.570
 3,-0.0024\H,0,22.345,-24.514,0.0146\C,0,22.5217,-22.3628,-0.0227\N,0,2
 4.7158,-21.9613,1.0511\C,0,26.0512,-22.1184,0.7909\H,0,26.7784,-21.831

 Normal termination of Gaussian 16 at Wed Apr  9 02:31:00 2025.
