 Gaussian 16, Revision C.01,

 ----------------------------------------------------------------------
 #t hf aug-cc-pvdz symm=none int=(grid=ultrafine) guess=(read,tcheck) s
 table=(opt,rrhf)
 ----------------------------------------------------------------------
 -----
 title
 -----
 Symbolic Z-matrix:
 Charge =  0 Multiplicity = 1

 SCF Done:  E(RHF) =  -256.175399656     A.U. after   12 cycles
 Normal termination of Gaussian 16 at Wed Apr  9 02:31:24 2025.
 Gaussian 16:  ES64L-G16RevC.01  3-Jul-2019

 ----------------------------------------------------------------------
 #t hf aug-cc-pvdz iop(5/13=1,5/36=2,99/5=2) pseudo=read geom=check gue
 ss=(read,tcheck) scf=(maxcycle=1)
 ----------------------------------------------------------------------
 -----
 title
 -----
 Structure from the checkpoint file:  "DCONF_8_-120_mol1.chk"
 Charge =  0 Multiplicity = 1

                         Standard orientation:
 ---------------------------------------------------------------------
 Center     Atomic      Atomic             Coordinates (Angstroms)
 Number     Number       Type             X           Y           Z
 ---------------------------------------------------------------------
      1          6           0        0.029131   -0.219545    0.461637
      2          1           0        0.130588   -1.258506    0.128972
      3          1           0       -0.199921   -0.252822    1.532814
      4          6           0       -1.127530    0.446422   -0.286424
      5          1           0       -0.895174    0.459272   -1.358242
      6          1           0       -1.209846    1.493727    0.030779
      7          6           0       -2.459006   -0.265216   -0.052430
      8          1           0       -2.404127   -1.306007   -0.387071
      9          1           0       -3.273673    0.222714   -0.595215
     10          1           0       -2.715681   -0.267906    1.011857
     11          6           0        1.374496    0.469486    0.227012
     12          1           0        1.826874    0.826206    1.155613
     13          1           0        1.275551    1.309771   -0.467074
     14          9           0        2.284762   -0.423703   -0.350133
 ---------------------------------------------------------------------

 SCF Done:  E(RHF) =  -257.334333259     A.U. after    2 cycles

 The electronic state is 1-A.
 Alpha  occ. eigenvalues --  -29.23891 -11.45643 -11.41514 -11.38450 -11.35198
 Alpha  occ. eigenvalues --   -1.26929  -1.12100  -0.95769  -0.84483  -0.69192
 Alpha  occ. eigenvalues --   -0.65184  -0.61552  -0.60284  -0.53897  -0.52004
 Alpha  occ. eigenvalues --   -0.47601  -0.46286  -0.45258  -0.35363  -0.23933
 Alpha  occ. eigenvalues --   -0.23282
 Alpha virt. eigenvalues --    0.04071   0.05171   0.05633   0.06033   0.06125
 Alpha virt. eigenvalues --    0.06310   0.06533   0.08048   0.08902   0.11634
 Alpha virt. eigenvalues --    0.13072   0.14154   0.14269   0.15376   0.16567

 Mulliken charges:
               1
     1  C   -2.709380
     2  H    1.459737
     3  H    1.304346
     4  C   -2.902721
     5  H    1.418344
     6  H    1.417207
     7  C   -3.961997
     8  H    1.256058
     9  H    1.097865
    10  H    1.272988
    11  C   -2.716421
    12  H    1.390543
    13  H    1.490174
    14  F    0.183258
 Sum of Mulliken charges =   0.00000

 Dipole moment (field-independent basis, Debye):
    X=              0.3398    Y=             -0.4346    Z=             -0.3319  Tot=              0.6438

 Test job not archived.
 1\1\GINC-SE273\SP\RHF\Aug-CC-pVDZ\C4H9F1\OHZDE\09-Apr-2025\0\\#t hf au
 g-cc-pvdz iop(5/13=1,5/36=2,99/5=2) pseudo=read geom=check guess=(read
 ,tcheck) scf=(maxcycle=1)\\title\\0,1\C,0,0.0312,-0.0329,-0.006\H,0,0.
 0359,-0.6763,-0.8928\H,0,0.0294,-0.6976,0.8653\C,0,-1.2393,0.8196,0.00
 07\H,0,-1.2349,1.4684,-0.8836\H,0,-1.2283,1.4806,0.8766\C,0,-2.5098,-0
 .0287,0.0158\H,0,-2.5511,-0.6772,-0.8651\H,0,-3.4075,0.5962,0.0189\H,0
 ,-2.5393,-0.6674,0.9045\C,0,1.3146,0.7988,-0.0373\H,0,1.9589,0.6023,0.
 8232\H,0,1.0938,1.8698,-0.0801\F,0,2.0628,0.4965,-1.1811\\Version=ES64

 Normal termination of Gaussian 16 at Wed Apr  9 02:31:28 2025.
