 Gaussian 16, Revision C.01,

 ----------------------------------------------------------------------
 #t hf aug-cc-pvdz symm=none int=(grid=ultrafine) guess=(read,tcheck) s
 table=(opt,rrhf)
 ----------------------------------------------------------------------
 -----
 title
 -----
 Symbolic Z-matrix:
 Charge =  0 Multiplicity = 1

 SCF Done:  E(RHF) =  -703.114821368     A.U. after   16 cycles
 Normal termination of Gaussian 16 at Wed Apr  9 02:24:45 2025.
 Gaussian 16:  ES64L-G16RevC.01  3-Jul-2019

 ----------------------------------------------------------------------
 #t hf aug-cc-pvdz iop(5/13=1,5/36=2,99/5=2) pseudo=read geom=check gue
 ss=(read,tcheck) scf=(maxcycle=1)
 ----------------------------------------------------------------------
 -----
 title
 -----
 Structure from the checkpoint file:  "DCONF_24_-140_mol1.chk"
 Charge =  0 Multiplicity = 1

                         Standard orientation:
 ---------------------------------------------------------------------
 Center     Atomic      Atomic             Coordinates (Angstroms)
 Number     Number       Type             X           Y           Z
 ---------------------------------------------------------------------
      1          8           0       -2.251841    1.217349   -0.420015
      2          6           0       -2.279700   -1.011159    0.478109
      3          1           0       -1.949386   -1.911609   -0.050783
      4          1           0       -3.363006   -0.912584    0.398573
      5          1           0       -1.989307   -1.123599    1.527370
      6          6           0       -1.616432    0.226843   -0.085932
      7          6           0        0.649936    1.360591    0.190584
      8          1           0        0.212011    2.340974    0.342929
      9          6           0        2.029238    1.056834    0.252939
     10          1           0        2.811437    1.779398    0.457972
     11          6           0        2.281393   -0.287430    0.032252
     12          1           0        3.239615   -0.789461   -0.010988
     13         16           0        0.840784   -1.168220   -0.241856
     14          6           0       -0.130966    0.249256   -0.107164
 ---------------------------------------------------------------------

 SCF Done:  E(RHF) =  -704.747598053     A.U. after    2 cycles

 The electronic state is 1-A.
 Alpha  occ. eigenvalues --  -75.72923 -21.05083 -13.19721 -13.17543 -13.05291
 Alpha  occ. eigenvalues --  -11.51023 -11.48918 -11.44978 -11.42784 -11.39933
 Alpha  occ. eigenvalues --  -11.38850  -8.07527  -1.70365  -1.38382  -1.13891
 Alpha  occ. eigenvalues --   -1.09765  -1.05188  -0.87883  -0.80019  -0.73644
 Alpha  occ. eigenvalues --   -0.67919  -0.60397  -0.60262  -0.56643  -0.53468
 Alpha  occ. eigenvalues --   -0.51897  -0.49836  -0.45933  -0.43035  -0.39316
 Alpha  occ. eigenvalues --   -0.31924  -0.28576  -0.28333
 Alpha virt. eigenvalues --    0.02904   0.03964   0.05159   0.05916   0.06487
 Alpha virt. eigenvalues --    0.06875   0.08691   0.09440   0.09666   0.10686
 Alpha virt. eigenvalues --    0.12161   0.12588   0.12922   0.13327   0.13820

 Mulliken charges:
               1
     1  O   -3.352322
     2  C   -4.476778
     3  H    1.343350
     4  H    1.205121
     5  H    1.308256
     6  C    3.320622
     7  C   -2.834237
     8  H    1.601315
     9  C   -0.504547
    10  H    1.410383
    11  C   -4.054264
    12  H    1.265806
    13  S    2.140296
    14  C    1.626998
 Sum of Mulliken charges =   0.00000

 Dipole moment (field-independent basis, Debye):
    X=              0.9272    Y=             -2.7650    Z=              0.2684  Tot=              2.9287

 Test job not archived.
 1\1\GINC-SE292\SP\RHF\Aug-CC-pVDZ\C6H6O1S1\OHZDE\09-Apr-2025\0\\#t hf
 aug-cc-pvdz iop(5/13=1,5/36=2,99/5=2) pseudo=read geom=check guess=(re
 ad,tcheck) scf=(maxcycle=1)\\title\\0,1\O,0,21.0492,-5.9629,0.4093\C,0
 ,21.573,-3.9908,-0.8596\H,0,22.0999,-3.1111,-0.4747\H,0,20.4964,-3.818
 5,-0.8306\H,0,21.901,-4.1419,-1.8928\C,0,21.9096,-5.2252,-0.0511\C,0,2
 3.8426,-6.8859,0.011\H,0,23.1852,-7.7484,0.0035\C,0,25.2554,-6.9279,-0
 .0184\H,0,25.8451,-7.8375,-0.0476\C,0,25.8185,-5.6621,-0.0178\H,0,26.8
 682,-5.3975,-0.0033\S,0,24.6264,-4.4356,0.0118\C,0,23.3457,-5.5883,0.0

 Normal termination of Gaussian 16 at Wed Apr  9 02:24:50 2025.
