 Gaussian 16, Revision C.01,

 ----------------------------------------------------------------------
 #t hf aug-cc-pvdz symm=none int=(grid=ultrafine) guess=(read,tcheck) s
 table=(opt,rrhf)
 ----------------------------------------------------------------------
 -----
 title
 -----
 Symbolic Z-matrix:
 Charge =  0 Multiplicity = 1

 SCF Done:  E(RHF) =  -719.120583577     A.U. after   16 cycles
 Normal termination of Gaussian 16 at Wed Apr  9 02:25:41 2025.
 Gaussian 16:  ES64L-G16RevC.01  3-Jul-2019

 ----------------------------------------------------------------------
 #t hf aug-cc-pvdz iop(5/13=1,5/36=2,99/5=2) pseudo=read geom=check gue
 ss=(read,tcheck) scf=(maxcycle=1)
 ----------------------------------------------------------------------
 -----
 title
 -----
 Structure from the checkpoint file:  "DCONF_28_-20_mol1.chk"
 Charge =  0 Multiplicity = 1

                         Standard orientation:
 ---------------------------------------------------------------------
 Center     Atomic      Atomic             Coordinates (Angstroms)
 Number     Number       Type             X           Y           Z
 ---------------------------------------------------------------------
      1          8           0       -1.962579   -1.312088   -0.244166
      2          6           0       -2.507405    0.998044    0.187712
      3          1           0       -2.402807    1.317589    1.229697
      4          1           0       -3.534453    0.686034   -0.005024
      5          1           0       -2.228802    1.848191   -0.438683
      6          6           0       -1.579756   -0.164443   -0.056260
      7          7           0        0.392959    1.351839   -0.119912
      8          6           0        1.752174    1.284175   -0.109077
      9          1           0        2.338273    2.191548   -0.199511
     10          6           0        2.282555    0.010206    0.017345
     11          1           0        3.324945   -0.276836    0.063299
     12         16           0        1.032053   -1.144362    0.116112
     13          6           0       -0.124250    0.134866    0.007804
 ---------------------------------------------------------------------

 SCF Done:  E(RHF) =  -720.800854204     A.U. after    2 cycles

 The electronic state is 1-A.
 Alpha  occ. eigenvalues --  -75.74063 -21.06520 -15.76931 -13.20325 -13.18456
 Alpha  occ. eigenvalues --  -13.05846 -11.52316 -11.46651 -11.44897 -11.41184
 Alpha  occ. eigenvalues --  -11.39207  -8.08656  -1.71760  -1.49087  -1.20379
 Alpha  occ. eigenvalues --   -1.15073  -1.07097  -0.90264  -0.82276  -0.72923
 Alpha  occ. eigenvalues --   -0.68978  -0.61119  -0.60854  -0.58920  -0.55957
 Alpha  occ. eigenvalues --   -0.50657  -0.49069  -0.44669  -0.43672  -0.38033
 Alpha  occ. eigenvalues --   -0.34808  -0.30503  -0.29193
 Alpha virt. eigenvalues --    0.02753   0.04522   0.05117   0.06518   0.06999
 Alpha virt. eigenvalues --    0.07872   0.08418   0.09040   0.10331   0.11396
 Alpha virt. eigenvalues --    0.11769   0.12166   0.13142   0.13488   0.13943

 Mulliken charges:
               1
     1  O   -3.244733
     2  C   -4.421885
     3  H    1.296485
     4  H    1.252227
     5  H    1.332339
     6  C    4.171797
     7  N   -3.619024
     8  C    0.564401
     9  H    1.546259
    10  C   -2.646298
    11  H    1.227756
    12  S    1.664562
    13  C    0.876114
 Sum of Mulliken charges =   0.00000

 Dipole moment (field-independent basis, Debye):
    X=              1.4547    Y=             -2.2349    Z=              0.4398  Tot=              2.7027

 Test job not archived.
 1\1\GINC-SE131\SP\RHF\Aug-CC-pVDZ\C5H5N1O1S1\OHZDE\09-Apr-2025\0\\#t h
 f aug-cc-pvdz iop(5/13=1,5/36=2,99/5=2) pseudo=read geom=check guess=(
 read,tcheck) scf=(maxcycle=1)\\title\\0,1\O,0,21.7638,-16.5944,0.3123\
 C,0,21.0909,-18.8189,-0.3349\H,0,21.2005,-19.0509,-1.3993\H,0,20.0803,
 -18.4619,-0.1335\H,0,21.3029,-19.7368,0.2176\C,0,22.081,-17.7425,0.029
 1\N,0,23.9566,-19.3782,-0.008\C,0,25.3173,-19.3945,0.0118\H,0,25.8453,
 -20.341,0.031\C,0,25.9264,-18.1498,0.0098\H,0,26.985,-17.9252,0.0086\S
 ,0,24.7505,-16.9155,-0.0075\C,0,23.5169,-18.1249,-0.0353\\Version=ES64

 Normal termination of Gaussian 16 at Wed Apr  9 02:25:46 2025.
