 Gaussian 16, Revision C.01,

 ----------------------------------------------------------------------
 #t hf aug-cc-pvdz symm=none int=(grid=ultrafine) guess=(read,tcheck) s
 table=(opt,rrhf)
 ----------------------------------------------------------------------
 -----
 title
 -----
 Symbolic Z-matrix:
 Charge =  0 Multiplicity = 1

 SCF Done:  E(RHF) =  -774.181372742     A.U. after   16 cycles
 Normal termination of Gaussian 16 at Wed Apr  9 02:27:31 2025.
 Gaussian 16:  ES64L-G16RevC.01  3-Jul-2019

 ----------------------------------------------------------------------
 #t hf aug-cc-pvdz iop(5/13=1,5/36=2,99/5=2) pseudo=read geom=check gue
 ss=(read,tcheck) scf=(maxcycle=1)
 ----------------------------------------------------------------------
 -----
 title
 -----
 Structure from the checkpoint file:  "DCONF_42_-150_mol1.chk"
 Charge =  0 Multiplicity = 1

                         Standard orientation:
 ---------------------------------------------------------------------
 Center     Atomic      Atomic             Coordinates (Angstroms)
 Number     Number       Type             X           Y           Z
 ---------------------------------------------------------------------
      1          6           0       -1.990541   -0.121110    0.026073
      2          7           0       -0.968717    0.745422   -0.333121
      3          1           0       -1.168629    1.738801   -0.351201
      4          7           0        1.237407    1.460071    0.077822
      5          6           0        2.505610    0.950086    0.202089
      6          1           0        3.332844    1.625290    0.384637
      7          6           0        2.607185   -0.417739    0.098857
      8          1           0        3.489299   -1.035710    0.198249
      9         16           0        1.057154   -1.114205   -0.160099
     10          6           0        0.386379    0.476829   -0.127877
     11          8           0       -1.782731   -1.301764    0.258177
     12          6           0       -3.358064    0.521462    0.085016
     13          1           0       -3.456849    1.343032   -0.628638
     14          1           0       -3.521239    0.912824    1.094124
     15          1           0       -4.112284   -0.238470   -0.118859
 ---------------------------------------------------------------------

 SCF Done:  E(RHF) =  -776.113109545     A.U. after    2 cycles

 The electronic state is 1-A.
 Alpha  occ. eigenvalues --  -75.72241 -21.04793 -15.79875 -15.73808 -13.18667
 Alpha  occ. eigenvalues --  -13.16758 -13.04254 -11.52342 -11.47401 -11.44379
 Alpha  occ. eigenvalues --  -11.40736 -11.38964  -8.06808  -1.72711  -1.51191
 Alpha  occ. eigenvalues --   -1.37842  -1.18735  -1.12862  -1.04809  -0.86942
 Alpha  occ. eigenvalues --   -0.80910  -0.78280  -0.69592  -0.66428  -0.63797
 Alpha  occ. eigenvalues --   -0.60883  -0.58093  -0.54103  -0.52711  -0.49806
 Alpha  occ. eigenvalues --   -0.49263  -0.43156  -0.38691  -0.36610  -0.32139
 Alpha  occ. eigenvalues --   -0.29849  -0.27051
 Alpha virt. eigenvalues --    0.02947   0.04041   0.05541   0.05729   0.06042
 Alpha virt. eigenvalues --    0.07141   0.08909   0.08961   0.10567   0.11127
 Alpha virt. eigenvalues --    0.12335   0.12468   0.12825   0.13599   0.13720

 Mulliken charges:
               1
     1  C    4.295854
     2  N   -3.363312
     3  H    0.857015
     4  N   -3.146397
     5  C    0.540747
     6  H    1.553012
     7  C   -2.705653
     8  H    1.208679
     9  S    1.943400
    10  C    2.489556
    11  O   -3.018304
    12  C   -4.460423
    13  H    1.325602
    14  H    1.297649
    15  H    1.182574
 Sum of Mulliken charges =   0.00000

 Dipole moment (field-independent basis, Debye):
    X=             -1.5859    Y=             -1.7190    Z=             -0.2510  Tot=              2.3522

 Test job not archived.
 1\1\GINC-SE454\SP\RHF\Aug-CC-pVDZ\C5H6N2O1S1\OHZDE\09-Apr-2025\0\\#t h
 f aug-cc-pvdz iop(5/13=1,5/36=2,99/5=2) pseudo=read geom=check guess=(
 read,tcheck) scf=(maxcycle=1)\\title\\0,1\C,0,28.9895,-15.6633,-0.5552
 \N,0,29.3066,-16.8862,0.0175\H,0,28.5758,-17.5848,0.0881\N,0,30.7355,-
 18.7581,-0.011\C,0,32.0733,-19.0644,0.0074\H,0,32.3792,-20.1036,0.0021
 \C,0,32.9281,-17.9868,0.0115\H,0,34.0095,-17.9865,-0.0101\S,0,32.037,-
 16.5171,-0.0138\C,0,30.5839,-17.4503,-0.0116\O,0,29.8489,-14.8479,-0.8
 511\C,0,27.5081,-15.4376,-0.7577\H,0,26.9077,-15.948,-0.0007\H,0,27.22

 Normal termination of Gaussian 16 at Wed Apr  9 02:27:37 2025.
