 Gaussian 16, Revision C.01,

 ----------------------------------------------------------------------
 #t hf aug-cc-pvdz symm=none int=(grid=ultrafine) guess=(read,tcheck) s
 table=(opt,rrhf)
 ----------------------------------------------------------------------
 -----
 title
 -----
 Symbolic Z-matrix:
 Charge =  0 Multiplicity = 1

 SCF Done:  E(RHF) =  -774.174943358     A.U. after   16 cycles
 Normal termination of Gaussian 16 at Wed Apr  9 02:27:41 2025.
 Gaussian 16:  ES64L-G16RevC.01  3-Jul-2019

 ----------------------------------------------------------------------
 #t hf aug-cc-pvdz iop(5/13=1,5/36=2,99/5=2) pseudo=read geom=check gue
 ss=(read,tcheck) scf=(maxcycle=1)
 ----------------------------------------------------------------------
 -----
 title
 -----
 Structure from the checkpoint file:  "DCONF_42_-110_mol1.chk"
 Charge =  0 Multiplicity = 1

                         Standard orientation:
 ---------------------------------------------------------------------
 Center     Atomic      Atomic             Coordinates (Angstroms)
 Number     Number       Type             X           Y           Z
 ---------------------------------------------------------------------
      1          6           0       -1.986868   -0.148713    0.140727
      2          7           0       -0.999145    0.473724   -0.634384
      3          1           0       -1.245063    1.384154   -1.006656
      4          7           0        1.035685    1.423931    0.182396
      5          6           0        2.329754    1.049182    0.433010
      6          1           0        3.032845    1.781039    0.812138
      7          6           0        2.624192   -0.276071    0.191294
      8          1           0        3.557973   -0.797428    0.353228
      9         16           0        1.233942   -1.086257   -0.394245
     10          6           0        0.354608    0.390580   -0.269570
     11          8           0       -1.738607   -1.071606    0.893136
     12          6           0       -3.372045    0.419967   -0.076393
     13          1           0       -3.534614    0.693833   -1.121827
     14          1           0       -4.110703   -0.318325    0.234136
     15          1           0       -3.488288    1.316424    0.541325
 ---------------------------------------------------------------------

 SCF Done:  E(RHF) =  -776.104137755     A.U. after    2 cycles

 The electronic state is 1-A.
 Alpha  occ. eigenvalues --  -75.72436 -21.04561 -15.78881 -15.74587 -13.18710
 Alpha  occ. eigenvalues --  -13.16963 -13.04839 -11.51877 -11.46977 -11.44842
 Alpha  occ. eigenvalues --  -11.40380 -11.39535  -8.07095  -1.72145  -1.51069
 Alpha  occ. eigenvalues --   -1.37430  -1.19135  -1.12465  -1.04845  -0.86141
 Alpha  occ. eigenvalues --   -0.81106  -0.77879  -0.70144  -0.66324  -0.63013
 Alpha  occ. eigenvalues --   -0.60765  -0.57619  -0.53864  -0.53519  -0.49198
 Alpha  occ. eigenvalues --   -0.48556  -0.42974  -0.37507  -0.36129  -0.33519
 Alpha  occ. eigenvalues --   -0.29891  -0.27486
 Alpha virt. eigenvalues --    0.03075   0.04016   0.05459   0.05845   0.06096
 Alpha virt. eigenvalues --    0.06911   0.08174   0.09423   0.10605   0.10735
 Alpha virt. eigenvalues --    0.12061   0.12490   0.12833   0.13112   0.13431

 Mulliken charges:
               1
     1  C    4.325226
     2  N   -2.897882
     3  H    0.750378
     4  N   -3.225723
     5  C    0.667154
     6  H    1.554945
     7  C   -2.486078
     8  H    1.208919
     9  S    1.778634
    10  C    2.077282
    11  O   -3.081002
    12  C   -4.403504
    13  H    1.273562
    14  H    1.179709
    15  H    1.278379
 Sum of Mulliken charges =   0.00000

 Dipole moment (field-independent basis, Debye):
    X=             -0.5113    Y=             -1.8653    Z=             -1.3261  Tot=              2.3450

 Test job not archived.
 1\1\GINC-SE116\SP\RHF\Aug-CC-pVDZ\C5H6N2O1S1\OHZDE\09-Apr-2025\0\\#t h
 f aug-cc-pvdz iop(5/13=1,5/36=2,99/5=2) pseudo=read geom=check guess=(
 read,tcheck) scf=(maxcycle=1)\\title\\0,1\C,0,28.8364,-16.1753,-1.1228
 \N,0,29.3095,-16.8578,0.006\H,0,28.6199,-17.4097,0.5038\N,0,30.7425,-1
 8.7701,-0.0072\C,0,32.0806,-19.0653,0.0071\H,0,32.3981,-20.1011,0.0062
 \C,0,32.9308,-17.9797,0.\H,0,34.012,-17.973,-0.0307\S,0,32.024,-16.527
 2,-0.0029\C,0,30.5769,-17.463,-0.0029\O,0,29.5815,-15.738,-1.979\C,0,2
 7.3317,-16.0186,-1.1468\H,0,26.93,-15.8431,-0.1457\H,0,27.0725,-15.188

 Normal termination of Gaussian 16 at Wed Apr  9 02:27:48 2025.
