 Gaussian 16, Revision C.01,

 ----------------------------------------------------------------------
 #t hf aug-cc-pvdz symm=none int=(grid=ultrafine) guess=(read,tcheck) s
 table=(opt,rrhf)
 ----------------------------------------------------------------------
 -----
 title
 -----
 Symbolic Z-matrix:
 Charge =  0 Multiplicity = 1

 SCF Done:  E(RHF) =  -719.115876860     A.U. after   16 cycles
 Normal termination of Gaussian 16 at Wed Apr  9 02:25:42 2025.
 Gaussian 16:  ES64L-G16RevC.01  3-Jul-2019

 ----------------------------------------------------------------------
 #t hf aug-cc-pvdz iop(5/13=1,5/36=2,99/5=2) pseudo=read geom=check gue
 ss=(read,tcheck) scf=(maxcycle=1)
 ----------------------------------------------------------------------
 -----
 title
 -----
 Structure from the checkpoint file:  "DCONF_28_50_mol1.chk"
 Charge =  0 Multiplicity = 1

                         Standard orientation:
 ---------------------------------------------------------------------
 Center     Atomic      Atomic             Coordinates (Angstroms)
 Number     Number       Type             X           Y           Z
 ---------------------------------------------------------------------
      1          8           0        1.967332   -1.162319   -0.646033
      2          6           0        2.502763    0.894155    0.496076
      3          1           0        2.209624    1.906461    0.205742
      4          1           0        3.536400    0.688251    0.215112
      5          1           0        2.390373    0.818436    1.583057
      6          6           0        1.584791   -0.121014   -0.133883
      7          7           0       -0.424015    1.328148   -0.286057
      8          6           0       -1.783747    1.231608   -0.254724
      9          1           0       -2.389964    2.105415   -0.463524
     10          6           0       -2.283783   -0.022611    0.049451
     11          1           0       -3.317924   -0.320988    0.161487
     12         16           0       -1.003314   -1.126293    0.279366
     13          6           0        0.122304    0.155301    0.009568
 ---------------------------------------------------------------------

 SCF Done:  E(RHF) =  -720.795285314     A.U. after    2 cycles

 The electronic state is 1-A.
 Alpha  occ. eigenvalues --  -75.74047 -21.06825 -15.76706 -13.20117 -13.18483
 Alpha  occ. eigenvalues --  -13.05978 -11.51878 -11.46458 -11.45264 -11.40986
 Alpha  occ. eigenvalues --  -11.39382  -8.08652  -1.71929  -1.48961  -1.20246
 Alpha  occ. eigenvalues --   -1.15237  -1.07314  -0.90095  -0.82228  -0.72831
 Alpha  occ. eigenvalues --   -0.68999  -0.61135  -0.60856  -0.59234  -0.55924
 Alpha  occ. eigenvalues --   -0.51141  -0.49425  -0.44835  -0.42988  -0.37798
 Alpha  occ. eigenvalues --   -0.34879  -0.31303  -0.28583
 Alpha virt. eigenvalues --    0.02801   0.04405   0.05199   0.06291   0.06872
 Alpha virt. eigenvalues --    0.07825   0.09013   0.09769   0.10205   0.11448
 Alpha virt. eigenvalues --    0.11818   0.12277   0.13043   0.13298   0.13683

 Mulliken charges:
               1
     1  O   -3.180012
     2  C   -4.365446
     3  H    1.393449
     4  H    1.254189
     5  H    1.283699
     6  C    3.936170
     7  N   -3.451455
     8  C    0.625400
     9  H    1.519122
    10  C   -2.482688
    11  H    1.204219
    12  S    1.533654
    13  C    0.729700
 Sum of Mulliken charges =   0.00000

 Dipole moment (field-independent basis, Debye):
    X=             -1.3569    Y=             -2.3480    Z=              1.1226  Tot=              2.9350

 Test job not archived.
 1\1\GINC-SE080\SP\RHF\Aug-CC-pVDZ\C5H5N1O1S1\OHZDE\09-Apr-2025\0\\#t h
 f aug-cc-pvdz iop(5/13=1,5/36=2,99/5=2) pseudo=read geom=check guess=(
 read,tcheck) scf=(maxcycle=1)\\title\\0,1\O,0,21.747,-16.8122,-0.7728\
 C,0,21.1205,-18.5243,0.8072\H,0,21.316,-19.5971,0.7306\H,0,20.0914,-18
 .2914,0.5307\H,0,21.3022,-18.2305,1.8467\C,0,22.0764,-17.7513,-0.0639\
 N,0,23.9533,-19.3727,0.0188\C,0,25.3159,-19.3931,-0.0268\H,0,25.8386,-
 20.3417,-0.0665\C,0,25.9295,-18.1525,-0.0212\H,0,26.9886,-17.9304,-0.0
 184\S,0,24.755,-16.9157,0.0169\C,0,23.5187,-18.12,0.0762\\Version=ES64

 Normal termination of Gaussian 16 at Wed Apr  9 02:25:46 2025.
