 Gaussian 16, Revision C.01,

 ----------------------------------------------------------------------
 #t hf aug-cc-pvdz symm=none int=(grid=ultrafine) guess=(read,tcheck) s
 table=(opt,rrhf)
 ----------------------------------------------------------------------
 -----
 title
 -----
 Symbolic Z-matrix:
 Charge =  0 Multiplicity = 1

 SCF Done:  E(RHF) =  -812.903411220     A.U. after   17 cycles
 Normal termination of Gaussian 16 at Wed Apr  9 02:31:53 2025.
 Gaussian 16:  ES64L-G16RevC.01  3-Jul-2019

 ----------------------------------------------------------------------
 #t hf aug-cc-pvdz iop(5/13=1,5/36=2,99/5=2) pseudo=read geom=check gue
 ss=(read,tcheck) scf=(maxcycle=1)
 ----------------------------------------------------------------------
 -----
 title
 -----
 Structure from the checkpoint file:  "DCONF_56_-150_mol1.chk"
 Charge =  0 Multiplicity = 1

                         Standard orientation:
 ---------------------------------------------------------------------
 Center     Atomic      Atomic             Coordinates (Angstroms)
 Number     Number       Type             X           Y           Z
 ---------------------------------------------------------------------
      1          6           0       -1.479848    1.247056   -0.281456
      2          1           0       -0.998265    2.194880   -0.499881
      3          6           0       -2.867001    1.109359   -0.241897
      4          1           0       -3.511766    1.961243   -0.440631
      5          6           0       -3.410591   -0.147874    0.045751
      6          1           0       -4.484574   -0.303413    0.084026
      7          6           0       -2.537120   -1.212189    0.292475
      8          1           0       -2.923601   -2.202617    0.524598
      9          7           0       -1.198470   -1.098301    0.276497
     10          6           0       -0.689794    0.116709   -0.014085
     11          7           0        1.424396    1.341885    0.303492
     12          6           0        2.771320    1.117009    0.289743
     13          1           0        3.452628    1.927835    0.521493
     14          6           0        3.155100   -0.176564   -0.012673
     15          1           0        4.157498   -0.578612   -0.079194
     16         16           0        1.777237   -1.149895   -0.288571
     17          6           0        0.773070    0.228813   -0.003389
 ---------------------------------------------------------------------

 SCF Done:  E(RHF) =  -815.060223555     A.U. after    2 cycles

 The electronic state is 1-A.
 Alpha  occ. eigenvalues --  -75.72269 -15.74926 -15.74519 -13.19053 -13.17061
 Alpha  occ. eigenvalues --  -13.04598 -11.51745 -11.47958 -11.45427 -11.44996
 Alpha  occ. eigenvalues --  -11.44642 -11.42153 -11.39474 -11.38892  -8.06872
 Alpha  occ. eigenvalues --   -1.50344  -1.42816  -1.20051  -1.18062  -1.15641
 Alpha  occ. eigenvalues --   -1.05348  -0.91565  -0.90059  -0.81735  -0.77892
 Alpha  occ. eigenvalues --   -0.71195  -0.68751  -0.63990  -0.61628  -0.57921
 Alpha  occ. eigenvalues --   -0.57358  -0.55251  -0.52810  -0.51189  -0.46872
 Alpha  occ. eigenvalues --   -0.42567  -0.38689  -0.37936  -0.36769  -0.34849
 Alpha  occ. eigenvalues --   -0.31871  -0.27807
 Alpha virt. eigenvalues --    0.03059   0.04156   0.05092   0.05373   0.05854
 Alpha virt. eigenvalues --    0.07226   0.08350   0.08595   0.09479   0.09820
 Alpha virt. eigenvalues --    0.10244   0.11763   0.12057   0.12696   0.12791

 Mulliken charges:
               1
     1  C   -1.813707
     2  H    1.704757
     3  C   -0.014798
     4  H    1.527601
     5  C   -1.374592
     6  H    1.494963
     7  C   -0.866558
     8  H    1.655811
     9  N   -3.425759
    10  C    2.043411
    11  N   -4.073955
    12  C    0.954452
    13  H    1.617040
    14  C   -3.060432
    15  H    1.249251
    16  S    1.237820
    17  C    1.144695
 Sum of Mulliken charges =   0.00000

 Dipole moment (field-independent basis, Debye):
    X=             -1.0252    Y=             -2.1570    Z=             -0.9281  Tot=              2.5622

 Test job not archived.
 1\1\GINC-SE208\SP\RHF\Aug-CC-pVDZ\C8H6N2S1\OHZDE\09-Apr-2025\0\\#t hf
 aug-cc-pvdz iop(5/13=1,5/36=2,99/5=2) pseudo=read geom=check guess=(re
 ad,tcheck) scf=(maxcycle=1)\\title\\0,1\C,0,30.1279,-21.0904,-0.0102\H
 ,0,30.7126,-20.176,-0.0111\C,0,28.7335,-21.0815,0.0068\H,0,28.1879,-20
 .1417,0.0112\C,0,28.0526,-22.3043,0.0053\H,0,26.9676,-22.3465,0.0148\C
 ,0,28.8018,-23.4855,-0.0022\H,0,28.3068,-24.4546,0.0017\N,0,30.145,-23
 .5175,-0.0013\C,0,30.7867,-22.3311,-0.012\N,0,33.0145,-21.4475,0.5606\
 C,0,34.3294,-21.8088,0.4867\H,0,35.0898,-21.1507,0.8917\C,0,34.577,-23

 Normal termination of Gaussian 16 at Wed Apr  9 02:32:03 2025.
