 Gaussian 16, Revision C.01,

 ----------------------------------------------------------------------
 #t hf aug-cc-pvdz symm=none int=(grid=ultrafine) guess=(read,tcheck) s
 table=(opt,rrhf)
 ----------------------------------------------------------------------
 -----
 title
 -----
 Symbolic Z-matrix:
 Charge =  0 Multiplicity = 1

 SCF Done:  E(RHF) =  -703.113059978     A.U. after   16 cycles
 Normal termination of Gaussian 16 at Wed Apr  9 02:24:48 2025.
 Gaussian 16:  ES64L-G16RevC.01  3-Jul-2019

 ----------------------------------------------------------------------
 #t hf aug-cc-pvdz iop(5/13=1,5/36=2,99/5=2) pseudo=read geom=check gue
 ss=(read,tcheck) scf=(maxcycle=1)
 ----------------------------------------------------------------------
 -----
 title
 -----
 Structure from the checkpoint file:  "DCONF_24_-130_mol1.chk"
 Charge =  0 Multiplicity = 1

                         Standard orientation:
 ---------------------------------------------------------------------
 Center     Atomic      Atomic             Coordinates (Angstroms)
 Number     Number       Type             X           Y           Z
 ---------------------------------------------------------------------
      1          8           0       -2.270999    1.146755   -0.534793
      2          6           0       -2.258858   -0.970476    0.602425
      3          1           0       -1.936737   -0.968518    1.648335
      4          1           0       -3.344708   -0.888114    0.542106
      5          1           0       -1.932826   -1.919736    0.163839
      6          6           0       -1.619994    0.204989   -0.105123
      7          6           0        0.630741    1.352557    0.230410
      8          1           0        0.181705    2.322792    0.413835
      9          6           0        2.013019    1.060081    0.306071
     10          1           0        2.783378    1.782348    0.552098
     11          6           0        2.282787   -0.271413    0.037911
     12          1           0        3.246853   -0.760961   -0.013698
     13         16           0        0.854980   -1.155226   -0.293020
     14          6           0       -0.132588    0.247888   -0.128337
 ---------------------------------------------------------------------

 SCF Done:  E(RHF) =  -704.746152189     A.U. after    2 cycles

 The electronic state is 1-A.
 Alpha  occ. eigenvalues --  -75.72884 -21.05312 -13.19531 -13.17491 -13.05364
 Alpha  occ. eigenvalues --  -11.51033 -11.48981 -11.44973 -11.42849 -11.39873
 Alpha  occ. eigenvalues --  -11.38816  -8.07483  -1.70483  -1.38367  -1.13892
 Alpha  occ. eigenvalues --   -1.09752  -1.05192  -0.87828  -0.79996  -0.73645
 Alpha  occ. eigenvalues --   -0.67950  -0.60406  -0.60260  -0.56714  -0.53593
 Alpha  occ. eigenvalues --   -0.51703  -0.50023  -0.46103  -0.42860  -0.39172
 Alpha  occ. eigenvalues --   -0.32149  -0.28568  -0.28306
 Alpha virt. eigenvalues --    0.02900   0.03997   0.05156   0.05849   0.06479
 Alpha virt. eigenvalues --    0.06819   0.08942   0.09315   0.09806   0.10573
 Alpha virt. eigenvalues --    0.12153   0.12476   0.12993   0.13416   0.13835

 Mulliken charges:
               1
     1  O   -3.286692
     2  C   -4.358302
     3  H    1.316972
     4  H    1.220740
     5  H    1.355403
     6  C    3.143700
     7  C   -2.508297
     8  H    1.580489
     9  C   -0.525524
    10  H    1.419708
    11  C   -3.893748
    12  H    1.275813
    13  S    1.926711
    14  C    1.333026
 Sum of Mulliken charges =   0.00000

 Dipole moment (field-independent basis, Debye):
    X=              0.9463    Y=             -2.6928    Z=              0.3419  Tot=              2.8747

 Test job not archived.
 1\1\GINC-SE115\SP\RHF\Aug-CC-pVDZ\C6H6O1S1\OHZDE\09-Apr-2025\0\\#t hf
 aug-cc-pvdz iop(5/13=1,5/36=2,99/5=2) pseudo=read geom=check guess=(re
 ad,tcheck) scf=(maxcycle=1)\\title\\0,1\O,0,21.0496,-5.8826,0.5087\C,0
 ,21.5738,-4.1242,-1.0435\H,0,21.9097,-4.4276,-2.0399\H,0,20.4971,-3.95
 04,-1.0452\H,0,22.0999,-3.1971,-0.7916\C,0,21.9092,-5.2256,-0.0612\C,0
 ,23.8421,-6.885,0.0136\H,0,23.1859,-7.7487,0.0061\C,0,25.2559,-6.9277,
 -0.0225\H,0,25.8445,-7.8377,-0.0557\C,0,25.819,-5.6626,-0.021\H,0,26.8
 685,-5.398,-0.0043\S,0,24.6261,-4.4358,0.014\C,0,23.3459,-5.5883,0.077

 Normal termination of Gaussian 16 at Wed Apr  9 02:24:54 2025.
