 Gaussian 16, Revision C.01,

 ----------------------------------------------------------------------
 #t hf aug-cc-pvdz symm=none int=(grid=ultrafine) guess=(read,tcheck) s
 table=(opt,rrhf)
 ----------------------------------------------------------------------
 -----
 title
 -----
 Symbolic Z-matrix:
 Charge =  0 Multiplicity = 1

 SCF Done:  E(RHF) =  -575.158955456     A.U. after   15 cycles
 Normal termination of Gaussian 16 at Wed Apr  9 02:33:09 2025.
 Gaussian 16:  ES64L-G16RevC.01  3-Jul-2019

 ----------------------------------------------------------------------
 #t hf aug-cc-pvdz iop(5/13=1,5/36=2,99/5=2) pseudo=read geom=check gue
 ss=(read,tcheck) scf=(maxcycle=1)
 ----------------------------------------------------------------------
 -----
 title
 -----
 Structure from the checkpoint file:  "DCONF_48_-130_mol1.chk"
 Charge =  0 Multiplicity = 1

                         Standard orientation:
 ---------------------------------------------------------------------
 Center     Atomic      Atomic             Coordinates (Angstroms)
 Number     Number       Type             X           Y           Z
 ---------------------------------------------------------------------
      1          6           0        1.547256    0.863748    0.728939
      2          1           0        1.002576    1.628234    1.274213
      3          6           0        2.942160    0.868683    0.677238
      4          1           0        3.511030    1.644197    1.183021
      5          6           0        3.587644   -0.146782   -0.034105
      6          1           0        4.670458   -0.186348   -0.106394
      7          6           0        2.804633   -1.123594   -0.659011
      8          1           0        3.272784   -1.929256   -1.221336
      9          7           0        1.461186   -1.142153   -0.623118
     10          6           0        0.846617   -0.156124    0.064313
     11          6           0       -2.692479   -1.488242    0.376069
     12          1           0       -3.185796   -2.427658    0.608153
     13          6           0       -1.297202   -1.415448    0.375291
     14          1           0       -0.692576   -2.291751    0.593278
     15          6           0       -0.633311   -0.209635    0.090561
     16          6           0       -1.424200    0.900588   -0.224882
     17          6           0       -2.814704    0.854963   -0.237496
     18          1           0       -3.372318    1.749394   -0.497384
     19          6           0       -3.452234   -0.351860    0.069146
     20          1           0       -4.537452   -0.400924    0.063995
     21          9           0       -0.820232    2.070155   -0.543568
 ---------------------------------------------------------------------

 SCF Done:  E(RHF) =  -577.735665025     A.U. after    2 cycles

 The electronic state is 1-A.
 Alpha  occ. eigenvalues --  -29.28379 -15.74038 -11.54222 -11.51284 -11.47922
 Alpha  occ. eigenvalues --  -11.46728 -11.44464 -11.44234 -11.42803 -11.41867
 Alpha  occ. eigenvalues --  -11.41476 -11.38757 -11.37878  -1.46284  -1.35506
 Alpha  occ. eigenvalues --   -1.18965  -1.16298  -1.14305  -1.07244  -0.93382
 Alpha  occ. eigenvalues --   -0.91156  -0.88397  -0.85023  -0.76324  -0.72041
 Alpha  occ. eigenvalues --   -0.68005  -0.64038  -0.62635  -0.60912  -0.59878
 Alpha  occ. eigenvalues --   -0.58338  -0.56160  -0.54383  -0.52978  -0.49950
 Alpha  occ. eigenvalues --   -0.47793  -0.45080  -0.41186  -0.38924  -0.37329
 Alpha  occ. eigenvalues --   -0.36199  -0.35668  -0.31524  -0.26856  -0.23064
 Alpha virt. eigenvalues --    0.03345   0.05070   0.05128   0.05448   0.05572
 Alpha virt. eigenvalues --    0.05819   0.06889   0.07478   0.09174   0.09595
 Alpha virt. eigenvalues --    0.10399   0.10614   0.11561   0.11823   0.12358

 Mulliken charges:
               1
     1  C   -2.602748
     2  H    1.789749
     3  C   -0.531166
     4  H    1.541530
     5  C   -1.411125
     6  H    1.478568
     7  C   -0.960082
     8  H    1.678990
     9  N   -3.832910
    10  C    2.581978
    11  C   -2.625211
    12  H    1.470142
    13  C   -2.043482
    14  H    1.739162
    15  C    0.181233
    16  C    4.076916
    17  C   -5.045569
    18  H    1.758143
    19  C   -1.521239
    20  H    1.515118
    21  F    0.762003
 Sum of Mulliken charges =   0.00000

 Dipole moment (field-independent basis, Debye):
    X=              1.6386    Y=              2.8893    Z=              0.1589  Tot=              3.3254

 Test job not archived.
 1\1\GINC-SE024\SP\RHF\Aug-CC-pVDZ\C11H8F1N1\OHZDE\09-Apr-2025\0\\#t hf
  aug-cc-pvdz iop(5/13=1,5/36=2,99/5=2) pseudo=read geom=check guess=(r
 ead,tcheck) scf=(maxcycle=1)\\title\\0,1\C,0,21.7566,-34.0164,0.8809\H
 ,0,22.2414,-34.6587,1.6095\C,0,20.3656,-33.9206,0.8146\H,0,19.7394,-34
 .4928,1.4938\C,0,19.7995,-33.0705,-0.1397\H,0,18.723,-32.9625,-0.2333\
 C,0,20.6546,-32.3521,-0.9826\H,0,20.2493,-31.6807,-1.7372\N,0,21.9953,
 -32.4346,-0.9357\C,0,22.5328,-33.2599,-0.0124\C,0,26.1718,-32.1854,-0.
 0052\H,0,26.7425,-31.2613,-0.0135\C,0,24.7753,-32.142,-0.005\H,0,24.24

 Normal termination of Gaussian 16 at Wed Apr  9 02:33:25 2025.
