 Gaussian 16, Revision C.01,

 ----------------------------------------------------------------------
 #t hf aug-cc-pvdz symm=none int=(grid=ultrafine) guess=(read,tcheck) s
 table=(opt,rrhf)
 ----------------------------------------------------------------------
 -----
 title
 -----
 Symbolic Z-matrix:
 Charge =  0 Multiplicity = 1

 SCF Done:  E(RHF) =  -681.457527963     A.U. after   13 cycles
 Normal termination of Gaussian 16 at Wed Apr  9 02:22:23 2025.
 Gaussian 16:  ES64L-G16RevC.01  3-Jul-2019

 ----------------------------------------------------------------------
 #t hf aug-cc-pvdz iop(5/13=1,5/36=2,99/5=2) pseudo=read geom=check gue
 ss=(read,tcheck) scf=(maxcycle=1)
 ----------------------------------------------------------------------
 -----
 title
 -----
 Structure from the checkpoint file:  "DCONF_16_10_mol1.chk"
 Charge =  0 Multiplicity = 1

                         Standard orientation:
 ---------------------------------------------------------------------
 Center     Atomic      Atomic             Coordinates (Angstroms)
 Number     Number       Type             X           Y           Z
 ---------------------------------------------------------------------
      1          6           0       -0.284648    1.602274   -0.351767
      2          1           0        0.164896    1.717822   -1.338226
      3          1           0        0.313735    2.074639    0.426167
      4          1           0       -1.290634    2.024710   -0.347764
      5         16           0       -0.520761   -0.124108    0.035681
      6          8           0       -1.220137   -0.776909   -1.061798
      7          7           0        1.024161   -0.804347    0.078165
      8          1           0        1.045498   -1.482605   -0.679226
      9          8           0       -1.064329   -0.146081    1.380714
     10          6           0        2.215768    0.050399    0.038915
     11          1           0        2.247325    0.681124    0.929641
     12          1           0        2.286275    0.677307   -0.857509
     13          1           0        3.084958   -0.608961    0.074651
 ---------------------------------------------------------------------

 SCF Done:  E(RHF) =  -683.020733328     A.U. after    2 cycles

 The electronic state is 1-A.
 Alpha  occ. eigenvalues --  -75.89763 -21.04501 -21.03763 -15.76950 -13.51548
 Alpha  occ. eigenvalues --  -13.42707 -13.34481 -11.43176 -11.42609  -8.24868
 Alpha  occ. eigenvalues --   -1.83117  -1.64671  -1.40567  -1.14593  -1.03560
 Alpha  occ. eigenvalues --   -0.87843  -0.69732  -0.66914  -0.64123  -0.63068
 Alpha  occ. eigenvalues --   -0.59752  -0.56120  -0.54191  -0.46729  -0.41040
 Alpha  occ. eigenvalues --   -0.39258  -0.37178  -0.36397  -0.34101
 Alpha virt. eigenvalues --    0.02087   0.03878   0.04959   0.05360   0.06549
 Alpha virt. eigenvalues --    0.06922   0.07704   0.10448   0.11055   0.12265
 Alpha virt. eigenvalues --    0.12924   0.14214   0.15114   0.15633   0.15974

 Mulliken charges:
               1
     1  C   -4.630687
     2  H    1.379935
     3  H    1.251150
     4  H    1.318229
     5  S    7.123059
     6  O   -2.596952
     7  N   -2.640006
     8  H    0.502208
     9  O   -2.520119
    10  C   -3.303634
    11  H    1.448422
    12  H    1.400633
    13  H    1.267762
 Sum of Mulliken charges =  -0.00000

 Dipole moment (field-independent basis, Debye):
    X=              2.7913    Y=              1.4528    Z=             -1.1405  Tot=              3.3470

 Test job not archived.
 1\1\GINC-SE340\SP\RHF\Aug-CC-pVDZ\C2H7N1O2S1\OHZDE\09-Apr-2025\0\\#t h
 f aug-cc-pvdz iop(5/13=1,5/36=2,99/5=2) pseudo=read geom=check guess=(
 read,tcheck) scf=(maxcycle=1)\\title\\0,1\C,0,-1.166,-1.375,-0.6078\H,
 0,-0.5455,-1.1256,-1.4688\H,0,-0.9327,-0.7536,0.2558\H,0,-2.2211,-1.26
 61,-0.8635\S,0,-0.9837,-3.0975,-0.1765\O,0,-1.1824,-3.9187,-1.3622\N,0
 ,0.634,-3.2952,0.2654\H,0,1.0296,-3.9319,-0.4218\O,0,-1.8042,-3.2876,1
 .0049\C,0,1.5041,-2.1284,0.4486\H,0,1.1392,-1.5226,1.2805\H,0,1.605,-1
 .5019,-0.4452\H,0,2.4906,-2.5042,0.7263\\Version=ES64L-G16RevC.01\Stat

 Normal termination of Gaussian 16 at Wed Apr  9 02:22:27 2025.
