 Gaussian 16, Revision C.01,

 ----------------------------------------------------------------------
 #t hf aug-cc-pvdz symm=none int=(grid=ultrafine) guess=(read,tcheck) s
 table=(opt,rrhf)
 ----------------------------------------------------------------------
 -----
 title
 -----
 Symbolic Z-matrix:
 Charge =  0 Multiplicity = 1

 SCF Done:  E(RHF) =  -703.117314911     A.U. after   16 cycles
 Normal termination of Gaussian 16 at Wed Apr  9 02:24:46 2025.
 Gaussian 16:  ES64L-G16RevC.01  3-Jul-2019

 ----------------------------------------------------------------------
 #t hf aug-cc-pvdz iop(5/13=1,5/36=2,99/5=2) pseudo=read geom=check gue
 ss=(read,tcheck) scf=(maxcycle=1)
 ----------------------------------------------------------------------
 -----
 title
 -----
 Structure from the checkpoint file:  "DCONF_24_-160_mol1.chk"
 Charge =  0 Multiplicity = 1

                         Standard orientation:
 ---------------------------------------------------------------------
 Center     Atomic      Atomic             Coordinates (Angstroms)
 Number     Number       Type             X           Y           Z
 ---------------------------------------------------------------------
      1          8           0       -2.222984    1.305833   -0.206676
      2          6           0       -2.316021   -1.052111    0.236947
      3          1           0       -1.961669   -1.840031   -0.435435
      4          1           0       -3.390997   -0.917280    0.112957
      5          1           0       -2.100903   -1.369556    1.262382
      6          6           0       -1.611478    0.258274   -0.043865
      7          6           0        0.682031    1.371737    0.099115
      8          1           0        0.263557    2.368961    0.178639
      9          6           0        2.056671    1.049945    0.130589
     10          1           0        2.857948    1.772817    0.236925
     11          6           0        2.280349   -0.313856    0.018413
     12          1           0        3.228646   -0.835823   -0.005321
     13         16           0        0.818971   -1.188487   -0.125524
     14          6           0       -0.127594    0.251017   -0.055925
 ---------------------------------------------------------------------

 SCF Done:  E(RHF) =  -704.749603304     A.U. after    2 cycles

 The electronic state is 1-A.
 Alpha  occ. eigenvalues --  -75.72979 -21.04785 -13.20062 -13.17600 -13.05133
 Alpha  occ. eigenvalues --  -11.50999 -11.48868 -11.44986 -11.42688 -11.40049
 Alpha  occ. eigenvalues --  -11.38891  -8.07589  -1.70218  -1.38393  -1.13869
 Alpha  occ. eigenvalues --   -1.09764  -1.05169  -0.87942  -0.80043  -0.73649
 Alpha  occ. eigenvalues --   -0.67868  -0.60391  -0.60280  -0.56541  -0.53189
 Alpha  occ. eigenvalues --   -0.52170  -0.49569  -0.45672  -0.43335  -0.39539
 Alpha  occ. eigenvalues --   -0.31586  -0.28586  -0.28394
 Alpha virt. eigenvalues --    0.02909   0.03917   0.05155   0.06102   0.06439
 Alpha virt. eigenvalues --    0.06952   0.08244   0.09378   0.09497   0.10849
 Alpha virt. eigenvalues --    0.12314   0.12700   0.12888   0.13205   0.13943

 Mulliken charges:
               1
     1  O   -3.525591
     2  C   -4.725979
     3  H    1.321598
     4  H    1.178595
     5  H    1.312783
     6  C    3.675519
     7  C   -3.430278
     8  H    1.664544
     9  C   -0.572179
    10  H    1.403011
    11  C   -4.349732
    12  H    1.249373
    13  S    2.443250
    14  C    2.355087
 Sum of Mulliken charges =   0.00000

 Dipole moment (field-independent basis, Debye):
    X=              0.8839    Y=             -2.8493    Z=              0.1312  Tot=              2.9862

 Test job not archived.
 1\1\GINC-SE073\SP\RHF\Aug-CC-pVDZ\C6H6O1S1\OHZDE\09-Apr-2025\0\\#t hf
 aug-cc-pvdz iop(5/13=1,5/36=2,99/5=2) pseudo=read geom=check guess=(re
 ad,tcheck) scf=(maxcycle=1)\\title\\0,1\O,0,21.0489,-6.0614,0.2076\C,0
 ,21.5638,-3.809,-0.4458\H,0,22.1007,-3.0766,0.1656\H,0,20.4888,-3.6555
 ,-0.3461\H,0,21.8625,-3.6541,-1.4876\C,0,21.9086,-5.2225,-0.0269\C,0,2
 3.8441,-6.8878,0.0054\H,0,23.1862,-7.7498,0.0006\C,0,25.2556,-6.9283,-
 0.0088\H,0,25.8473,-7.8369,-0.0241\C,0,25.8182,-5.661,-0.0104\H,0,26.8
 679,-5.3958,-0.0015\S,0,24.6265,-4.4359,0.007\C,0,23.3452,-5.5894,0.03

 Normal termination of Gaussian 16 at Wed Apr  9 02:24:52 2025.
