 Gaussian 16, Revision C.01,

 ----------------------------------------------------------------------
 #t hf aug-cc-pvdz symm=none int=(grid=ultrafine) guess=(read,tcheck) s
 table=(opt,rrhf)
 ----------------------------------------------------------------------
 -----
 title
 -----
 Symbolic Z-matrix:
 Charge =  0 Multiplicity = 1

 SCF Done:  E(RHF) =  -559.161063600     A.U. after   17 cycles

 1\1\GINC-SE041\Stability\RHF\Aug-CC-pVDZ\C12H9F1\OHZDE\09-Apr-2025\0\\
 #t hf aug-cc-pvdz symm=none int=(grid=ultrafine) guess=(read,tcheck) s
 table=(opt,rrhf)\\title\\0,1\C,0,12.8196,-33.7918,-1.1444\H,0,13.3493,
 -34.1771,-2.0106\C,0,11.4233,-33.7178,-1.1561\H,0,10.8749,-34.056,-2.0
 315\C,0,10.7322,-33.2001,-0.0534\H,0,9.6469,-33.1448,-0.0658\C,0,11.44
 67,-32.7579,1.0664\H,0,10.918,-32.3606,1.9292\C,0,12.8433,-32.8311,1.0
 809\H,0,13.3954,-32.5111,1.9617\C,0,13.5449,-33.3553,-0.0206\C,0,17.14
 4,-32.2319,0.468\H,0,17.6722,-31.3557,0.8328\C,0,15.7463,-32.2491,0.46

 Normal termination of Gaussian 16 at Wed Apr  9 02:32:52 2025.
 Gaussian 16:  ES64L-G16RevC.01  3-Jul-2019

 ----------------------------------------------------------------------
 #t hf aug-cc-pvdz iop(5/13=1,5/36=2,99/5=2) pseudo=read geom=check gue
 ss=(read,tcheck) scf=(maxcycle=1)
 ----------------------------------------------------------------------
 -----
 title
 -----
 Structure from the checkpoint file:  "DCONF_47_0_mol2.chk"
 Charge =  0 Multiplicity = 1

                         Standard orientation:
 ---------------------------------------------------------------------
 Center     Atomic      Atomic             Coordinates (Angstroms)
 Number     Number       Type             X           Y           Z
 ---------------------------------------------------------------------
      1          6           0       -1.515219    0.933769    0.613678
      2          1           0       -0.952535    1.736829    1.080392
      3          6           0       -2.913170    0.956750    0.635429
      4          1           0       -3.429290    1.785611    1.112980
      5          6           0       -3.647769   -0.086241    0.057403
      6          1           0       -4.734180   -0.064614    0.075591
      7          6           0       -2.975123   -1.154798   -0.547359
      8          1           0       -3.537440   -1.965362   -1.004067
      9          6           0       -1.576958   -1.180129   -0.570843
     10          1           0       -1.056190   -1.998037   -1.063642
     11          6           0       -0.831526   -0.133274    0.002530
     12          6           0        2.691138   -1.512728    0.379652
     13          1           0        3.163816   -2.457079    0.633770
     14          6           0        1.296891   -1.419733    0.342932
     15          1           0        0.687286   -2.288576    0.578903
     16          6           0        0.645390   -0.212733    0.021789
     17          6           0        1.466065    0.897283   -0.224329
     18          6           0        2.855542    0.834420   -0.193180
     19          1           0        3.428606    1.730853   -0.409690
     20          6           0        3.473237   -0.381118    0.119096
     21          1           0        4.557329   -0.441140    0.151054
     22          9           0        0.895734    2.079190   -0.552898
 ---------------------------------------------------------------------

 SCF Done:  E(RHF) =  -561.693985962     A.U. after    2 cycles

 The electronic state is 1-A.
 Alpha  occ. eigenvalues --  -29.28218 -11.54432 -11.51910 -11.48023 -11.45468
 Alpha  occ. eigenvalues --  -11.43971 -11.43466 -11.42921 -11.41962 -11.41340
 Alpha  occ. eigenvalues --  -11.40821 -11.38533 -11.36709  -1.40143  -1.31129
 Alpha  occ. eigenvalues --   -1.15551  -1.14237  -1.08964  -1.05779  -0.92579
 Alpha  occ. eigenvalues --   -0.90122  -0.85904  -0.83607  -0.76038  -0.71129
 Alpha  occ. eigenvalues --   -0.68339  -0.63875  -0.62084  -0.60851  -0.58247
 Alpha  occ. eigenvalues --   -0.57968  -0.57250  -0.53525  -0.50211  -0.49175
 Alpha  occ. eigenvalues --   -0.47934  -0.44679  -0.43589  -0.41251  -0.38459
 Alpha  occ. eigenvalues --   -0.36243  -0.32995  -0.30521  -0.26640  -0.22759
 Alpha virt. eigenvalues --    0.03393   0.04936   0.05071   0.05369   0.05585
 Alpha virt. eigenvalues --    0.05942   0.06621   0.07299   0.07608   0.09537
 Alpha virt. eigenvalues --    0.09937   0.10176   0.11546   0.11878   0.12041

 Mulliken charges:
               1
     1  C   -2.426081
     2  H    1.905796
     3  C   -2.445013
     4  H    1.519966
     5  C   -2.928181
     6  H    1.566645
     7  C   -2.267688
     8  H    1.508249
     9  C   -3.553903
    10  H    1.844285
    11  C    6.295726
    12  C   -3.208058
    13  H    1.502764
    14  C   -1.390453
    15  H    1.855399
    16  C   -0.611340
    17  C    3.897574
    18  C   -5.521604
    19  H    1.756742
    20  C   -1.531380
    21  H    1.506507
    22  F    0.724048
 Sum of Mulliken charges =   0.00000

 Dipole moment (field-independent basis, Debye):
    X=             -0.8033    Y=              1.8716    Z=             -0.4684  Tot=              2.0899

 Test job not archived.
 1\1\GINC-SE041\SP\RHF\Aug-CC-pVDZ\C12H9F1\OHZDE\09-Apr-2025\0\\#t hf a
 ug-cc-pvdz iop(5/13=1,5/36=2,99/5=2) pseudo=read geom=check guess=(rea
 d,tcheck) scf=(maxcycle=1)\\title\\0,1\C,0,12.8196,-33.7918,-1.1444\H,
 0,13.3493,-34.1771,-2.0106\C,0,11.4233,-33.7178,-1.1561\H,0,10.8749,-3
 4.056,-2.0315\C,0,10.7322,-33.2001,-0.0534\H,0,9.6469,-33.1448,-0.0658
 \C,0,11.4467,-32.7579,1.0664\H,0,10.918,-32.3606,1.9292\C,0,12.8433,-3
 2.8311,1.0809\H,0,13.3954,-32.5111,1.9617\C,0,13.5449,-33.3553,-0.0206
 \C,0,17.144,-32.2319,0.468\H,0,17.6722,-31.3557,0.8328\C,0,15.7463,-32

 Normal termination of Gaussian 16 at Wed Apr  9 02:33:11 2025.
