 Gaussian 16, Revision C.01,

 ----------------------------------------------------------------------
 #t hf aug-cc-pvdz symm=none int=(grid=ultrafine) guess=(read,tcheck) s
 table=(opt,rrhf)
 ----------------------------------------------------------------------
 -----
 title
 -----
 Symbolic Z-matrix:
 Charge =  0 Multiplicity = 1

 SCF Done:  E(RHF) =  -758.165794307     A.U. after   16 cycles
 Normal termination of Gaussian 16 at Wed Apr  9 02:27:41 2025.
 Gaussian 16:  ES64L-G16RevC.01  3-Jul-2019

 ----------------------------------------------------------------------
 #t hf aug-cc-pvdz iop(5/13=1,5/36=2,99/5=2) pseudo=read geom=check gue
 ss=(read,tcheck) scf=(maxcycle=1)
 ----------------------------------------------------------------------
 -----
 title
 -----
 Structure from the checkpoint file:  "DCONF_38_-130_mol1.chk"
 Charge =  0 Multiplicity = 1

                         Standard orientation:
 ---------------------------------------------------------------------
 Center     Atomic      Atomic             Coordinates (Angstroms)
 Number     Number       Type             X           Y           Z
 ---------------------------------------------------------------------
      1          6           0       -2.148051    0.110151    0.005255
      2          7           0       -1.022738    0.789873   -0.442155
      3          1           0       -1.199268    1.378942   -1.248992
      4          6           0        1.268795    1.372604    0.327097
      5          1           0        1.021405    2.393972    0.596096
      6          6           0        2.557755    0.788921    0.419805
      7          1           0        3.439513    1.302840    0.785193
      8          6           0        2.568360   -0.533784    0.016663
      9          1           0        3.398715   -1.227883    0.029500
     10         16           0        1.022399   -1.055579   -0.507223
     11          6           0        0.312343    0.482692   -0.132227
     12          8           0       -3.237163    0.310647   -0.509372
     13          6           0       -1.937255   -0.840443    1.163964
     14          1           0       -1.143443   -0.501515    1.832743
     15          1           0       -2.882347   -0.921303    1.701605
     16          1           0       -1.668170   -1.830920    0.786148
 ---------------------------------------------------------------------

 SCF Done:  E(RHF) =  -760.051678640     A.U. after    2 cycles

 The electronic state is 1-A.
 Alpha  occ. eigenvalues --  -75.72462 -21.03034 -15.77935 -13.19373 -13.17120
 Alpha  occ. eigenvalues --  -13.06184 -11.50932 -11.49632 -11.45963 -11.43143
 Alpha  occ. eigenvalues --  -11.39210 -11.38914  -8.07063  -1.70616  -1.45054
 Alpha  occ. eigenvalues --   -1.31924  -1.10432  -1.09911  -1.03749  -0.84715
 Alpha  occ. eigenvalues --   -0.79817  -0.78128  -0.72282  -0.63927  -0.61762
 Alpha  occ. eigenvalues --   -0.59284  -0.54749  -0.54535  -0.53288  -0.50894
 Alpha  occ. eigenvalues --   -0.47676  -0.45734  -0.40236  -0.35418  -0.29864
 Alpha  occ. eigenvalues --   -0.29030  -0.27898
 Alpha virt. eigenvalues --    0.02790   0.04231   0.04949   0.05513   0.06135
 Alpha virt. eigenvalues --    0.06588   0.07343   0.08606   0.09861   0.10572
 Alpha virt. eigenvalues --    0.11489   0.11900   0.12289   0.12879   0.13160

 Mulliken charges:
               1
     1  C    4.351422
     2  N   -3.764164
     3  H    0.578431
     4  C   -2.276314
     5  H    1.670418
     6  C   -0.169731
     7  H    1.477637
     8  C   -3.470953
     9  H    1.325902
    10  S    1.808000
    11  C    2.361061
    12  O   -3.316538
    13  C   -4.467524
    14  H    1.470943
    15  H    1.077774
    16  H    1.343634
 Sum of Mulliken charges =   0.00000

 Dipole moment (field-independent basis, Debye):
    X=              1.9747    Y=             -1.7562    Z=             -0.2934  Tot=              2.6589

 Test job not archived.
 1\1\GINC-SE015\SP\RHF\Aug-CC-pVDZ\C6H7N1O1S1\OHZDE\09-Apr-2025\0\\#t h
 f aug-cc-pvdz iop(5/13=1,5/36=2,99/5=2) pseudo=read geom=check guess=(
 read,tcheck) scf=(maxcycle=1)\\title\\0,1\C,0,28.869,-3.8014,-0.8047\N
 ,0,29.4363,-4.7347,0.053\H,0,28.9443,-4.8257,0.9355\C,0,31.0776,-6.601
 8,0.0028\H,0,30.3283,-7.3861,-0.0105\C,0,32.4803,-6.8075,0.0314\H,0,32
 .9582,-7.7805,0.0301\C,0,33.188,-5.6195,0.032\H,0,34.2613,-5.483,0.003
 3\S,0,32.1498,-4.2561,0.0337\C,0,30.7361,-5.2602,-0.032\O,0,27.8271,-3
 .2392,-0.5054\C,0,29.5959,-3.5667,-2.1113\H,0,30.1038,-4.4663,-2.4649\

 Normal termination of Gaussian 16 at Wed Apr  9 02:27:48 2025.
