 Gaussian 16, Revision C.01,

 ----------------------------------------------------------------------
 #t hf aug-cc-pvdz symm=none int=(grid=ultrafine) guess=(read,tcheck) s
 table=(opt,rrhf)
 ----------------------------------------------------------------------
 -----
 title
 -----
 Symbolic Z-matrix:
 Charge =  0 Multiplicity = 1

 SCF Done:  E(RHF) =  -559.160444212     A.U. after   15 cycles

 1\1\GINC-SE143\Stability\RHF\Aug-CC-pVDZ\C12H9F1\OHZDE\09-Apr-2025\0\\
 #t hf aug-cc-pvdz symm=none int=(grid=ultrafine) guess=(read,tcheck) s
 table=(opt,rrhf)\\title\\0,1\C,0,12.8159,-33.1773,-1.1888\H,0,13.3455,
 -32.9787,-2.1179\C,0,11.4174,-33.2168,-1.1641\H,0,10.8558,-33.0484,-2.
 0793\C,0,10.7431,-33.4799,0.0349\H,0,9.657,-33.5133,0.0527\C,0,11.4712
 ,-33.6998,1.2106\H,0,10.9519,-33.9104,2.142\C,0,12.8701,-33.6585,1.187
 6\H,0,13.4423,-33.8364,2.0955\C,0,13.5505,-33.3867,-0.0105\C,0,17.1463
 ,-32.2271,0.4634\H,0,17.6781,-31.3585,0.8411\C,0,15.7471,-32.2433,0.46

 Normal termination of Gaussian 16 at Wed Apr  9 02:32:22 2025.
 Gaussian 16:  ES64L-G16RevC.01  3-Jul-2019

 ----------------------------------------------------------------------
 #t hf aug-cc-pvdz iop(5/13=1,5/36=2,99/5=2) pseudo=read geom=check gue
 ss=(read,tcheck) scf=(maxcycle=1)
 ----------------------------------------------------------------------
 -----
 title
 -----
 Structure from the checkpoint file:  "DCONF_47_100_mol1.chk"
 Charge =  0 Multiplicity = 1

                         Standard orientation:
 ---------------------------------------------------------------------
 Center     Atomic      Atomic             Coordinates (Angstroms)
 Number     Number       Type             X           Y           Z
 ---------------------------------------------------------------------
      1          6           0       -1.537708    0.354576    1.142781
      2          1           0       -0.992179    0.736538    2.002809
      3          6           0       -2.936050    0.396808    1.114022
      4          1           0       -3.481501    0.814410    1.956302
      5          6           0       -3.630852   -0.090798    0.000023
      6          1           0       -4.716781   -0.054989   -0.022816
      7          6           0       -2.923470   -0.624514   -1.084188
      8          1           0       -3.458645   -0.998368   -1.953297
      9          6           0       -1.524774   -0.669210   -1.055733
     10          1           0       -0.968508   -1.075026   -1.897888
     11          6           0       -0.823963   -0.189249    0.062643
     12          6           0        2.752460   -1.468153    0.332148
     13          1           0        3.269779   -2.400805    0.538245
     14          6           0        1.353749   -1.428342    0.339356
     15          1           0        0.776588   -2.324511    0.555251
     16          6           0        0.658801   -0.233456    0.085518
     17          6           0        1.421120    0.904432   -0.199532
     18          6           0        2.812868    0.894508   -0.216185
     19          1           0        3.348560    1.811023   -0.443989
     20          6           0        3.481051   -0.305803    0.050984
     21          1           0        4.567087   -0.327994    0.041411
     22          9           0        0.781802    2.063881   -0.467451
 ---------------------------------------------------------------------

 SCF Done:  E(RHF) =  -561.695586407     A.U. after    2 cycles

 The electronic state is 1-A.
 Alpha  occ. eigenvalues --  -29.28049 -11.55034 -11.52434 -11.47580 -11.45637
 Alpha  occ. eigenvalues --  -11.43587 -11.43437 -11.42799 -11.41827 -11.41250
 Alpha  occ. eigenvalues --  -11.40767 -11.38189 -11.36635  -1.39930  -1.31195
 Alpha  occ. eigenvalues --   -1.15473  -1.13949  -1.08936  -1.05835  -0.92241
 Alpha  occ. eigenvalues --   -0.89814  -0.86259  -0.83520  -0.75690  -0.71423
 Alpha  occ. eigenvalues --   -0.67766  -0.63819  -0.61673  -0.60865  -0.58683
 Alpha  occ. eigenvalues --   -0.57796  -0.57594  -0.53256  -0.50414  -0.49498
 Alpha  occ. eigenvalues --   -0.47469  -0.44846  -0.42692  -0.41295  -0.38340
 Alpha  occ. eigenvalues --   -0.33985  -0.32886  -0.31878  -0.26629  -0.22922
 Alpha virt. eigenvalues --    0.03394   0.04768   0.05270   0.05413   0.05529
 Alpha virt. eigenvalues --    0.05612   0.06436   0.07257   0.07601   0.09799
 Alpha virt. eigenvalues --    0.10385   0.11432   0.11648   0.12109   0.12381

 Mulliken charges:
               1
     1  C   -3.856822
     2  H    1.792536
     3  C   -1.922937
     4  H    1.529559
     5  C   -2.526919
     6  H    1.576145
     7  C   -1.870715
     8  H    1.521059
     9  C   -3.644817
    10  H    1.815375
    11  C    6.661017
    12  C   -2.742473
    13  H    1.516796
    14  C   -2.147964
    15  H    1.812933
    16  C   -0.368411
    17  C    2.886349
    18  C   -4.928859
    19  H    1.741846
    20  C   -1.067292
    21  H    1.532128
    22  F    0.691466
 Sum of Mulliken charges =  -0.00000

 Dipole moment (field-independent basis, Debye):
    X=             -1.0859    Y=              1.8336    Z=             -0.4540  Tot=              2.1788

 Test job not archived.
 1\1\GINC-SE143\SP\RHF\Aug-CC-pVDZ\C12H9F1\OHZDE\09-Apr-2025\0\\#t hf a
 ug-cc-pvdz iop(5/13=1,5/36=2,99/5=2) pseudo=read geom=check guess=(rea
 d,tcheck) scf=(maxcycle=1)\\title\\0,1\C,0,12.8159,-33.1773,-1.1888\H,
 0,13.3455,-32.9787,-2.1179\C,0,11.4174,-33.2168,-1.1641\H,0,10.8558,-3
 3.0484,-2.0793\C,0,10.7431,-33.4799,0.0349\H,0,9.657,-33.5133,0.0527\C
 ,0,11.4712,-33.6998,1.2106\H,0,10.9519,-33.9104,2.142\C,0,12.8701,-33.
 6585,1.1876\H,0,13.4423,-33.8364,2.0955\C,0,13.5505,-33.3867,-0.0105\C
 ,0,17.1463,-32.2271,0.4634\H,0,17.6781,-31.3585,0.8411\C,0,15.7471,-32

 Normal termination of Gaussian 16 at Wed Apr  9 02:32:40 2025.
