 Gaussian 16, Revision C.01,

 ----------------------------------------------------------------------
 #t hf aug-cc-pvdz symm=none int=(grid=ultrafine) guess=(read,tcheck) s
 table=(opt,rrhf)
 ----------------------------------------------------------------------
 -----
 title
 -----
 Symbolic Z-matrix:
 Charge =  0 Multiplicity = 1

 SCF Done:  E(RHF) =  -774.179822446     A.U. after   16 cycles
 Normal termination of Gaussian 16 at Wed Apr  9 02:27:36 2025.
 Gaussian 16:  ES64L-G16RevC.01  3-Jul-2019

 ----------------------------------------------------------------------
 #t hf aug-cc-pvdz iop(5/13=1,5/36=2,99/5=2) pseudo=read geom=check gue
 ss=(read,tcheck) scf=(maxcycle=1)
 ----------------------------------------------------------------------
 -----
 title
 -----
 Structure from the checkpoint file:  "DCONF_42_-140_mol1.chk"
 Charge =  0 Multiplicity = 1

                         Standard orientation:
 ---------------------------------------------------------------------
 Center     Atomic      Atomic             Coordinates (Angstroms)
 Number     Number       Type             X           Y           Z
 ---------------------------------------------------------------------
      1          6           0       -1.991329   -0.133567    0.048386
      2          7           0       -0.975569    0.693937   -0.421215
      3          1           0       -1.181872    1.684162   -0.493062
      4          7           0        1.195652    1.456262    0.109907
      5          6           0        2.470727    0.974211    0.267718
      6          1           0        3.272581    1.662455    0.507004
      7          6           0        2.612581   -0.387017    0.124842
      8          1           0        3.504519   -0.986661    0.245533
      9         16           0        1.093025   -1.110003   -0.220867
     10          6           0        0.379706    0.460526   -0.166750
     11          8           0       -1.782477   -1.287848    0.382439
     12          6           0       -3.354249    0.521478    0.075835
     13          1           0       -3.481932    1.226549   -0.749128
     14          1           0       -4.118828   -0.253058    0.023363
     15          1           0       -3.468252    1.064206    1.019621
 ---------------------------------------------------------------------

 SCF Done:  E(RHF) =  -776.110646832     A.U. after    2 cycles

 The electronic state is 1-A.
 Alpha  occ. eigenvalues --  -75.72266 -21.04821 -15.79636 -15.73967 -13.18705
 Alpha  occ. eigenvalues --  -13.16787 -13.04421 -11.52231 -11.47307 -11.44474
 Alpha  occ. eigenvalues --  -11.40681 -11.39094  -8.06858  -1.72621  -1.51193
 Alpha  occ. eigenvalues --   -1.37748  -1.18824  -1.12793  -1.04817  -0.86769
 Alpha  occ. eigenvalues --   -0.80918  -0.78111  -0.69685  -0.66422  -0.63652
 Alpha  occ. eigenvalues --   -0.60880  -0.58045  -0.54018  -0.52927  -0.49641
 Alpha  occ. eigenvalues --   -0.49187  -0.43107  -0.38456  -0.36616  -0.32586
 Alpha  occ. eigenvalues --   -0.29778  -0.27052
 Alpha virt. eigenvalues --    0.02980   0.04042   0.05532   0.05773   0.06052
 Alpha virt. eigenvalues --    0.07137   0.08761   0.08981   0.10522   0.10974
 Alpha virt. eigenvalues --    0.12391   0.12481   0.12855   0.13508   0.13681

 Mulliken charges:
               1
     1  C    4.318210
     2  N   -3.239879
     3  H    0.842410
     4  N   -3.178548
     5  C    0.550033
     6  H    1.547013
     7  C   -2.631863
     8  H    1.211602
     9  S    1.943043
    10  C    2.326007
    11  O   -3.014994
    12  C   -4.453644
    13  H    1.308702
    14  H    1.178741
    15  H    1.293166
 Sum of Mulliken charges =   0.00000

 Dipole moment (field-independent basis, Debye):
    X=             -1.3574    Y=             -1.7529    Z=             -0.4488  Tot=              2.2620

 Test job not archived.
 1\1\GINC-SE208\SP\RHF\Aug-CC-pVDZ\C5H6N2O1S1\OHZDE\09-Apr-2025\0\\#t h
 f aug-cc-pvdz iop(5/13=1,5/36=2,99/5=2) pseudo=read geom=check guess=(
 read,tcheck) scf=(maxcycle=1)\\title\\0,1\C,0,28.9599,-15.7561,-0.7246
 \N,0,29.3066,-16.881,0.018\H,0,28.5841,-17.5764,0.1686\N,0,30.7368,-18
 .7601,-0.0127\C,0,32.0747,-19.0645,0.0087\H,0,32.3829,-20.1032,0.0038\
 C,0,32.9289,-17.9857,0.0116\H,0,34.0101,-17.9838,-0.0148\S,0,32.0345,-
 16.5192,-0.0149\C,0,30.5828,-17.4524,-0.0106\O,0,29.7979,-14.9788,-1.1
 502\C,0,27.4702,-15.5854,-0.9222\H,0,26.9035,-15.9362,-0.0563\H,0,27.2

 Normal termination of Gaussian 16 at Wed Apr  9 02:27:43 2025.
