 Gaussian 16, Revision C.01,

 ----------------------------------------------------------------------
 #t hf aug-cc-pvdz symm=none int=(grid=ultrafine) guess=(read,tcheck) s
 table=(opt,rrhf)
 ----------------------------------------------------------------------
 -----
 title
 -----
 Symbolic Z-matrix:
 Charge =  0 Multiplicity = 1

 SCF Done:  E(RHF) =  -758.167403540     A.U. after   15 cycles
 Normal termination of Gaussian 16 at Wed Apr  9 02:27:08 2025.
 Gaussian 16:  ES64L-G16RevC.01  3-Jul-2019

 ----------------------------------------------------------------------
 #t hf aug-cc-pvdz iop(5/13=1,5/36=2,99/5=2) pseudo=read geom=check gue
 ss=(read,tcheck) scf=(maxcycle=1)
 ----------------------------------------------------------------------
 -----
 title
 -----
 Structure from the checkpoint file:  "DCONF_38_-100_mol1.chk"
 Charge =  0 Multiplicity = 1

                         Standard orientation:
 ---------------------------------------------------------------------
 Center     Atomic      Atomic             Coordinates (Angstroms)
 Number     Number       Type             X           Y           Z
 ---------------------------------------------------------------------
      1          6           0       -2.157796    0.048674   -0.010230
      2          7           0       -1.054884    0.260212   -0.827497
      3          1           0       -1.262890    0.274721   -1.819514
      4          6           0        1.071273    1.385575   -0.151361
      5          1           0        0.684845    2.395329   -0.239107
      6          6           0        2.390737    1.041430    0.235527
      7          1           0        3.164190    1.758013    0.488418
      8          6           0        2.593836   -0.327260    0.258486
      9          1           0        3.498384   -0.860612    0.520946
     10         16           0        1.186823   -1.191162   -0.195600
     11          6           0        0.284901    0.274582   -0.406159
     12          8           0       -3.276902   -0.042178   -0.489109
     13          6           0       -1.864679   -0.047819    1.471191
     14          1           0       -1.188858    0.746889    1.795341
     15          1           0       -1.384331   -1.004945    1.695678
     16          1           0       -2.810729    0.014044    2.008455
 ---------------------------------------------------------------------

 SCF Done:  E(RHF) =  -760.054444148     A.U. after    2 cycles

 The electronic state is 1-A.
 Alpha  occ. eigenvalues --  -75.72492 -21.02886 -15.77648 -13.19483 -13.17068
 Alpha  occ. eigenvalues --  -13.06212 -11.51052 -11.49037 -11.45935 -11.43395
 Alpha  occ. eigenvalues --  -11.39174 -11.38914  -8.07089  -1.70448  -1.44923
 Alpha  occ. eigenvalues --   -1.31944  -1.10205  -1.09964  -1.03759  -0.84478
 Alpha  occ. eigenvalues --   -0.80344  -0.77839  -0.72322  -0.63808  -0.61665
 Alpha  occ. eigenvalues --   -0.59266  -0.54540  -0.54485  -0.52990  -0.51293
 Alpha  occ. eigenvalues --   -0.47583  -0.45639  -0.40391  -0.34154  -0.30668
 Alpha  occ. eigenvalues --   -0.28938  -0.28123
 Alpha virt. eigenvalues --    0.02750   0.04232   0.04938   0.05552   0.06004
 Alpha virt. eigenvalues --    0.06657   0.07425   0.08093   0.09908   0.10741
 Alpha virt. eigenvalues --    0.10836   0.11515   0.12167   0.12822   0.13480

 Mulliken charges:
               1
     1  C    3.935102
     2  N   -3.928022
     3  H    0.549324
     4  C   -1.831954
     5  H    1.663601
     6  C   -0.540540
     7  H    1.480012
     8  C   -3.204614
     9  H    1.307868
    10  S    1.769859
    11  C    2.664550
    12  O   -3.243225
    13  C   -4.446585
    14  H    1.417286
    15  H    1.319433
    16  H    1.087905
 Sum of Mulliken charges =   0.00000

 Dipole moment (field-independent basis, Debye):
    X=              2.3508    Y=             -1.6366    Z=              0.2609  Tot=              2.8763

 Test job not archived.
 1\1\GINC-SE073\SP\RHF\Aug-CC-pVDZ\C6H7N1O1S1\OHZDE\09-Apr-2025\0\\#t h
 f aug-cc-pvdz iop(5/13=1,5/36=2,99/5=2) pseudo=read geom=check guess=(
 read,tcheck) scf=(maxcycle=1)\\title\\0,1\C,0,28.752,-4.237,-1.0809\N,
 0,29.4395,-4.7231,0.0237\H,0,28.9909,-4.5376,0.9136\C,0,31.0802,-6.607
 8,0.0113\H,0,30.3328,-7.3939,0.003\C,0,32.4834,-6.8081,0.0151\H,0,32.9
 661,-7.779,0.0098\C,0,33.1865,-5.6162,0.0257\H,0,34.26,-5.4778,0.0253\
 S,0,32.144,-4.2578,0.038\C,0,30.7344,-5.2669,0.0072\O,0,27.6671,-3.693
 8,-0.9471\C,0,29.4346,-4.4385,-2.4163\H,0,29.8196,-5.4559,-2.5165\H,0,

 Normal termination of Gaussian 16 at Wed Apr  9 02:27:16 2025.
