 Gaussian 16, Revision C.01,

 ----------------------------------------------------------------------
 #t hf aug-cc-pvdz symm=none int=(grid=ultrafine) guess=(read,tcheck) s
 table=(opt,rrhf)
 ----------------------------------------------------------------------
 -----
 title
 -----
 Symbolic Z-matrix:
 Charge =  0 Multiplicity = 1

 SCF Done:  E(RHF) =  -1153.55105479     A.U. after   16 cycles
 Normal termination of Gaussian 16 at Wed Apr  9 02:26:28 2025.
 Gaussian 16:  ES64L-G16RevC.01  3-Jul-2019

 ----------------------------------------------------------------------
 #t hf aug-cc-pvdz iop(5/13=1,5/36=2,99/5=2) pseudo=read geom=check gue
 ss=(read,tcheck) scf=(maxcycle=1)
 ----------------------------------------------------------------------
 -----
 title
 -----
 Structure from the checkpoint file:  "DCONF_29_0_mol1.chk"
 Charge =  0 Multiplicity = 1

                         Standard orientation:
 ---------------------------------------------------------------------
 Center     Atomic      Atomic             Coordinates (Angstroms)
 Number     Number       Type             X           Y           Z
 ---------------------------------------------------------------------
      1          6           0       -2.758627   -0.006231    0.000065
      2          1           0       -3.795271   -0.316380    0.000032
      3          6           0       -2.246214    1.276387    0.000181
      4          1           0       -2.839694    2.182697    0.000379
      5          7           0       -0.880848    1.362757   -0.000113
      6          6           0       -0.367846    0.146744    0.000000
      7         16           0       -1.490908   -1.155106   -0.000107
      8         16           0        1.394191   -0.165861    0.000043
      9          6           0        2.057255    1.482084   -0.000146
     10          1           0        1.733808    1.999869    0.901412
     11          1           0        3.140732    1.340565   -0.002913
     12          1           0        1.729605    2.001441   -0.899253
     13          8           0        1.727363   -0.812842    1.263576
     14          8           0        1.727241   -0.812899   -1.263381
 ---------------------------------------------------------------------

 SCF Done:  E(RHF) =  -1155.64963319     A.U. after    2 cycles

 The electronic state is 1-A.
 Alpha  occ. eigenvalues --  -75.90059 -75.75756 -21.05080 -21.05059 -15.78651
 Alpha  occ. eigenvalues --  -13.51511 -13.45103 -13.36314 -13.21958 -13.20066
 Alpha  occ. eigenvalues --  -13.07557 -11.48098 -11.47700 -11.43219 -11.42361
 Alpha  occ. eigenvalues --   -8.25046  -8.10338  -1.83215  -1.64943  -1.51076
 Alpha  occ. eigenvalues --   -1.22131  -1.18477  -1.10212  -0.95902  -0.84801
 Alpha  occ. eigenvalues --   -0.77810  -0.72958  -0.64437  -0.63750  -0.61096
 Alpha  occ. eigenvalues --   -0.58965  -0.55270  -0.53553  -0.45837  -0.45762
 Alpha  occ. eigenvalues --   -0.41839  -0.40748  -0.38641  -0.36848  -0.35711
 Alpha  occ. eigenvalues --   -0.34954  -0.30746
 Alpha virt. eigenvalues --    0.02253   0.03862   0.04782   0.06105   0.06502
 Alpha virt. eigenvalues --    0.07059   0.08909   0.09395   0.09915   0.11211
 Alpha virt. eigenvalues --    0.11691   0.12039   0.12807   0.12968   0.14217

 Mulliken charges:
               1
     1  C   -2.800437
     2  H    1.248420
     3  C    0.669689
     4  H    1.591157
     5  N   -3.773275
     6  C    0.893929
     7  S    1.448031
     8  S    5.835704
     9  C   -4.538716
    10  H    1.349767
    11  H    1.371887
    12  H    1.349160
    13  O   -2.322111
    14  O   -2.323205
 Sum of Mulliken charges =  -0.00000

 Dipole moment (field-independent basis, Debye):
    X=             -2.4268    Y=             -1.5340    Z=             -0.0004  Tot=              2.8710

 Test job not archived.
 1\1\GINC-SE334\SP\RHF\Aug-CC-pVDZ\C4H5N1O2S2\OHZDE\09-Apr-2025\0\\#t h
 f aug-cc-pvdz iop(5/13=1,5/36=2,99/5=2) pseudo=read geom=check guess=(
 read,tcheck) scf=(maxcycle=1)\\title\\0,1\C,0,2.0287,-24.6291,-0.8964\
 H,0,0.9801,-24.638,-1.1632\C,0,2.815,-25.6814,-0.4697\H,0,2.4719,-26.7
 007,-0.3396\N,0,4.1196,-25.3682,-0.2021\C,0,4.3136,-24.0824,-0.4278\S,
 0,2.9484,-23.1883,-0.969\S,0,5.8967,-23.2815,-0.1936\C,0,6.9113,-24.63
 21,0.3558\H,0,6.9491,-25.393,-0.4221\H,0,7.8961,-24.1865,0.5157\H,0,6.
 5078,-25.03,1.2855\O,0,6.3637,-22.8366,-1.5013\O,0,5.7493,-22.3234,0.8

 Normal termination of Gaussian 16 at Wed Apr  9 02:26:34 2025.
