 Gaussian 16, Revision C.01,

 ----------------------------------------------------------------------
 #t hf aug-cc-pvdz symm=none int=(grid=ultrafine) guess=(read,tcheck) s
 table=(opt,rrhf)
 ----------------------------------------------------------------------
 -----
 title
 -----
 Symbolic Z-matrix:
 Charge =  0 Multiplicity = 1

 SCF Done:  E(RHF) =  -911.018331183     A.U. after   16 cycles
 Normal termination of Gaussian 16 at Wed Apr  9 02:30:05 2025.
 Gaussian 16:  ES64L-G16RevC.01  3-Jul-2019

 ----------------------------------------------------------------------
 #t hf aug-cc-pvdz iop(5/13=1,5/36=2,99/5=2) pseudo=read geom=check gue
 ss=(read,tcheck) scf=(maxcycle=1)
 ----------------------------------------------------------------------
 -----
 title
 -----
 Structure from the checkpoint file:  "DCONF_30_-120_mol1.chk"
 Charge =  0 Multiplicity = 1

                         Standard orientation:
 ---------------------------------------------------------------------
 Center     Atomic      Atomic             Coordinates (Angstroms)
 Number     Number       Type             X           Y           Z
 ---------------------------------------------------------------------
      1          6           0       -2.886476   -0.853911    0.507368
      2          1           0       -3.566984   -1.612747    0.883801
      3          6           0       -1.538482   -1.171999    0.306500
      4          1           0       -1.149322   -2.161345    0.526805
      5          6           0       -0.672742   -0.185501   -0.178771
      6         16           0        1.034333   -0.607793   -0.494643
      7          7           0        1.942748    0.390376    0.489233
      8          6           0        1.692599    0.231193    1.924075
      9          1           0        1.647450   -0.828900    2.174704
     10          1           0        0.761051    0.728625    2.234279
     11          1           0        2.530738    0.683024    2.461130
     12          6           0        2.110855    1.788482    0.091750
     13          1           0        2.193719    1.854853   -0.993230
     14          1           0        3.042296    2.149545    0.537119
     15          1           0        1.284694    2.419312    0.450523
     16          6           0       -1.141625    1.092975   -0.511228
     17          1           0       -0.476102    1.823431   -0.960341
     18          6           0       -2.489305    1.400066   -0.297742
     19          1           0       -2.861465    2.389370   -0.549597
     20          6           0       -3.361245    0.430158    0.213939
     21          1           0       -4.409084    0.671201    0.370014
     22          8           0        1.341944   -0.226587   -1.863000
     23          8           0        1.229677   -1.962549   -0.009613
 ---------------------------------------------------------------------

 SCF Done:  E(RHF) =  -913.679003671     A.U. after    2 cycles

 The electronic state is 1-A.
 Alpha  occ. eigenvalues --  -75.89535 -21.04029 -21.03957 -15.74997 -13.52120
 Alpha  occ. eigenvalues --  -13.43343 -13.39023 -11.54758 -11.46357 -11.46232
 Alpha  occ. eigenvalues --  -11.43946 -11.43285 -11.41457 -11.40557 -11.39189
 Alpha  occ. eigenvalues --   -8.24634  -1.83213  -1.65017  -1.44212  -1.35960
 Alpha  occ. eigenvalues --   -1.14306  -1.11480  -1.06019  -1.02815  -0.90734
 Alpha  occ. eigenvalues --   -0.89024  -0.82158  -0.73474  -0.69138  -0.66732
 Alpha  occ. eigenvalues --   -0.65259  -0.63228  -0.60904  -0.60075  -0.59709
 Alpha  occ. eigenvalues --   -0.56721  -0.54634  -0.52280  -0.51244  -0.49314
 Alpha  occ. eigenvalues --   -0.47630  -0.43147  -0.40080  -0.39481  -0.38055
 Alpha  occ. eigenvalues --   -0.35482  -0.35243  -0.34708  -0.33902
 Alpha virt. eigenvalues --    0.02793   0.04242   0.04702   0.04808   0.05236
 Alpha virt. eigenvalues --    0.06305   0.06571   0.06921   0.07372   0.07948
 Alpha virt. eigenvalues --    0.08677   0.09287   0.10264   0.10461   0.11557

 Mulliken charges:
               1
     1  C   -0.889369
     2  H    1.551804
     3  C   -4.183177
     4  H    2.023622
     5  C    1.621638
     6  S    7.645305
     7  N   -2.479536
     8  C   -3.949463
     9  H    1.480354
    10  H    1.672798
    11  H    1.306795
    12  C   -3.911777
    13  H    1.428634
    14  H    1.282475
    15  H    1.631318
    16  C   -1.511636
    17  H    2.127243
    18  C   -1.354513
    19  H    1.493875
    20  C   -2.789244
    21  H    1.587622
    22  O   -2.812346
    23  O   -2.972422
 Sum of Mulliken charges =  -0.00000

 Dipole moment (field-independent basis, Debye):
    X=             -1.9055    Y=              2.1947    Z=              1.8770  Tot=              3.4599

 Test job not archived.
 1\1\GINC-SE273\SP\RHF\Aug-CC-pVDZ\C8H11N1O2S1\OHZDE\09-Apr-2025\0\\#t
 hf aug-cc-pvdz iop(5/13=1,5/36=2,99/5=2) pseudo=read geom=check guess=
 (read,tcheck) scf=(maxcycle=1)\\title\\0,1\C,0,3.9183,-2.1649,0.3337\H
 ,0,4.625,-2.0528,1.1514\C,0,2.7039,-1.4702,0.3689\H,0,2.4428,-0.8244,1
 .2017\C,0,1.8027,-1.6234,-0.6906\S,0,0.2799,-0.689,-0.6768\N,0,-0.9506
 ,-1.8183,-0.6879\C,0,-0.9625,-2.7248,0.4631\H,0,-0.7979,-2.1582,1.3799
 \H,0,-0.2011,-3.5141,0.3697\H,0,-1.9505,-3.1902,0.5112\C,0,-1.2597,-2.
 4938,-1.9485\H,0,-1.1392,-1.797,-2.7782\H,0,-2.3056,-2.811,-1.9063\H,0

 Normal termination of Gaussian 16 at Wed Apr  9 02:30:25 2025.
