 Gaussian 16, Revision C.01,

 ----------------------------------------------------------------------
 #t hf aug-cc-pvdz symm=none int=(grid=ultrafine) guess=(read,tcheck) s
 table=(opt,rrhf)
 ----------------------------------------------------------------------
 -----
 title
 -----
 Symbolic Z-matrix:
 Charge =  0 Multiplicity = 1

 SCF Done:  E(RHF) =  -1153.55011722     A.U. after   15 cycles
 Normal termination of Gaussian 16 at Wed Apr  9 02:27:06 2025.
 Gaussian 16:  ES64L-G16RevC.01  3-Jul-2019

 ----------------------------------------------------------------------
 #t hf aug-cc-pvdz iop(5/13=1,5/36=2,99/5=2) pseudo=read geom=check gue
 ss=(read,tcheck) scf=(maxcycle=1)
 ----------------------------------------------------------------------
 -----
 title
 -----
 Structure from the checkpoint file:  "DCONF_29_90_mol1.chk"
 Charge =  0 Multiplicity = 1

                         Standard orientation:
 ---------------------------------------------------------------------
 Center     Atomic      Atomic             Coordinates (Angstroms)
 Number     Number       Type             X           Y           Z
 ---------------------------------------------------------------------
      1          6           0       -2.739972   -0.120908    0.076344
      2          1           0       -3.751476   -0.503446    0.119272
      3          6           0       -2.322236    1.199430    0.051465
      4          1           0       -2.982594    2.058397    0.075438
      5          7           0       -0.973288    1.387422   -0.020599
      6          6           0       -0.370140    0.214568   -0.042978
      7         16           0       -1.394830   -1.169583   -0.005843
      8         16           0        1.401713    0.026799   -0.178958
      9          6           0        1.917927    0.024406    1.526079
     10          1           0        1.446398   -0.817591    2.033903
     11          1           0        3.003749   -0.094222    1.515954
     12          1           0        1.639917    0.978603    1.975911
     13          8           0        1.604754   -1.320527   -0.704786
     14          8           0        1.949423    1.201260   -0.830829
 ---------------------------------------------------------------------

 SCF Done:  E(RHF) =  -1155.65193667     A.U. after    2 cycles

 The electronic state is 1-A.
 Alpha  occ. eigenvalues --  -75.90006 -75.75923 -21.05177 -21.05039 -15.78540
 Alpha  occ. eigenvalues --  -13.52222 -13.42019 -13.38254 -13.21655 -13.20348
 Alpha  occ. eigenvalues --  -13.08113 -11.47874 -11.47281 -11.43392 -11.42360
 Alpha  occ. eigenvalues --   -8.25004  -8.10467  -1.83282  -1.65337  -1.50833
 Alpha  occ. eigenvalues --   -1.21956  -1.18250  -1.10491  -0.95761  -0.84667
 Alpha  occ. eigenvalues --   -0.77617  -0.72708  -0.64551  -0.63912  -0.61872
 Alpha  occ. eigenvalues --   -0.57760  -0.55956  -0.55165  -0.45346  -0.43933
 Alpha  occ. eigenvalues --   -0.41782  -0.39702  -0.38735  -0.37395  -0.35619
 Alpha  occ. eigenvalues --   -0.35358  -0.31953
 Alpha virt. eigenvalues --    0.02097   0.03412   0.04762   0.05551   0.06358
 Alpha virt. eigenvalues --    0.07446   0.08109   0.08916   0.10218   0.11156
 Alpha virt. eigenvalues --    0.11683   0.12128   0.12945   0.13473   0.13692

 Mulliken charges:
               1
     1  C   -2.638688
     2  H    1.229197
     3  C    0.737476
     4  H    1.582391
     5  N   -3.627288
     6  C    0.492748
     7  S    1.312918
     8  S    6.540583
     9  C   -4.721504
    10  H    1.354320
    11  H    1.358777
    12  H    1.376405
    13  O   -2.527187
    14  O   -2.470148
 Sum of Mulliken charges =  -0.00000

 Dipole moment (field-independent basis, Debye):
    X=             -2.3671    Y=             -3.3588    Z=              1.7163  Tot=              4.4532

 Test job not archived.
 1\1\GINC-SE195\SP\RHF\Aug-CC-pVDZ\C4H5N1O2S2\OHZDE\09-Apr-2025\0\\#t h
 f aug-cc-pvdz iop(5/13=1,5/36=2,99/5=2) pseudo=read geom=check guess=(
 read,tcheck) scf=(maxcycle=1)\\title\\0,1\C,0,2.028,-24.6253,-0.8948\H
 ,0,0.9752,-24.6342,-1.1455\C,0,2.8162,-25.6792,-0.463\H,0,2.4665,-26.6
 944,-0.3162\N,0,4.1191,-25.3704,-0.2036\C,0,4.3199,-24.0892,-0.4446\S,
 0,2.948,-23.1886,-0.9681\S,0,5.8908,-23.2781,-0.1846\C,0,6.6936,-23.48
 51,-1.7614\H,0,6.0923,-22.9951,-2.5279\H,0,7.669,-23.0014,-1.673\H,0,6
 .8102,-24.5522,-1.9559\O,0,5.5699,-21.8613,-0.0339\O,0,6.6375,-24.0122

 Normal termination of Gaussian 16 at Wed Apr  9 02:27:12 2025.
