 Gaussian 16, Revision C.01,

 ----------------------------------------------------------------------
 #t hf aug-cc-pvdz symm=none int=(grid=ultrafine) guess=(read,tcheck) s
 table=(opt,rrhf)
 ----------------------------------------------------------------------
 -----
 title
 -----
 Symbolic Z-matrix:
 Charge =  0 Multiplicity = 1

 SCF Done:  E(RHF) =  -703.109293793     A.U. after   16 cycles
 Normal termination of Gaussian 16 at Wed Apr  9 02:24:17 2025.
 Gaussian 16:  ES64L-G16RevC.01  3-Jul-2019

 ----------------------------------------------------------------------
 #t hf aug-cc-pvdz iop(5/13=1,5/36=2,99/5=2) pseudo=read geom=check gue
 ss=(read,tcheck) scf=(maxcycle=1)
 ----------------------------------------------------------------------
 -----
 title
 -----
 Structure from the checkpoint file:  "DCONF_24_-110_mol1.chk"
 Charge =  0 Multiplicity = 1

                         Standard orientation:
 ---------------------------------------------------------------------
 Center     Atomic      Atomic             Coordinates (Angstroms)
 Number     Number       Type             X           Y           Z
 ---------------------------------------------------------------------
      1          8           0       -2.296046    0.913219   -0.822855
      2          6           0       -2.241306   -0.788218    0.873823
      3          1           0       -1.925315   -0.475304    1.874064
      4          1           0       -3.328865   -0.761473    0.792989
      5          1           0       -1.877074   -1.810337    0.725916
      6          6           0       -1.627067    0.155484   -0.137249
      7          6           0        0.600668    1.336635    0.280945
      8          1           0        0.136319    2.292404    0.499433
      9          6           0        1.989661    1.065827    0.366506
     10          1           0        2.741377    1.792777    0.652969
     11          6           0        2.288886   -0.245005    0.042777
     12          1           0        3.262625   -0.713342   -0.021324
     13         16           0        0.881098   -1.137840   -0.352668
     14          6           0       -0.133886    0.237771   -0.143221
 ---------------------------------------------------------------------

 SCF Done:  E(RHF) =  -704.742737916     A.U. after    2 cycles

 The electronic state is 1-A.
 Alpha  occ. eigenvalues --  -75.72799 -21.05931 -13.19195 -13.17277 -13.05430
 Alpha  occ. eigenvalues --  -11.50955 -11.49099 -11.44982 -11.42880 -11.39662
 Alpha  occ. eigenvalues --  -11.38706  -8.07388  -1.70832  -1.38309  -1.13896
 Alpha  occ. eigenvalues --   -1.09683  -1.05161  -0.87689  -0.79904  -0.73664
 Alpha  occ. eigenvalues --   -0.68010  -0.60435  -0.60280  -0.56929  -0.53753
 Alpha  occ. eigenvalues --   -0.51140  -0.50449  -0.46604  -0.42484  -0.38896
 Alpha  occ. eigenvalues --   -0.32621  -0.28671  -0.28182
 Alpha virt. eigenvalues --    0.02894   0.04100   0.05154   0.05761   0.06388
 Alpha virt. eigenvalues --    0.06709   0.08913   0.09444   0.10078   0.10249
 Alpha virt. eigenvalues --    0.12166   0.12264   0.13029   0.13628   0.13979

 Mulliken charges:
               1
     1  O   -3.188514
     2  C   -4.217789
     3  H    1.348859
     4  H    1.263593
     5  H    1.381855
     6  C    2.805896
     7  C   -1.984536
     8  H    1.586024
     9  C   -0.639661
    10  H    1.444492
    11  C   -3.632650
    12  H    1.290565
    13  S    1.580096
    14  C    0.961769
 Sum of Mulliken charges =   0.00000

 Dipole moment (field-independent basis, Debye):
    X=              0.9249    Y=             -2.4477    Z=              0.5167  Tot=              2.6672

 Test job not archived.
 1\1\GINC-SE128\SP\RHF\Aug-CC-pVDZ\C6H6O1S1\OHZDE\09-Apr-2025\0\\#t hf
 aug-cc-pvdz iop(5/13=1,5/36=2,99/5=2) pseudo=read geom=check guess=(re
 ad,tcheck) scf=(maxcycle=1)\\title\\0,1\O,0,21.0732,-5.6202,0.734\C,0,
 21.5317,-4.4789,-1.3309\H,0,21.8005,-5.1034,-2.1888\H,0,20.4614,-4.268
 ,-1.3347\H,0,22.1001,-3.5471,-1.42\C,0,21.9053,-5.2204,-0.0657\C,0,23.
 8426,-6.8857,0.0146\H,0,23.1923,-7.754,0.0106\C,0,25.2592,-6.9271,-0.0
 24\H,0,25.8472,-7.8376,-0.053\C,0,25.8206,-5.6632,-0.0228\H,0,26.8694,
 -5.3964,-0.0015\S,0,24.6239,-4.4377,0.0154\C,0,23.3465,-5.591,0.0826\\

 Normal termination of Gaussian 16 at Wed Apr  9 02:24:22 2025.
