 Gaussian 16, Revision C.01,

 ----------------------------------------------------------------------
 #t hf aug-cc-pvdz symm=none int=(grid=ultrafine) guess=(read,tcheck) s
 table=(opt,rrhf)
 ----------------------------------------------------------------------
 -----
 title
 -----
 Symbolic Z-matrix:
 Charge =  0 Multiplicity = 1

 SCF Done:  E(RHF) =  -681.466082049     A.U. after   13 cycles
 Normal termination of Gaussian 16 at Wed Apr  9 02:22:54 2025.
 Gaussian 16:  ES64L-G16RevC.01  3-Jul-2019

 ----------------------------------------------------------------------
 #t hf aug-cc-pvdz iop(5/13=1,5/36=2,99/5=2) pseudo=read geom=check gue
 ss=(read,tcheck) scf=(maxcycle=1)
 ----------------------------------------------------------------------
 -----
 title
 -----
 Structure from the checkpoint file:  "DCONF_16_180_mol1.chk"
 Charge =  0 Multiplicity = 1

                         Standard orientation:
 ---------------------------------------------------------------------
 Center     Atomic      Atomic             Coordinates (Angstroms)
 Number     Number       Type             X           Y           Z
 ---------------------------------------------------------------------
      1          6           0       -1.706566    0.967322   -0.207793
      2          1           0       -1.621116    1.419352   -1.194998
      3          1           0       -1.670543    1.714402    0.585703
      4          1           0       -2.626537    0.386167   -0.126772
      5         16           0       -0.378583   -0.191478    0.020558
      6          8           0       -0.326899   -1.123794   -1.091654
      7          7           0        0.942387    0.847141   -0.162646
      8          1           0        0.867063    1.553291    0.569241
      9          8           0       -0.467291   -0.696641    1.386751
     10          6           0        2.235710    0.145931   -0.020446
     11          1           0        2.319862   -0.591416   -0.819257
     12          1           0        2.345474   -0.352226    0.948561
     13          1           0        3.025067    0.888038   -0.144230
 ---------------------------------------------------------------------

 SCF Done:  E(RHF) =  -683.028578066     A.U. after    2 cycles

 The electronic state is 1-A.
 Alpha  occ. eigenvalues --  -75.89458 -21.04298 -21.04159 -15.77157 -13.51051
 Alpha  occ. eigenvalues --  -13.42353 -13.34824 -11.42794 -11.40928  -8.24628
 Alpha  occ. eigenvalues --   -1.83034  -1.64680  -1.40528  -1.15541  -1.00965
 Alpha  occ. eigenvalues --   -0.87668  -0.70530  -0.65670  -0.64026  -0.62757
 Alpha  occ. eigenvalues --   -0.57762  -0.54620  -0.53377  -0.47947  -0.41434
 Alpha  occ. eigenvalues --   -0.39069  -0.37710  -0.36169  -0.33958
 Alpha virt. eigenvalues --    0.02711   0.03549   0.05033   0.05552   0.06725
 Alpha virt. eigenvalues --    0.07144   0.07797   0.11172   0.12097   0.12767
 Alpha virt. eigenvalues --    0.13646   0.13909   0.14817   0.15041   0.15970

 Mulliken charges:
               1
     1  C   -4.512916
     2  H    1.314448
     3  H    1.361591
     4  H    1.347049
     5  S    7.178605
     6  O   -2.673449
     7  N   -2.725015
     8  H    0.685336
     9  O   -2.623755
    10  C   -3.379277
    11  H    1.390195
    12  H    1.313444
    13  H    1.323743
 Sum of Mulliken charges =   0.00000

 Dipole moment (field-independent basis, Debye):
    X=              0.5595    Y=              2.2142    Z=              0.2872  Tot=              2.3018

 Test job not archived.
 1\1\GINC-SE128\SP\RHF\Aug-CC-pVDZ\C2H7N1O2S1\OHZDE\09-Apr-2025\0\\#t h
 f aug-cc-pvdz iop(5/13=1,5/36=2,99/5=2) pseudo=read geom=check guess=(
 read,tcheck) scf=(maxcycle=1)\\title\\0,1\C,0,-1.093,-1.3883,-0.5933\H
 ,0,-0.4133,-1.188,-1.4204\H,0,-0.8515,-0.7893,0.2853\H,0,-2.1274,-1.20
 83,-0.8904\S,0,-1.0029,-3.1115,-0.1679\O,0,-1.1971,-3.9328,-1.3497\N,0
 ,0.6363,-3.223,0.2294\H,0,0.7954,-2.5861,1.0098\O,0,-1.8456,-3.3183,1.
 0054\C,0,1.0263,-4.5887,0.6385\H,0,0.8755,-5.2602,-0.2072\H,0,0.4572,-
 4.9538,1.4999\H,0,2.0889,-4.5658,0.8824\\Version=ES64L-G16RevC.01\Stat

 Normal termination of Gaussian 16 at Wed Apr  9 02:22:58 2025.
