 Gaussian 16, Revision C.01,

 ----------------------------------------------------------------------
 #t hf aug-cc-pvdz symm=none int=(grid=ultrafine) guess=(read,tcheck) s
 table=(opt,rrhf)
 ----------------------------------------------------------------------
 -----
 title
 -----
 Symbolic Z-matrix:
 Charge =  0 Multiplicity = 1

 SCF Done:  E(RHF) =  -453.941743800     A.U. after   11 cycles
 Normal termination of Gaussian 16 at Wed Apr  9 02:21:57 2025.
 Gaussian 16:  ES64L-G16RevC.01  3-Jul-2019

 ----------------------------------------------------------------------
 #t hf aug-cc-pvdz iop(5/13=1,5/36=2,99/5=2) pseudo=read geom=check gue
 ss=(read,tcheck) scf=(maxcycle=1)
 ----------------------------------------------------------------------
 -----
 title
 -----
 Structure from the checkpoint file:  "DCONF_10_-150_mol1.chk"
 Charge =  0 Multiplicity = 1

                         Standard orientation:
 ---------------------------------------------------------------------
 Center     Atomic      Atomic             Coordinates (Angstroms)
 Number     Number       Type             X           Y           Z
 ---------------------------------------------------------------------
      1          6           0       -0.461329   -0.614346   -0.036952
      2          1           0       -0.537637   -1.207019   -0.953804
      3          1           0       -0.564417   -1.299261    0.809501
      4          6           0       -1.559189    0.450484   -0.029666
      5          1           0       -1.425400    1.111962    0.833196
      6          1           0       -1.463386    1.069698   -0.925395
      7          6           0       -2.944974   -0.192562    0.019158
      8          1           0       -3.068258   -0.787943    0.929237
      9          1           0       -3.097516   -0.853530   -0.840108
     10          1           0       -3.730007    0.568072    0.003469
     11          6           0        0.940499   -0.049008    0.006796
     12          9           0        1.024963    1.152868   -0.601964
     13          9           0        1.378866    0.123497    1.269377
     14          9           0        1.822458   -0.850741   -0.624314
 ---------------------------------------------------------------------

 SCF Done:  E(RHF) =  -455.731456832     A.U. after    2 cycles

 The electronic state is 1-A.
 Alpha  occ. eigenvalues --  -29.29948 -29.29792 -29.29602 -11.60089 -11.43902
 Alpha  occ. eigenvalues --  -11.40524 -11.36820  -1.43129  -1.20586  -1.02730
 Alpha  occ. eigenvalues --   -0.90276  -0.87917  -0.84074  -0.70701  -0.65467
 Alpha  occ. eigenvalues --   -0.58163  -0.55869  -0.51048  -0.49393  -0.48793
 Alpha  occ. eigenvalues --   -0.46261  -0.42824  -0.42259  -0.34987  -0.34471
 Alpha  occ. eigenvalues --   -0.29121  -0.24499  -0.24061  -0.20426
 Alpha virt. eigenvalues --    0.03724   0.05578   0.05635   0.06179   0.06214
 Alpha virt. eigenvalues --    0.07368   0.08073   0.10478   0.10740   0.12808
 Alpha virt. eigenvalues --    0.13652   0.14142   0.14554   0.15899   0.17032

 Mulliken charges:
               1
     1  C   -4.219340
     2  H    1.457890
     3  H    1.304217
     4  C   -2.922031
     5  H    1.499202
     6  H    1.441013
     7  C   -3.831912
     8  H    1.241710
     9  H    1.240367
    10  H    1.097079
    11  C    0.682754
    12  F    0.388130
    13  F    0.260640
    14  F    0.360281
 Sum of Mulliken charges =   0.00000

 Dipole moment (field-independent basis, Debye):
    X=              0.6012    Y=              0.6224    Z=             -0.0141  Tot=              0.8654

 Test job not archived.
 1\1\GINC-SE131\SP\RHF\Aug-CC-pVDZ\C4H7F3\OHZDE\09-Apr-2025\0\\#t hf au
 g-cc-pvdz iop(5/13=1,5/36=2,99/5=2) pseudo=read geom=check guess=(read
 ,tcheck) scf=(maxcycle=1)\\title\\0,1\C,0,-0.1425,0.0055,0.188\H,0,0.0
 032,-0.5106,1.142\H,0,0.2391,-0.6466,-0.6028\C,0,0.6013,1.3416,0.2165\
 H,0,0.3756,1.9086,-0.6932\H,0,0.2402,1.9345,1.0609\C,0,2.11,1.1257,0.3
 327\H,0,2.492,0.5631,-0.5249\H,0,2.3538,0.5645,1.2405\H,0,2.6399,2.081
 ,0.3739\C,0,-1.6347,0.1395,-0.017\F,0,-2.1209,1.2841,0.5081\F,0,-1.969
 7,0.138,-1.3223\F,0,-2.3128,-0.8628,0.5784\\Version=ES64L-G16RevC.01\S

 Normal termination of Gaussian 16 at Wed Apr  9 02:22:02 2025.
