 Gaussian 16, Revision C.01,

 ----------------------------------------------------------------------
 #t hf aug-cc-pvdz symm=none int=(grid=ultrafine) guess=(read,tcheck) s
 table=(opt,rrhf)
 ----------------------------------------------------------------------
 -----
 title
 -----
 Symbolic Z-matrix:
 Charge =  0 Multiplicity = 1

 SCF Done:  E(RHF) =  -796.897808508     A.U. after   16 cycles
 Normal termination of Gaussian 16 at Wed Apr  9 02:30:57 2025.
 Gaussian 16:  ES64L-G16RevC.01  3-Jul-2019

 ----------------------------------------------------------------------
 #t hf aug-cc-pvdz iop(5/13=1,5/36=2,99/5=2) pseudo=read geom=check gue
 ss=(read,tcheck) scf=(maxcycle=1)
 ----------------------------------------------------------------------
 -----
 title
 -----
 Structure from the checkpoint file:  "DCONF_52_0_mol1.chk"
 Charge =  0 Multiplicity = 1

                         Standard orientation:
 ---------------------------------------------------------------------
 Center     Atomic      Atomic             Coordinates (Angstroms)
 Number     Number       Type             X           Y           Z
 ---------------------------------------------------------------------
      1          6           0       -1.367046   -1.160382    0.073459
      2          1           0       -0.798429   -2.084038    0.137857
      3          6           0       -2.760794   -1.194426    0.041786
      4          1           0       -3.288057   -2.143696    0.083660
      5          6           0       -3.460063    0.013780   -0.023768
      6          1           0       -4.545196    0.041140   -0.043951
      7          6           0       -2.721297    1.201462   -0.063951
      8          1           0       -3.228509    2.163575   -0.109426
      9          7           0       -1.381105    1.252678   -0.046643
     10          6           0       -0.707677    0.081322    0.005612
     11          6           0        1.496857    1.368781    0.078251
     12          1           0        1.019098    2.340309    0.124982
     13          6           0        2.892402    1.137700    0.029418
     14          1           0        3.645442    1.917999    0.047969
     15          6           0        3.203309   -0.208648   -0.045176
     16          1           0        4.180984   -0.672389   -0.077232
     17         16           0        1.793758   -1.182975   -0.051246
     18          6           0        0.754688    0.193069    0.068131
 ---------------------------------------------------------------------

 SCF Done:  E(RHF) =  -799.008688645     A.U. after    2 cycles

 The electronic state is 1-A.
 Alpha  occ. eigenvalues --  -75.71441 -15.73775 -13.19240 -13.16286 -13.03460
 Alpha  occ. eigenvalues --  -11.51263 -11.47911 -11.46813 -11.44659 -11.43943
 Alpha  occ. eigenvalues --  -11.42513 -11.41720 -11.39761 -11.38379  -8.06043
 Alpha  occ. eigenvalues --   -1.46397  -1.35589  -1.19021  -1.14266  -1.08456
 Alpha  occ. eigenvalues --   -1.03052  -0.90155  -0.89358  -0.79461  -0.77062
 Alpha  occ. eigenvalues --   -0.72227  -0.68346  -0.63542  -0.60767  -0.56910
 Alpha  occ. eigenvalues --   -0.55836  -0.55108  -0.51045  -0.49775  -0.47207
 Alpha  occ. eigenvalues --   -0.44828  -0.38512  -0.38222  -0.36439  -0.36137
 Alpha  occ. eigenvalues --   -0.28624  -0.26744
 Alpha virt. eigenvalues --    0.03148   0.04165   0.05149   0.05337   0.05834
 Alpha virt. eigenvalues --    0.06571   0.07218   0.08286   0.08611   0.10040
 Alpha virt. eigenvalues --    0.10255   0.11291   0.12059   0.13016   0.13238

 Mulliken charges:
               1
     1  C   -2.247541
     2  H    1.840864
     3  C   -1.143303
     4  H    1.514450
     5  C   -1.738884
     6  H    1.462469
     7  C   -1.034120
     8  H    1.714878
     9  N   -4.374183
    10  C    3.349739
    11  C   -3.299923
    12  H    1.562624
    13  C   -1.668443
    14  H    1.416132
    15  C   -4.757817
    16  H    1.217552
    17  S    1.977382
    18  C    4.208123
 Sum of Mulliken charges =   0.00000

 Dipole moment (field-independent basis, Debye):
    X=             -0.8419    Y=             -2.9781    Z=             -0.1252  Tot=              3.0973

 Test job not archived.
 1\1\GINC-SE435\SP\RHF\Aug-CC-pVDZ\C9H7N1S1\OHZDE\09-Apr-2025\0\\#t hf
 aug-cc-pvdz iop(5/13=1,5/36=2,99/5=2) pseudo=read geom=check guess=(re
 ad,tcheck) scf=(maxcycle=1)\\title\\0,1\C,0,30.1792,-8.353,-0.0021\H,0
 ,30.7313,-7.4172,-0.0109\C,0,28.7847,-8.3457,0.0015\H,0,28.2404,-7.405
 2,-0.0069\C,0,28.1074,-9.5681,-0.0047\H,0,27.0228,-9.616,-0.0089\C,0,2
 8.8677,-10.7428,-0.0047\H,0,28.3781,-11.715,-0.0153\N,0,30.2087,-10.76
 89,0.0041\C,0,30.8606,-9.5844,0.0213\C,0,33.0903,-10.8269,-0.0649\H,0,
 32.6322,-11.8036,-0.1674\C,0,34.4799,-10.5732,0.0244\H,0,35.2479,-11.3

 Normal termination of Gaussian 16 at Wed Apr  9 02:31:07 2025.
