 Gaussian 16, Revision C.01,

 ----------------------------------------------------------------------
 #t hf aug-cc-pvdz symm=none int=(grid=ultrafine) guess=(read,tcheck) s
 table=(opt,rrhf)
 ----------------------------------------------------------------------
 -----
 title
 -----
 Symbolic Z-matrix:
 Charge =  0 Multiplicity = 1

 SCF Done:  E(RHF) =  -812.894498839     A.U. after   16 cycles
 Normal termination of Gaussian 16 at Wed Apr  9 02:31:47 2025.
 Gaussian 16:  ES64L-G16RevC.01  3-Jul-2019

 ----------------------------------------------------------------------
 #t hf aug-cc-pvdz iop(5/13=1,5/36=2,99/5=2) pseudo=read geom=check gue
 ss=(read,tcheck) scf=(maxcycle=1)
 ----------------------------------------------------------------------
 -----
 title
 -----
 Structure from the checkpoint file:  "DCONF_56_-80_mol1.chk"
 Charge =  0 Multiplicity = 1

                         Standard orientation:
 ---------------------------------------------------------------------
 Center     Atomic      Atomic             Coordinates (Angstroms)
 Number     Number       Type             X           Y           Z
 ---------------------------------------------------------------------
      1          6           0        1.393386   -0.922187    0.779859
      2          1           0        0.846580   -1.646180    1.377012
      3          6           0        2.788261   -0.944778    0.704235
      4          1           0        3.360244   -1.698550    1.238162
      5          6           0        3.426779    0.027166   -0.070152
      6          1           0        4.508668    0.054772   -0.160759
      7          6           0        2.641648    0.976647   -0.735005
      8          1           0        3.107314    1.745091   -1.348727
      9          7           0        1.299729    1.013895   -0.675162
     10          6           0        0.696931    0.073904    0.080337
     11          7           0       -1.437120    0.978615    0.949128
     12          6           0       -2.786715    0.824187    0.777815
     13          1           0       -3.471561    1.434379    1.355355
     14          6           0       -3.168586   -0.129646   -0.144704
     15          1           0       -4.169014   -0.417468   -0.439754
     16         16           0       -1.780972   -0.858555   -0.828663
     17          6           0       -0.779196    0.147585    0.160875
 ---------------------------------------------------------------------

 SCF Done:  E(RHF) =  -815.049418277     A.U. after    2 cycles

 The electronic state is 1-A.
 Alpha  occ. eigenvalues --  -75.72580 -15.74970 -15.74497 -13.19091 -13.17330
 Alpha  occ. eigenvalues --  -13.04945 -11.52452 -11.47654 -11.45401 -11.44976
 Alpha  occ. eigenvalues --  -11.44860 -11.42323 -11.39515 -11.39018  -8.07202
 Alpha  occ. eigenvalues --   -1.50129  -1.42842  -1.19675  -1.18599  -1.15534
 Alpha  occ. eigenvalues --   -1.05789  -0.91479  -0.89956  -0.82120  -0.78065
 Alpha  occ. eigenvalues --   -0.71151  -0.69014  -0.64154  -0.62262  -0.57698
 Alpha  occ. eigenvalues --   -0.57035  -0.54991  -0.53382  -0.51432  -0.47309
 Alpha  occ. eigenvalues --   -0.42621  -0.37611  -0.37280  -0.36076  -0.34418
 Alpha  occ. eigenvalues --   -0.33131  -0.28866
 Alpha virt. eigenvalues --    0.02969   0.04069   0.05200   0.05316   0.05744
 Alpha virt. eigenvalues --    0.06542   0.07619   0.09488   0.09800   0.10260
 Alpha virt. eigenvalues --    0.10470   0.11324   0.11819   0.12355   0.12708

 Mulliken charges:
               1
     1  C   -2.230335
     2  H    1.754655
     3  C    0.006963
     4  H    1.571944
     5  C   -1.055204
     6  H    1.469314
     7  C   -1.218964
     8  H    1.645498
     9  N   -3.621906
    10  C    2.919630
    11  N   -3.827479
    12  C    0.915259
    13  H    1.594136
    14  C   -2.975632
    15  H    1.256129
    16  S    1.007289
    17  C    0.788702
 Sum of Mulliken charges =  -0.00000

 Dipole moment (field-independent basis, Debye):
    X=              0.9555    Y=             -3.3937    Z=             -1.5132  Tot=              3.8366

 Test job not archived.
 1\1\GINC-SE128\SP\RHF\Aug-CC-pVDZ\C8H6N2S1\OHZDE\09-Apr-2025\0\\#t hf
 aug-cc-pvdz iop(5/13=1,5/36=2,99/5=2) pseudo=read geom=check guess=(re
 ad,tcheck) scf=(maxcycle=1)\\title\\0,1\C,0,30.1245,-21.0942,-0.0078\H
 ,0,30.7007,-20.1735,-0.0001\C,0,28.7275,-21.0797,0.0015\H,0,28.1829,-2
 0.1396,0.0076\C,0,28.0511,-22.3022,0.0072\H,0,26.966,-22.3462,0.0161\C
 ,0,28.8021,-23.4837,0.0018\H,0,28.3063,-24.4523,0.0028\N,0,30.1454,-23
 .5178,-0.0081\C,0,30.7853,-22.3311,-0.0075\N,0,32.9824,-22.5959,1.1016
 \C,0,34.3159,-22.616,0.7918\H,0,35.0444,-22.777,1.5781\C,0,34.625,-22.

 Normal termination of Gaussian 16 at Wed Apr  9 02:31:58 2025.
