 Gaussian 16, Revision C.01,

 ----------------------------------------------------------------------
 #t hf aug-cc-pvdz symm=none int=(grid=ultrafine) guess=(read,tcheck) s
 table=(opt,rrhf)
 ----------------------------------------------------------------------
 -----
 title
 -----
 Symbolic Z-matrix:
 Charge =  0 Multiplicity = 1

 SCF Done:  E(RHF) =  -217.140909697     A.U. after   12 cycles
 Normal termination of Gaussian 16 at Wed Apr  9 02:31:12 2025.
 Gaussian 16:  ES64L-G16RevC.01  3-Jul-2019

 ----------------------------------------------------------------------
 #t hf aug-cc-pvdz iop(5/13=1,5/36=2,99/5=2) pseudo=read geom=check gue
 ss=(read,tcheck) scf=(maxcycle=1)
 ----------------------------------------------------------------------
 -----
 title
 -----
 Structure from the checkpoint file:  "DCONF_7_160_mol1.chk"
 Charge =  0 Multiplicity = 1

                         Standard orientation:
 ---------------------------------------------------------------------
 Center     Atomic      Atomic             Coordinates (Angstroms)
 Number     Number       Type             X           Y           Z
 ---------------------------------------------------------------------
      1          9           0       -1.846711   -0.152676   -0.130954
      2          6           0       -0.627138    0.479536    0.125631
      3          1           0       -0.482330    1.221297   -0.666500
      4          1           0       -0.715153    0.993972    1.086921
      5          6           0        0.502897   -0.533213    0.117932
      6          1           0        0.495759   -1.108867    1.048233
      7          1           0        0.310737   -1.233955   -0.700771
      8          6           0        1.857338    0.144899   -0.098043
      9          1           0        2.054895    0.895363    0.674495
     10          1           0        1.888825    0.644803   -1.070647
     11          1           0        2.669079   -0.585860   -0.066261
 ---------------------------------------------------------------------

 SCF Done:  E(RHF) =  -218.096725508     A.U. after    2 cycles

 The electronic state is 1-A.
 Alpha  occ. eigenvalues --  -29.24034 -11.45064 -11.40082 -11.36158  -1.25392
 Alpha  occ. eigenvalues --   -1.05692  -0.87495  -0.68459  -0.67165  -0.59113
 Alpha  occ. eigenvalues --   -0.57471  -0.50828  -0.48571  -0.47965  -0.35443
 Alpha  occ. eigenvalues --   -0.24128  -0.23525
 Alpha virt. eigenvalues --    0.03825   0.05544   0.05818   0.06068   0.06671
 Alpha virt. eigenvalues --    0.06763   0.07244   0.11327   0.12409   0.14794
 Alpha virt. eigenvalues --    0.15196   0.15337   0.16821   0.17632   0.18015

 Mulliken charges:
               1
     1  F    0.279185
     2  C   -2.426014
     3  H    1.332678
     4  H    1.304227
     5  C   -3.466583
     6  H    1.325724
     7  H    1.468476
     8  C   -3.500255
     9  H    1.258761
    10  H    1.238808
    11  H    1.184994
 Sum of Mulliken charges =  -0.00000

 Dipole moment (field-independent basis, Debye):
    X=             -0.5714    Y=             -0.4364    Z=             -0.1110  Tot=              0.7275

 Test job not archived.
 1\1\GINC-SE208\SP\RHF\Aug-CC-pVDZ\C3H7F1\OHZDE\09-Apr-2025\0\\#t hf au
 g-cc-pvdz iop(5/13=1,5/36=2,99/5=2) pseudo=read geom=check guess=(read
 ,tcheck) scf=(maxcycle=1)\\title\\0,1\F,0,13.257,-26.475,0.005\C,0,14.
 4051,-25.6783,0.0001\H,0,14.3629,-25.0679,-0.9078\H,0,14.359,-25.0234,
 0.875\C,0,15.6491,-26.5473,-0.0015\H,0,15.8208,-26.9567,0.9984\H,0,15.
 4593,-27.3918,-0.6716\C,0,16.8713,-25.7697,-0.494\H,0,17.0548,-24.8836
 ,0.1226\H,0,16.7287,-25.4389,-1.527\H,0,17.7695,-26.3909,-0.4581\\Vers
 ion=ES64L-G16RevC.01\State=1-A\HF=-218.0967255\RMSD=2.416e-01\Dipole=-

 Normal termination of Gaussian 16 at Wed Apr  9 02:31:14 2025.
