 Gaussian 16, Revision C.01,

 ----------------------------------------------------------------------
 #t hf aug-cc-pvdz symm=none int=(grid=ultrafine) guess=(read,tcheck) s
 table=(opt,rrhf)
 ----------------------------------------------------------------------
 -----
 title
 -----
 Symbolic Z-matrix:
 Charge =  0 Multiplicity = 1

 SCF Done:  E(RHF) =  -796.894299941     A.U. after   16 cycles
 Normal termination of Gaussian 16 at Wed Apr  9 02:31:00 2025.
 Gaussian 16:  ES64L-G16RevC.01  3-Jul-2019

 ----------------------------------------------------------------------
 #t hf aug-cc-pvdz iop(5/13=1,5/36=2,99/5=2) pseudo=read geom=check gue
 ss=(read,tcheck) scf=(maxcycle=1)
 ----------------------------------------------------------------------
 -----
 title
 -----
 Structure from the checkpoint file:  "DCONF_52_-120_mol1.chk"
 Charge =  0 Multiplicity = 1

                         Standard orientation:
 ---------------------------------------------------------------------
 Center     Atomic      Atomic             Coordinates (Angstroms)
 Number     Number       Type             X           Y           Z
 ---------------------------------------------------------------------
      1          6           0       -1.488709    1.115858   -0.568293
      2          1           0       -1.000280    1.965197   -1.037682
      3          6           0       -2.880093    1.013769   -0.516198
      4          1           0       -3.508886    1.793186   -0.938196
      5          6           0       -3.442630   -0.120497    0.076108
      6          1           0       -4.518879   -0.251234    0.138351
      7          6           0       -2.584365   -1.098245    0.592056
      8          1           0       -2.987897   -1.995665    1.057070
      9          7           0       -1.243642   -1.007989    0.570197
     10          6           0       -0.708411    0.089110   -0.008821
     11          6           0        1.504111    1.234010    0.591735
     12          1           0        1.045241    2.106299    1.046449
     13          6           0        2.899553    0.990755    0.530302
     14          1           0        3.659485    1.660098    0.918651
     15          6           0        3.191601   -0.222353   -0.069162
     16          1           0        4.165673   -0.655214   -0.258318
     17         16           0        1.772702   -1.054492   -0.548331
     18          6           0        0.756911    0.215114    0.014872
 ---------------------------------------------------------------------

 SCF Done:  E(RHF) =  -799.004176895     A.U. after    2 cycles

 The electronic state is 1-A.
 Alpha  occ. eigenvalues --  -75.71070 -15.74221 -13.18045 -13.15478 -13.03663
 Alpha  occ. eigenvalues --  -11.51472 -11.48238 -11.46789 -11.44652 -11.43735
 Alpha  occ. eigenvalues --  -11.41755 -11.41700 -11.38861 -11.37595  -8.05649
 Alpha  occ. eigenvalues --   -1.46346  -1.35475  -1.19092  -1.14153  -1.08244
 Alpha  occ. eigenvalues --   -1.03086  -0.89925  -0.89404  -0.79332  -0.77304
 Alpha  occ. eigenvalues --   -0.72044  -0.68374  -0.63379  -0.61170  -0.57027
 Alpha  occ. eigenvalues --   -0.55725  -0.54866  -0.51525  -0.49607  -0.47540
 Alpha  occ. eigenvalues --   -0.44664  -0.38947  -0.37262  -0.36313  -0.34569
 Alpha  occ. eigenvalues --   -0.29851  -0.26534
 Alpha virt. eigenvalues --    0.03024   0.04474   0.05086   0.05335   0.05731
 Alpha virt. eigenvalues --    0.06093   0.06743   0.08763   0.09508   0.09905
 Alpha virt. eigenvalues --    0.10301   0.10646   0.11890   0.12388   0.12754

 Mulliken charges:
               1
     1  C   -2.610643
     2  H    1.768158
     3  C   -0.005201
     4  H    1.562795
     5  C   -1.437200
     6  H    1.479177
     7  C   -0.934885
     8  H    1.659271
     9  N   -3.650091
    10  C    2.698876
    11  C   -3.250746
    12  H    1.642775
    13  C   -1.023759
    14  H    1.449267
    15  C   -3.743895
    16  H    1.305384
    17  S    1.157895
    18  C    1.932822
 Sum of Mulliken charges =   0.00000

 Dipole moment (field-independent basis, Debye):
    X=             -1.3907    Y=             -0.7222    Z=             -1.2561  Tot=              2.0083

 Test job not archived.
 1\1\GINC-SE402\SP\RHF\Aug-CC-pVDZ\C9H7N1S1\OHZDE\09-Apr-2025\0\\#t hf
 aug-cc-pvdz iop(5/13=1,5/36=2,99/5=2) pseudo=read geom=check guess=(re
 ad,tcheck) scf=(maxcycle=1)\\title\\0,1\C,0,30.1881,-8.3604,-0.0197\H,
 0,30.7658,-7.4408,-0.0491\C,0,28.7924,-8.3426,0.0084\H,0,28.2504,-7.40
 07,0.0121\C,0,28.1111,-9.5631,0.0152\H,0,27.0261,-9.6051,0.0322\C,0,28
 .8605,-10.745,-0.0028\H,0,28.3629,-11.7129,-0.0015\N,0,30.2039,-10.782
 5,-0.0086\C,0,30.8542,-9.5983,-0.0204\C,0,33.1483,-9.0809,0.9975\H,0,3
 2.7618,-8.4821,1.8162\C,0,34.5159,-9.3985,0.8\H,0,35.3251,-9.0628,1.43

 Normal termination of Gaussian 16 at Wed Apr  9 02:31:11 2025.
