 Gaussian 16, Revision C.01,

 ----------------------------------------------------------------------
 #t hf aug-cc-pvdz symm=none int=(grid=ultrafine) guess=(read,tcheck) s
 table=(opt,rrhf)
 ----------------------------------------------------------------------
 -----
 title
 -----
 Symbolic Z-matrix:
 Charge =  0 Multiplicity = 1

 SCF Done:  E(RHF) =  -719.110119575     A.U. after   16 cycles
 Normal termination of Gaussian 16 at Wed Apr  9 02:25:11 2025.
 Gaussian 16:  ES64L-G16RevC.01  3-Jul-2019

 ----------------------------------------------------------------------
 #t hf aug-cc-pvdz iop(5/13=1,5/36=2,99/5=2) pseudo=read geom=check gue
 ss=(read,tcheck) scf=(maxcycle=1)
 ----------------------------------------------------------------------
 -----
 title
 -----
 Structure from the checkpoint file:  "DCONF_28_-130_mol1.chk"
 Charge =  0 Multiplicity = 1

                         Standard orientation:
 ---------------------------------------------------------------------
 Center     Atomic      Atomic             Coordinates (Angstroms)
 Number     Number       Type             X           Y           Z
 ---------------------------------------------------------------------
      1          8           0       -2.224450    1.122225   -0.631197
      2          6           0       -2.266810   -0.927973    0.631450
      3          1           0       -1.923870   -1.889503    0.233908
      4          1           0       -3.349838   -0.851568    0.529155
      5          1           0       -1.982651   -0.893014    1.687922
      6          6           0       -1.605034    0.222324   -0.092972
      7          7           0        0.573384    1.342331    0.300751
      8          6           0        1.911162    1.074174    0.323551
      9          1           0        2.610363    1.860349    0.584043
     10          6           0        2.269621   -0.223549    0.008755
     11          1           0        3.261204   -0.650481   -0.061026
     12         16           0        0.871035   -1.148233   -0.312741
     13          6           0       -0.103913    0.258662   -0.041755
 ---------------------------------------------------------------------

 SCF Done:  E(RHF) =  -720.789638928     A.U. after    2 cycles

 The electronic state is 1-A.
 Alpha  occ. eigenvalues --  -75.74355 -21.06811 -15.76391 -13.20269 -13.19265
 Alpha  occ. eigenvalues --  -13.06695 -11.52062 -11.46576 -11.45315 -11.41167
 Alpha  occ. eigenvalues --  -11.40170  -8.08988  -1.71670  -1.48844  -1.20494
 Alpha  occ. eigenvalues --   -1.15467  -1.07765  -0.90255  -0.82455  -0.72546
 Alpha  occ. eigenvalues --   -0.69212  -0.61507  -0.61333  -0.58455  -0.55812
 Alpha  occ. eigenvalues --   -0.53505  -0.49246  -0.44390  -0.43254  -0.37496
 Alpha  occ. eigenvalues --   -0.35094  -0.30484  -0.29302
 Alpha virt. eigenvalues --    0.02761   0.03693   0.05262   0.05990   0.06352
 Alpha virt. eigenvalues --    0.08337   0.08729   0.09945   0.10233   0.11218
 Alpha virt. eigenvalues --    0.11883   0.12440   0.13027   0.13645   0.14006

 Mulliken charges:
               1
     1  O   -3.158884
     2  C   -4.305035
     3  H    1.389612
     4  H    1.257389
     5  H    1.326362
     6  C    3.558460
     7  N   -3.518026
     8  C    0.686505
     9  H    1.527793
    10  C   -2.760756
    11  H    1.218679
    12  S    1.683319
    13  C    1.094581
 Sum of Mulliken charges =  -0.00000

 Dipole moment (field-independent basis, Debye):
    X=              1.2852    Y=             -4.1257    Z=             -0.0834  Tot=              4.3220

 Test job not archived.
 1\1\GINC-SE345\SP\RHF\Aug-CC-pVDZ\C5H5N1O1S1\OHZDE\09-Apr-2025\0\\#t h
 f aug-cc-pvdz iop(5/13=1,5/36=2,99/5=2) pseudo=read geom=check guess=(
 read,tcheck) scf=(maxcycle=1)\\title\\0,1\O,0,21.2594,-18.3496,0.6879\
 C,0,21.6588,-16.7218,-1.0413\H,0,22.1963,-15.782,-0.8738\H,0,20.5838,-
 16.5469,-0.9862\H,0,21.9337,-17.0803,-2.0383\C,0,22.0581,-17.7614,-0.0
 187\N,0,23.9508,-19.3652,0.0025\C,0,25.3151,-19.3907,-0.0082\H,0,25.83
 26,-20.3429,-0.026\C,0,25.9395,-18.1571,-0.0027\H,0,26.9988,-17.9383,0
 .017\S,0,24.7677,-16.9156,-0.0005\C,0,23.5175,-18.1154,0.0276\\Version

 Normal termination of Gaussian 16 at Wed Apr  9 02:25:16 2025.
