 Gaussian 16, Revision C.01,

 ----------------------------------------------------------------------
 #t hf aug-cc-pvdz symm=none int=(grid=ultrafine) guess=(read,tcheck) s
 table=(opt,rrhf)
 ----------------------------------------------------------------------
 -----
 title
 -----
 Symbolic Z-matrix:
 Charge =  0 Multiplicity = 1

 SCF Done:  E(RHF) =  -256.178335321     A.U. after   12 cycles
 Normal termination of Gaussian 16 at Wed Apr  9 02:31:23 2025.
 Gaussian 16:  ES64L-G16RevC.01  3-Jul-2019

 ----------------------------------------------------------------------
 #t hf aug-cc-pvdz iop(5/13=1,5/36=2,99/5=2) pseudo=read geom=check gue
 ss=(read,tcheck) scf=(maxcycle=1)
 ----------------------------------------------------------------------
 -----
 title
 -----
 Structure from the checkpoint file:  "DCONF_8_-150_mol1.chk"
 Charge =  0 Multiplicity = 1

                         Standard orientation:
 ---------------------------------------------------------------------
 Center     Atomic      Atomic             Coordinates (Angstroms)
 Number     Number       Type             X           Y           Z
 ---------------------------------------------------------------------
      1          6           0        0.041073   -0.340207    0.206362
      2          1           0        0.130303   -1.141632   -0.536105
      3          1           0       -0.083594   -0.817760    1.184147
      4          6           0       -1.182500    0.513665   -0.134152
      5          1           0       -1.066258    0.907016   -1.150976
      6          1           0       -1.226365    1.381696    0.536225
      7          6           0       -2.487251   -0.275625   -0.030304
      8          1           0       -2.468867   -1.140139   -0.701467
      9          1           0       -3.349265    0.342464   -0.296835
     10          1           0       -2.637315   -0.644783    0.989134
     11          6           0        1.331694    0.463249    0.163495
     12          1           0        1.573938    0.918124    1.127719
     13          1           0        1.268487    1.247647   -0.597395
     14          9           0        2.404538   -0.357680   -0.198539
 ---------------------------------------------------------------------

 SCF Done:  E(RHF) =  -257.338079759     A.U. after    2 cycles

 The electronic state is 1-A.
 Alpha  occ. eigenvalues --  -29.23945 -11.45403 -11.41674 -11.38417 -11.35355
 Alpha  occ. eigenvalues --   -1.27193  -1.12219  -0.95758  -0.84491  -0.68727
 Alpha  occ. eigenvalues --   -0.66336  -0.61088  -0.60416  -0.53825  -0.51983
 Alpha  occ. eigenvalues --   -0.47803  -0.46510  -0.45720  -0.35200  -0.24008
 Alpha  occ. eigenvalues --   -0.23281
 Alpha virt. eigenvalues --    0.03982   0.05219   0.05628   0.05754   0.06216
 Alpha virt. eigenvalues --    0.06339   0.06461   0.08091   0.08921   0.11386
 Alpha virt. eigenvalues --    0.12966   0.14076   0.14572   0.15984   0.16221

 Mulliken charges:
               1
     1  C   -3.095654
     2  H    1.499693
     3  H    1.347742
     4  C   -2.836253
     5  H    1.416410
     6  H    1.439642
     7  C   -3.808878
     8  H    1.257982
     9  H    1.106803
    10  H    1.288141
    11  C   -2.456924
    12  H    1.286799
    13  H    1.318486
    14  F    0.236012
 Sum of Mulliken charges =  -0.00000

 Dipole moment (field-independent basis, Debye):
    X=              0.4107    Y=             -0.4081    Z=             -0.1760  Tot=              0.6051

 Test job not archived.
 1\1\GINC-SE339\SP\RHF\Aug-CC-pVDZ\C4H9F1\OHZDE\09-Apr-2025\0\\#t hf au
 g-cc-pvdz iop(5/13=1,5/36=2,99/5=2) pseudo=read geom=check guess=(read
 ,tcheck) scf=(maxcycle=1)\\title\\0,1\C,0,0.0307,-0.0334,-0.006\H,0,0.
 0618,-0.6129,-0.9359\H,0,0.0158,-0.7507,0.8216\C,0,-1.2392,0.8207,0.00
 07\H,0,-1.2348,1.4663,-0.8855\H,0,-1.2339,1.4851,0.8744\C,0,-2.5094,-0
 .0293,0.0158\H,0,-2.5402,-0.6913,-0.8554\H,0,-3.4071,0.5952,-0.0008\H,
 0,-2.5477,-0.6538,0.9139\C,0,1.2927,0.814,0.0425\H,0,1.6212,1.0177,1.0
 652\H,0,1.136,1.7632,-0.4797\F,0,2.341,0.1645,-0.6172\\Version=ES64L-G

 Normal termination of Gaussian 16 at Wed Apr  9 02:31:26 2025.
