 Gaussian 16, Revision C.01,

 ----------------------------------------------------------------------
 #t hf aug-cc-pvdz symm=none int=(grid=ultrafine) guess=(read,tcheck) s
 table=(opt,rrhf)
 ----------------------------------------------------------------------
 -----
 title
 -----
 Symbolic Z-matrix:
 Charge =  0 Multiplicity = 1

 SCF Done:  E(RHF) =  -703.117950326     A.U. after   16 cycles
 Normal termination of Gaussian 16 at Wed Apr  9 02:25:19 2025.
 Gaussian 16:  ES64L-G16RevC.01  3-Jul-2019

 ----------------------------------------------------------------------
 #t hf aug-cc-pvdz iop(5/13=1,5/36=2,99/5=2) pseudo=read geom=check gue
 ss=(read,tcheck) scf=(maxcycle=1)
 ----------------------------------------------------------------------
 -----
 title
 -----
 Structure from the checkpoint file:  "DCONF_24_-170_mol1.chk"
 Charge =  0 Multiplicity = 1

                         Standard orientation:
 ---------------------------------------------------------------------
 Center     Atomic      Atomic             Coordinates (Angstroms)
 Number     Number       Type             X           Y           Z
 ---------------------------------------------------------------------
      1          8           0       -2.215084    1.327333   -0.104636
      2          6           0       -2.327260   -1.059942    0.118909
      3          1           0       -1.967013   -1.778759   -0.624009
      4          1           0       -3.399092   -0.903747   -0.007498
      5          1           0       -2.133694   -1.480181    1.111219
      6          6           0       -1.610161    0.266546   -0.022845
      7          6           0        0.691834    1.374570    0.050817
      8          1           0        0.279308    2.376707    0.091292
      9          6           0        2.064917    1.047107    0.066096
     10          1           0        2.871759    1.769727    0.119197
     11          6           0        2.280352   -0.321605    0.009448
     12          1           0        3.225578   -0.849399   -0.002890
     13         16           0        0.812758   -1.194022   -0.064139
     14          6           0       -0.126398    0.251879   -0.026422
 ---------------------------------------------------------------------

 SCF Done:  E(RHF) =  -704.750121815     A.U. after    2 cycles

 The electronic state is 1-A.
 Alpha  occ. eigenvalues --  -75.72986 -21.04719 -13.20193 -13.17609 -13.05073
 Alpha  occ. eigenvalues --  -11.51058 -11.48884 -11.44989 -11.42669 -11.40134
 Alpha  occ. eigenvalues --  -11.38909  -8.07597  -1.70193  -1.38391  -1.13846
 Alpha  occ. eigenvalues --   -1.09756  -1.05163  -0.87952  -0.80045  -0.73649
 Alpha  occ. eigenvalues --   -0.67845  -0.60380  -0.60292  -0.56510  -0.53082
 Alpha  occ. eigenvalues --   -0.52249  -0.49502  -0.45591  -0.43427  -0.39608
 Alpha  occ. eigenvalues --   -0.31498  -0.28563  -0.28431
 Alpha virt. eigenvalues --    0.02911   0.03902   0.05149   0.06211   0.06382
 Alpha virt. eigenvalues --    0.06966   0.08082   0.09275   0.09460   0.10882
 Alpha virt. eigenvalues --    0.12399   0.12724   0.13007   0.13128   0.14027

 Mulliken charges:
               1
     1  O   -3.605673
     2  C   -4.835311
     3  H    1.326357
     4  H    1.163050
     5  H    1.318020
     6  C    3.854187
     7  C   -3.639693
     8  H    1.689857
     9  C   -0.629597
    10  H    1.405092
    11  C   -4.440189
    12  H    1.244629
    13  S    2.489444
    14  C    2.659826
 Sum of Mulliken charges =   0.00000

 Dipole moment (field-independent basis, Debye):
    X=              0.8689    Y=             -2.8675    Z=              0.0640  Tot=              2.9970

 Test job not archived.
 1\1\GINC-SE049\SP\RHF\Aug-CC-pVDZ\C6H6O1S1\OHZDE\09-Apr-2025\0\\#t hf
 aug-cc-pvdz iop(5/13=1,5/36=2,99/5=2) pseudo=read geom=check guess=(re
 ad,tcheck) scf=(maxcycle=1)\\title\\0,1\O,0,21.0486,-6.0842,0.1065\C,0
 ,21.5596,-3.7626,-0.2262\H,0,22.0902,-3.1266,0.4896\H,0,20.4833,-3.630
 2,-0.1111\H,0,21.8601,-3.4547,-1.233\C,0,21.908,-5.221,-0.0127\C,0,23.
 8448,-6.8886,0.0027\H,0,23.187,-7.7508,0.0004\C,0,25.2559,-6.9283,-0.0
 04\H,0,25.8483,-7.8366,-0.0108\C,0,25.8182,-5.6607,-0.0054\H,0,26.8678
 ,-5.3952,-0.0008\S,0,24.6263,-4.4361,0.0039\C,0,23.3449,-5.5902,0.0154

 Normal termination of Gaussian 16 at Wed Apr  9 02:25:27 2025.
