 Gaussian 16, Revision C.01,

 ----------------------------------------------------------------------
 #t hf aug-cc-pvdz symm=none int=(grid=ultrafine) guess=(read,tcheck) s
 table=(opt,rrhf)
 ----------------------------------------------------------------------
 -----
 title
 -----
 Symbolic Z-matrix:
 Charge =  0 Multiplicity = 1

 SCF Done:  E(RHF) =  -911.016371585     A.U. after   16 cycles
 Normal termination of Gaussian 16 at Wed Apr  9 02:29:45 2025.
 Gaussian 16:  ES64L-G16RevC.01  3-Jul-2019

 ----------------------------------------------------------------------
 #t hf aug-cc-pvdz iop(5/13=1,5/36=2,99/5=2) pseudo=read geom=check gue
 ss=(read,tcheck) scf=(maxcycle=1)
 ----------------------------------------------------------------------
 -----
 title
 -----
 Structure from the checkpoint file:  "DCONF_30_160_mol1.chk"
 Charge =  0 Multiplicity = 1

                         Standard orientation:
 ---------------------------------------------------------------------
 Center     Atomic      Atomic             Coordinates (Angstroms)
 Number     Number       Type             X           Y           Z
 ---------------------------------------------------------------------
      1          6           0        3.085721   -0.772273    0.305232
      2          1           0        3.829040   -1.518582    0.571824
      3          6           0        1.730028   -1.113181    0.316777
      4          1           0        1.404856   -2.108079    0.606621
      5          6           0        0.782812   -0.138229   -0.021983
      6         16           0       -0.910488   -0.680674   -0.134162
      7          7           0       -1.721897    0.785142    0.023053
      8          6           0       -1.777953    1.248836    1.415946
      9          1           0       -0.785294    1.186917    1.868330
     10          1           0       -2.477006    0.655878    2.019272
     11          1           0       -2.092764    2.295585    1.407042
     12          6           0       -3.041339    0.793089   -0.626676
     13          1           0       -2.937582    0.507231   -1.672587
     14          1           0       -3.420140    1.815967   -0.566579
     15          1           0       -3.752990    0.118932   -0.130827
     16          6           0        1.167120    1.150017   -0.411171
     17          1           0        0.411270    1.873072   -0.700029
     18          6           0        2.527088    1.480349   -0.401356
     19          1           0        2.836869    2.482788   -0.684042
     20          6           0        3.485844    0.522049   -0.051048
     21          1           0        4.540505    0.783088   -0.053626
     22          8           0       -1.157616   -1.559942    1.004626
     23          8           0       -1.178835   -1.155301   -1.483938
 ---------------------------------------------------------------------

 SCF Done:  E(RHF) =  -913.674721168     A.U. after    2 cycles

 The electronic state is 1-A.
 Alpha  occ. eigenvalues --  -75.89269 -21.03864 -21.03770 -15.75103 -13.51048
 Alpha  occ. eigenvalues --  -13.44224 -13.38645 -11.54428 -11.46223 -11.46062
 Alpha  occ. eigenvalues --  -11.43770 -11.43014 -11.41257 -11.40347 -11.38932
 Alpha  occ. eigenvalues --   -8.24367  -1.82737  -1.64464  -1.44384  -1.35747
 Alpha  occ. eigenvalues --   -1.14493  -1.11231  -1.05832  -1.02589  -0.90427
 Alpha  occ. eigenvalues --   -0.88515  -0.81635  -0.73731  -0.68913  -0.66284
 Alpha  occ. eigenvalues --   -0.65178  -0.63242  -0.60365  -0.59443  -0.58303
 Alpha  occ. eigenvalues --   -0.56761  -0.53805  -0.52493  -0.51843  -0.48841
 Alpha  occ. eigenvalues --   -0.47209  -0.45519  -0.41616  -0.39181  -0.36216
 Alpha  occ. eigenvalues --   -0.34918  -0.34744  -0.34278  -0.32919
 Alpha virt. eigenvalues --    0.02916   0.04215   0.04849   0.05075   0.05315
 Alpha virt. eigenvalues --    0.06057   0.06650   0.07168   0.07464   0.07834
 Alpha virt. eigenvalues --    0.08173   0.09056   0.10421   0.11588   0.12124

 Mulliken charges:
               1
     1  C   -0.885612
     2  H    1.515443
     3  C   -3.197411
     4  H    1.783739
     5  C    2.278485
     6  S    7.023589
     7  N   -2.780599
     8  C   -3.863634
     9  H    1.599562
    10  H    1.424482
    11  H    1.288655
    12  C   -3.903914
    13  H    1.519909
    14  H    1.432729
    15  H    1.437807
    16  C   -2.304342
    17  H    2.123351
    18  C   -1.032254
    19  H    1.499622
    20  C   -3.131622
    21  H    1.582074
    22  O   -2.826911
    23  O   -2.583147
 Sum of Mulliken charges =   0.00000

 Dipole moment (field-independent basis, Debye):
    X=              1.1015    Y=              2.3290    Z=              0.5710  Tot=              2.6388

 Test job not archived.
 1\1\GINC-SE343\SP\RHF\Aug-CC-pVDZ\C8H11N1O2S1\OHZDE\09-Apr-2025\0\\#t
 hf aug-cc-pvdz iop(5/13=1,5/36=2,99/5=2) pseudo=read geom=check guess=
 (read,tcheck) scf=(maxcycle=1)\\title\\0,1\C,0,4.0677,-1.8747,-1.2041\
 H,0,4.9849,-1.4257,-1.5752\C,0,2.8774,-1.1424,-1.2384\H,0,2.8497,-0.13
 69,-1.648\C,0,1.7014,-1.7373,-0.7634\S,0,0.2563,-0.6975,-0.6956\N,0,-0
 .9635,-1.8559,-0.6518\C,0,-1.2297,-2.4406,-1.973\H,0,-0.2895,-2.7362,-
 2.4447\H,0,-1.7505,-1.7385,-2.6364\H,0,-1.8422,-3.3339,-1.8256\C,0,-2.
 1884,-1.387,0.0137\H,0,-1.9484,-1.0256,1.0128\H,0,-2.8584,-2.2464,0.09

 Normal termination of Gaussian 16 at Wed Apr  9 02:30:03 2025.
