 Gaussian 16, Revision C.01,

 ----------------------------------------------------------------------
 #t hf aug-cc-pvdz symm=none int=(grid=ultrafine) guess=(read,tcheck) s
 table=(opt,rrhf)
 ----------------------------------------------------------------------
 -----
 title
 -----
 Symbolic Z-matrix:
 Charge =  0 Multiplicity = 1

 SCF Done:  E(RHF) =  -703.116276912     A.U. after   16 cycles
 Normal termination of Gaussian 16 at Wed Apr  9 02:24:43 2025.
 Gaussian 16:  ES64L-G16RevC.01  3-Jul-2019

 ----------------------------------------------------------------------
 #t hf aug-cc-pvdz iop(5/13=1,5/36=2,99/5=2) pseudo=read geom=check gue
 ss=(read,tcheck) scf=(maxcycle=1)
 ----------------------------------------------------------------------
 -----
 title
 -----
 Structure from the checkpoint file:  "DCONF_24_-150_mol1.chk"
 Charge =  0 Multiplicity = 1

                         Standard orientation:
 ---------------------------------------------------------------------
 Center     Atomic      Atomic             Coordinates (Angstroms)
 Number     Number       Type             X           Y           Z
 ---------------------------------------------------------------------
      1          8           0       -2.235416    1.269597   -0.311642
      2          6           0       -2.299604   -1.036853    0.356742
      3          1           0       -2.047040   -1.254463    1.399235
      4          1           0       -3.379176   -0.920891    0.253902
      5          1           0       -1.958833   -1.883310   -0.248479
      6          6           0       -1.613696    0.245061   -0.065189
      7          6           0        0.667737    1.367111    0.146259
      8          1           0        0.240595    2.356923    0.263671
      9          6           0        2.044511    1.053314    0.193533
     10          1           0        2.837409    1.776014    0.351255
     11          6           0        2.280675   -0.302209    0.025689
     12          1           0        3.233378   -0.815374   -0.008210
     13         16           0        0.828374   -1.179759   -0.185287
     14          6           0       -0.129120    0.250320   -0.082643
 ---------------------------------------------------------------------

 SCF Done:  E(RHF) =  -704.748780068     A.U. after    2 cycles

 The electronic state is 1-A.
 Alpha  occ. eigenvalues --  -75.72955 -21.04911 -13.19894 -13.17574 -13.05210
 Alpha  occ. eigenvalues --  -11.50993 -11.48878 -11.44982 -11.42726 -11.39981
 Alpha  occ. eigenvalues --  -11.38872  -8.07562  -1.70285  -1.38385  -1.13881
 Alpha  occ. eigenvalues --   -1.09766  -1.05177  -0.87917  -0.80035  -0.73645
 Alpha  occ. eigenvalues --   -0.67891  -0.60395  -0.60271  -0.56584  -0.53325
 Alpha  occ. eigenvalues --   -0.52050  -0.49683  -0.45791  -0.43202  -0.39443
 Alpha  occ. eigenvalues --   -0.31733  -0.28589  -0.28358
 Alpha virt. eigenvalues --    0.02907   0.03938   0.05159   0.05999   0.06474
 Alpha virt. eigenvalues --    0.06920   0.08451   0.09498   0.09521   0.10783
 Alpha virt. eigenvalues --    0.12216   0.12673   0.12854   0.13267   0.13867

 Mulliken charges:
               1
     1  O   -3.434463
     2  C   -4.604034
     3  H    1.308385
     4  H    1.191725
     5  H    1.330132
     6  C    3.494681
     7  C   -3.145579
     8  H    1.632141
     9  C   -0.523509
    10  H    1.404605
    11  C   -4.211937
    12  H    1.256765
    13  S    2.321225
    14  C    1.979863
 Sum of Mulliken charges =  -0.00000

 Dipole moment (field-independent basis, Debye):
    X=              0.9034    Y=             -2.8160    Z=              0.1988  Tot=              2.9641

 Test job not archived.
 1\1\GINC-SE423\SP\RHF\Aug-CC-pVDZ\C6H6O1S1\OHZDE\09-Apr-2025\0\\#t hf
 aug-cc-pvdz iop(5/13=1,5/36=2,99/5=2) pseudo=read geom=check guess=(re
 ad,tcheck) scf=(maxcycle=1)\\title\\0,1\O,0,21.0491,-6.0213,0.3093\C,0
 ,21.5689,-3.8851,-0.6587\H,0,21.8822,-3.883,-1.7074\H,0,20.493,-3.7187
 ,-0.5935\H,0,22.1006,-3.0716,-0.1543\C,0,21.9091,-5.224,-0.0395\C,0,23
 .8433,-6.8869,0.0082\H,0,23.1855,-7.749,0.0015\C,0,25.2554,-6.9282,-0.
 0137\H,0,25.8462,-7.8372,-0.0368\C,0,25.8183,-5.6615,-0.0143\H,0,26.86
 8,-5.3967,-0.0024\S,0,24.6265,-4.4356,0.0095\C,0,23.3455,-5.5888,0.049

 Normal termination of Gaussian 16 at Wed Apr  9 02:24:49 2025.
