 Gaussian 16, Revision C.01,

 ----------------------------------------------------------------------
 #t hf aug-cc-pvdz symm=none int=(grid=ultrafine) guess=(read,tcheck) s
 table=(opt,rrhf)
 ----------------------------------------------------------------------
 -----
 title
 -----
 Symbolic Z-matrix:
 Charge =  0 Multiplicity = 1

 SCF Done:  E(RHF) =  -256.172946014     A.U. after   12 cycles
 Normal termination of Gaussian 16 at Wed Apr  9 02:31:22 2025.
 Gaussian 16:  ES64L-G16RevC.01  3-Jul-2019

 ----------------------------------------------------------------------
 #t hf aug-cc-pvdz iop(5/13=1,5/36=2,99/5=2) pseudo=read geom=check gue
 ss=(read,tcheck) scf=(maxcycle=1)
 ----------------------------------------------------------------------
 -----
 title
 -----
 Structure from the checkpoint file:  "DCONF_8_0_mol1.chk"
 Charge =  0 Multiplicity = 1

                         Standard orientation:
 ---------------------------------------------------------------------
 Center     Atomic      Atomic             Coordinates (Angstroms)
 Number     Number       Type             X           Y           Z
 ---------------------------------------------------------------------
      1          6           0       -0.003453    0.815382    0.000107
      2          1           0        0.256039    1.416382   -0.878569
      3          1           0        0.255978    1.416525    0.878718
      4          6           0        0.864618   -0.447119    0.000027
      5          1           0        0.624695   -1.056938   -0.876063
      6          1           0        0.624845   -1.056687    0.876421
      7          6           0        2.352347   -0.096415   -0.000010
      8          1           0        2.614151    0.493483   -0.884792
      9          1           0        2.971267   -0.998215   -0.000970
     10          1           0        2.614811    0.492129    0.885191
     11          6           0       -1.518333    0.540281   -0.000100
     12          1           0       -2.000656    0.952441   -0.889308
     13          1           0       -2.000838    0.952314    0.889181
     14          9           0       -1.792374   -0.831579    0.000006
 ---------------------------------------------------------------------

 SCF Done:  E(RHF) =  -257.331188126     A.U. after    2 cycles

 The electronic state is 1-A.
 Alpha  occ. eigenvalues --  -29.23857 -11.45162 -11.40918 -11.38156 -11.34729
 Alpha  occ. eigenvalues --   -1.26456  -1.11634  -0.95528  -0.84616  -0.67437
 Alpha  occ. eigenvalues --   -0.66076  -0.60497  -0.60482  -0.54797  -0.51681
 Alpha  occ. eigenvalues --   -0.47288  -0.46191  -0.43890  -0.34916  -0.23787
 Alpha  occ. eigenvalues --   -0.23692
 Alpha virt. eigenvalues --    0.04083   0.05169   0.05713   0.06150   0.06191
 Alpha virt. eigenvalues --    0.06617   0.06682   0.07355   0.09452   0.11219
 Alpha virt. eigenvalues --    0.13009   0.13390   0.14265   0.15449   0.16814

 Mulliken charges:
               1
     1  C   -3.202176
     2  H    1.321593
     3  H    1.321150
     4  C   -2.904346
     5  H    1.527412
     6  H    1.527474
     7  C   -3.739730
     8  H    1.267355
     9  H    1.089622
    10  H    1.267692
    11  C   -2.643922
    12  H    1.473265
    13  H    1.473539
    14  F    0.221072
 Sum of Mulliken charges =   0.00000

 Dipole moment (field-independent basis, Debye):
    X=             -0.2223    Y=             -0.9808    Z=              0.0002  Tot=              1.0056

 Test job not archived.
 1\1\GINC-SE345\SP\RHF\Aug-CC-pVDZ\C4H9F1\OHZDE\09-Apr-2025\0\\#t hf au
 g-cc-pvdz iop(5/13=1,5/36=2,99/5=2) pseudo=read geom=check guess=(read
 ,tcheck) scf=(maxcycle=1)\\title\\0,1\C,0,0.0239,-0.0376,-0.0059\H,0,-
 0.0099,-0.696,-0.8811\H,0,0.0054,-0.6875,0.8761\C,0,-1.2398,0.8287,0.0
 007\H,0,-1.2426,1.4797,-0.8786\H,0,-1.2275,1.488,0.8738\C,0,-2.5021,-0
 .0331,0.0158\H,0,-2.5421,-0.682,-0.8655\H,0,-3.4037,0.5861,0.0196\H,0,
 -2.5279,-0.6723,0.9044\C,0,1.3387,0.7634,-0.0214\H,0,1.9292,0.5477,-0.
 9147\H,0,1.9447,0.5566,0.8637\F,0,1.1015,2.1421,-0.026\\Version=ES64L-

 Normal termination of Gaussian 16 at Wed Apr  9 02:31:26 2025.
