 Gaussian 16, Revision C.01,

 ----------------------------------------------------------------------
 #t hf aug-cc-pvdz symm=none int=(grid=ultrafine) guess=(read,tcheck) s
 table=(opt,rrhf)
 ----------------------------------------------------------------------
 -----
 title
 -----
 Symbolic Z-matrix:
 Charge =  0 Multiplicity = 1

 SCF Done:  E(RHF) =  -1153.54306508     A.U. after   16 cycles
 Normal termination of Gaussian 16 at Wed Apr  9 02:27:02 2025.
 Gaussian 16:  ES64L-G16RevC.01  3-Jul-2019

 ----------------------------------------------------------------------
 #t hf aug-cc-pvdz iop(5/13=1,5/36=2,99/5=2) pseudo=read geom=check gue
 ss=(read,tcheck) scf=(maxcycle=1)
 ----------------------------------------------------------------------
 -----
 title
 -----
 Structure from the checkpoint file:  "DCONF_29_160_mol1.chk"
 Charge =  0 Multiplicity = 1

                         Standard orientation:
 ---------------------------------------------------------------------
 Center     Atomic      Atomic             Coordinates (Angstroms)
 Number     Number       Type             X           Y           Z
 ---------------------------------------------------------------------
      1          6           0       -2.748690    0.188928    0.014411
      2          1           0       -3.745465    0.608959    0.039437
      3          6           0       -2.371813   -1.139174   -0.057010
      4          1           0       -3.059943   -1.975631   -0.084480
      5          7           0       -1.027310   -1.371171   -0.100260
      6          6           0       -0.379941   -0.225079   -0.076327
      7         16           0       -1.362729    1.190147    0.037489
      8         16           0        1.411001   -0.205027    0.066293
      9          6           0        1.826727    1.420508   -0.537520
     10          1           0        1.397008    2.182930    0.113245
     11          1           0        2.917080    1.468298   -0.489147
     12          1           0        1.493327    1.522088   -1.570694
     13          8           0        1.739687   -0.244511    1.484743
     14          8           0        1.942701   -1.185672   -0.863289
 ---------------------------------------------------------------------

 SCF Done:  E(RHF) =  -1155.64315277     A.U. after    2 cycles

 The electronic state is 1-A.
 Alpha  occ. eigenvalues --  -75.90214 -75.76254 -21.05092 -21.05062 -15.78377
 Alpha  occ. eigenvalues --  -13.52180 -13.44280 -13.37546 -13.21952 -13.21042
 Alpha  occ. eigenvalues --  -13.08463 -11.48147 -11.47675 -11.44030 -11.42597
 Alpha  occ. eigenvalues --   -8.25181  -8.10849  -1.83187  -1.65066  -1.50991
 Alpha  occ. eigenvalues --   -1.22369  -1.18552  -1.10632  -0.96048  -0.85005
 Alpha  occ. eigenvalues --   -0.77416  -0.72971  -0.64919  -0.64529  -0.60973
 Alpha  occ. eigenvalues --   -0.58617  -0.56120  -0.54623  -0.46114  -0.45320
 Alpha  occ. eigenvalues --   -0.42289  -0.40365  -0.37915  -0.36625  -0.35577
 Alpha  occ. eigenvalues --   -0.35033  -0.31811
 Alpha virt. eigenvalues --    0.02147   0.03029   0.04722   0.05257   0.05793
 Alpha virt. eigenvalues --    0.07966   0.08164   0.09456   0.10331   0.11090
 Alpha virt. eigenvalues --    0.11309   0.12111   0.12452   0.13056   0.13767

 Mulliken charges:
               1
     1  C   -2.985724
     2  H    1.244515
     3  C    0.821440
     4  H    1.560053
     5  N   -3.348881
     6  C    0.157000
     7  S    1.880638
     8  S    6.066147
     9  C   -4.661038
    10  H    1.499638
    11  H    1.289708
    12  H    1.387675
    13  O   -2.431051
    14  O   -2.480119
 Sum of Mulliken charges =   0.00000

 Dipole moment (field-independent basis, Debye):
    X=             -2.3931    Y=              4.8607    Z=             -0.3637  Tot=              5.4301

 Test job not archived.
 1\1\GINC-SE127\SP\RHF\Aug-CC-pVDZ\C4H5N1O2S2\OHZDE\09-Apr-2025\0\\#t h
 f aug-cc-pvdz iop(5/13=1,5/36=2,99/5=2) pseudo=read geom=check guess=(
 read,tcheck) scf=(maxcycle=1)\\title\\0,1\C,0,2.013,-24.6349,-0.8673\H
 ,0,0.9604,-24.6572,-1.1166\C,0,2.8231,-25.6717,-0.4433\H,0,2.4897,-26.
 6902,-0.2838\N,0,4.1318,-25.3495,-0.2268\C,0,4.3241,-24.0756,-0.4977\S
 ,0,2.9244,-23.1935,-0.9921\S,0,5.9056,-23.3056,-0.1314\C,0,5.8824,-21.
 8624,-1.1785\H,0,5.0712,-21.1969,-0.881\H,0,6.8428,-21.3721,-1.0032\H,
 0,5.8043,-22.1699,-2.2217\O,0,5.8619,-22.847,1.2504\O,0,6.9531,-24.193

 Normal termination of Gaussian 16 at Wed Apr  9 02:27:09 2025.
