 Gaussian 16, Revision C.01,

 ----------------------------------------------------------------------
 #t hf aug-cc-pvdz symm=none int=(grid=ultrafine) guess=(read,tcheck) s
 table=(opt,rrhf)
 ----------------------------------------------------------------------
 -----
 title
 -----
 Symbolic Z-matrix:
 Charge =  0 Multiplicity = 1

 SCF Done:  E(RHF) =  -575.156931178     A.U. after   15 cycles
 Normal termination of Gaussian 16 at Wed Apr  9 02:32:51 2025.
 Gaussian 16:  ES64L-G16RevC.01  3-Jul-2019

 ----------------------------------------------------------------------
 #t hf aug-cc-pvdz iop(5/13=1,5/36=2,99/5=2) pseudo=read geom=check gue
 ss=(read,tcheck) scf=(maxcycle=1)
 ----------------------------------------------------------------------
 -----
 title
 -----
 Structure from the checkpoint file:  "DCONF_48_110_mol1.chk"
 Charge =  0 Multiplicity = 1

                         Standard orientation:
 ---------------------------------------------------------------------
 Center     Atomic      Atomic             Coordinates (Angstroms)
 Number     Number       Type             X           Y           Z
 ---------------------------------------------------------------------
      1          6           0       -1.552369    0.594870    1.005919
      2          1           0       -1.011783    1.162444    1.758176
      3          6           0       -2.946969    0.620923    0.938293
      4          1           0       -3.525222    1.214183    1.641363
      5          6           0       -3.577827   -0.131393   -0.056476
      6          1           0       -4.659343   -0.143700   -0.154636
      7          6           0       -2.784324   -0.875747   -0.936286
      8          1           0       -3.242620   -1.469707   -1.724609
      9          7           0       -1.440638   -0.910710   -0.886499
     10          6           0       -0.842598   -0.186392    0.081735
     11          6           0        2.728956   -1.451327    0.394805
     12          1           0        3.247229   -2.374442    0.637533
     13          6           0        1.331413   -1.410047    0.410552
     14          1           0        0.752256   -2.297469    0.653507
     15          6           0        0.640526   -0.225086    0.110945
     16          6           0        1.398527    0.895742   -0.238993
     17          6           0        2.789642    0.882489   -0.268845
     18          1           0        3.324872    1.783759   -0.551721
     19          6           0        3.457060   -0.304385    0.053424
     20          1           0        4.543001   -0.329702    0.034213
     21          9           0        0.755983    2.041303   -0.562085
 ---------------------------------------------------------------------

 SCF Done:  E(RHF) =  -577.733714090     A.U. after    2 cycles

 The electronic state is 1-A.
 Alpha  occ. eigenvalues --  -29.28230 -15.74118 -11.54487 -11.51432 -11.47746
 Alpha  occ. eigenvalues --  -11.46779 -11.44507 -11.44279 -11.42765 -11.41849
 Alpha  occ. eigenvalues --  -11.41493 -11.38634 -11.37889  -1.46207  -1.35548
 Alpha  occ. eigenvalues --   -1.18929  -1.16249  -1.14317  -1.07344  -0.93192
 Alpha  occ. eigenvalues --   -0.90844  -0.88903  -0.85032  -0.76187  -0.72234
 Alpha  occ. eigenvalues --   -0.67708  -0.64026  -0.62371  -0.60963  -0.60766
 Alpha  occ. eigenvalues --   -0.58235  -0.56068  -0.53984  -0.53074  -0.50302
 Alpha  occ. eigenvalues --   -0.47756  -0.44717  -0.41233  -0.38772  -0.36935
 Alpha  occ. eigenvalues --   -0.36161  -0.34890  -0.32306  -0.26829  -0.23028
 Alpha virt. eigenvalues --    0.03326   0.05003   0.05235   0.05379   0.05530
 Alpha virt. eigenvalues --    0.05631   0.06742   0.07313   0.09192   0.10210
 Alpha virt. eigenvalues --    0.10363   0.11054   0.11491   0.11742   0.12268

 Mulliken charges:
               1
     1  C   -2.929443
     2  H    1.785164
     3  C   -0.280453
     4  H    1.572410
     5  C   -1.349454
     6  H    1.486567
     7  C   -1.120443
     8  H    1.666466
     9  N   -3.591414
    10  C    2.749626
    11  C   -2.676804
    12  H    1.500437
    13  C   -2.136822
    14  H    1.731434
    15  C    0.375120
    16  C    3.594486
    17  C   -4.982736
    18  H    1.750170
    19  C   -1.391752
    20  H    1.519478
    21  F    0.727963
 Sum of Mulliken charges =   0.00000

 Dipole moment (field-independent basis, Debye):
    X=             -1.8552    Y=              2.6269    Z=              0.4479  Tot=              3.2470

 Test job not archived.
 1\1\GINC-SE253\SP\RHF\Aug-CC-pVDZ\C11H8F1N1\OHZDE\09-Apr-2025\0\\#t hf
  aug-cc-pvdz iop(5/13=1,5/36=2,99/5=2) pseudo=read geom=check guess=(r
 ead,tcheck) scf=(maxcycle=1)\\title\\0,1\C,0,21.7793,-33.7343,-1.0773\
 H,0,22.2854,-34.1042,-1.9646\C,0,20.3856,-33.6974,-0.9973\H,0,19.7733,
 -34.0409,-1.8266\C,0,19.8003,-33.2114,0.1752\H,0,18.7214,-33.1641,0.29
 01\C,0,20.6364,-32.7837,1.2124\H,0,20.214,-32.4031,2.1403\N,0,21.9798,
 -32.814,1.1528\C,0,22.534,-33.2785,0.014\C,0,26.175,-32.1844,0.0024\H,
 0,26.7477,-31.2616,0.0133\C,0,24.7775,-32.1391,-0.0019\H,0,24.2526,-31

 Normal termination of Gaussian 16 at Wed Apr  9 02:33:07 2025.
