 Gaussian 16, Revision C.01,

 ----------------------------------------------------------------------
 #t hf aug-cc-pvdz symm=none int=(grid=ultrafine) guess=(read,tcheck) s
 table=(opt,rrhf)
 ----------------------------------------------------------------------
 -----
 title
 -----
 Symbolic Z-matrix:
 Charge =  0 Multiplicity = 1

 SCF Done:  E(RHF) =  -774.176407573     A.U. after   16 cycles
 Normal termination of Gaussian 16 at Wed Apr  9 02:27:33 2025.
 Gaussian 16:  ES64L-G16RevC.01  3-Jul-2019

 ----------------------------------------------------------------------
 #t hf aug-cc-pvdz iop(5/13=1,5/36=2,99/5=2) pseudo=read geom=check gue
 ss=(read,tcheck) scf=(maxcycle=1)
 ----------------------------------------------------------------------
 -----
 title
 -----
 Structure from the checkpoint file:  "DCONF_42_-120_mol1.chk"
 Charge =  0 Multiplicity = 1

                         Standard orientation:
 ---------------------------------------------------------------------
 Center     Atomic      Atomic             Coordinates (Angstroms)
 Number     Number       Type             X           Y           Z
 ---------------------------------------------------------------------
      1          6           0       -1.990194   -0.151195    0.106600
      2          7           0       -0.991187    0.559202   -0.568777
      3          1           0       -1.221686    1.515864   -0.813775
      4          7           0        1.092350    1.437987    0.171386
      5          6           0        2.380972    1.024129    0.390351
      6          1           0        3.119007    1.739806    0.732214
      7          6           0        2.622164   -0.314479    0.170023
      8          1           0        3.540788   -0.865536    0.318348
      9         16           0        1.184675   -1.093025   -0.346556
     10          6           0        0.363836    0.418351   -0.234942
     11          8           0       -1.762534   -1.188473    0.701484
     12          6           0       -3.361609    0.477297   -0.008005
     13          1           0       -3.522865    0.910567   -0.998250
     14          1           0       -3.451973    1.272345    0.738990
     15          1           0       -4.116949   -0.281787    0.193066
 ---------------------------------------------------------------------

 SCF Done:  E(RHF) =  -776.105799727     A.U. after    2 cycles

 The electronic state is 1-A.
 Alpha  occ. eigenvalues --  -75.72371 -21.04703 -15.79122 -15.74378 -13.18766
 Alpha  occ. eigenvalues --  -13.16888 -13.04725 -11.52002 -11.47095 -11.44723
 Alpha  occ. eigenvalues --  -11.40500 -11.39398  -8.07013  -1.72316  -1.51143
 Alpha  occ. eigenvalues --   -1.37538  -1.19043  -1.12585  -1.04841  -0.86364
 Alpha  occ. eigenvalues --   -0.81017  -0.77899  -0.69976  -0.66367  -0.63243
 Alpha  occ. eigenvalues --   -0.60814  -0.57801  -0.53814  -0.53438  -0.49298
 Alpha  occ. eigenvalues --   -0.48870  -0.43010  -0.37807  -0.36439  -0.33300
 Alpha  occ. eigenvalues --   -0.29822  -0.27222
 Alpha virt. eigenvalues --    0.03048   0.04032   0.05487   0.05839   0.06086
 Alpha virt. eigenvalues --    0.07007   0.08385   0.09241   0.10496   0.10758
 Alpha virt. eigenvalues --    0.12185   0.12664   0.12737   0.13275   0.13486

 Mulliken charges:
               1
     1  C    4.335302
     2  N   -2.988499
     3  H    0.789494
     4  N   -3.212283
     5  C    0.617495
     6  H    1.548501
     7  C   -2.526777
     8  H    1.212938
     9  S    1.892657
    10  C    2.058356
    11  O   -3.046998
    12  C   -4.426079
    13  H    1.284096
    14  H    1.284025
    15  H    1.177773
 Sum of Mulliken charges =  -0.00000

 Dipole moment (field-independent basis, Debye):
    X=             -0.7949    Y=             -1.8137    Z=             -1.0119  Tot=              2.2238

 Test job not archived.
 1\1\GINC-SE208\SP\RHF\Aug-CC-pVDZ\C5H6N2O1S1\OHZDE\09-Apr-2025\0\\#t h
 f aug-cc-pvdz iop(5/13=1,5/36=2,99/5=2) pseudo=read geom=check guess=(
 read,tcheck) scf=(maxcycle=1)\\title\\0,1\C,0,28.8808,-16.0154,-1.0136
 \N,0,29.3081,-16.8665,0.012\H,0,28.6044,-17.4957,0.3825\N,0,30.7404,-1
 8.7663,-0.0105\C,0,32.0784,-19.0649,0.0086\H,0,32.3924,-20.1018,0.0068
 \C,0,32.9304,-17.982,0.0051\H,0,34.0114,-17.977,-0.0257\S,0,32.0277,-1
 6.5245,-0.0086\C,0,30.5794,-17.4588,-0.0067\O,0,29.6614,-15.42,-1.7332
 \C,0,27.376,-15.8908,-1.1083\H,0,26.9104,-15.8913,-0.1196\H,0,26.9841,

 Normal termination of Gaussian 16 at Wed Apr  9 02:27:40 2025.
