 Gaussian 16, Revision C.01,

 ----------------------------------------------------------------------
 #t hf aug-cc-pvdz symm=none int=(grid=ultrafine) guess=(read,tcheck) s
 table=(opt,rrhf)
 ----------------------------------------------------------------------
 -----
 title
 -----
 Symbolic Z-matrix:
 Charge =  0 Multiplicity = 1

 SCF Done:  E(RHF) =  -911.020952599     A.U. after   15 cycles
 Normal termination of Gaussian 16 at Wed Apr  9 02:30:09 2025.
 Gaussian 16:  ES64L-G16RevC.01  3-Jul-2019

 ----------------------------------------------------------------------
 #t hf aug-cc-pvdz iop(5/13=1,5/36=2,99/5=2) pseudo=read geom=check gue
 ss=(read,tcheck) scf=(maxcycle=1)
 ----------------------------------------------------------------------
 -----
 title
 -----
 Structure from the checkpoint file:  "DCONF_30_0_mol2.chk"
 Charge =  0 Multiplicity = 1

                         Standard orientation:
 ---------------------------------------------------------------------
 Center     Atomic      Atomic             Coordinates (Angstroms)
 Number     Number       Type             X           Y           Z
 ---------------------------------------------------------------------
      1          6           0        2.661686   -1.197191    0.235712
      2          1           0        3.195725   -2.128952    0.401429
      3          6           0        1.313934   -1.229095   -0.139077
      4          1           0        0.791396   -2.169880   -0.285599
      5          6           0        0.643278   -0.019676   -0.361115
      6         16           0       -1.093482   -0.045665   -0.757502
      7          7           0       -1.876222    0.037140    0.720537
      8          6           0       -1.700387   -1.132725    1.585527
      9          1           0       -1.855541   -2.043449    1.006784
     10          1           0       -0.704770   -1.151963    2.055099
     11          1           0       -2.459561   -1.079977    2.370010
     12          6           0       -1.716248    1.300683    1.444842
     13          1           0       -1.876204    2.136667    0.763951
     14          1           0       -2.480013    1.331671    2.226124
     15          1           0       -0.724035    1.383861    1.914497
     16          6           0        1.297059    1.213041   -0.232421
     17          1           0        0.763158    2.132844   -0.452686
     18          6           0        2.644672    1.228561    0.143244
     19          1           0        3.165621    2.177464    0.237380
     20          6           0        3.325398    0.027657    0.381274
     21          1           0        4.373136    0.045908    0.668603
     22          8           0       -1.401285    1.188653   -1.458369
     23          8           0       -1.395716   -1.352537   -1.313784
 ---------------------------------------------------------------------

 SCF Done:  E(RHF) =  -913.681563474     A.U. after    2 cycles

 The electronic state is 1-A.
 Alpha  occ. eigenvalues --  -75.89446 -21.04099 -21.04044 -15.75024 -13.52281
 Alpha  occ. eigenvalues --  -13.42922 -13.38529 -11.54549 -11.46756 -11.45944
 Alpha  occ. eigenvalues --  -11.43935 -11.43218 -11.41429 -11.40465 -11.39250
 Alpha  occ. eigenvalues --   -8.24583  -1.83282  -1.65195  -1.44222  -1.36007
 Alpha  occ. eigenvalues --   -1.14371  -1.11538  -1.05895  -1.02737  -0.90764
 Alpha  occ. eigenvalues --   -0.89079  -0.82132  -0.73465  -0.69203  -0.66759
 Alpha  occ. eigenvalues --   -0.65096  -0.63109  -0.60815  -0.60322  -0.59967
 Alpha  occ. eigenvalues --   -0.56689  -0.54832  -0.52252  -0.51217  -0.48914
 Alpha  occ. eigenvalues --   -0.47700  -0.42771  -0.39807  -0.39364  -0.38913
 Alpha  occ. eigenvalues --   -0.35162  -0.35021  -0.34987  -0.34568
 Alpha virt. eigenvalues --    0.02794   0.04304   0.04737   0.04778   0.05136
 Alpha virt. eigenvalues --    0.06328   0.06579   0.06970   0.07568   0.07899
 Alpha virt. eigenvalues --    0.08906   0.09069   0.10266   0.10351   0.11340

 Mulliken charges:
               1
     1  C   -0.494489
     2  H    1.518774
     3  C   -3.779701
     4  H    2.138238
     5  C    1.875266
     6  S    8.022722
     7  N   -2.421824
     8  C   -3.918307
     9  H    1.432816
    10  H    1.704520
    11  H    1.260264
    12  C   -3.920608
    13  H    1.431275
    14  H    1.258594
    15  H    1.704845
    16  C   -3.690651
    17  H    2.148728
    18  C   -0.476360
    19  H    1.515937
    20  C   -2.880696
    21  H    1.576944
    22  O   -2.998325
    23  O   -3.007962
 Sum of Mulliken charges =  -0.00000

 Dipole moment (field-independent basis, Debye):
    X=              2.1907    Y=              0.1696    Z=              2.9239  Tot=              3.6575

 Test job not archived.
 1\1\GINC-SE364\SP\RHF\Aug-CC-pVDZ\C8H11N1O2S1\OHZDE\09-Apr-2025\0\\#t
 hf aug-cc-pvdz iop(5/13=1,5/36=2,99/5=2) pseudo=read geom=check guess=
 (read,tcheck) scf=(maxcycle=1)\\title\\0,1\C,0,3.4972,-2.787,-1.96\H,0
 ,3.9524,-3.0537,-2.91\C,0,2.3517,-1.9836,-1.9427\H,0,1.9149,-1.6043,-2
 .8619\C,0,1.7844,-1.6384,-0.7095\S,0,0.2793,-0.6856,-0.6782\N,0,-0.951
 9,-1.8206,-0.6861\C,0,-1.0657,-2.6084,-1.9166\H,0,-1.0123,-1.9472,-2.7
 817\H,0,-0.2834,-3.38,-1.9856\H,0,-2.0433,-3.097,-1.9062\C,0,-1.0519,-
 2.6456,0.5206\H,0,-0.982,-2.0122,1.4049\H,0,-2.0326,-3.1281,0.5096\H,0

 Normal termination of Gaussian 16 at Wed Apr  9 02:30:28 2025.
