 Gaussian 16, Revision C.01,

 ----------------------------------------------------------------------
 #t hf aug-cc-pvdz symm=none int=(grid=ultrafine) guess=(read,tcheck) s
 table=(opt,rrhf)
 ----------------------------------------------------------------------
 -----
 title
 -----
 Symbolic Z-matrix:
 Charge =  0 Multiplicity = 1

 SCF Done:  E(RHF) =  -453.938382421     A.U. after   11 cycles
 Normal termination of Gaussian 16 at Wed Apr  9 02:21:59 2025.
 Gaussian 16:  ES64L-G16RevC.01  3-Jul-2019

 ----------------------------------------------------------------------
 #t hf aug-cc-pvdz iop(5/13=1,5/36=2,99/5=2) pseudo=read geom=check gue
 ss=(read,tcheck) scf=(maxcycle=1)
 ----------------------------------------------------------------------
 -----
 title
 -----
 Structure from the checkpoint file:  "DCONF_10_0_mol1.chk"
 Charge =  0 Multiplicity = 1

                         Standard orientation:
 ---------------------------------------------------------------------
 Center     Atomic      Atomic             Coordinates (Angstroms)
 Number     Number       Type             X           Y           Z
 ---------------------------------------------------------------------
      1          6           0       -0.472916   -0.603731    0.000431
      2          1           0       -0.571528   -1.243845   -0.880515
      3          1           0       -0.570934   -1.242462    0.882202
      4          6           0       -1.574187    0.458363   -0.000263
      5          1           0       -1.462769    1.101501    0.877920
      6          1           0       -1.462587    1.099945   -0.879524
      7          6           0       -2.956552   -0.193010    0.000046
      8          1           0       -3.090976   -0.823256    0.884938
      9          1           0       -3.092256   -0.821673   -0.885780
     10          1           0       -3.745445    0.563686    0.001268
     11          6           0        0.943326   -0.044820   -0.000269
     12          9           0        1.640567   -0.446426    1.083540
     13          9           0        1.641200   -0.448633   -1.082414
     14          9           0        0.980285    1.302313   -0.001146
 ---------------------------------------------------------------------

 SCF Done:  E(RHF) =  -455.727474786     A.U. after    2 cycles

 The electronic state is 1-A.
 Alpha  occ. eigenvalues --  -29.29795 -29.29739 -29.29667 -11.60220 -11.44204
 Alpha  occ. eigenvalues --  -11.40645 -11.36791  -1.42848  -1.20672  -1.02687
 Alpha  occ. eigenvalues --   -0.90365  -0.87618  -0.84051  -0.70768  -0.65494
 Alpha  occ. eigenvalues --   -0.58127  -0.55838  -0.51268  -0.49277  -0.48990
 Alpha  occ. eigenvalues --   -0.46104  -0.42736  -0.42452  -0.34545  -0.34190
 Alpha  occ. eigenvalues --   -0.29186  -0.24193  -0.24093  -0.20318
 Alpha virt. eigenvalues --    0.03688   0.05612   0.05664   0.06105   0.06156
 Alpha virt. eigenvalues --    0.07376   0.08272   0.10508   0.10837   0.12835
 Alpha virt. eigenvalues --    0.13395   0.14254   0.14539   0.15170   0.16952

 Mulliken charges:
               1
     1  C   -3.793498
     2  H    1.343078
     3  H    1.343291
     4  C   -3.186408
     5  H    1.504392
     6  H    1.504617
     7  C   -3.768351
     8  H    1.235635
     9  H    1.235601
    10  H    1.091406
    11  C    0.340157
    12  F    0.351482
    13  F    0.351837
    14  F    0.446761
 Sum of Mulliken charges =  -0.00000

 Dipole moment (field-independent basis, Debye):
    X=              0.5935    Y=              0.6174    Z=              0.0002  Tot=              0.8564

 Test job not archived.
 1\1\GINC-SE328\SP\RHF\Aug-CC-pVDZ\C4H7F3\OHZDE\09-Apr-2025\0\\#t hf au
 g-cc-pvdz iop(5/13=1,5/36=2,99/5=2) pseudo=read geom=check guess=(read
 ,tcheck) scf=(maxcycle=1)\\title\\0,1\C,0,-0.1412,0.0053,0.1881\H,0,0.
 0735,-0.5598,1.0992\H,0,0.2031,-0.5947,-0.6584\C,0,0.601,1.3429,0.2165
 \H,0,0.373,1.9072,-0.6928\H,0,0.2431,1.9416,1.0595\C,0,2.109,1.1246,0.
 3327\H,0,2.4858,0.5433,-0.5149\H,0,2.3554,0.5814,1.2506\H,0,2.642,2.07
 88,0.3515\C,0,-1.6547,0.1253,0.0739\F,0,-2.123,-0.4848,-1.0354\F,0,-2.
 2834,-0.4428,1.1242\F,0,-2.0812,1.4024,0.0169\\Version=ES64L-G16RevC.0

 Normal termination of Gaussian 16 at Wed Apr  9 02:22:03 2025.
