 Gaussian 16, Revision C.01,

 ----------------------------------------------------------------------
 #t hf aug-cc-pvdz symm=none int=(grid=ultrafine) guess=(read,tcheck) s
 table=(opt,rrhf)
 ----------------------------------------------------------------------
 -----
 title
 -----
 Symbolic Z-matrix:
 Charge =  0 Multiplicity = 1

 SCF Done:  E(RHF) =  -796.905397689     A.U. after   17 cycles
 Normal termination of Gaussian 16 at Wed Apr  9 02:32:04 2025.
 Gaussian 16:  ES64L-G16RevC.01  3-Jul-2019

 ----------------------------------------------------------------------
 #t hf aug-cc-pvdz iop(5/13=1,5/36=2,99/5=2) pseudo=read geom=check gue
 ss=(read,tcheck) scf=(maxcycle=1)
 ----------------------------------------------------------------------
 -----
 title
 -----
 Structure from the checkpoint file:  "DCONF_55_0_mol1.chk"
 Charge =  0 Multiplicity = 1

                         Standard orientation:
 ---------------------------------------------------------------------
 Center     Atomic      Atomic             Coordinates (Angstroms)
 Number     Number       Type             X           Y           Z
 ---------------------------------------------------------------------
      1          6           0       -1.321627   -1.154107    0.074408
      2          1           0       -0.741538   -2.073079    0.124734
      3          6           0       -2.716912   -1.228935    0.043623
      4          1           0       -3.203871   -2.198884    0.098458
      5          6           0       -3.484443   -0.059053   -0.002390
      6          1           0       -4.569388   -0.117198   -0.016689
      7          6           0       -2.842405    1.184988   -0.063066
      8          1           0       -3.430417    2.098559   -0.095321
      9          6           0       -1.448265    1.264882   -0.042537
     10          1           0       -0.941361    2.224149   -0.085632
     11          6           0       -0.672621    0.090354   -0.017338
     12          7           0        1.434441    1.360949    0.076048
     13          6           0        2.785807    1.168652    0.048921
     14          1           0        3.450487    2.024206    0.087240
     15          6           0        3.199711   -0.146315   -0.024132
     16          1           0        4.209130   -0.534806   -0.045215
     17         16           0        1.840201   -1.180941   -0.060232
     18          6           0        0.791198    0.203779    0.043144
 ---------------------------------------------------------------------

 SCF Done:  E(RHF) =  -799.017117226     A.U. after    2 cycles

 The electronic state is 1-A.
 Alpha  occ. eigenvalues --  -75.72395 -15.74085 -13.19467 -13.17354 -13.04366
 Alpha  occ. eigenvalues --  -11.52663 -11.49045 -11.45340 -11.44133 -11.43860
 Alpha  occ. eigenvalues --  -11.42016 -11.41448 -11.39687 -11.37312  -8.07032
 Alpha  occ. eigenvalues --   -1.48714  -1.33680  -1.18690  -1.14282  -1.09564
 Alpha  occ. eigenvalues --   -1.04340  -0.89423  -0.87368  -0.81245  -0.76605
 Alpha  occ. eigenvalues --   -0.71364  -0.68888  -0.63776  -0.59041  -0.58241
 Alpha  occ. eigenvalues --   -0.56640  -0.55427  -0.51309  -0.50094  -0.45289
 Alpha  occ. eigenvalues --   -0.44981  -0.42509  -0.38218  -0.35158  -0.33552
 Alpha  occ. eigenvalues --   -0.31661  -0.27060
 Alpha virt. eigenvalues --    0.03124   0.03996   0.05049   0.05417   0.05959
 Alpha virt. eigenvalues --    0.06701   0.07658   0.08026   0.08545   0.10187
 Alpha virt. eigenvalues --    0.11095   0.11246   0.12125   0.12645   0.13126

 Mulliken charges:
               1
     1  C   -1.384036
     2  H    2.006113
     3  C   -2.495819
     4  H    1.483364
     5  C   -2.671673
     6  H    1.540657
     7  C   -1.342979
     8  H    1.457450
     9  C   -2.162113
    10  H    1.697884
    11  C    4.261189
    12  N   -4.372801
    13  C    0.737746
    14  H    1.690968
    15  C   -3.461011
    16  H    1.236700
    17  S    2.006448
    18  C   -0.228088
 Sum of Mulliken charges =  -0.00000

 Dipole moment (field-independent basis, Debye):
    X=              0.0985    Y=             -3.0574    Z=             -0.2249  Tot=              3.0673

 Test job not archived.
 1\1\GINC-SE036\SP\RHF\Aug-CC-pVDZ\C9H7N1S1\OHZDE\09-Apr-2025\0\\#t hf
 aug-cc-pvdz iop(5/13=1,5/36=2,99/5=2) pseudo=read geom=check guess=(re
 ad,tcheck) scf=(maxcycle=1)\\title\\0,1\C,0,21.799,-23.5707,0.0104\H,0
 ,22.3175,-24.5271,0.0118\C,0,20.4016,-23.5523,-0.007\H,0,19.8521,-24.4
 897,0.0094\C,0,19.7127,-22.3337,0.0096\H,0,18.6262,-22.3198,0.0057\C,0
 ,20.435,-21.133,-0.002\H,0,19.9084,-20.1823,0.0145\C,0,21.8315,-21.145
 8,0.0054\H,0,22.4003,-20.2209,0.\C,0,22.528,-22.3686,-0.0323\N,0,24.71
 52,-21.2447,0.0936\C,0,26.0506,-21.5238,0.0415\H,0,26.7707,-20.7164,0.

 Normal termination of Gaussian 16 at Wed Apr  9 02:32:16 2025.
