 Gaussian 16, Revision C.01,

 ----------------------------------------------------------------------
 #t hf aug-cc-pvdz symm=none int=(grid=ultrafine) guess=(read,tcheck) s
 table=(opt,rrhf)
 ----------------------------------------------------------------------
 -----
 title
 -----
 Symbolic Z-matrix:
 Charge =  0 Multiplicity = 1

 SCF Done:  E(RHF) =  -774.183605101     A.U. after   16 cycles
 Normal termination of Gaussian 16 at Wed Apr  9 02:28:33 2025.
 Gaussian 16:  ES64L-G16RevC.01  3-Jul-2019

 ----------------------------------------------------------------------
 #t hf aug-cc-pvdz iop(5/13=1,5/36=2,99/5=2) pseudo=read geom=check gue
 ss=(read,tcheck) scf=(maxcycle=1)
 ----------------------------------------------------------------------
 -----
 title
 -----
 Structure from the checkpoint file:  "DCONF_42_0_mol2.chk"
 Charge =  0 Multiplicity = 1

                         Standard orientation:
 ---------------------------------------------------------------------
 Center     Atomic      Atomic             Coordinates (Angstroms)
 Number     Number       Type             X           Y           Z
 ---------------------------------------------------------------------
      1          6           0        1.989793   -0.097798   -0.021305
      2          7           0        0.958417    0.815543   -0.023590
      3          1           0        1.152284    1.808613   -0.013211
      4          7           0       -1.296957    1.461305   -0.012829
      5          6           0       -2.554807    0.912898    0.003198
      6          1           0       -3.417994    1.567768    0.003001
      7          6           0       -2.600855   -0.460987    0.016952
      8          1           0       -3.470652   -1.103946    0.028664
      9         16           0       -1.010979   -1.117254    0.009889
     10          6           0       -0.397712    0.500021   -0.008849
     11          8           0        1.781308   -1.303536   -0.032912
     12          6           0        3.374049    0.508293    0.036029
     13          1           0        3.397137    1.542871   -0.314089
     14          1           0        4.044463   -0.100554   -0.571461
     15          1           0        3.726943    0.477110    1.070955
 ---------------------------------------------------------------------

 SCF Done:  E(RHF) =  -776.116662134     A.U. after    2 cycles

 The electronic state is 1-A.
 Alpha  occ. eigenvalues --  -75.72239 -21.04582 -15.80278 -15.73625 -13.18642
 Alpha  occ. eigenvalues --  -13.16729 -13.03958 -11.52587 -11.47614 -11.44285
 Alpha  occ. eigenvalues --  -11.40795 -11.38799  -8.06761  -1.72725  -1.51192
 Alpha  occ. eigenvalues --   -1.38003  -1.18618  -1.12916  -1.04819  -0.87285
 Alpha  occ. eigenvalues --   -0.80960  -0.78651  -0.69522  -0.66398  -0.63945
 Alpha  occ. eigenvalues --   -0.60849  -0.58076  -0.54268  -0.52438  -0.50022
 Alpha  occ. eigenvalues --   -0.49358  -0.43227  -0.38897  -0.36568  -0.31033
 Alpha  occ. eigenvalues --   -0.30364  -0.26982
 Alpha virt. eigenvalues --    0.02890   0.04034   0.05532   0.05648   0.06075
 Alpha virt. eigenvalues --    0.07014   0.09016   0.09342   0.10619   0.11525
 Alpha virt. eigenvalues --    0.12126   0.12411   0.12799   0.13714   0.13838

 Mulliken charges:
               1
     1  C    4.203072
     2  N   -3.549801
     3  H    0.878317
     4  N   -3.060067
     5  C    0.567109
     6  H    1.570252
     7  C   -2.859549
     8  H    1.208138
     9  S    1.950198
    10  C    2.781702
    11  O   -3.058149
    12  C   -4.473015
    13  H    1.342361
    14  H    1.203356
    15  H    1.296076
 Sum of Mulliken charges =  -0.00000

 Dipole moment (field-independent basis, Debye):
    X=              1.8815    Y=             -1.6452    Z=              0.0837  Tot=              2.5007

 Test job not archived.
 1\1\GINC-SE112\SP\RHF\Aug-CC-pVDZ\C5H6N2O1S1\OHZDE\09-Apr-2025\0\\#t h
 f aug-cc-pvdz iop(5/13=1,5/36=2,99/5=2) pseudo=read geom=check guess=(
 read,tcheck) scf=(maxcycle=1)\\title\\0,1\C,0,29.0229,-15.5453,0.0014\
 N,0,29.3072,-16.8933,-0.0001\H,0,28.5601,-17.5754,0.0214\N,0,30.7341,-
 18.7555,-0.0007\C,0,32.0712,-19.0643,0.0002\H,0,32.3744,-20.1045,-0.00
 04\C,0,32.9267,-17.9882,0.0003\H,0,34.0084,-17.9899,-0.001\S,0,32.0406
 ,-16.514,-0.0007\C,0,30.5845,-17.4477,0.001\O,0,29.9084,-14.7011,-0.02
 35\C,0,27.5508,-15.2073,0.0754\H,0,26.9118,-16.0256,-0.2645\H,0,27.367

 Normal termination of Gaussian 16 at Wed Apr  9 02:28:40 2025.
