 Gaussian 16, Revision C.01,

 ----------------------------------------------------------------------
 #t hf aug-cc-pvdz symm=none int=(grid=ultrafine) guess=(read,tcheck) s
 table=(opt,rrhf)
 ----------------------------------------------------------------------
 -----
 title
 -----
 Symbolic Z-matrix:
 Charge =  0 Multiplicity = 1

 SCF Done:  E(RHF) =  -812.901762795     A.U. after   17 cycles
 Normal termination of Gaussian 16 at Wed Apr  9 02:31:56 2025.
 Gaussian 16:  ES64L-G16RevC.01  3-Jul-2019

 ----------------------------------------------------------------------
 #t hf aug-cc-pvdz iop(5/13=1,5/36=2,99/5=2) pseudo=read geom=check gue
 ss=(read,tcheck) scf=(maxcycle=1)
 ----------------------------------------------------------------------
 -----
 title
 -----
 Structure from the checkpoint file:  "DCONF_56_-140_mol1.chk"
 Charge =  0 Multiplicity = 1

                         Standard orientation:
 ---------------------------------------------------------------------
 Center     Atomic      Atomic             Coordinates (Angstroms)
 Number     Number       Type             X           Y           Z
 ---------------------------------------------------------------------
      1          6           0       -1.478502    1.216938   -0.370163
      2          1           0       -0.995863    2.146074   -0.656693
      3          6           0       -2.866254    1.087781   -0.318784
      4          1           0       -3.508824    1.924904   -0.577582
      5          6           0       -3.412220   -0.143150    0.062503
      6          1           0       -4.486536   -0.292367    0.114677
      7          6           0       -2.541091   -1.188865    0.385805
      8          1           0       -2.929824   -2.157590    0.693068
      9          7           0       -1.201647   -1.081223    0.359221
     10          6           0       -0.690823    0.106335   -0.025021
     11          7           0        1.414150    1.312815    0.398447
     12          6           0        2.762821    1.095113    0.385788
     13          1           0        3.436471    1.887942    0.690620
     14          6           0        3.157861   -0.168530   -0.012428
     15          1           0        4.163115   -0.559500   -0.098553
     16         16           0        1.787875   -1.122631   -0.379453
     17          6           0        0.772865    0.226292   -0.007361
 ---------------------------------------------------------------------

 SCF Done:  E(RHF) =  -815.058072735     A.U. after    2 cycles

 The electronic state is 1-A.
 Alpha  occ. eigenvalues --  -75.72290 -15.74943 -15.74542 -13.18902 -13.17031
 Alpha  occ. eigenvalues --  -13.04793 -11.51636 -11.47865 -11.45351 -11.44977
 Alpha  occ. eigenvalues --  -11.44640 -11.42148 -11.39475 -11.38897  -8.06904
 Alpha  occ. eigenvalues --   -1.50318  -1.42808  -1.19971  -1.18151  -1.15618
 Alpha  occ. eigenvalues --   -1.05409  -0.91538  -0.90028  -0.81789  -0.77926
 Alpha  occ. eigenvalues --   -0.71163  -0.68793  -0.63999  -0.61733  -0.57833
 Alpha  occ. eigenvalues --   -0.57305  -0.55271  -0.52885  -0.51210  -0.46925
 Alpha  occ. eigenvalues --   -0.42553  -0.38480  -0.37847  -0.36651  -0.34859
 Alpha  occ. eigenvalues --   -0.31999  -0.27939
 Alpha virt. eigenvalues --    0.03054   0.04167   0.05116   0.05377   0.05838
 Alpha virt. eigenvalues --    0.07124   0.08256   0.08879   0.09562   0.09702
 Alpha virt. eigenvalues --    0.10399   0.11708   0.11970   0.12679   0.12776

 Mulliken charges:
               1
     1  C   -1.918851
     2  H    1.693981
     3  C    0.027234
     4  H    1.533898
     5  C   -1.341433
     6  H    1.492635
     7  C   -0.947088
     8  H    1.647703
     9  N   -3.416542
    10  C    2.107007
    11  N   -4.008582
    12  C    1.036805
    13  H    1.597975
    14  C   -3.019368
    15  H    1.241914
    16  S    1.142060
    17  C    1.130652
 Sum of Mulliken charges =   0.00000

 Dipole moment (field-independent basis, Debye):
    X=             -0.9982    Y=             -2.0925    Z=             -1.2216  Tot=              2.6205

 Test job not archived.
 1\1\GINC-SE188\SP\RHF\Aug-CC-pVDZ\C8H6N2S1\OHZDE\09-Apr-2025\0\\#t hf
 aug-cc-pvdz iop(5/13=1,5/36=2,99/5=2) pseudo=read geom=check guess=(re
 ad,tcheck) scf=(maxcycle=1)\\title\\0,1\C,0,30.1281,-21.092,-0.0128\H,
 0,30.7123,-20.1771,-0.0127\C,0,28.7336,-21.0809,0.0078\H,0,28.1888,-20
 .1408,0.0151\C,0,28.0525,-22.3035,0.0086\H,0,26.9675,-22.3453,0.0217\C
 ,0,28.8011,-23.4852,-0.001\H,0,28.3056,-24.4539,0.0062\N,0,30.1447,-23
 .5189,-0.004\C,0,30.7864,-22.3328,-0.0203\N,0,32.9947,-21.5399,0.7284\
 C,0,34.3131,-21.8874,0.6416\H,0,35.0581,-21.2981,1.1641\C,0,34.5837,-2

 Normal termination of Gaussian 16 at Wed Apr  9 02:32:06 2025.
