 Gaussian 16, Revision C.01,

 ----------------------------------------------------------------------
 #t hf aug-cc-pvdz symm=none int=(grid=ultrafine) guess=(read,tcheck) s
 table=(opt,rrhf)
 ----------------------------------------------------------------------
 -----
 title
 -----
 Symbolic Z-matrix:
 Charge =  0 Multiplicity = 1

 SCF Done:  E(RHF) =  -1153.55235026     A.U. after   16 cycles
 Normal termination of Gaussian 16 at Wed Apr  9 02:27:02 2025.
 Gaussian 16:  ES64L-G16RevC.01  3-Jul-2019

 ----------------------------------------------------------------------
 #t hf aug-cc-pvdz iop(5/13=1,5/36=2,99/5=2) pseudo=read geom=check gue
 ss=(read,tcheck) scf=(maxcycle=1)
 ----------------------------------------------------------------------
 -----
 title
 -----
 Structure from the checkpoint file:  "DCONF_29_0_mol2.chk"
 Charge =  0 Multiplicity = 1

                         Standard orientation:
 ---------------------------------------------------------------------
 Center     Atomic      Atomic             Coordinates (Angstroms)
 Number     Number       Type             X           Y           Z
 ---------------------------------------------------------------------
      1          6           0        2.748234   -0.033849   -0.040982
      2          1           0        3.779586   -0.357066   -0.093524
      3          6           0        2.259233    1.256825    0.065091
      4          1           0        2.870285    2.150969    0.104719
      5          7           0        0.899960    1.363764    0.120255
      6          6           0        0.365500    0.158227    0.053370
      7         16           0        1.462401   -1.157574   -0.088405
      8         16           0       -1.397667   -0.111532    0.126341
      9          6           0       -1.983529    1.042966   -1.091393
     10          1           0       -1.674092    2.044286   -0.792533
     11          1           0       -3.071761    0.950807   -1.093637
     12          1           0       -1.571455    0.765847   -2.062092
     13          8           0       -1.893600    0.305739    1.428396
     14          8           0       -1.606980   -1.473302   -0.356924
 ---------------------------------------------------------------------

 SCF Done:  E(RHF) =  -1155.65305987     A.U. after    2 cycles

 The electronic state is 1-A.
 Alpha  occ. eigenvalues --  -75.89971 -75.75960 -21.05121 -21.05012 -15.78558
 Alpha  occ. eigenvalues --  -13.51869 -13.43119 -13.37251 -13.21691 -13.20314
 Alpha  occ. eigenvalues --  -13.07910 -11.47927 -11.47279 -11.43112 -11.42386
 Alpha  occ. eigenvalues --   -8.24980  -8.10500  -1.83233  -1.65156  -1.51010
 Alpha  occ. eigenvalues --   -1.22044  -1.18451  -1.10320  -0.95783  -0.84668
 Alpha  occ. eigenvalues --   -0.77768  -0.72812  -0.64462  -0.63712  -0.61748
 Alpha  occ. eigenvalues --   -0.58441  -0.55319  -0.54495  -0.45876  -0.44592
 Alpha  occ. eigenvalues --   -0.41682  -0.40072  -0.38933  -0.36878  -0.35506
 Alpha  occ. eigenvalues --   -0.35150  -0.31843
 Alpha virt. eigenvalues --    0.02152   0.03727   0.04774   0.05683   0.06662
 Alpha virt. eigenvalues --    0.07155   0.08249   0.09365   0.10196   0.11164
 Alpha virt. eigenvalues --    0.11637   0.12114   0.13046   0.13418   0.13799

 Mulliken charges:
               1
     1  C   -2.664960
     2  H    1.253501
     3  C    0.604200
     4  H    1.591812
     5  N   -3.530757
     6  C    0.488703
     7  S    1.329437
     8  S    6.358400
     9  C   -4.655225
    10  H    1.426077
    11  H    1.353536
    12  H    1.332698
    13  O   -2.396546
    14  O   -2.490876
 Sum of Mulliken charges =   0.00000

 Dipole moment (field-independent basis, Debye):
    X=              2.4525    Y=             -2.1437    Z=             -1.6554  Tot=              3.6539

 Test job not archived.
 1\1\GINC-SE021\SP\RHF\Aug-CC-pVDZ\C4H5N1O2S2\OHZDE\09-Apr-2025\0\\#t h
 f aug-cc-pvdz iop(5/13=1,5/36=2,99/5=2) pseudo=read geom=check guess=(
 read,tcheck) scf=(maxcycle=1)\\title\\0,1\C,0,2.0276,-24.6262,-0.8858\
 H,0,0.9754,-24.6379,-1.1381\C,0,2.8197,-25.6809,-0.4658\H,0,2.4774,-26
 .7008,-0.3351\N,0,4.1226,-25.3668,-0.2091\C,0,4.3132,-24.0803,-0.4372\
 S,0,2.9466,-23.1891,-0.9783\S,0,5.8923,-23.2876,-0.1824\C,0,6.9835,-24
 .3804,-1.0622\H,0,6.9073,-25.3728,-0.6183\H,0,7.987,-23.9682,-0.9364\H
 ,0,6.6984,-24.3858,-2.1146\O,0,6.2334,-23.3403,1.2305\O,0,5.8103,-22.0

 Normal termination of Gaussian 16 at Wed Apr  9 02:27:09 2025.
