 Gaussian 16, Revision C.01,

 ----------------------------------------------------------------------
 #t hf aug-cc-pvdz symm=none int=(grid=ultrafine) guess=(read,tcheck) s
 table=(opt,rrhf)
 ----------------------------------------------------------------------
 -----
 title
 -----
 Symbolic Z-matrix:
 Charge =  0 Multiplicity = 1

 SCF Done:  E(RHF) =  -703.119565550     A.U. after   16 cycles
 Normal termination of Gaussian 16 at Wed Apr  9 02:23:39 2025.
 Gaussian 16:  ES64L-G16RevC.01  3-Jul-2019

 ----------------------------------------------------------------------
 #t hf aug-cc-pvdz iop(5/13=1,5/36=2,99/5=2) pseudo=read geom=check gue
 ss=(read,tcheck) scf=(maxcycle=1)
 ----------------------------------------------------------------------
 -----
 title
 -----
 Structure from the checkpoint file:  "DCONF_24_-100_mol2.chk"
 Charge =  0 Multiplicity = 1

                         Standard orientation:
 ---------------------------------------------------------------------
 Center     Atomic      Atomic             Coordinates (Angstroms)
 Number     Number       Type             X           Y           Z
 ---------------------------------------------------------------------
      1          8           0        1.995537   -1.325644   -0.000112
      2          6           0        2.540157    1.014431    0.000788
      3          1           0        2.371237    1.634968   -0.884512
      4          1           0        3.565968    0.644407    0.001088
      5          1           0        2.370350    1.634782    0.885888
      6          6           0        1.592803   -0.167891    0.000088
      7          6           0       -0.490529    1.371911   -0.000112
      8          1           0        0.045633    2.314806   -0.000212
      9          6           0       -1.898977    1.256715   -0.000112
     10          1           0       -2.587754    2.094194    0.000088
     11          6           0       -2.309086   -0.067731   -0.000012
     12          1           0       -3.324094   -0.445330   -0.000012
     13         16           0       -0.993286   -1.157215   -0.000212
     14          6           0        0.146788    0.133028   -0.000312
 ---------------------------------------------------------------------

 SCF Done:  E(RHF) =  -704.754246691     A.U. after    2 cycles

 The electronic state is 1-A.
 Alpha  occ. eigenvalues --  -75.72460 -21.04921 -13.18832 -13.16891 -13.04267
 Alpha  occ. eigenvalues --  -11.51010 -11.49302 -11.45153 -11.42888 -11.40475
 Alpha  occ. eigenvalues --  -11.39299  -8.07033  -1.70408  -1.38275  -1.13958
 Alpha  occ. eigenvalues --   -1.09861  -1.04852  -0.88073  -0.79960  -0.74112
 Alpha  occ. eigenvalues --   -0.68304  -0.60439  -0.60347  -0.56886  -0.53779
 Alpha  occ. eigenvalues --   -0.52472  -0.47772  -0.45689  -0.43380  -0.39689
 Alpha  occ. eigenvalues --   -0.31662  -0.28822  -0.27939
 Alpha virt. eigenvalues --    0.02695   0.04545   0.04848   0.05801   0.06302
 Alpha virt. eigenvalues --    0.07462   0.08232   0.08827   0.08943   0.11118
 Alpha virt. eigenvalues --    0.12420   0.12784   0.13239   0.13307   0.13504

 Mulliken charges:
               1
     1  O   -3.415929
     2  C   -4.950167
     3  H    1.331637
     4  H    1.121384
     5  H    1.331950
     6  C    4.113094
     7  C   -1.473033
     8  H    1.556529
     9  C   -1.838830
    10  H    1.408058
    11  C   -3.727036
    12  H    1.240701
    13  S    1.464571
    14  C    1.837071
 Sum of Mulliken charges =   0.00000

 Dipole moment (field-independent basis, Debye):
    X=             -0.7259    Y=             -0.8293    Z=              0.0006  Tot=              1.1021

 Test job not archived.
 1\1\GINC-SE367\SP\RHF\Aug-CC-pVDZ\C6H6O1S1\OHZDE\09-Apr-2025\0\\#t hf
 aug-cc-pvdz iop(5/13=1,5/36=2,99/5=2) pseudo=read geom=check guess=(re
 ad,tcheck) scf=(maxcycle=1)\\title\\0,1\O,0,21.6404,-3.9858,0.\C,0,20.
 8734,-6.2627,0.0009\H,0,20.9819,-6.8966,-0.8844\H,0,19.8879,-5.7958,0.
 0012\H,0,20.9828,-6.8965,0.886\C,0,21.93,-5.1769,0.0002\C,0,23.8557,-6
 .9098,0.\H,0,23.2314,-7.7968,-0.0001\C,0,25.2687,-6.9305,0.\H,0,25.873
 8,-7.8303,0.0002\C,0,25.8042,-5.6516,0.0001\H,0,26.8508,-5.3733,0.0001
 \S,0,24.5992,-4.4407,-0.0001\C,0,23.3404,-5.6154,-0.0002\\Version=ES64

 Normal termination of Gaussian 16 at Wed Apr  9 02:23:43 2025.
