 Gaussian 16, Revision C.01,

 ----------------------------------------------------------------------
 #t hf aug-cc-pvdz symm=none int=(grid=ultrafine) guess=(read,tcheck) s
 table=(opt,rrhf)
 ----------------------------------------------------------------------
 -----
 title
 -----
 Symbolic Z-matrix:
 Charge =  0 Multiplicity = 1

 SCF Done:  E(RHF) =  -559.159529121     A.U. after   17 cycles

 1\1\GINC-SE454\Stability\RHF\Aug-CC-pVDZ\C12H9F1\OHZDE\09-Apr-2025\0\\
 #t hf aug-cc-pvdz symm=none int=(grid=ultrafine) guess=(read,tcheck) s
 table=(opt,rrhf)\\title\\0,1\C,0,12.8425,-32.1539,-0.2418\H,0,13.3992,
 -31.2547,-0.4938\C,0,11.4459,-32.1108,-0.1972\H,0,10.9291,-31.1762,-0.
 399\C,0,10.7158,-33.2747,0.0708\H,0,9.6299,-33.2457,0.1001\C,0,11.3961
 ,-34.4759,0.3034\H,0,10.8378,-35.3858,0.5083\C,0,12.7931,-34.5221,0.25
 94\H,0,13.3038,-35.4582,0.4571\C,0,13.538,-33.3513,0.0187\C,0,17.1431,
 -32.2269,0.4526\H,0,17.6683,-31.3604,0.8441\C,0,15.7463,-32.253,0.4555

 Normal termination of Gaussian 16 at Wed Apr  9 02:32:27 2025.
 Gaussian 16:  ES64L-G16RevC.01  3-Jul-2019

 ----------------------------------------------------------------------
 #t hf aug-cc-pvdz iop(5/13=1,5/36=2,99/5=2) pseudo=read geom=check gue
 ss=(read,tcheck) scf=(maxcycle=1)
 ----------------------------------------------------------------------
 -----
 title
 -----
 Structure from the checkpoint file:  "DCONF_47_30_mol1.chk"
 Charge =  0 Multiplicity = 1

                         Standard orientation:
 ---------------------------------------------------------------------
 Center     Atomic      Atomic             Coordinates (Angstroms)
 Number     Number       Type             X           Y           Z
 ---------------------------------------------------------------------
      1          6           0        1.579432   -1.234283   -0.457561
      2          1           0        1.059896   -2.094364   -0.872679
      3          6           0        2.977187   -1.211739   -0.446969
      4          1           0        3.532587   -2.059847   -0.838794
      5          6           0        3.657559   -0.086527    0.033159
      6          1           0        4.743991   -0.063523    0.037017
      7          6           0        2.926932    1.007927    0.510806
      8          1           0        3.446248    1.887834    0.881853
      9          6           0        1.528645    0.988279    0.501423
     10          1           0        0.979150    1.838982    0.889419
     11          6           0        0.834583   -0.149839    0.046946
     12          6           0       -2.698848   -1.525806    0.313162
     13          1           0       -3.170711   -2.478815    0.534633
     14          6           0       -1.305377   -1.427298    0.296576
     15          1           0       -0.703378   -2.305204    0.515780
     16          6           0       -0.644150   -0.214484    0.009678
     17          6           0       -1.468374    0.905771   -0.182563
     18          6           0       -2.858333    0.838268   -0.169444
     19          1           0       -3.427727    1.744806   -0.351067
     20          6           0       -3.480740   -0.385771    0.092984
     21          1           0       -4.565083   -0.446219    0.112671
     22          9           0       -0.909563    2.105486   -0.466446
 ---------------------------------------------------------------------

 SCF Done:  E(RHF) =  -561.692542455     A.U. after    2 cycles

 The electronic state is 1-A.
 Alpha  occ. eigenvalues --  -29.28264 -11.54218 -11.51773 -11.48068 -11.45611
 Alpha  occ. eigenvalues --  -11.43791 -11.43495 -11.42966 -11.41959 -11.41393
 Alpha  occ. eigenvalues --  -11.40787 -11.38726 -11.36768  -1.40141  -1.31134
 Alpha  occ. eigenvalues --   -1.15541  -1.14329  -1.08946  -1.05771  -0.92725
 Alpha  occ. eigenvalues --   -0.90144  -0.85769  -0.83666  -0.76186  -0.71003
 Alpha  occ. eigenvalues --   -0.68544  -0.63910  -0.62166  -0.60842  -0.58165
 Alpha  occ. eigenvalues --   -0.58093  -0.57003  -0.53650  -0.50151  -0.49064
 Alpha  occ. eigenvalues --   -0.48104  -0.44564  -0.43761  -0.41313  -0.38374
 Alpha  occ. eigenvalues --   -0.36806  -0.32974  -0.30290  -0.26614  -0.22760
 Alpha virt. eigenvalues --    0.03387   0.04894   0.05110   0.05388   0.05590
 Alpha virt. eigenvalues --    0.06019   0.06662   0.07313   0.07604   0.09402
 Alpha virt. eigenvalues --    0.09827   0.09866   0.11494   0.11974   0.12025

 Mulliken charges:
               1
     1  C   -2.809551
     2  H    1.840358
     3  C   -2.338834
     4  H    1.508434
     5  C   -2.929259
     6  H    1.558651
     7  C   -2.927049
     8  H    1.483581
     9  C   -2.432299
    10  H    1.892672
    11  C    6.253139
    12  C   -3.402871
    13  H    1.479310
    14  C   -1.246953
    15  H    1.819181
    16  C   -0.912409
    17  C    4.606283
    18  C   -5.863349
    19  H    1.753446
    20  C   -1.562551
    21  H    1.498777
    22  F    0.731293
 Sum of Mulliken charges =   0.00000

 Dipole moment (field-independent basis, Debye):
    X=              0.7212    Y=              1.9222    Z=             -0.4344  Tot=              2.0985

 Test job not archived.
 1\1\GINC-SE454\SP\RHF\Aug-CC-pVDZ\C12H9F1\OHZDE\09-Apr-2025\0\\#t hf a
 ug-cc-pvdz iop(5/13=1,5/36=2,99/5=2) pseudo=read geom=check guess=(rea
 d,tcheck) scf=(maxcycle=1)\\title\\0,1\C,0,12.8425,-32.1539,-0.2418\H,
 0,13.3992,-31.2547,-0.4938\C,0,11.4459,-32.1108,-0.1972\H,0,10.9291,-3
 1.1762,-0.399\C,0,10.7158,-33.2747,0.0708\H,0,9.6299,-33.2457,0.1001\C
 ,0,11.3961,-34.4759,0.3034\H,0,10.8378,-35.3858,0.5083\C,0,12.7931,-34
 .5221,0.2594\H,0,13.3038,-35.4582,0.4571\C,0,13.538,-33.3513,0.0187\C,
 0,17.1431,-32.2269,0.4526\H,0,17.6683,-31.3604,0.8441\C,0,15.7463,-32.

 Normal termination of Gaussian 16 at Wed Apr  9 02:32:44 2025.
