 Gaussian 16, Revision C.01,

 ----------------------------------------------------------------------
 #t hf aug-cc-pvdz symm=none int=(grid=ultrafine) guess=(read,tcheck) s
 table=(opt,rrhf)
 ----------------------------------------------------------------------
 -----
 title
 -----
 Symbolic Z-matrix:
 Charge =  0 Multiplicity = 1

 SCF Done:  E(RHF) =  -256.178794476     A.U. after   12 cycles
 Normal termination of Gaussian 16 at Wed Apr  9 02:31:24 2025.
 Gaussian 16:  ES64L-G16RevC.01  3-Jul-2019

 ----------------------------------------------------------------------
 #t hf aug-cc-pvdz iop(5/13=1,5/36=2,99/5=2) pseudo=read geom=check gue
 ss=(read,tcheck) scf=(maxcycle=1)
 ----------------------------------------------------------------------
 -----
 title
 -----
 Structure from the checkpoint file:  "DCONF_8_40_mol1.chk"
 Charge =  0 Multiplicity = 1

                         Standard orientation:
 ---------------------------------------------------------------------
 Center     Atomic      Atomic             Coordinates (Angstroms)
 Number     Number       Type             X           Y           Z
 ---------------------------------------------------------------------
      1          6           0        0.017050    0.766946   -0.150858
      2          1           0       -0.092051    0.986492   -1.220279
      3          1           0       -0.301736    1.664967    0.393416
      4          6           0       -0.887519   -0.416487    0.196383
      5          1           0       -0.581802   -1.283523   -0.394457
      6          1           0       -0.744901   -0.688420    1.249837
      7          6           0       -2.360730   -0.099657   -0.060326
      8          1           0       -2.522933    0.162307   -1.111064
      9          1           0       -2.997590   -0.957116    0.174857
     10          1           0       -2.692440    0.745630    0.551606
     11          6           0        1.483551    0.521895    0.169348
     12          1           0        2.143523    1.197506   -0.380595
     13          1           0        1.668909    0.630475    1.242915
     14          9           0        1.845213   -0.788278   -0.159279
 ---------------------------------------------------------------------

 SCF Done:  E(RHF) =  -257.336991732     A.U. after    2 cycles

 The electronic state is 1-A.
 Alpha  occ. eigenvalues --  -29.23946 -11.45213 -11.41003 -11.38108 -11.34809
 Alpha  occ. eigenvalues --   -1.26958  -1.11761  -0.95475  -0.84556  -0.68737
 Alpha  occ. eigenvalues --   -0.65403  -0.60758  -0.60250  -0.54721  -0.51788
 Alpha  occ. eigenvalues --   -0.47278  -0.46355  -0.44144  -0.35023  -0.24095
 Alpha  occ. eigenvalues --   -0.23775
 Alpha virt. eigenvalues --    0.04175   0.05090   0.05697   0.05779   0.06099
 Alpha virt. eigenvalues --    0.06443   0.06803   0.07841   0.09118   0.11045
 Alpha virt. eigenvalues --    0.13015   0.13878   0.14349   0.15394   0.16606

 Mulliken charges:
               1
     1  C   -3.117972
     2  H    1.419319
     3  H    1.396554
     4  C   -2.860733
     5  H    1.445926
     6  H    1.489014
     7  C   -3.828122
     8  H    1.302496
     9  H    1.098236
    10  H    1.255839
    11  C   -2.541222
    12  H    1.339072
    13  H    1.378367
    14  F    0.223226
 Sum of Mulliken charges =  -0.00000

 Dipole moment (field-independent basis, Debye):
    X=              0.2650    Y=             -0.9389    Z=             -0.2083  Tot=              0.9975

 Test job not archived.
 1\1\GINC-SE074\SP\RHF\Aug-CC-pVDZ\C4H9F1\OHZDE\09-Apr-2025\0\\#t hf au
 g-cc-pvdz iop(5/13=1,5/36=2,99/5=2) pseudo=read geom=check guess=(read
 ,tcheck) scf=(maxcycle=1)\\title\\0,1\C,0,0.0266,-0.035,-0.006\H,0,0.0
 445,-0.6356,0.912\H,0,0.0068,-0.739,-0.8476\C,0,-1.2388,0.8241,0.0007\
 H,0,-1.2188,1.4804,0.8743\H,0,-1.2422,1.4762,-0.8818\C,0,-2.5057,-0.03
 11,0.0158\H,0,-2.5242,-0.68,0.8976\H,0,-3.4044,0.5918,0.0375\H,0,-2.55
 84,-0.6696,-0.8722\C,0,1.3087,0.7771,-0.1056\H,0,2.1813,0.2119,0.2314\
 H,0,1.4732,1.1166,-1.1334\F,0,1.2202,1.9318,0.6781\\Version=ES64L-G16R

 Normal termination of Gaussian 16 at Wed Apr  9 02:31:28 2025.
