 Gaussian 16, Revision C.01,

 ----------------------------------------------------------------------
 #t hf aug-cc-pvdz symm=none int=(grid=ultrafine) guess=(read,tcheck) s
 table=(opt,rrhf)
 ----------------------------------------------------------------------
 -----
 title
 -----
 Symbolic Z-matrix:
 Charge =  0 Multiplicity = 1

 SCF Done:  E(RHF) =  -911.019558102     A.U. after   16 cycles
 Normal termination of Gaussian 16 at Wed Apr  9 02:29:55 2025.
 Gaussian 16:  ES64L-G16RevC.01  3-Jul-2019

 ----------------------------------------------------------------------
 #t hf aug-cc-pvdz iop(5/13=1,5/36=2,99/5=2) pseudo=read geom=check gue
 ss=(read,tcheck) scf=(maxcycle=1)
 ----------------------------------------------------------------------
 -----
 title
 -----
 Structure from the checkpoint file:  "DCONF_30_-130_mol1.chk"
 Charge =  0 Multiplicity = 1

                         Standard orientation:
 ---------------------------------------------------------------------
 Center     Atomic      Atomic             Coordinates (Angstroms)
 Number     Number       Type             X           Y           Z
 ---------------------------------------------------------------------
      1          6           0        2.984142    0.791494    0.537956
      2          1           0        3.664078    1.517531    0.974855
      3          6           0        1.624772    1.102423    0.413947
      4          1           0        1.225124    2.054429    0.750460
      5          6           0        0.767389    0.153031   -0.149662
      6         16           0       -0.944498    0.578139   -0.381635
      7          7           0       -1.665249   -0.770107    0.328993
      8          6           0       -1.540197   -0.762294    1.792015
      9          1           0       -0.500315   -0.576619    2.072727
     10          1           0       -2.177110    0.001753    2.256596
     11          1           0       -1.825399   -1.752546    2.155699
     12          6           0       -3.054890   -0.973046   -0.109201
     13          1           0       -3.092240   -1.024377   -1.196880
     14          1           0       -3.385785   -1.926637    0.308618
     15          1           0       -3.723142   -0.176416    0.246081
     16          6           0        1.233029   -1.088458   -0.599256
     17          1           0        0.539010   -1.800219   -1.036259
     18          6           0        2.591506   -1.386911   -0.461762
     19          1           0        2.967917   -2.348311   -0.800255
     20          6           0        3.466318   -0.449492    0.105322
     21          1           0        4.521737   -0.686677    0.207323
     22          8           0       -1.204058    1.795339    0.382496
     23          8           0       -1.280639    0.521929   -1.796485
 ---------------------------------------------------------------------

 SCF Done:  E(RHF) =  -913.678431851     A.U. after    2 cycles

 The electronic state is 1-A.
 Alpha  occ. eigenvalues --  -75.89198 -21.03941 -21.03851 -15.74971 -13.51066
 Alpha  occ. eigenvalues --  -13.43476 -13.38493 -11.54368 -11.46260 -11.46055
 Alpha  occ. eigenvalues --  -11.43867 -11.43020 -11.40967 -11.40205 -11.38990
 Alpha  occ. eigenvalues --   -8.24299  -1.82759  -1.64578  -1.44221  -1.35827
 Alpha  occ. eigenvalues --   -1.14526  -1.11292  -1.05690  -1.02525  -0.90154
 Alpha  occ. eigenvalues --   -0.88687  -0.81698  -0.73596  -0.68896  -0.66098
 Alpha  occ. eigenvalues --   -0.65169  -0.63177  -0.60480  -0.59709  -0.58570
 Alpha  occ. eigenvalues --   -0.56570  -0.54287  -0.52154  -0.51457  -0.48476
 Alpha  occ. eigenvalues --   -0.47507  -0.45030  -0.41291  -0.38769  -0.36721
 Alpha  occ. eigenvalues --   -0.35160  -0.34878  -0.34677  -0.33026
 Alpha virt. eigenvalues --    0.02905   0.04249   0.04884   0.04915   0.05362
 Alpha virt. eigenvalues --    0.06013   0.06802   0.07194   0.07425   0.07956
 Alpha virt. eigenvalues --    0.08284   0.08766   0.10481   0.11115   0.11999

 Mulliken charges:
               1
     1  C   -0.663281
     2  H    1.531793
     3  C   -4.043785
     4  H    1.947334
     5  C    2.275883
     6  S    7.410758
     7  N   -2.903568
     8  C   -3.831824
     9  H    1.773625
    10  H    1.468691
    11  H    1.323889
    12  C   -3.773308
    13  H    1.464867
    14  H    1.456699
    15  H    1.434220
    16  C   -2.635171
    17  H    2.000173
    18  C   -0.719512
    19  H    1.511742
    20  C   -2.900419
    21  H    1.579591
    22  O   -2.978668
    23  O   -2.729728
 Sum of Mulliken charges =   0.00000

 Dipole moment (field-independent basis, Debye):
    X=              1.4020    Y=             -2.0510    Z=              1.5207  Tot=              2.9128

 Test job not archived.
 1\1\GINC-SE398\SP\RHF\Aug-CC-pVDZ\C8H11N1O2S1\OHZDE\09-Apr-2025\0\\#t
 hf aug-cc-pvdz iop(5/13=1,5/36=2,99/5=2) pseudo=read geom=check guess=
 (read,tcheck) scf=(maxcycle=1)\\title\\0,1\C,0,3.8138,-2.3669,0.2776\H
 ,0,4.5905,-2.2262,1.0241\C,0,2.6656,-1.5667,0.3131\H,0,2.5243,-0.8066,
 1.0757\C,0,1.6781,-1.7657,-0.6561\S,0,0.2567,-0.6958,-0.6604\N,0,-0.96
 51,-1.8558,-0.7224\C,0,-1.1198,-2.5704,0.551\H,0,-0.1453,-2.9253,0.896
 \H,0,-1.5644,-1.936,1.3289\H,0,-1.7599,-3.4375,0.3704\C,0,-2.2416,-1.3
 158,-1.2156\H,0,-2.0888,-0.8415,-2.1845\H,0,-2.9231,-2.1617,-1.3314\H,

 Normal termination of Gaussian 16 at Wed Apr  9 02:30:13 2025.
