 Gaussian 16, Revision C.01,

 ----------------------------------------------------------------------
 #t hf aug-cc-pvdz symm=none int=(grid=ultrafine) guess=(read,tcheck) s
 table=(opt,rrhf)
 ----------------------------------------------------------------------
 -----
 title
 -----
 Symbolic Z-matrix:
 Charge =  0 Multiplicity = 1

 SCF Done:  E(RHF) =  -681.468705570     A.U. after   13 cycles
 Normal termination of Gaussian 16 at Wed Apr  9 02:22:23 2025.
 Gaussian 16:  ES64L-G16RevC.01  3-Jul-2019

 ----------------------------------------------------------------------
 #t hf aug-cc-pvdz iop(5/13=1,5/36=2,99/5=2) pseudo=read geom=check gue
 ss=(read,tcheck) scf=(maxcycle=1)
 ----------------------------------------------------------------------
 -----
 title
 -----
 Structure from the checkpoint file:  "DCONF_16_-120_mol1.chk"
 Charge =  0 Multiplicity = 1

                         Standard orientation:
 ---------------------------------------------------------------------
 Center     Atomic      Atomic             Coordinates (Angstroms)
 Number     Number       Type             X           Y           Z
 ---------------------------------------------------------------------
      1          6           0        1.383101    1.243037   -0.392275
      2          1           0        1.553559    1.185747   -1.466789
      3          1           0        0.840384    2.149968   -0.126885
      4          1           0        2.326682    1.186674    0.152456
      5         16           0        0.417492   -0.163758    0.104038
      6          8           0        1.083957   -1.352952   -0.406834
      7          7           0       -0.991204    0.048459   -0.787026
      8          1           0       -1.037344   -0.699918   -1.473008
      9          8           0        0.097825   -0.007532    1.514524
     10          6           0       -2.245672    0.191129   -0.031418
     11          1           0       -2.477047   -0.679234    0.588872
     12          1           0       -2.182516    1.069828    0.609926
     13          1           0       -3.043999    0.346725   -0.759353
 ---------------------------------------------------------------------

 SCF Done:  E(RHF) =  -683.029121508     A.U. after    2 cycles

 The electronic state is 1-A.
 Alpha  occ. eigenvalues --  -75.89572 -21.04434 -21.04357 -15.76741 -13.51496
 Alpha  occ. eigenvalues --  -13.41848 -13.36056 -11.42329 -11.40946  -8.24703
 Alpha  occ. eigenvalues --   -1.83280  -1.65150  -1.39988  -1.14821  -1.01616
 Alpha  occ. eigenvalues --   -0.87463  -0.69473  -0.65397  -0.63659  -0.62622
 Alpha  occ. eigenvalues --   -0.58393  -0.57061  -0.52237  -0.45053  -0.43243
 Alpha  occ. eigenvalues --   -0.39136  -0.37209  -0.35784  -0.35232
 Alpha virt. eigenvalues --    0.02821   0.03838   0.04908   0.05813   0.06554
 Alpha virt. eigenvalues --    0.06999   0.07651   0.10594   0.12109   0.13236
 Alpha virt. eigenvalues --    0.13565   0.14409   0.14953   0.15294   0.15611

 Mulliken charges:
               1
     1  C   -4.339244
     2  H    1.369876
     3  H    1.359770
     4  H    1.342846
     5  S    6.758021
     6  O   -2.587955
     7  N   -2.687121
     8  H    0.552644
     9  O   -2.519397
    10  C   -3.161598
    11  H    1.280983
    12  H    1.355501
    13  H    1.275674
 Sum of Mulliken charges =  -0.00000

 Dipole moment (field-independent basis, Debye):
    X=             -1.2879    Y=              1.1727    Z=             -1.1732  Tot=              2.1001

 Test job not archived.
 1\1\GINC-SE195\SP\RHF\Aug-CC-pVDZ\C2H7N1O2S1\OHZDE\09-Apr-2025\0\\#t h
 f aug-cc-pvdz iop(5/13=1,5/36=2,99/5=2) pseudo=read geom=check guess=(
 read,tcheck) scf=(maxcycle=1)\\title\\0,1\C,0,-1.1185,-1.3992,-0.6208\
 H,0,-0.8752,-0.7947,0.2523\H,0,-0.4289,-1.2024,-1.4413\H,0,-2.1489,-1.
 2271,-0.9353\S,0,-0.9965,-3.1148,-0.174\O,0,-1.8003,-3.3123,1.0236\N,0
 ,0.6179,-3.2445,0.2736\H,0,0.6468,-3.4232,1.2736\O,0,-1.2049,-3.9032,-
 1.3786\C,0,1.449,-4.1911,-0.4868\H,0,1.0939,-5.2235,-0.4245\H,0,1.4699
 ,-3.8919,-1.5344\H,0,2.4616,-4.1255,-0.0846\\Version=ES64L-G16RevC.01\

 Normal termination of Gaussian 16 at Wed Apr  9 02:22:28 2025.
