 Gaussian 16, Revision C.01,

 ----------------------------------------------------------------------
 #t hf aug-cc-pvdz symm=none int=(grid=ultrafine) guess=(read,tcheck) s
 table=(opt,rrhf)
 ----------------------------------------------------------------------
 -----
 title
 -----
 Symbolic Z-matrix:
 Charge =  0 Multiplicity = 1

 SCF Done:  E(RHF) =  -774.173698940     A.U. after   16 cycles
 Normal termination of Gaussian 16 at Wed Apr  9 02:27:34 2025.
 Gaussian 16:  ES64L-G16RevC.01  3-Jul-2019

 ----------------------------------------------------------------------
 #t hf aug-cc-pvdz iop(5/13=1,5/36=2,99/5=2) pseudo=read geom=check gue
 ss=(read,tcheck) scf=(maxcycle=1)
 ----------------------------------------------------------------------
 -----
 title
 -----
 Structure from the checkpoint file:  "DCONF_42_-100_mol1.chk"
 Charge =  0 Multiplicity = 1

                         Standard orientation:
 ---------------------------------------------------------------------
 Center     Atomic      Atomic             Coordinates (Angstroms)
 Number     Number       Type             X           Y           Z
 ---------------------------------------------------------------------
      1          6           0       -1.982965   -0.131731    0.176285
      2          7           0       -1.005765    0.359389   -0.699536
      3          1           0       -1.266937    1.176892   -1.238278
      4          7           0        0.978091    1.410426    0.146778
      5          6           0        2.276168    1.085070    0.436489
      6          1           0        2.943153    1.845458    0.824913
      7          6           0        2.625337   -0.231850    0.216574
      8          1           0        3.575333   -0.714463    0.402704
      9         16           0        1.283630   -1.093969   -0.401535
     10          6           0        0.345915    0.349162   -0.312247
     11          8           0       -1.713000   -0.877616    1.098073
     12          6           0       -3.383156    0.337546   -0.153525
     13          1           0       -3.540345    0.409837   -1.232617
     14          1           0       -3.538556    1.326377    0.289779
     15          1           0       -4.100812   -0.357558    0.281330
 ---------------------------------------------------------------------

 SCF Done:  E(RHF) =  -776.103088152     A.U. after    2 cycles

 The electronic state is 1-A.
 Alpha  occ. eigenvalues --  -75.72521 -21.04364 -15.78674 -15.74764 -13.18661
 Alpha  occ. eigenvalues --  -13.17082 -13.04980 -11.51735 -11.46866 -11.44938
 Alpha  occ. eigenvalues --  -11.40245 -11.39650  -8.07190  -1.71947  -1.50981
 Alpha  occ. eigenvalues --   -1.37337  -1.19219  -1.12348  -1.04843  -0.85935
 Alpha  occ. eigenvalues --   -0.81237  -0.77885  -0.70314  -0.66274  -0.62795
 Alpha  occ. eigenvalues --   -0.60704  -0.57427  -0.54086  -0.53403  -0.49115
 Alpha  occ. eigenvalues --   -0.48163  -0.42965  -0.37312  -0.35603  -0.33664
 Alpha  occ. eigenvalues --   -0.29928  -0.27904
 Alpha virt. eigenvalues --    0.03091   0.03989   0.05431   0.05821   0.06113
 Alpha virt. eigenvalues --    0.06832   0.07972   0.09562   0.10678   0.10928
 Alpha virt. eigenvalues --    0.11866   0.12369   0.12855   0.13006   0.13400

 Mulliken charges:
               1
     1  C    4.323241
     2  N   -2.849481
     3  H    0.708566
     4  N   -3.233450
     5  C    0.714590
     6  H    1.562964
     7  C   -2.453360
     8  H    1.206245
     9  S    1.620292
    10  C    2.192143
    11  O   -3.126747
    12  C   -4.383602
    13  H    1.260357
    14  H    1.275540
    15  H    1.182702
 Sum of Mulliken charges =  -0.00000

 Dipole moment (field-independent basis, Debye):
    X=             -0.2438    Y=             -1.9945    Z=             -1.5834  Tot=              2.5582

 Test job not archived.
 1\1\GINC-SE149\SP\RHF\Aug-CC-pVDZ\C5H6N2O1S1\OHZDE\09-Apr-2025\0\\#t h
 f aug-cc-pvdz iop(5/13=1,5/36=2,99/5=2) pseudo=read geom=check guess=(
 read,tcheck) scf=(maxcycle=1)\\title\\0,1\C,0,28.7881,-16.3481,-1.201\
 N,0,29.3113,-16.8497,-0.0019\H,0,28.6435,-17.2878,0.6217\N,0,30.7445,-
 18.7739,-0.0031\C,0,32.0823,-19.0655,0.0042\H,0,32.4031,-20.1004,0.002
 6\C,0,32.931,-17.9773,-0.0051\H,0,34.0123,-17.9696,-0.0331\S,0,32.0205
 ,-16.5294,0.0028\C,0,30.5746,-17.4671,0.0031\O,0,29.4902,-16.1009,-2.1
 627\C,0,27.2911,-16.1308,-1.1649\H,0,26.9579,-15.7824,-0.1841\H,0,26.7

 Normal termination of Gaussian 16 at Wed Apr  9 02:27:40 2025.
