 Gaussian 16, Revision C.01,

 ----------------------------------------------------------------------
 #t hf aug-cc-pvdz symm=none int=(grid=ultrafine) guess=(read,tcheck) s
 table=(opt,rrhf)
 ----------------------------------------------------------------------
 -----
 title
 -----
 Symbolic Z-matrix:
 Charge =  0 Multiplicity = 1

 SCF Done:  E(RHF) =  -796.906012094     A.U. after   17 cycles
 Normal termination of Gaussian 16 at Wed Apr  9 02:32:08 2025.
 Gaussian 16:  ES64L-G16RevC.01  3-Jul-2019

 ----------------------------------------------------------------------
 #t hf aug-cc-pvdz iop(5/13=1,5/36=2,99/5=2) pseudo=read geom=check gue
 ss=(read,tcheck) scf=(maxcycle=1)
 ----------------------------------------------------------------------
 -----
 title
 -----
 Structure from the checkpoint file:  "DCONF_55_0_mol2.chk"
 Charge =  0 Multiplicity = 1

                         Standard orientation:
 ---------------------------------------------------------------------
 Center     Atomic      Atomic             Coordinates (Angstroms)
 Number     Number       Type             X           Y           Z
 ---------------------------------------------------------------------
      1          6           0        1.441918    1.262754   -0.099778
      2          1           0        0.931624    2.217352   -0.184703
      3          6           0        2.835752    1.182905   -0.134781
      4          1           0        3.421450    2.091254   -0.250925
      5          6           0        3.480494   -0.057876   -0.040659
      6          1           0        4.564779   -0.116404   -0.077858
      7          6           0        2.716902   -1.222204    0.105007
      8          1           0        3.207128   -2.188881    0.185632
      9          6           0        1.322404   -1.148389    0.162781
     10          1           0        0.743853   -2.059365    0.300471
     11          6           0        0.673127    0.094535    0.055622
     12          7           0       -1.440048    1.353487    0.170582
     13          6           0       -2.789772    1.158366    0.102002
     14          1           0       -3.459179    2.007325    0.180296
     15          6           0       -3.195802   -0.151239   -0.060054
     16          1           0       -4.202526   -0.540513   -0.131798
     17         16           0       -1.830493   -1.175995   -0.138355
     18          6           0       -0.791508    0.202939    0.076274
 ---------------------------------------------------------------------

 SCF Done:  E(RHF) =  -799.017463785     A.U. after    2 cycles

 The electronic state is 1-A.
 Alpha  occ. eigenvalues --  -75.72395 -15.74087 -13.19219 -13.17311 -13.04516
 Alpha  occ. eigenvalues --  -11.52856 -11.48459 -11.45298 -11.44094 -11.43812
 Alpha  occ. eigenvalues --  -11.41987 -11.41447 -11.39666 -11.37298  -8.07033
 Alpha  occ. eigenvalues --   -1.48710  -1.33684  -1.18682  -1.14279  -1.09589
 Alpha  occ. eigenvalues --   -1.04337  -0.89410  -0.87375  -0.81264  -0.76599
 Alpha  occ. eigenvalues --   -0.71341  -0.68896  -0.63767  -0.59099  -0.58273
 Alpha  occ. eigenvalues --   -0.56590  -0.55395  -0.51435  -0.49987  -0.45315
 Alpha  occ. eigenvalues --   -0.45000  -0.42535  -0.38105  -0.35159  -0.33559
 Alpha  occ. eigenvalues --   -0.31679  -0.27118
 Alpha virt. eigenvalues --    0.03129   0.04007   0.05056   0.05422   0.05951
 Alpha virt. eigenvalues --    0.06673   0.07586   0.08142   0.08634   0.10156
 Alpha virt. eigenvalues --    0.10852   0.11217   0.12055   0.12599   0.13128

 Mulliken charges:
               1
     1  C   -2.603005
     2  H    1.693397
     3  C   -1.609169
     4  H    1.473591
     5  C   -3.035382
     6  H    1.550585
     7  C   -2.293931
     8  H    1.487443
     9  C   -1.454564
    10  H    2.012254
    11  C    5.232966
    12  N   -4.371141
    13  C    0.748716
    14  H    1.671299
    15  C   -3.335829
    16  H    1.238412
    17  S    1.846765
    18  C   -0.252406
 Sum of Mulliken charges =  -0.00000

 Dipole moment (field-independent basis, Debye):
    X=             -0.0662    Y=             -3.0455    Z=             -0.5059  Tot=              3.0880

 Test job not archived.
 1\1\GINC-SE049\SP\RHF\Aug-CC-pVDZ\C9H7N1S1\OHZDE\09-Apr-2025\0\\#t hf
 aug-cc-pvdz iop(5/13=1,5/36=2,99/5=2) pseudo=read geom=check guess=(re
 ad,tcheck) scf=(maxcycle=1)\\title\\0,1\C,0,21.8321,-21.1444,0.0005\H,
 0,22.4016,-20.22,0.0052\C,0,20.4356,-21.1327,-0.0047\H,0,19.908,-20.18
 23,-0.0021\C,0,19.7134,-22.3337,0.006\H,0,18.627,-22.32,0.0115\C,0,20.
 4024,-23.5524,0.0063\H,0,19.852,-24.4896,0.0078\C,0,21.7998,-23.5725,-
 0.0105\H,0,22.3207,-24.5273,-0.0345\C,0,22.5263,-22.3683,-0.0083\N,0,2
 4.7202,-21.263,-0.178\C,0,26.0517,-21.5341,-0.0433\H,0,26.7775,-20.741

 Normal termination of Gaussian 16 at Wed Apr  9 02:32:21 2025.
