 Gaussian 16, Revision C.01,

 ----------------------------------------------------------------------
 #t hf aug-cc-pvdz symm=none int=(grid=ultrafine) guess=(read,tcheck) s
 table=(opt,rrhf)
 ----------------------------------------------------------------------
 -----
 title
 -----
 Symbolic Z-matrix:
 Charge =  0 Multiplicity = 1

 SCF Done:  E(RHF) =  -812.904720196     A.U. after   16 cycles
 Normal termination of Gaussian 16 at Wed Apr  9 02:32:00 2025.
 Gaussian 16:  ES64L-G16RevC.01  3-Jul-2019

 ----------------------------------------------------------------------
 #t hf aug-cc-pvdz iop(5/13=1,5/36=2,99/5=2) pseudo=read geom=check gue
 ss=(read,tcheck) scf=(maxcycle=1)
 ----------------------------------------------------------------------
 -----
 title
 -----
 Structure from the checkpoint file:  "DCONF_56_-160_mol1.chk"
 Charge =  0 Multiplicity = 1

                         Standard orientation:
 ---------------------------------------------------------------------
 Center     Atomic      Atomic             Coordinates (Angstroms)
 Number     Number       Type             X           Y           Z
 ---------------------------------------------------------------------
      1          6           0       -1.481415    1.269065   -0.191740
      2          1           0       -1.000595    2.230582   -0.341204
      3          6           0       -2.868070    1.124727   -0.165811
      4          1           0       -3.514543    1.987112   -0.304957
      5          6           0       -3.409782   -0.151582    0.026706
      6          1           0       -4.483378   -0.311991    0.049409
      7          6           0       -2.534010   -1.229021    0.198019
      8          1           0       -2.918593   -2.234966    0.353096
      9          7           0       -1.196162   -1.109988    0.193606
     10          6           0       -0.689099    0.124692   -0.001139
     11          7           0        1.432592    1.362387    0.208639
     12          6           0        2.778265    1.132076    0.193826
     13          1           0        3.465463    1.955716    0.350902
     14          6           0        3.153391   -0.182691   -0.013469
     15          1           0        4.153608   -0.592629   -0.062058
     16         16           0        1.769218   -1.169334   -0.197333
     17          6           0        0.773312    0.230856    0.003013
 ---------------------------------------------------------------------

 SCF Done:  E(RHF) =  -815.061924539     A.U. after    2 cycles

 The electronic state is 1-A.
 Alpha  occ. eigenvalues --  -75.72254 -15.74919 -15.74498 -13.19219 -13.17082
 Alpha  occ. eigenvalues --  -13.04354 -11.51899 -11.48107 -11.45539 -11.45026
 Alpha  occ. eigenvalues --  -11.44684 -11.42173 -11.39486 -11.38901  -8.06844
 Alpha  occ. eigenvalues --   -1.50363  -1.42825  -1.20111  -1.17980  -1.15657
 Alpha  occ. eigenvalues --   -1.05307  -0.91588  -0.90083  -0.81693  -0.77867
 Alpha  occ. eigenvalues --   -0.71218  -0.68717  -0.63991  -0.61540  -0.57995
 Alpha  occ. eigenvalues --   -0.57405  -0.55249  -0.52740  -0.51174  -0.46841
 Alpha  occ. eigenvalues --   -0.42581  -0.38860  -0.37990  -0.36863  -0.34796
 Alpha  occ. eigenvalues --   -0.31786  -0.27712
 Alpha virt. eigenvalues --    0.03063   0.04140   0.05068   0.05365   0.05861
 Alpha virt. eigenvalues --    0.07306   0.08336   0.08403   0.09436   0.09967
 Alpha virt. eigenvalues --    0.10137   0.11806   0.12111   0.12569   0.12847

 Mulliken charges:
               1
     1  C   -1.700085
     2  H    1.715762
     3  C   -0.051225
     4  H    1.526845
     5  C   -1.415759
     6  H    1.497302
     7  C   -0.806794
     8  H    1.671122
     9  N   -3.461529
    10  C    2.031127
    11  N   -4.144535
    12  C    0.820004
    13  H    1.643402
    14  C   -3.096634
    15  H    1.257109
    16  S    1.337998
    17  C    1.175890
 Sum of Mulliken charges =   0.00000

 Dipole moment (field-independent basis, Debye):
    X=             -1.0492    Y=             -2.2013    Z=             -0.6466  Tot=              2.5228

 Test job not archived.
 1\1\GINC-SE229\SP\RHF\Aug-CC-pVDZ\C8H6N2S1\OHZDE\09-Apr-2025\0\\#t hf
 aug-cc-pvdz iop(5/13=1,5/36=2,99/5=2) pseudo=read geom=check guess=(re
 ad,tcheck) scf=(maxcycle=1)\\title\\0,1\C,0,30.1275,-21.0891,-0.008\H,
 0,30.7127,-20.175,-0.01\C,0,28.7332,-21.0819,0.0059\H,0,28.187,-20.142
 4,0.0074\C,0,28.0524,-22.305,0.002\H,0,26.9675,-22.3476,0.0078\C,0,28.
 8025,-23.4859,-0.0029\H,0,28.308,-24.4551,-0.003\N,0,30.1453,-23.5159,
 0.0009\C,0,30.7871,-22.3295,-0.0036\N,0,33.0301,-21.381,0.3795\C,0,34.
 3423,-21.7532,0.3187\H,0,35.1145,-21.0448,0.5965\C,0,34.5723,-23.0531,

 Normal termination of Gaussian 16 at Wed Apr  9 02:32:11 2025.
