 Gaussian 16, Revision C.01,

 ----------------------------------------------------------------------
 #t hf aug-cc-pvdz symm=none int=(grid=ultrafine) guess=(read,tcheck) s
 table=(opt,rrhf)
 ----------------------------------------------------------------------
 -----
 title
 -----
 Symbolic Z-matrix:
 Charge =  0 Multiplicity = 1

 SCF Done:  E(RHF) =  -681.459884639     A.U. after   13 cycles
 Normal termination of Gaussian 16 at Wed Apr  9 02:22:53 2025.
 Gaussian 16:  ES64L-G16RevC.01  3-Jul-2019

 ----------------------------------------------------------------------
 #t hf aug-cc-pvdz iop(5/13=1,5/36=2,99/5=2) pseudo=read geom=check gue
 ss=(read,tcheck) scf=(maxcycle=1)
 ----------------------------------------------------------------------
 -----
 title
 -----
 Structure from the checkpoint file:  "DCONF_16_20_mol1.chk"
 Charge =  0 Multiplicity = 1

                         Standard orientation:
 ---------------------------------------------------------------------
 Center     Atomic      Atomic             Coordinates (Angstroms)
 Number     Number       Type             X           Y           Z
 ---------------------------------------------------------------------
      1          6           0       -0.320895    1.592370   -0.399622
      2          1           0        0.330619    2.085465    0.320347
      3          1           0        0.058221    1.682363   -1.418307
      4          1           0       -1.324922    2.015005   -0.335738
      5         16           0       -0.515896   -0.125754    0.046893
      6          8           0       -0.934601   -0.111310    1.436145
      7          7           0        1.020669   -0.808761   -0.026421
      8          1           0        1.035635   -1.391272   -0.859639
      9          8           0       -1.300878   -0.806677   -0.971061
     10          6           0        2.206684    0.052030    0.033424
     11          1           0        2.283225    0.760827   -0.799084
     12          1           0        2.213539    0.597757    0.979558
     13          1           0        3.082434   -0.599256    0.024045
 ---------------------------------------------------------------------

 SCF Done:  E(RHF) =  -683.023912238     A.U. after    2 cycles

 The electronic state is 1-A.
 Alpha  occ. eigenvalues --  -75.89743 -21.04544 -21.03788 -15.77057 -13.51625
 Alpha  occ. eigenvalues --  -13.42535 -13.34631 -11.43064 -11.42568  -8.24860
 Alpha  occ. eigenvalues --   -1.83184  -1.64765  -1.40695  -1.14497  -1.03503
 Alpha  occ. eigenvalues --   -0.87878  -0.69834  -0.66813  -0.63926  -0.63403
 Alpha  occ. eigenvalues --   -0.59762  -0.56495  -0.53958  -0.45831  -0.41076
 Alpha  occ. eigenvalues --   -0.39346  -0.37163  -0.36806  -0.34521
 Alpha virt. eigenvalues --    0.02093   0.03877   0.04905   0.05315   0.06533
 Alpha virt. eigenvalues --    0.06826   0.07770   0.10634   0.11090   0.12196
 Alpha virt. eigenvalues --    0.12955   0.14364   0.15060   0.15442   0.16056

 Mulliken charges:
               1
     1  C   -4.610300
     2  H    1.264604
     3  H    1.387774
     4  H    1.302518
     5  S    7.106448
     6  O   -2.527811
     7  N   -2.641760
     8  H    0.500226
     9  O   -2.588080
    10  C   -3.302415
    11  H    1.394071
    12  H    1.435735
    13  H    1.278989
 Sum of Mulliken charges =  -0.00000

 Dipole moment (field-independent basis, Debye):
    X=              2.7262    Y=              1.4917    Z=             -1.3004  Tot=              3.3688

 Test job not archived.
 1\1\GINC-SE453\SP\RHF\Aug-CC-pVDZ\C2H7N1O2S1\OHZDE\09-Apr-2025\0\\#t h
 f aug-cc-pvdz iop(5/13=1,5/36=2,99/5=2) pseudo=read geom=check guess=(
 read,tcheck) scf=(maxcycle=1)\\title\\0,1\C,0,-1.1703,-1.3742,-0.6072\
 H,0,-0.9506,-0.755,0.2613\H,0,-0.5357,-1.1209,-1.4573\H,0,-2.2213,-1.2
 648,-0.8796\S,0,-0.9836,-3.0975,-0.1774\O,0,-1.8003,-3.2834,1.0075\N,0
 ,0.6278,-3.3009,0.2641\H,0,1.072,-3.8061,-0.4983\O,0,-1.1759,-3.918,-1
 .3631\C,0,1.4293,-2.1383,0.6605\H,0,1.5513,-1.3919,-0.1328\H,0,0.9803,
 -1.6683,1.5383\H,0,2.4142,-2.5064,0.9532\\Version=ES64L-G16RevC.01\Sta

 Normal termination of Gaussian 16 at Wed Apr  9 02:22:57 2025.
