 Gaussian 16, Revision C.01,

 ----------------------------------------------------------------------
 #t hf aug-cc-pvdz symm=none int=(grid=ultrafine) guess=(read,tcheck) s
 table=(opt,rrhf)
 ----------------------------------------------------------------------
 -----
 title
 -----
 Symbolic Z-matrix:
 Charge =  0 Multiplicity = 1

 SCF Done:  E(RHF) =  -681.467854092     A.U. after   13 cycles
 Normal termination of Gaussian 16 at Wed Apr  9 02:22:54 2025.
 Gaussian 16:  ES64L-G16RevC.01  3-Jul-2019

 ----------------------------------------------------------------------
 #t hf aug-cc-pvdz iop(5/13=1,5/36=2,99/5=2) pseudo=read geom=check gue
 ss=(read,tcheck) scf=(maxcycle=1)
 ----------------------------------------------------------------------
 -----
 title
 -----
 Structure from the checkpoint file:  "DCONF_16_150_mol1.chk"
 Charge =  0 Multiplicity = 1

                         Standard orientation:
 ---------------------------------------------------------------------
 Center     Atomic      Atomic             Coordinates (Angstroms)
 Number     Number       Type             X           Y           Z
 ---------------------------------------------------------------------
      1          6           0       -1.619328    1.078807    0.198695
      2          1           0       -1.314150    1.743790    1.005048
      3          1           0       -1.721424    1.616579   -0.743991
      4          1           0       -2.552913    0.569996    0.444124
      5         16           0       -0.391955   -0.190671    0.007793
      6          8           0       -0.115903   -0.781952    1.306880
      7          7           0        0.958722    0.733202   -0.393790
      8          1           0        0.948947    0.874105   -1.401888
      9          8           0       -0.796232   -1.018555   -1.121990
     10          6           0        2.247558    0.157346    0.035051
     11          1           0        2.259526    0.091178    1.122082
     12          1           0        2.437802   -0.835300   -0.386303
     13          1           0        3.030132    0.845102   -0.288814
 ---------------------------------------------------------------------

 SCF Done:  E(RHF) =  -683.028380930     A.U. after    2 cycles

 The electronic state is 1-A.
 Alpha  occ. eigenvalues --  -75.89505 -21.04375 -21.04277 -15.76906 -13.51271
 Alpha  occ. eigenvalues --  -13.42036 -13.35787 -11.42490 -11.40900  -8.24655
 Alpha  occ. eigenvalues --   -1.83183  -1.64962  -1.40147  -1.15172  -1.01166
 Alpha  occ. eigenvalues --   -0.87454  -0.70101  -0.65221  -0.63855  -0.62805
 Alpha  occ. eigenvalues --   -0.58128  -0.55756  -0.52478  -0.46508  -0.42432
 Alpha  occ. eigenvalues --   -0.39242  -0.37427  -0.35718  -0.34667
 Alpha virt. eigenvalues --    0.02903   0.03638   0.04912   0.05742   0.06610
 Alpha virt. eigenvalues --    0.07100   0.07591   0.10878   0.12199   0.13084
 Alpha virt. eigenvalues --    0.13415   0.14178   0.14841   0.15082   0.15602

 Mulliken charges:
               1
     1  C   -4.454396
     2  H    1.363803
     3  H    1.344049
     4  H    1.330391
     5  S    6.915356
     6  O   -2.611682
     7  N   -2.731116
     8  H    0.654992
     9  O   -2.590400
    10  C   -3.237604
    11  H    1.431717
    12  H    1.303700
    13  H    1.281189
 Sum of Mulliken charges =  -0.00000

 Dipole moment (field-independent basis, Debye):
    X=              0.8479    Y=              1.8365    Z=             -0.5975  Tot=              2.1092

 Test job not archived.
 1\1\GINC-SE029\SP\RHF\Aug-CC-pVDZ\C2H7N1O2S1\OHZDE\09-Apr-2025\0\\#t h
 f aug-cc-pvdz iop(5/13=1,5/36=2,99/5=2) pseudo=read geom=check guess=(
 read,tcheck) scf=(maxcycle=1)\\title\\0,1\C,0,-1.0993,-1.4018,-0.6324\
 H,0,-0.8773,-0.792,0.2419\H,0,-0.3949,-1.2091,-1.4417\H,0,-2.1214,-1.2
 346,-0.976\S,0,-0.998,-3.1153,-0.1762\O,0,-1.7909,-3.3341,1.0225\N,0,0
 .6169,-3.2228,0.2925\H,0,1.1693,-3.413,-0.5411\O,0,-1.2309,-3.8999,-1.
 3826\C,0,0.8893,-4.2314,1.3342\H,0,0.3468,-3.9592,2.2385\H,0,0.604,-5.
 246,1.0371\H,0,1.9606,-4.2008,1.5384\\Version=ES64L-G16RevC.01\State=1

 Normal termination of Gaussian 16 at Wed Apr  9 02:22:58 2025.
