 Gaussian 16, Revision C.01,

 ----------------------------------------------------------------------
 #t hf aug-cc-pvdz symm=none int=(grid=ultrafine) guess=(read,tcheck) s
 table=(opt,rrhf)
 ----------------------------------------------------------------------
 -----
 title
 -----
 Symbolic Z-matrix:
 Charge =  0 Multiplicity = 1

 SCF Done:  E(RHF) =  -559.157822622     A.U. after   17 cycles

 1\1\GINC-SE252\Stability\RHF\Aug-CC-pVDZ\C12H9F1\OHZDE\09-Apr-2025\0\\
 #t hf aug-cc-pvdz symm=none int=(grid=ultrafine) guess=(read,tcheck) s
 table=(opt,rrhf)\\title\\0,1\C,0,12.8064,-33.9628,-1.0681\H,0,13.3202,
 -34.5802,-1.7953\C,0,11.4208,-33.8022,-1.1679\H,0,10.8824,-34.3062,-1.
 9666\C,0,10.7321,-32.9779,-0.2715\H,0,9.6557,-32.854,-0.3549\C,0,11.44
 28,-32.3235,0.7411\H,0,10.9224,-31.6826,1.4481\C,0,12.8275,-32.4833,0.
 8441\H,0,13.357,-31.9948,1.6576\C,0,13.5319,-33.3247,-0.041\C,0,17.144
 7,-32.2377,0.4705\H,0,17.6684,-31.3548,0.826\C,0,15.7482,-32.2579,0.46

 Normal termination of Gaussian 16 at Wed Apr  9 02:32:16 2025.
 Gaussian 16:  ES64L-G16RevC.01  3-Jul-2019

 ----------------------------------------------------------------------
 #t hf aug-cc-pvdz iop(5/13=1,5/36=2,99/5=2) pseudo=read geom=check gue
 ss=(read,tcheck) scf=(maxcycle=1)
 ----------------------------------------------------------------------
 -----
 title
 -----
 Structure from the checkpoint file:  "DCONF_47_160_mol1.chk"
 Charge =  0 Multiplicity = 1

                         Standard orientation:
 ---------------------------------------------------------------------
 Center     Atomic      Atomic             Coordinates (Angstroms)
 Number     Number       Type             X           Y           Z
 ---------------------------------------------------------------------
      1          6           0       -1.515399    1.029567    0.383922
      2          1           0       -0.954994    1.903759    0.693320
      3          6           0       -2.911096    1.049307    0.469240
      4          1           0       -3.409702    1.943325    0.835214
      5          6           0       -3.662937   -0.077223    0.118559
      6          1           0       -4.747173   -0.057982    0.189304
      7          6           0       -3.004264   -1.225604   -0.335383
      8          1           0       -3.573698   -2.108027   -0.615548
      9          6           0       -1.609498   -1.247685   -0.423013
     10          1           0       -1.118111   -2.136119   -0.810322
     11          6           0       -0.840280   -0.114109   -0.090079
     12          6           0        2.660536   -1.562064    0.288391
     13          1           0        3.103379   -2.531639    0.498081
     14          6           0        1.272127   -1.440419    0.197852
     15          1           0        0.654265   -2.320370    0.350540
     16          6           0        0.640111   -0.209311   -0.081930
     17          6           0        1.493824    0.903456   -0.167682
     18          6           0        2.879443    0.814999   -0.074337
     19          1           0        3.467685    1.721611   -0.178014
     20          6           0        3.470519   -0.427237    0.170473
     21          1           0        4.550880   -0.505599    0.252639
     22          9           0        0.976549    2.125443   -0.439032
 ---------------------------------------------------------------------

 SCF Done:  E(RHF) =  -561.691290797     A.U. after    2 cycles

 The electronic state is 1-A.
 Alpha  occ. eigenvalues --  -29.28290 -11.53990 -11.51712 -11.48046 -11.45790
 Alpha  occ. eigenvalues --  -11.44147 -11.43340 -11.42972 -11.41988 -11.41499
 Alpha  occ. eigenvalues --  -11.40794 -11.39008 -11.36878  -1.40169  -1.31153
 Alpha  occ. eigenvalues --   -1.15574  -1.14370  -1.08944  -1.05793  -0.92762
 Alpha  occ. eigenvalues --   -0.90268  -0.85678  -0.83710  -0.76283  -0.70943
 Alpha  occ. eigenvalues --   -0.68677  -0.63957  -0.62234  -0.60865  -0.58311
 Alpha  occ. eigenvalues --   -0.58010  -0.56794  -0.53759  -0.50184  -0.48969
 Alpha  occ. eigenvalues --   -0.48217  -0.44472  -0.43872  -0.41330  -0.38326
 Alpha  occ. eigenvalues --   -0.37174  -0.32975  -0.30155  -0.26641  -0.22772
 Alpha virt. eigenvalues --    0.03369   0.04848   0.05120   0.05390   0.05604
 Alpha virt. eigenvalues --    0.06098   0.06810   0.07303   0.07643   0.09237
 Alpha virt. eigenvalues --    0.09694   0.09778   0.11421   0.11916   0.12187

 Mulliken charges:
               1
     1  C   -1.078879
     2  H    1.926236
     3  C   -2.981365
     4  H    1.506572
     5  C   -3.021481
     6  H    1.551559
     7  C   -2.875561
     8  H    1.453008
     9  C   -3.317791
    10  H    1.808301
    11  C    5.760278
    12  C   -4.063728
    13  H    1.468136
    14  C   -0.674507
    15  H    1.846710
    16  C   -1.013681
    17  C    5.415236
    18  C   -6.018288
    19  H    1.736819
    20  C   -1.602594
    21  H    1.487248
    22  F    0.687771
 Sum of Mulliken charges =   0.00000

 Dipole moment (field-independent basis, Debye):
    X=             -0.6267    Y=              1.8837    Z=             -0.2585  Tot=              2.0020

 Test job not archived.
 1\1\GINC-SE252\SP\RHF\Aug-CC-pVDZ\C12H9F1\OHZDE\09-Apr-2025\0\\#t hf a
 ug-cc-pvdz iop(5/13=1,5/36=2,99/5=2) pseudo=read geom=check guess=(rea
 d,tcheck) scf=(maxcycle=1)\\title\\0,1\C,0,12.8064,-33.9628,-1.0681\H,
 0,13.3202,-34.5802,-1.7953\C,0,11.4208,-33.8022,-1.1679\H,0,10.8824,-3
 4.3062,-1.9666\C,0,10.7321,-32.9779,-0.2715\H,0,9.6557,-32.854,-0.3549
 \C,0,11.4428,-32.3235,0.7411\H,0,10.9224,-31.6826,1.4481\C,0,12.8275,-
 32.4833,0.8441\H,0,13.357,-31.9948,1.6576\C,0,13.5319,-33.3247,-0.041\
 C,0,17.1447,-32.2377,0.4705\H,0,17.6684,-31.3548,0.826\C,0,15.7482,-32

 Normal termination of Gaussian 16 at Wed Apr  9 02:32:33 2025.
