 Gaussian 16, Revision C.01,

 ----------------------------------------------------------------------
 #t hf aug-cc-pvdz symm=none int=(grid=ultrafine) guess=(read,tcheck) s
 table=(opt,rrhf)
 ----------------------------------------------------------------------
 -----
 title
 -----
 Symbolic Z-matrix:
 Charge =  0 Multiplicity = 1

 SCF Done:  E(RHF) =  -575.159608523     A.U. after   15 cycles
 Normal termination of Gaussian 16 at Wed Apr  9 02:32:40 2025.
 Gaussian 16:  ES64L-G16RevC.01  3-Jul-2019

 ----------------------------------------------------------------------
 #t hf aug-cc-pvdz iop(5/13=1,5/36=2,99/5=2) pseudo=read geom=check gue
 ss=(read,tcheck) scf=(maxcycle=1)
 ----------------------------------------------------------------------
 -----
 title
 -----
 Structure from the checkpoint file:  "DCONF_48_140_mol1.chk"
 Charge =  0 Multiplicity = 1

                         Standard orientation:
 ---------------------------------------------------------------------
 Center     Atomic      Atomic             Coordinates (Angstroms)
 Number     Number       Type             X           Y           Z
 ---------------------------------------------------------------------
      1          6           0       -1.546364    0.941403    0.604441
      2          1           0       -1.001340    1.760116    1.062031
      3          6           0       -2.941879    0.936891    0.573617
      4          1           0       -3.504790    1.759813    1.005965
      5          6           0       -3.596144   -0.148986   -0.014304
      6          1           0       -4.679768   -0.197570   -0.064662
      7          6           0       -2.818782   -1.186426   -0.540536
      8          1           0       -3.292240   -2.050944   -1.002119
      9          7           0       -1.475737   -1.197706   -0.523384
     10          6           0       -0.850458   -0.139436    0.036506
     11          6           0        2.670192   -1.518518    0.334246
     12          1           0        3.146596   -2.471911    0.543575
     13          6           0        1.276489   -1.426948    0.314736
     14          1           0        0.656775   -2.300671    0.494625
     15          6           0        0.629225   -0.205037    0.055841
     16          6           0        1.441995    0.906279   -0.199383
     17          6           0        2.831778    0.842095   -0.189397
     18          1           0        3.403539    1.739359   -0.405064
     19          6           0        3.450294   -0.381921    0.084677
     20          1           0        4.534660   -0.444169    0.097234
     21          9           0        0.865405    2.097060   -0.492285
 ---------------------------------------------------------------------

 SCF Done:  E(RHF) =  -577.736637793     A.U. after    2 cycles

 The electronic state is 1-A.
 Alpha  occ. eigenvalues --  -29.28447 -15.73967 -11.54116 -11.51293 -11.47837
 Alpha  occ. eigenvalues --  -11.46694 -11.44442 -11.44252 -11.42793 -11.41874
 Alpha  occ. eigenvalues --  -11.41508 -11.38878 -11.37876  -1.46318  -1.35481
 Alpha  occ. eigenvalues --   -1.18991  -1.16302  -1.14292  -1.07200  -0.93490
 Alpha  occ. eigenvalues --   -0.91254  -0.88175  -0.85027  -0.76407  -0.71940
 Alpha  occ. eigenvalues --   -0.68182  -0.64052  -0.62672  -0.60906  -0.59456
 Alpha  occ. eigenvalues --   -0.58415  -0.56218  -0.54580  -0.52946  -0.49761
 Alpha  occ. eigenvalues --   -0.47811  -0.45253  -0.41179  -0.38906  -0.37601
 Alpha  occ. eigenvalues --   -0.36202  -0.35907  -0.31253  -0.26880  -0.23088
 Alpha virt. eigenvalues --    0.03344   0.05051   0.05114   0.05456   0.05617
 Alpha virt. eigenvalues --    0.05915   0.07017   0.07555   0.09182   0.09283
 Alpha virt. eigenvalues --    0.10214   0.10590   0.11656   0.11866   0.12391

 Mulliken charges:
               1
     1  C   -2.517284
     2  H    1.782474
     3  C   -0.745746
     4  H    1.530876
     5  C   -1.447987
     6  H    1.474034
     7  C   -0.935955
     8  H    1.692352
     9  N   -4.006012
    10  C    2.668854
    11  C   -2.700924
    12  H    1.453804
    13  C   -1.829160
    14  H    1.736147
    15  C    0.211197
    16  C    4.316294
    17  C   -5.158572
    18  H    1.758964
    19  C   -1.558356
    20  H    1.510870
    21  F    0.764131
 Sum of Mulliken charges =   0.00000

 Dipole moment (field-independent basis, Debye):
    X=             -1.5310    Y=              2.9527    Z=              0.1138  Tot=              3.3280

 Test job not archived.
 1\1\GINC-SE329\SP\RHF\Aug-CC-pVDZ\C11H8F1N1\OHZDE\09-Apr-2025\0\\#t hf
  aug-cc-pvdz iop(5/13=1,5/36=2,99/5=2) pseudo=read geom=check guess=(r
 ead,tcheck) scf=(maxcycle=1)\\title\\0,1\C,0,21.7458,-34.1034,-0.7992\
 H,0,22.2198,-34.8495,-1.428\C,0,20.3567,-33.9701,-0.7666\H,0,19.7271,-
 34.6181,-1.3705\C,0,19.7967,-32.983,0.0488\H,0,18.7218,-32.8416,0.1099
 \C,0,20.6582,-32.1685,0.7917\H,0,20.2597,-31.3858,1.4345\N,0,21.9963,-
 32.2844,0.776\C,0,22.5295,-33.2481,-0.0059\C,0,26.1707,-32.1865,0.0066
 \H,0,26.7398,-31.2614,0.014\C,0,24.7745,-32.1441,0.0068\H,0,24.2445,-3

 Normal termination of Gaussian 16 at Wed Apr  9 02:32:55 2025.
