 Gaussian 16, Revision C.01,

 ----------------------------------------------------------------------
 #t hf aug-cc-pvdz symm=none int=(grid=ultrafine) guess=(read,tcheck) s
 table=(opt,rrhf)
 ----------------------------------------------------------------------
 -----
 title
 -----
 Symbolic Z-matrix:
 Charge =  0 Multiplicity = 1

 SCF Done:  E(RHF) =  -774.177582128     A.U. after   15 cycles
 Normal termination of Gaussian 16 at Wed Apr  9 02:28:38 2025.
 Gaussian 16:  ES64L-G16RevC.01  3-Jul-2019

 ----------------------------------------------------------------------
 #t hf aug-cc-pvdz iop(5/13=1,5/36=2,99/5=2) pseudo=read geom=check gue
 ss=(read,tcheck) scf=(maxcycle=1)
 ----------------------------------------------------------------------
 -----
 title
 -----
 Structure from the checkpoint file:  "DCONF_42_0_mol1.chk"
 Charge =  0 Multiplicity = 1

                         Standard orientation:
 ---------------------------------------------------------------------
 Center     Atomic      Atomic             Coordinates (Angstroms)
 Number     Number       Type             X           Y           Z
 ---------------------------------------------------------------------
      1          6           0       -2.209914   -0.150252   -0.014674
      2          7           0       -0.937218   -0.742202    0.035570
      3          1           0       -0.977508   -1.725275   -0.210284
      4          7           0        0.538911    1.145087   -0.185405
      5          6           0        1.893944    1.388034   -0.167979
      6          1           0        2.249417    2.404361   -0.287699
      7          6           0        2.701573    0.287864   -0.021490
      8          1           0        3.781532    0.239079   -0.010407
      9         16           0        1.738299   -1.128256    0.135968
     10          6           0        0.314089   -0.138524   -0.043752
     11          8           0       -3.166264   -0.865322   -0.263769
     12          6           0       -2.319497    1.315880    0.306869
     13          1           0       -1.741516    1.566079    1.198597
     14          1           0       -3.375959    1.541533    0.451954
     15          1           0       -1.911655    1.910688   -0.512495
 ---------------------------------------------------------------------

 SCF Done:  E(RHF) =  -776.109327397     A.U. after    2 cycles

 The electronic state is 1-A.
 Alpha  occ. eigenvalues --  -75.73574 -21.04432 -15.79766 -15.74618 -13.19275
 Alpha  occ. eigenvalues --  -13.17758 -13.05499 -11.52106 -11.49529 -11.46007
 Alpha  occ. eigenvalues --  -11.40540 -11.38894  -8.08196  -1.72018  -1.52201
 Alpha  occ. eigenvalues --   -1.37440  -1.20259  -1.10879  -1.06822  -0.86902
 Alpha  occ. eigenvalues --   -0.84380  -0.75914  -0.71812  -0.64239  -0.63054
 Alpha  occ. eigenvalues --   -0.60385  -0.57350  -0.55310  -0.53252  -0.50334
 Alpha  occ. eigenvalues --   -0.48777  -0.43996  -0.39818  -0.37365  -0.33050
 Alpha  occ. eigenvalues --   -0.30257  -0.26913
 Alpha virt. eigenvalues --    0.02853   0.04103   0.05093   0.06012   0.06891
 Alpha virt. eigenvalues --    0.07419   0.07875   0.09325   0.09814   0.10883
 Alpha virt. eigenvalues --    0.11275   0.12234   0.12435   0.12702   0.13242

 Mulliken charges:
               1
     1  C    4.679134
     2  N   -2.819727
     3  H    0.661576
     4  N   -3.070074
     5  C    0.475493
     6  H    1.591425
     7  C   -2.525476
     8  H    1.196380
     9  S    1.584735
    10  C    1.854082
    11  O   -3.217353
    12  C   -4.280030
    13  H    1.410130
    14  H    1.081351
    15  H    1.378352
 Sum of Mulliken charges =  -0.00000

 Dipole moment (field-independent basis, Debye):
    X=              2.9780    Y=             -1.9530    Z=              0.5566  Tot=              3.6045

 Test job not archived.
 1\1\GINC-SE059\SP\RHF\Aug-CC-pVDZ\C5H6N2O1S1\OHZDE\09-Apr-2025\0\\#t h
 f aug-cc-pvdz iop(5/13=1,5/36=2,99/5=2) pseudo=read geom=check guess=(
 read,tcheck) scf=(maxcycle=1)\\title\\0,1\C,0,28.0372,-17.3884,-0.0684
 \N,0,29.327,-16.8351,-0.014\H,0,29.3077,-15.8893,0.3515\N,0,30.7426,-1
 8.7807,0.0051\C,0,32.0902,-19.0621,-0.0101\H,0,32.4134,-20.0961,-0.009
 6\C,0,32.9323,-17.9782,0.0011\H,0,34.0131,-17.9624,0.022\S,0,32.0141,-
 16.5239,-0.0015\C,0,30.5581,-17.483,0.0193\O,0,27.0949,-16.68,0.245\C,
 0,27.8952,-18.7992,-0.5728\H,0,28.4903,-18.955,-1.4747\H,0,26.8372,-18

 Normal termination of Gaussian 16 at Wed Apr  9 02:28:45 2025.
