 Gaussian 16, Revision C.01,

 ----------------------------------------------------------------------
 #t hf aug-cc-pvdz symm=none int=(grid=ultrafine) guess=(read,tcheck) s
 table=(opt,rrhf)
 ----------------------------------------------------------------------
 -----
 title
 -----
 Symbolic Z-matrix:
 Charge =  0 Multiplicity = 1

 SCF Done:  E(RHF) =  -559.155028160     A.U. after   17 cycles

 1\1\GINC-SE115\Stability\RHF\Aug-CC-pVDZ\C12H9F1\OHZDE\09-Apr-2025\0\\
 #t hf aug-cc-pvdz symm=none int=(grid=ultrafine) guess=(read,tcheck) s
 table=(opt,rrhf)\\title\\0,1\C,0,12.8424,-32.1003,0.0828\H,0,13.403,-3
 1.1708,0.0674\C,0,11.4485,-32.034,0.1472\H,0,10.9606,-31.0637,0.1917\C
 ,0,10.6845,-33.2053,0.0972\H,0,9.5997,-33.1579,0.1384\C,0,11.338,-34.4
 378,0.0031\H,0,10.7612,-35.3576,-0.0501\C,0,12.7341,-34.5052,-0.0611\H
 ,0,13.2044,-35.4774,-0.1223\C,0,13.5211,-33.338,0.0395\C,0,17.1447,-32
 .2323,0.4524\H,0,17.6646,-31.3678,0.8549\C,0,15.7493,-32.2607,0.454\H,

 Normal termination of Gaussian 16 at Wed Apr  9 02:33:10 2025.
 Gaussian 16:  ES64L-G16RevC.01  3-Jul-2019

 ----------------------------------------------------------------------
 #t hf aug-cc-pvdz iop(5/13=1,5/36=2,99/5=2) pseudo=read geom=check gue
 ss=(read,tcheck) scf=(maxcycle=1)
 ----------------------------------------------------------------------
 -----
 title
 -----
 Structure from the checkpoint file:  "DCONF_47_10_mol1.chk"
 Charge =  0 Multiplicity = 1

                         Standard orientation:
 ---------------------------------------------------------------------
 Center     Atomic      Atomic             Coordinates (Angstroms)
 Number     Number       Type             X           Y           Z
 ---------------------------------------------------------------------
      1          6           0       -1.597885   -1.289394    0.268838
      2          1           0       -1.095531   -2.213243    0.538323
      3          6           0       -2.994581   -1.275503    0.245396
      4          1           0       -3.542645   -2.183440    0.483695
      5          6           0       -3.682766   -0.087882   -0.026812
      6          1           0       -4.769189   -0.070548   -0.037687
      7          6           0       -2.951694    1.073647   -0.293940
      8          1           0       -3.468557    2.008593   -0.494658
      9          6           0       -1.552743    1.060603   -0.271031
     10          1           0       -1.021570    1.976255   -0.493602
     11          6           0       -0.843021   -0.138885   -0.048838
     12          6           0        2.689913   -1.561486   -0.183446
     13          1           0        3.141971   -2.537736   -0.332586
     14          6           0        1.299628   -1.439195   -0.173386
     15          1           0        0.702192   -2.331915   -0.325799
     16          6           0        0.640543   -0.204766    0.032631
     17          6           0        1.492068    0.913522    0.101211
     18          6           0        2.881658    0.824783    0.091772
     19          1           0        3.458154    1.740083    0.184802
     20          6           0        3.491720   -0.420722   -0.067621
     21          1           0        4.574933   -0.496636   -0.084621
     22          9           0        0.975910    2.153363    0.279277
 ---------------------------------------------------------------------

 SCF Done:  E(RHF) =  -561.689206352     A.U. after    2 cycles

 The electronic state is 1-A.
 Alpha  occ. eigenvalues --  -29.28351 -11.53982 -11.51488 -11.48249 -11.46084
 Alpha  occ. eigenvalues --  -11.43694 -11.43449 -11.43012 -11.42061 -11.41564
 Alpha  occ. eigenvalues --  -11.40805 -11.39327 -11.37009  -1.40109  -1.31200
 Alpha  occ. eigenvalues --   -1.15548  -1.14440  -1.08908  -1.05820  -0.92899
 Alpha  occ. eigenvalues --   -0.90262  -0.85530  -0.83807  -0.76447  -0.70814
 Alpha  occ. eigenvalues --   -0.68894  -0.64011  -0.62298  -0.60847  -0.58489
 Alpha  occ. eigenvalues --   -0.57823  -0.56517  -0.54063  -0.50035  -0.48944
 Alpha  occ. eigenvalues --   -0.48343  -0.44501  -0.43716  -0.41469  -0.38196
 Alpha  occ. eigenvalues --   -0.37669  -0.32876  -0.30020  -0.26555  -0.22881
 Alpha virt. eigenvalues --    0.03363   0.04809   0.05120   0.05395   0.05656
 Alpha virt. eigenvalues --    0.06145   0.06905   0.07326   0.07709   0.09094
 Alpha virt. eigenvalues --    0.09466   0.09754   0.11495   0.11933   0.12381

 Mulliken charges:
               1
     1  C   -2.500476
     2  H    1.831482
     3  C   -3.098713
     4  H    1.469069
     5  C   -2.976497
     6  H    1.539139
     7  C   -3.346749
     8  H    1.437497
     9  C   -1.350813
    10  H    1.856393
    11  C    6.237661
    12  C   -4.325984
    13  H    1.425955
    14  C   -1.043579
    15  H    1.791216
    16  C   -1.496772
    17  C    6.442633
    18  C   -6.120698
    19  H    1.715091
    20  C   -1.662121
    21  H    1.488186
    22  F    0.688080
 Sum of Mulliken charges =   0.00000

 Dipole moment (field-independent basis, Debye):
    X=             -0.5507    Y=              1.9328    Z=              0.2553  Tot=              2.0259

 Test job not archived.
 1\1\GINC-SE115\SP\RHF\Aug-CC-pVDZ\C12H9F1\OHZDE\09-Apr-2025\0\\#t hf a
 ug-cc-pvdz iop(5/13=1,5/36=2,99/5=2) pseudo=read geom=check guess=(rea
 d,tcheck) scf=(maxcycle=1)\\title\\0,1\C,0,12.8424,-32.1003,0.0828\H,0
 ,13.403,-31.1708,0.0674\C,0,11.4485,-32.034,0.1472\H,0,10.9606,-31.063
 7,0.1917\C,0,10.6845,-33.2053,0.0972\H,0,9.5997,-33.1579,0.1384\C,0,11
 .338,-34.4378,0.0031\H,0,10.7612,-35.3576,-0.0501\C,0,12.7341,-34.5052
 ,-0.0611\H,0,13.2044,-35.4774,-0.1223\C,0,13.5211,-33.338,0.0395\C,0,1
 7.1447,-32.2323,0.4524\H,0,17.6646,-31.3678,0.8549\C,0,15.7493,-32.260

 Normal termination of Gaussian 16 at Wed Apr  9 02:33:28 2025.
