 Gaussian 16, Revision C.01,

 ----------------------------------------------------------------------
 #t hf aug-cc-pvdz symm=none int=(grid=ultrafine) guess=(read,tcheck) s
 table=(opt,rrhf)
 ----------------------------------------------------------------------
 -----
 title
 -----
 Symbolic Z-matrix:
 Charge =  0 Multiplicity = 1

 SCF Done:  E(RHF) =  -774.172148253     A.U. after   16 cycles
 Normal termination of Gaussian 16 at Wed Apr  9 02:28:01 2025.
 Gaussian 16:  ES64L-G16RevC.01  3-Jul-2019

 ----------------------------------------------------------------------
 #t hf aug-cc-pvdz iop(5/13=1,5/36=2,99/5=2) pseudo=read geom=check gue
 ss=(read,tcheck) scf=(maxcycle=1)
 ----------------------------------------------------------------------
 -----
 title
 -----
 Structure from the checkpoint file:  "DCONF_42_-90_mol1.chk"
 Charge =  0 Multiplicity = 1

                         Standard orientation:
 ---------------------------------------------------------------------
 Center     Atomic      Atomic             Coordinates (Angstroms)
 Number     Number       Type             X           Y           Z
 ---------------------------------------------------------------------
      1          6           0       -2.136042    0.033428   -0.006638
      2          7           0       -1.028577    0.236092   -0.829244
      3          1           0       -1.241594    0.675760   -1.717507
      4          7           0        0.911448    1.393214    0.008205
      5          6           0        2.199610    1.111195    0.368185
      6          1           0        2.843974    1.909919    0.716320
      7          6           0        2.578108   -0.213649    0.261069
      8          1           0        3.533807   -0.659142    0.503352
      9         16           0        1.274048   -1.139271   -0.339097
     10          6           0        0.294708    0.290889   -0.375134
     11          8           0       -3.263878    0.181727   -0.442676
     12          6           0       -1.825244   -0.395467    1.410190
     13          1           0       -1.398371   -1.402745    1.417498
     14          1           0       -2.755798   -0.395158    1.976467
     15          1           0       -1.102709    0.282357    1.872077
 ---------------------------------------------------------------------

 SCF Done:  E(RHF) =  -776.103603467     A.U. after    2 cycles

 The electronic state is 1-A.
 Alpha  occ. eigenvalues --  -75.74118 -21.03776 -15.78308 -15.76322 -13.20432
 Alpha  occ. eigenvalues --  -13.18989 -13.07571 -11.51485 -11.48200 -11.46506
 Alpha  occ. eigenvalues --  -11.41187 -11.39610  -8.08753  -1.71311  -1.52233
 Alpha  occ. eigenvalues --   -1.37336  -1.20675  -1.11172  -1.06735  -0.86619
 Alpha  occ. eigenvalues --   -0.82572  -0.78770  -0.71767  -0.64816  -0.62653
 Alpha  occ. eigenvalues --   -0.60719  -0.56683  -0.56348  -0.54290  -0.48891
 Alpha  occ. eigenvalues --   -0.48180  -0.44400  -0.38388  -0.36442  -0.32558
 Alpha  occ. eigenvalues --   -0.31440  -0.28668
 Alpha virt. eigenvalues --    0.02659   0.04114   0.04987   0.05819   0.06409
 Alpha virt. eigenvalues --    0.07523   0.07823   0.09330   0.10015   0.10652
 Alpha virt. eigenvalues --    0.10863   0.11616   0.12185   0.13132   0.13268

 Mulliken charges:
               1
     1  C    4.151864
     2  N   -2.973181
     3  H    0.524965
     4  N   -3.313553
     5  C    0.785341
     6  H    1.575696
     7  C   -2.617073
     8  H    1.240915
     9  S    1.462624
    10  C    3.049510
    11  O   -3.230986
    12  C   -4.406766
    13  H    1.354965
    14  H    1.110394
    15  H    1.285283
 Sum of Mulliken charges =  -0.00000

 Dipole moment (field-independent basis, Debye):
    X=              2.7854    Y=             -3.1494    Z=              0.0594  Tot=              4.2049

 Test job not archived.
 1\1\GINC-SE459\SP\RHF\Aug-CC-pVDZ\C5H6N2O1S1\OHZDE\09-Apr-2025\0\\#t h
 f aug-cc-pvdz iop(5/13=1,5/36=2,99/5=2) pseudo=read geom=check guess=(
 read,tcheck) scf=(maxcycle=1)\\title\\0,1\C,0,28.5854,-16.5041,-1.1358
 \N,0,29.3128,-16.8423,0.0047\H,0,28.7561,-16.9216,0.8482\N,0,30.7477,-
 18.7775,0.0011\C,0,32.084,-19.0652,0.0046\H,0,32.4077,-20.0994,0.008\C
 ,0,32.9342,-17.9757,-0.0052\H,0,34.016,-17.9701,-0.0194\S,0,32.0216,-1
 6.5319,0.0071\C,0,30.564,-17.4704,-0.0124\O,0,27.4296,-16.1306,-1.0422
 \C,0,29.3373,-16.6124,-2.4438\H,0,30.1263,-15.8561,-2.4925\H,0,28.6304

 Normal termination of Gaussian 16 at Wed Apr  9 02:28:07 2025.
