 Gaussian 16, Revision C.01,

 ----------------------------------------------------------------------
 #t hf aug-cc-pvdz symm=none int=(grid=ultrafine) guess=(read,tcheck) s
 table=(opt,rrhf)
 ----------------------------------------------------------------------
 -----
 title
 -----
 Symbolic Z-matrix:
 Charge =  0 Multiplicity = 1

 SCF Done:  E(RHF) =  -758.167063421     A.U. after   15 cycles
 Normal termination of Gaussian 16 at Wed Apr  9 02:27:09 2025.
 Gaussian 16:  ES64L-G16RevC.01  3-Jul-2019

 ----------------------------------------------------------------------
 #t hf aug-cc-pvdz iop(5/13=1,5/36=2,99/5=2) pseudo=read geom=check gue
 ss=(read,tcheck) scf=(maxcycle=1)
 ----------------------------------------------------------------------
 -----
 title
 -----
 Structure from the checkpoint file:  "DCONF_38_-110_mol1.chk"
 Charge =  0 Multiplicity = 1

                         Standard orientation:
 ---------------------------------------------------------------------
 Center     Atomic      Atomic             Coordinates (Angstroms)
 Number     Number       Type             X           Y           Z
 ---------------------------------------------------------------------
      1          6           0       -2.153911    0.072258   -0.000111
      2          7           0       -1.046748    0.533889   -0.699481
      3          1           0       -1.248694    0.844150   -1.643353
      4          6           0        1.142584    1.398433    0.129705
      5          1           0        0.805858    2.422450    0.250682
      6          6           0        2.451759    0.926297    0.399916
      7          1           0        3.265172    1.543874    0.763443
      8          6           0        2.583421   -0.429807    0.159243
      9          1           0        3.460758   -1.048249    0.299395
     10         16           0        1.125335   -1.123681   -0.411725
     11          6           0        0.293204    0.393500   -0.302209
     12          8           0       -3.267927    0.124004   -0.496963
     13          6           0       -1.878113   -0.471053    1.385143
     14          1           0       -1.107662    0.107095    1.900287
     15          1           0       -2.812119   -0.451056    1.946280
     16          1           0       -1.531691   -1.506379    1.312808
 ---------------------------------------------------------------------

 SCF Done:  E(RHF) =  -760.053795139     A.U. after    2 cycles

 The electronic state is 1-A.
 Alpha  occ. eigenvalues --  -75.72489 -21.02876 -15.77728 -13.19411 -13.17081
 Alpha  occ. eigenvalues --  -13.06185 -11.50979 -11.49231 -11.45954 -11.43335
 Alpha  occ. eigenvalues --  -11.39179 -11.38903  -8.07087  -1.70459  -1.44958
 Alpha  occ. eigenvalues --   -1.31949  -1.10132  -1.10066  -1.03761  -0.84546
 Alpha  occ. eigenvalues --   -0.80141  -0.77976  -0.72324  -0.63853  -0.61653
 Alpha  occ. eigenvalues --   -0.59267  -0.54604  -0.54476  -0.53075  -0.51210
 Alpha  occ. eigenvalues --   -0.47566  -0.45638  -0.40349  -0.34461  -0.30417
 Alpha  occ. eigenvalues --   -0.28938  -0.28107
 Alpha virt. eigenvalues --    0.02758   0.04234   0.04936   0.05542   0.06024
 Alpha virt. eigenvalues --    0.06613   0.07406   0.08323   0.09943   0.10629
 Alpha virt. eigenvalues --    0.11083   0.11599   0.12167   0.12825   0.13402

 Mulliken charges:
               1
     1  C    4.105164
     2  N   -3.913499
     3  H    0.559839
     4  C   -1.969705
     5  H    1.663536
     6  C   -0.420679
     7  H    1.480606
     8  C   -3.293064
     9  H    1.315826
    10  S    1.799063
    11  C    2.556235
    12  O   -3.266194
    13  C   -4.494928
    14  H    1.472396
    15  H    1.089712
    16  H    1.315691
 Sum of Mulliken charges =   0.00000

 Dipole moment (field-independent basis, Debye):
    X=              2.2531    Y=             -1.7114    Z=             -0.0752  Tot=              2.8304

 Test job not archived.
 1\1\GINC-SE080\SP\RHF\Aug-CC-pVDZ\C6H7N1O1S1\OHZDE\09-Apr-2025\0\\#t h
 f aug-cc-pvdz iop(5/13=1,5/36=2,99/5=2) pseudo=read geom=check guess=(
 read,tcheck) scf=(maxcycle=1)\\title\\0,1\C,0,28.7971,-4.0798,-1.016\N
 ,0,29.4384,-4.7262,0.0323\H,0,28.9691,-4.6382,0.9267\C,0,31.0795,-6.60
 62,0.0089\H,0,30.3312,-7.3914,-0.0029\C,0,32.4827,-6.8081,0.0205\H,0,3
 2.9641,-7.7794,0.0156\C,0,33.1868,-5.6171,0.0266\H,0,34.2604,-5.4789,0
 .0158\S,0,32.1455,-4.2573,0.0375\C,0,30.7351,-5.2649,-0.0048\O,0,27.72
 27,-3.5272,-0.8403\C,0,29.5086,-4.1244,-2.3509\H,0,29.9948,-5.0882,-2.

 Normal termination of Gaussian 16 at Wed Apr  9 02:27:16 2025.
