 Gaussian 16, Revision C.01,

 ----------------------------------------------------------------------
 #t hf aug-cc-pvdz symm=none int=(grid=ultrafine) guess=(read,tcheck) s
 table=(opt,rrhf)
 ----------------------------------------------------------------------
 -----
 title
 -----
 Symbolic Z-matrix:
 Charge =  0 Multiplicity = 1

 SCF Done:  E(RHF) =  -575.154600528     A.U. after   15 cycles
 Normal termination of Gaussian 16 at Wed Apr  9 02:33:11 2025.
 Gaussian 16:  ES64L-G16RevC.01  3-Jul-2019

 ----------------------------------------------------------------------
 #t hf aug-cc-pvdz iop(5/13=1,5/36=2,99/5=2) pseudo=read geom=check gue
 ss=(read,tcheck) scf=(maxcycle=1)
 ----------------------------------------------------------------------
 -----
 title
 -----
 Structure from the checkpoint file:  "DCONF_48_-30_mol1.chk"
 Charge =  0 Multiplicity = 1

                         Standard orientation:
 ---------------------------------------------------------------------
 Center     Atomic      Atomic             Coordinates (Angstroms)
 Number     Number       Type             X           Y           Z
 ---------------------------------------------------------------------
      1          6           0        1.612113   -1.234814    0.480790
      2          1           0        1.115160   -2.096482    0.916594
      3          6           0        3.005365   -1.166485    0.434298
      4          1           0        3.611199   -1.983664    0.816509
      5          6           0        3.599200   -0.014840   -0.088887
      6          1           0        4.678629    0.091536   -0.142383
      7          6           0        2.765184    1.015283   -0.537493
      8          1           0        3.190973    1.932525   -0.940184
      9          7           0        1.423943    0.964031   -0.505894
     10          6           0        0.854748   -0.161808   -0.024881
     11          6           0       -2.678201   -1.527268   -0.298037
     12          1           0       -3.153026   -2.481133   -0.509305
     13          6           0       -1.285023   -1.436759   -0.257208
     14          1           0       -0.685460   -2.322812   -0.449479
     15          6           0       -0.625259   -0.220480    0.011871
     16          6           0       -1.436563    0.914632    0.176215
     17          6           0       -2.827478    0.847491    0.135895
     18          1           0       -3.395962    1.759484    0.291128
     19          6           0       -3.453558   -0.376346   -0.116987
     20          1           0       -4.537966   -0.429109   -0.155999
     21          9           0       -0.886035    2.105535    0.468991
 ---------------------------------------------------------------------

 SCF Done:  E(RHF) =  -577.734468409     A.U. after    2 cycles

 The electronic state is 1-A.
 Alpha  occ. eigenvalues --  -29.27430 -15.73650 -11.53887 -11.51223 -11.47946
 Alpha  occ. eigenvalues --  -11.46840 -11.44452 -11.44221 -11.42928 -11.41807
 Alpha  occ. eigenvalues --  -11.41587 -11.38928 -11.38004  -1.46121  -1.35527
 Alpha  occ. eigenvalues --   -1.19034  -1.16124  -1.14624  -1.07208  -0.93682
 Alpha  occ. eigenvalues --   -0.91110  -0.88200  -0.85153  -0.76374  -0.72041
 Alpha  occ. eigenvalues --   -0.68039  -0.64220  -0.62984  -0.60916  -0.59102
 Alpha  occ. eigenvalues --   -0.58593  -0.56474  -0.54144  -0.52767  -0.49964
 Alpha  occ. eigenvalues --   -0.47625  -0.45136  -0.41303  -0.38931  -0.37294
 Alpha  occ. eigenvalues --   -0.36213  -0.35906  -0.31150  -0.25172  -0.22180
 Alpha virt. eigenvalues --    0.03204   0.04704   0.05226   0.05313   0.05598
 Alpha virt. eigenvalues --    0.05964   0.06620   0.07269   0.09029   0.09590
 Alpha virt. eigenvalues --    0.09759   0.10276   0.11788   0.11921   0.12325

 Mulliken charges:
               1
     1  C   -2.626729
     2  H    1.803529
     3  C   -0.494764
     4  H    1.521130
     5  C   -1.422336
     6  H    1.478242
     7  C   -0.979363
     8  H    1.681064
     9  N   -3.763039
    10  C    1.633519
    11  C   -2.997024
    12  H    1.446706
    13  C   -1.329082
    14  H    1.906273
    15  C    0.047707
    16  C    4.441517
    17  C   -4.905656
    18  H    1.748017
    19  C   -1.457211
    20  H    1.512042
    21  F    0.755457
 Sum of Mulliken charges =   0.00000

 Dipole moment (field-independent basis, Debye):
    X=              1.7691    Y=              0.9215    Z=              0.8639  Tot=              2.1738

 Test job not archived.
 1\1\GINC-SE120\SP\RHF\Aug-CC-pVDZ\C11H8F1N1\OHZDE\09-Apr-2025\0\\#t hf
  aug-cc-pvdz iop(5/13=1,5/36=2,99/5=2) pseudo=read geom=check guess=(r
 ead,tcheck) scf=(maxcycle=1)\\title\\0,1\C,0,21.8504,-32.2099,0.65\H,0
 ,22.4083,-31.5003,1.2538\C,0,20.4592,-32.1336,0.568\H,0,19.9174,-31.35
 1,1.0923\C,0,19.7815,-33.1002,-0.1797\H,0,18.6994,-33.0899,-0.2708\C,0
 ,20.5333,-34.0999,-0.8069\H,0,20.04,-34.877,-1.3879\N,0,21.8717,-34.18
 5,-0.7437\C,0,22.524,-33.2331,-0.0428\C,0,26.1741,-32.187,0.0144\H,0,2
 6.741,-31.2605,0.0013\C,0,24.7779,-32.1492,0.0137\H,0,24.2687,-31.1892

 Normal termination of Gaussian 16 at Wed Apr  9 02:33:28 2025.
