 Gaussian 16, Revision C.01,

 ----------------------------------------------------------------------
 #t hf aug-cc-pvdz symm=none int=(grid=ultrafine) guess=(read,tcheck) s
 table=(opt,rrhf)
 ----------------------------------------------------------------------
 -----
 title
 -----
 Symbolic Z-matrix:
 Charge =  0 Multiplicity = 1

 SCF Done:  E(RHF) =  -796.902932782     A.U. after   17 cycles
 Normal termination of Gaussian 16 at Wed Apr  9 02:31:07 2025.
 Gaussian 16:  ES64L-G16RevC.01  3-Jul-2019

 ----------------------------------------------------------------------
 #t hf aug-cc-pvdz iop(5/13=1,5/36=2,99/5=2) pseudo=read geom=check gue
 ss=(read,tcheck) scf=(maxcycle=1)
 ----------------------------------------------------------------------
 -----
 title
 -----
 Structure from the checkpoint file:  "DCONF_55_-120_mol1.chk"
 Charge =  0 Multiplicity = 1

                         Standard orientation:
 ---------------------------------------------------------------------
 Center     Atomic      Atomic             Coordinates (Angstroms)
 Number     Number       Type             X           Y           Z
 ---------------------------------------------------------------------
      1          6           0       -1.430858    1.145376   -0.506486
      2          1           0       -0.917215    2.018074   -0.900829
      3          6           0       -2.826308    1.067354   -0.517921
      4          1           0       -3.408802    1.886746   -0.930733
      5          6           0       -3.474049   -0.059524    0.005733
      6          1           0       -4.559115   -0.117861   -0.004578
      7          6           0       -2.720401   -1.109318    0.544316
      8          1           0       -3.219425   -1.977261    0.967025
      9          6           0       -1.323685   -1.033569    0.563927
     10          1           0       -0.735951   -1.835201    1.005267
     11          6           0       -0.672371    0.086413    0.020297
     12          7           0        1.442543    1.183457    0.679729
     13          6           0        2.794419    0.987627    0.590454
     14          1           0        3.468943    1.708785    1.037945
     15          6           0        3.192473   -0.156793   -0.071835
     16          1           0        4.198223   -0.508874   -0.259844
     17         16           0        1.817442   -1.014537   -0.618763
     18          6           0        0.793527    0.201433    0.076161
 ---------------------------------------------------------------------

 SCF Done:  E(RHF) =  -799.014277056     A.U. after    2 cycles

 The electronic state is 1-A.
 Alpha  occ. eigenvalues --  -75.72456 -15.74349 -13.18828 -13.17433 -13.05286
 Alpha  occ. eigenvalues --  -11.52929 -11.46886 -11.45066 -11.44225 -11.43833
 Alpha  occ. eigenvalues --  -11.41942 -11.41419 -11.39567 -11.37266  -8.07072
 Alpha  occ. eigenvalues --   -1.48554  -1.33733  -1.18542  -1.14152  -1.09638
 Alpha  occ. eigenvalues --   -1.04462  -0.89154  -0.87108  -0.81568  -0.76761
 Alpha  occ. eigenvalues --   -0.70957  -0.68989  -0.63705  -0.59420  -0.58458
 Alpha  occ. eigenvalues --   -0.56185  -0.54910  -0.52519  -0.49376  -0.45426
 Alpha  occ. eigenvalues --   -0.45112  -0.42615  -0.36566  -0.34715  -0.33491
 Alpha  occ. eigenvalues --   -0.31865  -0.28294
 Alpha virt. eigenvalues --    0.03104   0.04087   0.05193   0.05445   0.05756
 Alpha virt. eigenvalues --    0.06675   0.07110   0.08153   0.09489   0.09846
 Alpha virt. eigenvalues --    0.10651   0.11617   0.11822   0.12112   0.12802

 Mulliken charges:
               1
     1  C   -3.557061
     2  H    1.688423
     3  C   -1.631857
     4  H    1.501987
     5  C   -2.853404
     6  H    1.556536
     7  C   -1.752742
     8  H    1.514199
     9  C   -2.797129
    10  H    1.884442
    11  C    6.251014
    12  N   -3.776152
    13  C    0.889872
    14  H    1.573288
    15  C   -2.891073
    16  H    1.247561
    17  S    1.102733
    18  C    0.049362
 Sum of Mulliken charges =  -0.00000

 Dipole moment (field-independent basis, Debye):
    X=             -0.0716    Y=             -2.6743    Z=             -1.5953  Tot=              3.1148

 Test job not archived.
 1\1\GINC-SE108\SP\RHF\Aug-CC-pVDZ\C9H7N1S1\OHZDE\09-Apr-2025\0\\#t hf
 aug-cc-pvdz iop(5/13=1,5/36=2,99/5=2) pseudo=read geom=check guess=(re
 ad,tcheck) scf=(maxcycle=1)\\title\\0,1\C,0,21.8298,-21.141,-0.0049\H,
 0,22.3957,-20.2133,0.0033\C,0,20.4322,-21.1297,0.0043\H,0,19.9007,-20.
 1818,0.0147\C,0,19.7171,-22.3348,0.0061\H,0,18.6305,-22.3233,0.013\C,0
 ,20.4055,-23.5539,0.0012\H,0,19.8548,-24.4906,0.02\C,0,21.8043,-23.570
 9,-0.0017\H,0,22.3425,-24.5157,0.0211\C,0,22.5223,-22.3634,-0.0246\N,0
 ,24.7118,-21.7851,0.9668\C,0,26.0468,-21.9953,0.7489\H,0,26.7721,-21.5

 Normal termination of Gaussian 16 at Wed Apr  9 02:31:18 2025.
