 Gaussian 16, Revision C.01,

 ----------------------------------------------------------------------
 #t hf aug-cc-pvdz symm=none int=(grid=ultrafine) guess=(read,tcheck) s
 table=(opt,rrhf)
 ----------------------------------------------------------------------
 -----
 title
 -----
 Symbolic Z-matrix:
 Charge =  0 Multiplicity = 1

 SCF Done:  E(RHF) =  -774.172786848     A.U. after   16 cycles
 Normal termination of Gaussian 16 at Wed Apr  9 02:28:08 2025.
 Gaussian 16:  ES64L-G16RevC.01  3-Jul-2019

 ----------------------------------------------------------------------
 #t hf aug-cc-pvdz iop(5/13=1,5/36=2,99/5=2) pseudo=read geom=check gue
 ss=(read,tcheck) scf=(maxcycle=1)
 ----------------------------------------------------------------------
 -----
 title
 -----
 Structure from the checkpoint file:  "DCONF_42_-70_mol1.chk"
 Charge =  0 Multiplicity = 1

                         Standard orientation:
 ---------------------------------------------------------------------
 Center     Atomic      Atomic             Coordinates (Angstroms)
 Number     Number       Type             X           Y           Z
 ---------------------------------------------------------------------
      1          6           0       -2.144661   -0.025246   -0.004265
      2          7           0       -1.025150   -0.502272   -0.681629
      3          1           0       -1.223392   -1.054055   -1.507776
      4          7           0        0.762232    1.109268   -0.728559
      5          6           0        2.064743    1.210062   -0.326201
      6          1           0        2.607700    2.131571   -0.500699
      7          6           0        2.598022    0.085819    0.274824
      8          1           0        3.603761   -0.062047    0.645217
      9         16           0        1.412766   -1.141669    0.357714
     10          6           0        0.285599   -0.085300   -0.432708
     11          8           0       -3.264617   -0.352311   -0.356394
     12          6           0       -1.852311    0.891732    1.161277
     13          1           0       -1.111762    0.451233    1.834808
     14          1           0       -2.784097    1.069217    1.696820
     15          1           0       -1.447456    1.837900    0.793107
 ---------------------------------------------------------------------

 SCF Done:  E(RHF) =  -776.104526132     A.U. after    2 cycles

 The electronic state is 1-A.
 Alpha  occ. eigenvalues --  -75.74146 -21.03573 -15.78356 -15.76289 -13.20581
 Alpha  occ. eigenvalues --  -13.18734 -13.07043 -11.51308 -11.48237 -11.46517
 Alpha  occ. eigenvalues --  -11.41180 -11.39339  -8.08771  -1.71123  -1.52256
 Alpha  occ. eigenvalues --   -1.37360  -1.20688  -1.10893  -1.06789  -0.86533
 Alpha  occ. eigenvalues --   -0.83199  -0.78168  -0.71933  -0.64732  -0.62374
 Alpha  occ. eigenvalues --   -0.60638  -0.56651  -0.55980  -0.54454  -0.48794
 Alpha  occ. eigenvalues --   -0.48148  -0.44344  -0.38345  -0.36677  -0.32786
 Alpha  occ. eigenvalues --   -0.30521  -0.28844
 Alpha virt. eigenvalues --    0.02634   0.04125   0.05027   0.05742   0.06679
 Alpha virt. eigenvalues --    0.07169   0.07887   0.09366   0.09997   0.10339
 Alpha virt. eigenvalues --    0.10994   0.11471   0.12506   0.12860   0.13239

 Mulliken charges:
               1
     1  C    4.351900
     2  N   -2.794192
     3  H    0.511322
     4  N   -3.037636
     5  C    0.640335
     6  H    1.570659
     7  C   -2.522316
     8  H    1.223590
     9  S    1.644721
    10  C    2.391576
    11  O   -3.219515
    12  C   -4.539673
    13  H    1.358898
    14  H    1.084350
    15  H    1.335980
 Sum of Mulliken charges =   0.00000

 Dipole moment (field-independent basis, Debye):
    X=              3.1550    Y=             -2.3498    Z=              1.6558  Tot=              4.2682

 Test job not archived.
 1\1\GINC-SE336\SP\RHF\Aug-CC-pVDZ\C5H6N2O1S1\OHZDE\09-Apr-2025\0\\#t h
 f aug-cc-pvdz iop(5/13=1,5/36=2,99/5=2) pseudo=read geom=check guess=(
 read,tcheck) scf=(maxcycle=1)\\title\\0,1\C,0,28.4559,-16.8332,-1.1058
 \N,0,29.3139,-16.8435,-0.0088\H,0,28.908,-16.5155,0.8595\N,0,30.7473,-
 18.7772,0.0042\C,0,32.0836,-19.0649,-0.0067\H,0,32.4071,-20.0992,-0.00
 83\C,0,32.9341,-17.9758,0.0003\H,0,34.0159,-17.9712,0.0162\S,0,32.0222
 ,-16.5312,0.0001\C,0,30.5631,-17.4704,0.0109\O,0,27.3354,-16.3639,-1.0
 083\C,0,29.0226,-17.4278,-2.3747\H,0,30.0035,-17.0033,-2.6065\H,0,28.3

 Normal termination of Gaussian 16 at Wed Apr  9 02:28:15 2025.
