 Gaussian 16, Revision C.01,

 ----------------------------------------------------------------------
 #t hf aug-cc-pvdz symm=none int=(grid=ultrafine) guess=(read,tcheck) s
 table=(opt,rrhf)
 ----------------------------------------------------------------------
 -----
 title
 -----
 Symbolic Z-matrix:
 Charge =  0 Multiplicity = 1

 SCF Done:  E(RHF) =  -256.181118467     A.U. after   12 cycles
 Normal termination of Gaussian 16 at Wed Apr  9 02:31:23 2025.
 Gaussian 16:  ES64L-G16RevC.01  3-Jul-2019

 ----------------------------------------------------------------------
 #t hf aug-cc-pvdz iop(5/13=1,5/36=2,99/5=2) pseudo=read geom=check gue
 ss=(read,tcheck) scf=(maxcycle=1)
 ----------------------------------------------------------------------
 -----
 title
 -----
 Structure from the checkpoint file:  "DCONF_8_0_mol2.chk"
 Charge =  0 Multiplicity = 1

                         Standard orientation:
 ---------------------------------------------------------------------
 Center     Atomic      Atomic             Coordinates (Angstroms)
 Number     Number       Type             X           Y           Z
 ---------------------------------------------------------------------
      1          6           0        0.025234    0.706270   -0.210257
      2          1           0       -0.009761    0.722177   -1.306231
      3          1           0       -0.289500    1.699841    0.136846
      4          6           0       -0.931936   -0.358964    0.323619
      5          1           0       -0.597196   -1.343202   -0.018188
      6          1           0       -0.879656   -0.368785    1.419751
      7          6           0       -2.373807   -0.115422   -0.121930
      8          1           0       -2.447192   -0.121173   -1.214241
      9          1           0       -3.045412   -0.887012    0.265026
     10          1           0       -2.733580    0.855591    0.234080
     11          6           0        1.458126    0.497473    0.231485
     12          1           0        2.124254    1.262077   -0.177615
     13          1           0        1.538760    0.490052    1.323255
     14          9           0        1.919286   -0.742857   -0.222242
 ---------------------------------------------------------------------

 SCF Done:  E(RHF) =  -257.339752079     A.U. after    2 cycles

 The electronic state is 1-A.
 Alpha  occ. eigenvalues --  -29.23943 -11.45287 -11.41059 -11.38139 -11.34895
 Alpha  occ. eigenvalues --   -1.27155  -1.11881  -0.95493  -0.84459  -0.69473
 Alpha  occ. eigenvalues --   -0.64862  -0.61170  -0.60094  -0.54515  -0.51933
 Alpha  occ. eigenvalues --   -0.47145  -0.46523  -0.44412  -0.35159  -0.24098
 Alpha  occ. eigenvalues --   -0.23815
 Alpha virt. eigenvalues --    0.04223   0.05055   0.05602   0.05854   0.06095
 Alpha virt. eigenvalues --    0.06395   0.06848   0.08028   0.09184   0.10737
 Alpha virt. eigenvalues --    0.13010   0.14013   0.14296   0.15395   0.16358

 Mulliken charges:
               1
     1  C   -3.111510
     2  H    1.432638
     3  H    1.432584
     4  C   -2.808689
     5  H    1.470665
     6  H    1.412650
     7  C   -3.914609
     8  H    1.304971
     9  H    1.104532
    10  H    1.260227
    11  C   -2.476208
    12  H    1.289785
    13  H    1.437548
    14  F    0.165416
 Sum of Mulliken charges =   0.00000

 Dipole moment (field-independent basis, Debye):
    X=              0.2721    Y=             -0.8598    Z=             -0.2463  Tot=              0.9348

 Test job not archived.
 1\1\GINC-SE423\SP\RHF\Aug-CC-pVDZ\C4H9F1\OHZDE\09-Apr-2025\0\\#t hf au
 g-cc-pvdz iop(5/13=1,5/36=2,99/5=2) pseudo=read geom=check guess=(read
 ,tcheck) scf=(maxcycle=1)\\title\\0,1\C,0,0.0289,-0.0333,-0.006\H,0,0.
 0458,-0.6807,0.879\H,0,0.0325,-0.6904,-0.8863\C,0,-1.2384,0.821,0.0007
 \H,0,-1.2203,1.4796,0.8745\H,0,-1.237,1.4687,-0.8852\C,0,-2.5084,-0.02
 97,0.0158\H,0,-2.5349,-0.6692,0.904\H,0,-3.4058,0.5954,0.0237\H,0,-2.5
 55,-0.6771,-0.8661\C,0,1.3016,0.7859,-0.0385\H,0,2.1925,0.152,-0.0252\
 H,0,1.3308,1.4373,-0.9179\F,0,1.3626,1.6139,1.0874\\Version=ES64L-G16R

 Normal termination of Gaussian 16 at Wed Apr  9 02:31:26 2025.
