 Gaussian 16, Revision C.01,

 ----------------------------------------------------------------------
 #t hf aug-cc-pvdz symm=none int=(grid=ultrafine) guess=(read,tcheck) s
 table=(opt,rrhf)
 ----------------------------------------------------------------------
 -----
 title
 -----
 Symbolic Z-matrix:
 Charge =  0 Multiplicity = 1

 SCF Done:  E(RHF) =  -355.060293242     A.U. after   12 cycles
 Normal termination of Gaussian 16 at Wed Apr  9 02:32:27 2025.
 Gaussian 16:  ES64L-G16RevC.01  3-Jul-2019

 ----------------------------------------------------------------------
 #t hf aug-cc-pvdz iop(5/13=1,5/36=2,99/5=2) pseudo=read geom=check gue
 ss=(read,tcheck) scf=(maxcycle=1)
 ----------------------------------------------------------------------
 -----
 title
 -----
 Structure from the checkpoint file:  "DCONF_9_0_mol2.chk"
 Charge =  0 Multiplicity = 1

                         Standard orientation:
 ---------------------------------------------------------------------
 Center     Atomic      Atomic             Coordinates (Angstroms)
 Number     Number       Type             X           Y           Z
 ---------------------------------------------------------------------
      1          6           0       -0.241677   -0.524940   -0.127977
      2          1           0       -0.202044   -0.634394   -1.217396
      3          1           0       -0.372727   -1.523798    0.303235
      4          6           0       -1.397859    0.387379    0.282380
      5          1           0       -1.252703    1.375467   -0.164908
      6          1           0       -1.383361    0.523594    1.370893
      7          6           0       -2.749443   -0.184979   -0.145046
      8          1           0       -2.788532   -0.313320   -1.231164
      9          1           0       -3.568860    0.477571    0.146968
     10          1           0       -2.922739   -1.162286    0.316641
     11          6           0        1.097094   -0.006916    0.325015
     12          1           0        1.182509    0.125268    1.406692
     13          9           0        1.357349    1.205603   -0.258108
     14          9           0        2.093737   -0.860200   -0.068247
 ---------------------------------------------------------------------

 SCF Done:  E(RHF) =  -356.534828261     A.U. after    2 cycles

 The electronic state is 1-A.
 Alpha  occ. eigenvalues --  -29.27095 -29.27028 -11.52603 -11.42549 -11.39449
 Alpha  occ. eigenvalues --  -11.36191  -1.33962  -1.17231  -0.99470  -0.86920
 Alpha  occ. eigenvalues --   -0.78320  -0.74344  -0.65235  -0.63487  -0.56743
 Alpha  occ. eigenvalues --   -0.54080  -0.49500  -0.48152  -0.47404  -0.42411
 Alpha  occ. eigenvalues --   -0.37055  -0.30014  -0.28212  -0.25361  -0.20766
 Alpha virt. eigenvalues --    0.03863   0.05134   0.05566   0.05881   0.06248
 Alpha virt. eigenvalues --    0.06445   0.07598   0.08668   0.10267   0.12474
 Alpha virt. eigenvalues --    0.13389   0.14070   0.14492   0.16095   0.16354

 Mulliken charges:
               1
     1  C   -3.998424
     2  H    1.400213
     3  H    1.444682
     4  C   -2.760190
     5  H    1.466409
     6  H    1.392335
     7  C   -3.832056
     8  H    1.299043
     9  H    1.107006
    10  H    1.250831
    11  C   -0.743149
    12  H    1.504916
    13  F    0.201818
    14  F    0.266567
 Sum of Mulliken charges =  -0.00000

 Dipole moment (field-independent basis, Debye):
    X=              0.6027    Y=              0.4152    Z=             -0.6887  Tot=              1.0049

 Test job not archived.
 1\1\GINC-SE188\SP\RHF\Aug-CC-pVDZ\C4H8F2\OHZDE\09-Apr-2025\0\\#t hf au
 g-cc-pvdz iop(5/13=1,5/36=2,99/5=2) pseudo=read geom=check guess=(read
 ,tcheck) scf=(maxcycle=1)\\title\\0,1\C,0,-0.1296,-0.0844,-0.084\H,0,-
 0.218,0.4126,-1.0564\H,0,-0.2283,0.6822,0.6928\C,0,1.2179,-0.7961,0.03
 93\H,0,1.3,-1.5502,-0.7494\H,0,1.26,-1.3291,0.9973\C,0,2.3866,0.185,-0
 .0537\H,0,2.3703,0.7156,-1.0107\H,0,3.3454,-0.3342,0.0289\H,0,2.3347,0
 .9304,0.7463\C,0,-1.2981,-1.0233,0.0536\H,0,-1.326,-1.5662,1.0019\F,0,
 -1.2779,-1.9545,-0.9516\F,0,-2.4763,-0.3349,-0.0647\\Version=ES64L-G16

 Normal termination of Gaussian 16 at Wed Apr  9 02:32:31 2025.
