 Gaussian 16, Revision C.01,

 ----------------------------------------------------------------------
 #t hf aug-cc-pvdz symm=none int=(grid=ultrafine) guess=(read,tcheck) s
 table=(opt,rrhf)
 ----------------------------------------------------------------------
 -----
 title
 -----
 Symbolic Z-matrix:
 Charge =  0 Multiplicity = 1

 SCF Done:  E(RHF) =  -703.111121126     A.U. after   16 cycles
 Normal termination of Gaussian 16 at Wed Apr  9 02:24:17 2025.
 Gaussian 16:  ES64L-G16RevC.01  3-Jul-2019

 ----------------------------------------------------------------------
 #t hf aug-cc-pvdz iop(5/13=1,5/36=2,99/5=2) pseudo=read geom=check gue
 ss=(read,tcheck) scf=(maxcycle=1)
 ----------------------------------------------------------------------
 -----
 title
 -----
 Structure from the checkpoint file:  "DCONF_24_-120_mol1.chk"
 Charge =  0 Multiplicity = 1

                         Standard orientation:
 ---------------------------------------------------------------------
 Center     Atomic      Atomic             Coordinates (Angstroms)
 Number     Number       Type             X           Y           Z
 ---------------------------------------------------------------------
      1          8           0       -2.288528    1.051600   -0.663665
      2          6           0       -2.242452   -0.904207    0.732414
      3          1           0       -1.905834   -0.767757    1.764951
      4          1           0       -3.329957   -0.841612    0.676349
      5          1           0       -1.907745   -1.896566    0.411940
      6          6           0       -1.623673    0.180667   -0.122175
      7          6           0        0.612866    1.343702    0.263466
      8          1           0        0.153860    2.304421    0.471477
      9          6           0        1.998320    1.062547    0.347877
     10          1           0        2.757672    1.785542    0.624357
     11          6           0        2.285038   -0.256216    0.041700
     12          1           0        3.254725   -0.733617   -0.017616
     13         16           0        0.869250   -1.143164   -0.334163
     14          6           0       -0.133847    0.244742   -0.142537
 ---------------------------------------------------------------------

 SCF Done:  E(RHF) =  -704.744456234     A.U. after    2 cycles

 The electronic state is 1-A.
 Alpha  occ. eigenvalues --  -75.72844 -21.05592 -13.19347 -13.17410 -13.05421
 Alpha  occ. eigenvalues --  -11.50997 -11.49051 -11.44974 -11.42894 -11.39779
 Alpha  occ. eigenvalues --  -11.38768  -8.07437  -1.70637  -1.38347  -1.13894
 Alpha  occ. eigenvalues --   -1.09725  -1.05185  -0.87762  -0.79957  -0.73649
 Alpha  occ. eigenvalues --   -0.67982  -0.60420  -0.60263  -0.56805  -0.53694
 Alpha  occ. eigenvalues --   -0.51461  -0.50230  -0.46314  -0.42680  -0.39021
 Alpha  occ. eigenvalues --   -0.32387  -0.28593  -0.28261
 Alpha virt. eigenvalues --    0.02896   0.04041   0.05153   0.05796   0.06453
 Alpha virt. eigenvalues --    0.06757   0.09119   0.09214   0.09942   0.10432
 Alpha virt. eigenvalues --    0.12179   0.12347   0.13022   0.13515   0.13917

 Mulliken charges:
               1
     1  O   -3.235380
     2  C   -4.265540
     3  H    1.331626
     4  H    1.241052
     5  H    1.366795
     6  C    2.966055
     7  C   -2.207668
     8  H    1.574008
     9  C   -0.569568
    10  H    1.431579
    11  C   -3.747326
    12  H    1.284723
    13  S    1.726183
    14  C    1.103462
 Sum of Mulliken charges =  -0.00000

 Dipole moment (field-independent basis, Debye):
    X=              0.9522    Y=             -2.5926    Z=              0.4204  Tot=              2.7938

 Test job not archived.
 1\1\GINC-SE080\SP\RHF\Aug-CC-pVDZ\C6H6O1S1\OHZDE\09-Apr-2025\0\\#t hf
 aug-cc-pvdz iop(5/13=1,5/36=2,99/5=2) pseudo=read geom=check guess=(re
 ad,tcheck) scf=(maxcycle=1)\\title\\0,1\O,0,21.0544,-5.7736,0.6133\C,0
 ,21.5648,-4.2859,-1.204\H,0,21.8884,-4.7447,-2.1436\H,0,20.4892,-4.105
 5,-1.2204\H,0,22.102,-3.3365,-1.1062\C,0,21.908,-5.2245,-0.0676\C,0,23
 .842,-6.8847,0.0152\H,0,23.1878,-7.7501,0.0088\C,0,25.257,-6.9274,-0.0
 249\H,0,25.8449,-7.8379,-0.0587\C,0,25.8197,-5.6631,-0.0232\H,0,26.869
 ,-5.3979,-0.0042\S,0,24.6254,-4.4365,0.0156\C,0,23.3461,-5.5888,0.0849

 Normal termination of Gaussian 16 at Wed Apr  9 02:24:22 2025.
