 Gaussian 16, Revision C.01,

 ----------------------------------------------------------------------
 #t hf aug-cc-pvdz symm=none int=(grid=ultrafine) guess=(read,tcheck) s
 table=(opt,rrhf)
 ----------------------------------------------------------------------
 -----
 title
 -----
 Symbolic Z-matrix:
 Charge =  0 Multiplicity = 1

 SCF Done:  E(RHF) =  -719.119352136     A.U. after   16 cycles
 Normal termination of Gaussian 16 at Wed Apr  9 02:25:45 2025.
 Gaussian 16:  ES64L-G16RevC.01  3-Jul-2019

 ----------------------------------------------------------------------
 #t hf aug-cc-pvdz iop(5/13=1,5/36=2,99/5=2) pseudo=read geom=check gue
 ss=(read,tcheck) scf=(maxcycle=1)
 ----------------------------------------------------------------------
 -----
 title
 -----
 Structure from the checkpoint file:  "DCONF_28_-30_mol1.chk"
 Charge =  0 Multiplicity = 1

                         Standard orientation:
 ---------------------------------------------------------------------
 Center     Atomic      Atomic             Coordinates (Angstroms)
 Number     Number       Type             X           Y           Z
 ---------------------------------------------------------------------
      1          8           0       -1.963114   -1.280345   -0.372174
      2          6           0       -2.506302    0.976273    0.286032
      3          1           0       -2.216653    1.893916   -0.230880
      4          1           0       -3.534076    0.697787    0.050555
      5          1           0       -2.408163    1.164131    1.360586
      6          6           0       -1.580896   -0.154389   -0.082842
      7          7           0        0.400225    1.346049   -0.178373
      8          6           0        1.759607    1.271112   -0.162538
      9          1           0        2.350607    2.169965   -0.296533
     10          6           0        2.282795    0.002310    0.027030
     11          1           0        3.323321   -0.287168    0.095595
     12         16           0        1.025081   -1.139437    0.173564
     13          6           0       -0.124037    0.140157    0.010592
 ---------------------------------------------------------------------

 SCF Done:  E(RHF) =  -720.799386466     A.U. after    2 cycles

 The electronic state is 1-A.
 Alpha  occ. eigenvalues --  -75.74065 -21.06579 -15.76887 -13.20285 -13.18474
 Alpha  occ. eigenvalues --  -13.05888 -11.52091 -11.46606 -11.44986 -11.41129
 Alpha  occ. eigenvalues --  -11.39204  -8.08661  -1.71786  -1.49056  -1.20356
 Alpha  occ. eigenvalues --   -1.15117  -1.07142  -0.90218  -0.82266  -0.72903
 Alpha  occ. eigenvalues --   -0.68979  -0.61093  -0.60852  -0.58998  -0.55987
 Alpha  occ. eigenvalues --   -0.50750  -0.49155  -0.44778  -0.43435  -0.37966
 Alpha  occ. eigenvalues --   -0.34810  -0.30828  -0.28927
 Alpha virt. eigenvalues --    0.02764   0.04497   0.05140   0.06417   0.06983
 Alpha virt. eigenvalues --    0.07885   0.08577   0.09325   0.10326   0.11468
 Alpha virt. eigenvalues --    0.11667   0.12149   0.13131   0.13509   0.13800

 Mulliken charges:
               1
     1  O   -3.211956
     2  C   -4.392715
     3  H    1.355776
     4  H    1.252483
     5  H    1.289758
     6  C    4.067553
     7  N   -3.538908
     8  C    0.603135
     9  H    1.537919
    10  C   -2.595211
    11  H    1.219179
    12  S    1.629723
    13  C    0.783265
 Sum of Mulliken charges =   0.00000

 Dipole moment (field-independent basis, Debye):
    X=              1.4391    Y=             -2.2609    Z=              0.6646  Tot=              2.7612

 Test job not archived.
 1\1\GINC-SE208\SP\RHF\Aug-CC-pVDZ\C5H5N1O1S1\OHZDE\09-Apr-2025\0\\#t h
 f aug-cc-pvdz iop(5/13=1,5/36=2,99/5=2) pseudo=read geom=check guess=(
 read,tcheck) scf=(maxcycle=1)\\title\\0,1\O,0,21.7614,-16.6433,0.4703\
 C,0,21.0972,-18.7505,-0.4988\H,0,21.3087,-19.7461,-0.1023\H,0,20.0819,
 -18.4357,-0.2551\H,0,21.2207,-18.801,-1.5859\C,0,22.0801,-17.7447,0.04
 26\N,0,23.9557,-19.377,-0.0122\C,0,25.3168,-19.3941,0.0178\H,0,25.8435
 ,-20.3412,0.0454\C,0,25.9271,-18.1503,0.014\H,0,26.9859,-17.9264,0.012
 2\S,0,24.7516,-16.9156,-0.0109\C,0,23.5173,-18.1236,-0.0513\\Version=E

 Normal termination of Gaussian 16 at Wed Apr  9 02:25:50 2025.
