 Gaussian 16, Revision C.01,

 ----------------------------------------------------------------------
 #t hf aug-cc-pvdz symm=none int=(grid=ultrafine) guess=(read,tcheck) s
 table=(opt,rrhf)
 ----------------------------------------------------------------------
 -----
 title
 -----
 Symbolic Z-matrix:
 Charge =  0 Multiplicity = 1

 SCF Done:  E(RHF) =  -217.136757683     A.U. after   12 cycles
 Normal termination of Gaussian 16 at Wed Apr  9 02:30:10 2025.
 Gaussian 16:  ES64L-G16RevC.01  3-Jul-2019

 ----------------------------------------------------------------------
 #t hf aug-cc-pvdz iop(5/13=1,5/36=2,99/5=2) pseudo=read geom=check gue
 ss=(read,tcheck) scf=(maxcycle=1)
 ----------------------------------------------------------------------
 -----
 title
 -----
 Structure from the checkpoint file:  "DCONF_7_-110_mol1.chk"
 Charge =  0 Multiplicity = 1

                         Standard orientation:
 ---------------------------------------------------------------------
 Center     Atomic      Atomic             Coordinates (Angstroms)
 Number     Number       Type             X           Y           Z
 ---------------------------------------------------------------------
      1          9           0       -1.680012   -0.390652   -0.255067
      2          6           0       -0.700084    0.275692    0.490474
      3          1           0       -0.487523   -0.343919    1.366983
      4          1           0       -1.147943    1.217033    0.818373
      5          6           0        0.549906    0.500839   -0.361439
      6          1           0        0.829589    1.558930   -0.323466
      7          1           0        0.280859    0.283648   -1.399256
      8          6           0        1.737659   -0.355644    0.079482
      9          1           0        2.031179   -0.114402    1.105692
     10          1           0        1.483626   -1.419433    0.041348
     11          1           0        2.605439   -0.191311   -0.565176
 ---------------------------------------------------------------------

 SCF Done:  E(RHF) =  -218.091648772     A.U. after    2 cycles

 The electronic state is 1-A.
 Alpha  occ. eigenvalues --  -29.23924 -11.45448 -11.39888 -11.35919  -1.24966
 Alpha  occ. eigenvalues --   -1.05573  -0.87597  -0.69141  -0.65732  -0.59147
 Alpha  occ. eigenvalues --   -0.57921  -0.50510  -0.48210  -0.47557  -0.35510
 Alpha  occ. eigenvalues --   -0.23994  -0.23462
 Alpha virt. eigenvalues --    0.03968   0.05454   0.05703   0.06456   0.06633
 Alpha virt. eigenvalues --    0.06869   0.06937   0.11837   0.12483   0.14206
 Alpha virt. eigenvalues --    0.14669   0.15633   0.15949   0.17449   0.18102

 Mulliken charges:
               1
     1  F    0.224008
     2  C   -2.727464
     3  H    1.532752
     4  H    1.407005
     5  C   -2.998921
     6  H    1.249650
     7  H    1.400066
     8  C   -3.757837
     9  H    1.253738
    10  H    1.254368
    11  H    1.162635
 Sum of Mulliken charges =  -0.00000

 Dipole moment (field-independent basis, Debye):
    X=             -0.4263    Y=             -0.3289    Z=             -0.4531  Tot=              0.7037

 Test job not archived.
 1\1\GINC-SE334\SP\RHF\Aug-CC-pVDZ\C3H7F1\OHZDE\09-Apr-2025\0\\#t hf au
 g-cc-pvdz iop(5/13=1,5/36=2,99/5=2) pseudo=read geom=check guess=(read
 ,tcheck) scf=(maxcycle=1)\\title\\0,1\F,0,13.2533,-26.4754,0.005\C,0,1
 4.4019,-25.6749,0.0001\H,0,14.3527,-25.0381,0.8886\H,0,14.3381,-25.048
 1,-0.8928\C,0,15.656,-26.5502,-0.0015\H,0,16.3139,-26.2407,-0.8204\H,0
 ,15.3392,-27.5737,-0.2222\C,0,16.4263,-26.4957,1.3185\H,0,16.775,-25.4
 789,1.5234\H,0,15.79,-26.8096,2.1517\H,0,17.3007,-27.1518,1.2942\\Vers
 ion=ES64L-G16RevC.01\State=1-A\HF=-218.0916488\RMSD=2.615e-01\Dipole=-

 Normal termination of Gaussian 16 at Wed Apr  9 02:30:12 2025.
