 Gaussian 16, Revision C.01,

 ----------------------------------------------------------------------
 #t hf aug-cc-pvdz symm=none int=(grid=ultrafine) guess=(read,tcheck) s
 table=(opt,rrhf)
 ----------------------------------------------------------------------
 -----
 title
 -----
 Symbolic Z-matrix:
 Charge =  0 Multiplicity = 1

 SCF Done:  E(RHF) =  -780.899447231     A.U. after   16 cycles

 1\1\GINC-SE340\Stability\RHF\Aug-CC-pVDZ\C10H8S1\OHZDE\09-Apr-2025\0\\
 #t hf aug-cc-pvdz symm=none int=(grid=ultrafine) guess=(read,tcheck) s
 table=(opt,rrhf)\\title\\0,1\C,0,21.7962,-8.5259,0.0116\H,0,22.3493,-7
 .5907,0.0481\C,0,20.3987,-8.5127,-0.0077\H,0,19.8699,-7.563,0.0034\C,0
 ,19.6802,-9.7152,0.0003\H,0,18.5937,-9.7036,-0.0028\C,0,20.3722,-10.93
 26,0.0031\H,0,19.8237,-11.8711,0.0051\C,0,21.77,-10.9491,0.0008\H,0,22
 .2995,-11.8986,-0.0321\C,0,22.5005,-9.7455,-0.0079\C,0,24.8221,-8.7991
 ,-0.5545\H,0,24.4609,-7.9515,-1.1277\C,0,26.1912,-9.0885,-0.329\H,0,27

 Normal termination of Gaussian 16 at Wed Apr  9 02:30:59 2025.
 Gaussian 16:  ES64L-G16RevC.01  3-Jul-2019

 ----------------------------------------------------------------------
 #t hf aug-cc-pvdz iop(5/13=1,5/36=2,99/5=2) pseudo=read geom=check gue
 ss=(read,tcheck) scf=(maxcycle=1)
 ----------------------------------------------------------------------
 -----
 title
 -----
 Structure from the checkpoint file:  "DCONF_51_0_mol2.chk"
 Charge =  0 Multiplicity = 1

                         Standard orientation:
 ---------------------------------------------------------------------
 Center     Atomic      Atomic             Coordinates (Angstroms)
 Number     Number       Type             X           Y           Z
 ---------------------------------------------------------------------
      1          6           0        1.458252    1.224198   -0.303539
      2          1           0        0.958986    2.150484   -0.576632
      3          6           0        2.853778    1.148783   -0.322862
      4          1           0        3.435565    2.023592   -0.601997
      5          6           0        3.500754   -0.057402   -0.024784
      6          1           0        4.585301   -0.117926   -0.051629
      7          6           0        2.740157   -1.182401    0.316985
      8          1           0        3.233043   -2.121827    0.554010
      9          6           0        1.345040   -1.104374    0.358000
     10          1           0        0.763472   -1.973126    0.658088
     11          6           0        0.686187    0.103856    0.060595
     12          6           0       -1.552207    1.314540    0.389393
     13          1           0       -1.119187    2.258308    0.704424
     14          6           0       -2.943913    1.067486    0.283773
     15          1           0       -3.716187    1.800359    0.490275
     16          6           0       -3.218315   -0.234223   -0.096243
     17          1           0       -4.184374   -0.697278   -0.251356
     18         16           0       -1.782260   -1.137987   -0.339196
     19          6           0       -0.776475    0.200405    0.089008
 ---------------------------------------------------------------------

 SCF Done:  E(RHF) =  -782.964489794     A.U. after    2 cycles

 The electronic state is 1-A.
 Alpha  occ. eigenvalues --  -75.71275 -13.18676 -13.16040 -13.03858 -11.52246
 Alpha  occ. eigenvalues --  -11.48123 -11.44907 -11.43784 -11.43383 -11.42095
 Alpha  occ. eigenvalues --  -11.41445 -11.40962 -11.38722 -11.36854  -8.05860
 Alpha  occ. eigenvalues --   -1.40129  -1.31245  -1.12773  -1.09624  -1.07982
 Alpha  occ. eigenvalues --   -1.01889  -0.87871  -0.86656  -0.78932  -0.76341
 Alpha  occ. eigenvalues --   -0.72025  -0.68464  -0.63128  -0.58561  -0.57569
 Alpha  occ. eigenvalues --   -0.55460  -0.53191  -0.50944  -0.48989  -0.46953
 Alpha  occ. eigenvalues --   -0.44509  -0.43541  -0.38373  -0.35998  -0.33180
 Alpha  occ. eigenvalues --   -0.28321  -0.26582
 Alpha virt. eigenvalues --    0.03176   0.04352   0.04977   0.05472   0.05886
 Alpha virt. eigenvalues --    0.06373   0.06775   0.07282   0.08727   0.09199
 Alpha virt. eigenvalues --    0.10060   0.10776   0.11486   0.12701   0.12979

 Mulliken charges:
               1
     1  C   -2.490264
     2  H    1.852405
     3  C   -2.522983
     4  H    1.493767
     5  C   -2.837511
     6  H    1.537006
     7  C   -2.321704
     8  H    1.494500
     9  C   -2.769562
    10  H    1.885331
    11  C    5.965655
    12  C   -3.986159
    13  H    1.541693
    14  C   -1.528705
    15  H    1.441969
    16  C   -4.235803
    17  H    1.250297
    18  S    1.413389
    19  C    2.816681
 Sum of Mulliken charges =  -0.00000

 Dipole moment (field-independent basis, Debye):
    X=              0.3649    Y=             -1.7027    Z=             -0.5749  Tot=              1.8338

 Test job not archived.
 1\1\GINC-SE340\SP\RHF\Aug-CC-pVDZ\C10H8S1\OHZDE\09-Apr-2025\0\\#t hf a
 ug-cc-pvdz iop(5/13=1,5/36=2,99/5=2) pseudo=read geom=check guess=(rea
 d,tcheck) scf=(maxcycle=1)\\title\\0,1\C,0,21.7962,-8.5259,0.0116\H,0,
 22.3493,-7.5907,0.0481\C,0,20.3987,-8.5127,-0.0077\H,0,19.8699,-7.563,
 0.0034\C,0,19.6802,-9.7152,0.0003\H,0,18.5937,-9.7036,-0.0028\C,0,20.3
 722,-10.9326,0.0031\H,0,19.8237,-11.8711,0.0051\C,0,21.77,-10.9491,0.0
 008\H,0,22.2995,-11.8986,-0.0321\C,0,22.5005,-9.7455,-0.0079\C,0,24.82
 21,-8.7991,-0.5545\H,0,24.4609,-7.9515,-1.1277\C,0,26.1912,-9.0885,-0.

 Normal termination of Gaussian 16 at Wed Apr  9 02:31:10 2025.
