 Gaussian 16, Revision C.01,

 ----------------------------------------------------------------------
 #t hf aug-cc-pvdz symm=none int=(grid=ultrafine) guess=(read,tcheck) s
 table=(opt,rrhf)
 ----------------------------------------------------------------------
 -----
 title
 -----
 Symbolic Z-matrix:
 Charge =  0 Multiplicity = 1

 SCF Done:  E(RHF) =  -796.895589883     A.U. after   16 cycles
 Normal termination of Gaussian 16 at Wed Apr  9 02:30:59 2025.
 Gaussian 16:  ES64L-G16RevC.01  3-Jul-2019

 ----------------------------------------------------------------------
 #t hf aug-cc-pvdz iop(5/13=1,5/36=2,99/5=2) pseudo=read geom=check gue
 ss=(read,tcheck) scf=(maxcycle=1)
 ----------------------------------------------------------------------
 -----
 title
 -----
 Structure from the checkpoint file:  "DCONF_52_-130_mol1.chk"
 Charge =  0 Multiplicity = 1

                         Standard orientation:
 ---------------------------------------------------------------------
 Center     Atomic      Atomic             Coordinates (Angstroms)
 Number     Number       Type             X           Y           Z
 ---------------------------------------------------------------------
      1          6           0       -1.495335    1.164743   -0.481576
      2          1           0       -1.015872    2.050905   -0.887771
      3          6           0       -2.885302    1.053579   -0.423637
      4          1           0       -3.519921    1.862895   -0.774571
      5          6           0       -3.439999   -0.129111    0.075003
      6          1           0       -4.515218   -0.268181    0.135113
      7          6           0       -2.574231   -1.144424    0.495893
      8          1           0       -2.970571   -2.081238    0.883073
      9          7           0       -1.234513   -1.046901    0.470852
     10          6           0       -0.706416    0.098637   -0.013474
     11          6           0        1.509431    1.280199    0.494306
     12          1           0        1.056779    2.187035    0.882868
     13          6           0        2.903179    1.028223    0.446991
     14          1           0        3.666749    1.722521    0.780145
     15          6           0        3.188059   -0.230635   -0.054444
     16          1           0        4.160052   -0.681463   -0.209632
     17         16           0        1.765366   -1.094631   -0.459743
     18          6           0        0.756239    0.220446    0.002722
 ---------------------------------------------------------------------

 SCF Done:  E(RHF) =  -799.005713281     A.U. after    2 cycles

 The electronic state is 1-A.
 Alpha  occ. eigenvalues --  -75.71064 -15.74134 -13.18126 -13.15548 -13.03632
 Alpha  occ. eigenvalues --  -11.51400 -11.48242 -11.46735 -11.44644 -11.43727
 Alpha  occ. eigenvalues --  -11.41807 -11.41732 -11.38925 -11.37678  -8.05640
 Alpha  occ. eigenvalues --   -1.46393  -1.35478  -1.19090  -1.14177  -1.08293
 Alpha  occ. eigenvalues --   -1.03080  -0.89963  -0.89418  -0.79328  -0.77312
 Alpha  occ. eigenvalues --   -0.72161  -0.68310  -0.63396  -0.61114  -0.57030
 Alpha  occ. eigenvalues --   -0.55774  -0.54916  -0.51451  -0.49670  -0.47376
 Alpha  occ. eigenvalues --   -0.44658  -0.39122  -0.37426  -0.36291  -0.34979
 Alpha  occ. eigenvalues --   -0.29408  -0.26525
 Alpha virt. eigenvalues --    0.03026   0.04472   0.05024   0.05340   0.05781
 Alpha virt. eigenvalues --    0.06166   0.06763   0.08870   0.09391   0.09813
 Alpha virt. eigenvalues --    0.10132   0.10492   0.12002   0.12466   0.12839

 Mulliken charges:
               1
     1  C   -2.669716
     2  H    1.785441
     3  C   -0.075419
     4  H    1.552357
     5  C   -1.481501
     6  H    1.479152
     7  C   -0.840352
     8  H    1.663532
     9  N   -3.731653
    10  C    2.772908
    11  C   -3.319446
    12  H    1.643585
    13  C   -1.127659
    14  H    1.436515
    15  C   -3.769961
    16  H    1.298921
    17  S    1.185491
    18  C    2.197805
 Sum of Mulliken charges =  -0.00000

 Dipole moment (field-independent basis, Debye):
    X=             -1.3761    Y=             -0.7859    Z=             -1.0157  Tot=              1.8823

 Test job not archived.
 1\1\GINC-SE424\SP\RHF\Aug-CC-pVDZ\C9H7N1S1\OHZDE\09-Apr-2025\0\\#t hf
 aug-cc-pvdz iop(5/13=1,5/36=2,99/5=2) pseudo=read geom=check guess=(re
 ad,tcheck) scf=(maxcycle=1)\\title\\0,1\C,0,30.1878,-8.3592,-0.0211\H,
 0,30.7628,-7.4382,-0.0571\C,0,28.7926,-8.3431,0.0086\H,0,28.2503,-7.40
 14,0.0093\C,0,28.1111,-9.564,0.0154\H,0,27.0262,-9.6061,0.0318\C,0,28.
 8612,-10.7449,-0.0043\H,0,28.3644,-11.7133,-0.0067\N,0,30.2042,-10.781
 2,-0.0083\C,0,30.8552,-9.5972,-0.016\C,0,33.1625,-8.9362,0.8803\H,0,32
 .7913,-8.2109,1.5975\C,0,34.5254,-9.2894,0.719\H,0,35.3446,-8.8601,1.2

 Normal termination of Gaussian 16 at Wed Apr  9 02:31:10 2025.
