 Gaussian 16, Revision C.01,

 ----------------------------------------------------------------------
 #t hf aug-cc-pvdz symm=none int=(grid=ultrafine) guess=(read,tcheck) s
 table=(opt,rrhf)
 ----------------------------------------------------------------------
 -----
 title
 -----
 Symbolic Z-matrix:
 Charge =  0 Multiplicity = 1

 SCF Done:  E(RHF) =  -812.898070409     A.U. after   16 cycles
 Normal termination of Gaussian 16 at Wed Apr  9 02:31:52 2025.
 Gaussian 16:  ES64L-G16RevC.01  3-Jul-2019

 ----------------------------------------------------------------------
 #t hf aug-cc-pvdz iop(5/13=1,5/36=2,99/5=2) pseudo=read geom=check gue
 ss=(read,tcheck) scf=(maxcycle=1)
 ----------------------------------------------------------------------
 -----
 title
 -----
 Structure from the checkpoint file:  "DCONF_56_-120_mol1.chk"
 Charge =  0 Multiplicity = 1

                         Standard orientation:
 ---------------------------------------------------------------------
 Center     Atomic      Atomic             Coordinates (Angstroms)
 Number     Number       Type             X           Y           Z
 ---------------------------------------------------------------------
      1          6           0       -1.469995    1.133524   -0.541572
      2          1           0       -0.979291    2.005890   -0.962445
      3          6           0       -2.860066    1.022853   -0.491249
      4          1           0       -3.493172    1.813264   -0.885206
      5          6           0       -3.417770   -0.128402    0.073826
      6          1           0       -4.493666   -0.261844    0.136683
      7          6           0       -2.557915   -1.114121    0.570292
      8          1           0       -2.958039   -2.018611    1.023905
      9          7           0       -1.216896   -1.021144    0.542974
     10          6           0       -0.693852    0.086858   -0.020137
     11          7           0        1.402485    1.220730    0.609895
     12          6           0        2.754328    1.017163    0.572091
     13          1           0        3.418596    1.752729    1.011496
     14          6           0        3.164765   -0.156421   -0.030991
     15          1           0        4.173948   -0.518866   -0.176068
     16         16           0        1.804438   -1.039978   -0.569645
     17          6           0        0.774086    0.216876    0.017054
 ---------------------------------------------------------------------

 SCF Done:  E(RHF) =  -815.053470300     A.U. after    2 cycles

 The electronic state is 1-A.
 Alpha  occ. eigenvalues --  -75.72358 -15.75000 -15.74576 -13.18655 -13.17015
 Alpha  occ. eigenvalues --  -13.04991 -11.51688 -11.47738 -11.45302 -11.44943
 Alpha  occ. eigenvalues --  -11.44729 -11.42187 -11.39469 -11.38942  -8.06988
 Alpha  occ. eigenvalues --   -1.50231  -1.42819  -1.19799  -1.18364  -1.15552
 Alpha  occ. eigenvalues --   -1.05558  -0.91477  -0.89975  -0.81916  -0.78001
 Alpha  occ. eigenvalues --   -0.71115  -0.68889  -0.64034  -0.61977  -0.57683
 Alpha  occ. eigenvalues --   -0.57138  -0.55318  -0.53059  -0.51280  -0.47081
 Alpha  occ. eigenvalues --   -0.42534  -0.38022  -0.37606  -0.36369  -0.34687
 Alpha  occ. eigenvalues --   -0.32490  -0.28299
 Alpha virt. eigenvalues --    0.03037   0.04172   0.05159   0.05370   0.05784
 Alpha virt. eigenvalues --    0.06876   0.07947   0.09331   0.09543   0.09976
 Alpha virt. eigenvalues --    0.10780   0.11514   0.11791   0.12377   0.12739

 Mulliken charges:
               1
     1  C   -2.038146
     2  H    1.665964
     3  C    0.026131
     4  H    1.553435
     5  C   -1.255965
     6  H    1.487370
     7  C   -1.166918
     8  H    1.642992
     9  N   -3.419172
    10  C    2.254176
    11  N   -3.824814
    12  C    1.041460
    13  H    1.582234
    14  C   -2.937678
    15  H    1.237423
    16  S    1.008579
    17  C    1.142933
 Sum of Mulliken charges =  -0.00000

 Dipole moment (field-independent basis, Debye):
    X=             -0.9727    Y=             -1.8856    Z=             -1.9391  Tot=              2.8744

 Test job not archived.
 1\1\GINC-SE123\SP\RHF\Aug-CC-pVDZ\C8H6N2S1\OHZDE\09-Apr-2025\0\\#t hf
 aug-cc-pvdz iop(5/13=1,5/36=2,99/5=2) pseudo=read geom=check guess=(re
 ad,tcheck) scf=(maxcycle=1)\\title\\0,1\C,0,30.1275,-21.0949,-0.0154\H
 ,0,30.7105,-20.1789,-0.0137\C,0,28.7324,-21.0802,0.0082\H,0,28.1886,-2
 0.1395,0.02\C,0,28.0522,-22.3021,0.0128\H,0,26.9672,-22.3439,0.0312\C,
 0,28.8002,-23.4844,0.0013\H,0,28.3034,-24.4524,0.0128\N,0,30.1442,-23.
 5203,-0.0086\C,0,30.7857,-22.3344,-0.03\N,0,32.9646,-21.8097,0.9968\C,
 0,34.2911,-22.106,0.8453\H,0,35.0116,-21.7114,1.5528\C,0,34.602,-22.92

 Normal termination of Gaussian 16 at Wed Apr  9 02:32:02 2025.
