 Gaussian 16, Revision C.01,

 ----------------------------------------------------------------------
 #t hf aug-cc-pvdz symm=none int=(grid=ultrafine) guess=(read,tcheck) s
 table=(opt,rrhf)
 ----------------------------------------------------------------------
 -----
 title
 -----
 Symbolic Z-matrix:
 Charge =  0 Multiplicity = 1

 SCF Done:  E(RHF) =  -812.905918479     A.U. after   16 cycles
 Normal termination of Gaussian 16 at Wed Apr  9 02:31:51 2025.
 Gaussian 16:  ES64L-G16RevC.01  3-Jul-2019

 ----------------------------------------------------------------------
 #t hf aug-cc-pvdz iop(5/13=1,5/36=2,99/5=2) pseudo=read geom=check gue
 ss=(read,tcheck) scf=(maxcycle=1)
 ----------------------------------------------------------------------
 -----
 title
 -----
 Structure from the checkpoint file:  "DCONF_56_0_mol2.chk"
 Charge =  0 Multiplicity = 1

                         Standard orientation:
 ---------------------------------------------------------------------
 Center     Atomic      Atomic             Coordinates (Angstroms)
 Number     Number       Type             X           Y           Z
 ---------------------------------------------------------------------
      1          6           0       -1.485517    1.288355    0.000515
      2          1           0       -1.007823    2.262877    0.000737
      3          6           0       -2.871500    1.136202    0.000244
      4          1           0       -3.520668    2.007620    0.000175
      5          6           0       -3.409728   -0.156079   -0.000129
      6          1           0       -4.482925   -0.321425   -0.000337
      7          6           0       -2.530173   -1.243885   -0.000125
      8          1           0       -2.911098   -2.263174   -0.000166
      9          7           0       -1.193308   -1.120054   -0.000053
     10          6           0       -0.688816    0.130756    0.000316
     11          7           0        1.438982    1.380317   -0.000699
     12          6           0        2.783461    1.145516   -0.000093
     13          1           0        3.474868    1.980460   -0.000020
     14          6           0        3.152362   -0.186969    0.000624
     15          1           0        4.151219   -0.603326    0.001136
     16         16           0        1.764580   -1.185631    0.000001
     17          6           0        0.773815    0.233643   -0.000731
 ---------------------------------------------------------------------

 SCF Done:  E(RHF) =  -815.063451686     A.U. after    2 cycles

 The electronic state is 1-A.
 Alpha  occ. eigenvalues --  -75.72242 -15.74922 -15.74487 -13.19454 -13.17127
 Alpha  occ. eigenvalues --  -13.03962 -11.52123 -11.48487 -11.45775 -11.45080
 Alpha  occ. eigenvalues --  -11.44773 -11.42217 -11.39517 -11.38925  -8.06818
 Alpha  occ. eigenvalues --   -1.50379  -1.42845  -1.20168  -1.17903  -1.15663
 Alpha  occ. eigenvalues --   -1.05274  -0.91611  -0.90099  -0.81652  -0.77848
 Alpha  occ. eigenvalues --   -0.71239  -0.68690  -0.63990  -0.61454  -0.58056
 Alpha  occ. eigenvalues --   -0.57453  -0.55267  -0.52669  -0.51157  -0.46816
 Alpha  occ. eigenvalues --   -0.42598  -0.39034  -0.38026  -0.36946  -0.34713
 Alpha  occ. eigenvalues --   -0.31718  -0.27627
 Alpha virt. eigenvalues --    0.03068   0.04112   0.05038   0.05351   0.05860
 Alpha virt. eigenvalues --    0.07370   0.08102   0.08389   0.09458   0.09871
 Alpha virt. eigenvalues --    0.10350   0.11755   0.12201   0.12386   0.12887

 Mulliken charges:
               1
     1  C   -1.549607
     2  H    1.746750
     3  C   -0.018491
     4  H    1.536699
     5  C   -1.478299
     6  H    1.503003
     7  C   -0.727073
     8  H    1.699495
     9  N   -3.554509
    10  C    2.058497
    11  N   -4.263546
    12  C    0.603131
    13  H    1.682692
    14  C   -3.142643
    15  H    1.267111
    16  S    1.459965
    17  C    1.176823
 Sum of Mulliken charges =   0.00000

 Dipole moment (field-independent basis, Debye):
    X=             -1.0691    Y=             -2.2394    Z=              0.0014  Tot=              2.4815

 Test job not archived.
 1\1\GINC-SE453\SP\RHF\Aug-CC-pVDZ\C8H6N2S1\OHZDE\09-Apr-2025\0\\#t hf
 aug-cc-pvdz iop(5/13=1,5/36=2,99/5=2) pseudo=read geom=check guess=(re
 ad,tcheck) scf=(maxcycle=1)\\title\\0,1\C,0,30.1268,-21.0878,0.0003\H,
 0,30.7114,-20.1734,0.0004\C,0,28.7325,-21.0826,-0.0001\H,0,28.1858,-20
 .1435,-0.0004\C,0,28.0519,-22.3059,-0.0003\H,0,26.9669,-22.3491,-0.000
 6\C,0,28.8031,-23.486,0.\H,0,28.3096,-24.4558,0.0001\N,0,30.1454,-23.5
 138,0.0002\C,0,30.7878,-22.3279,0.0004\N,0,33.043,-21.3264,-0.0006\C,0
 ,34.3524,-21.7114,0.0002\H,0,35.1336,-20.9598,0.0002\C,0,34.5686,-23.0

 Normal termination of Gaussian 16 at Wed Apr  9 02:32:01 2025.
