 Gaussian 16, Revision C.01,

 ----------------------------------------------------------------------
 #t hf aug-cc-pvdz symm=none int=(grid=ultrafine) guess=(read,tcheck) s
 table=(opt,rrhf)
 ----------------------------------------------------------------------
 -----
 title
 -----
 Symbolic Z-matrix:
 Charge =  0 Multiplicity = 1

 SCF Done:  E(RHF) =  -575.159689459     A.U. after   15 cycles
 Normal termination of Gaussian 16 at Wed Apr  9 02:32:56 2025.
 Gaussian 16:  ES64L-G16RevC.01  3-Jul-2019

 ----------------------------------------------------------------------
 #t hf aug-cc-pvdz iop(5/13=1,5/36=2,99/5=2) pseudo=read geom=check gue
 ss=(read,tcheck) scf=(maxcycle=1)
 ----------------------------------------------------------------------
 -----
 title
 -----
 Structure from the checkpoint file:  "DCONF_48_0_mol2.chk"
 Charge =  0 Multiplicity = 1

                         Standard orientation:
 ---------------------------------------------------------------------
 Center     Atomic      Atomic             Coordinates (Angstroms)
 Number     Number       Type             X           Y           Z
 ---------------------------------------------------------------------
      1          6           0       -1.550353    1.002093    0.481985
      2          1           0       -1.009282    1.864351    0.854070
      3          6           0       -2.946463    0.987286    0.476262
      4          1           0       -3.505327    1.845362    0.839926
      5          6           0       -3.606015   -0.151979    0.008642
      6          1           0       -4.690144   -0.209713   -0.016566
      7          6           0       -2.830846   -1.232184   -0.426637
      8          1           0       -3.305967   -2.141338   -0.790699
      9          7           0       -1.488702   -1.234548   -0.431911
     10          6           0       -0.855122   -0.123100    0.004049
     11          6           0        2.648247   -1.548473    0.283312
     12          1           0        3.107133   -2.515897    0.465836
     13          6           0        1.257046   -1.436782    0.244624
     14          1           0        0.623537   -2.308023    0.380591
     15          6           0        0.625697   -0.198918    0.014475
     16          6           0        1.460757    0.911602   -0.168564
     17          6           0        2.849100    0.827598   -0.134153
     18          1           0        3.434467    1.727422   -0.296283
     19          6           0        3.448535   -0.413164    0.101838
     20          1           0        4.531680   -0.489813    0.133655
     21          9           0        0.914591    2.125068   -0.429127
 ---------------------------------------------------------------------

 SCF Done:  E(RHF) =  -577.737228621     A.U. after    2 cycles

 The electronic state is 1-A.
 Alpha  occ. eigenvalues --  -29.28502 -15.73885 -11.54018 -11.51313 -11.47775
 Alpha  occ. eigenvalues --  -11.46695 -11.44428 -11.44249 -11.42776 -11.41885
 Alpha  occ. eigenvalues --  -11.41572 -11.39060 -11.37882  -1.46333  -1.35459
 Alpha  occ. eigenvalues --   -1.19009  -1.16285  -1.14275  -1.07163  -0.93590
 Alpha  occ. eigenvalues --   -0.91307  -0.87975  -0.85041  -0.76487  -0.71836
 Alpha  occ. eigenvalues --   -0.68354  -0.64063  -0.62675  -0.60908  -0.59036
 Alpha  occ. eigenvalues --   -0.58492  -0.56292  -0.54788  -0.52911  -0.49585
 Alpha  occ. eigenvalues --   -0.47808  -0.45398  -0.41192  -0.38831  -0.37877
 Alpha  occ. eigenvalues --   -0.36183  -0.36059  -0.31034  -0.26901  -0.23128
 Alpha virt. eigenvalues --    0.03340   0.05008   0.05114   0.05451   0.05665
 Alpha virt. eigenvalues --    0.06007   0.07181   0.07622   0.08953   0.09279
 Alpha virt. eigenvalues --    0.10071   0.10544   0.11729   0.11918   0.12409

 Mulliken charges:
               1
     1  C   -2.449293
     2  H    1.753463
     3  C   -1.012810
     4  H    1.528392
     5  C   -1.503237
     6  H    1.470852
     7  C   -0.965025
     8  H    1.708848
     9  N   -4.185691
    10  C    2.816868
    11  C   -2.915787
    12  H    1.441795
    13  C   -1.541426
    14  H    1.718488
    15  C    0.215276
    16  C    4.840494
    17  C   -5.349309
    18  H    1.758583
    19  C   -1.589516
    20  H    1.505026
    21  F    0.754010
 Sum of Mulliken charges =  -0.00000

 Dipole moment (field-independent basis, Debye):
    X=             -1.4308    Y=              2.9865    Z=              0.0990  Tot=              3.3130

 Test job not archived.
 1\1\GINC-SE164\SP\RHF\Aug-CC-pVDZ\C11H8F1N1\OHZDE\09-Apr-2025\0\\#t hf
  aug-cc-pvdz iop(5/13=1,5/36=2,99/5=2) pseudo=read geom=check guess=(r
 ead,tcheck) scf=(maxcycle=1)\\title\\0,1\C,0,21.7266,-34.1688,-0.7039\
 H,0,22.1822,-35.0053,-1.221\C,0,20.341,-33.9973,-0.7125\H,0,19.704,-34
 .7067,-1.2339\C,0,19.7948,-32.894,-0.0522\H,0,18.7232,-32.7194,-0.03\C
 ,0,20.6686,-32.005,0.5829\H,0,20.2839,-31.1287,1.1015\N,0,22.0021,-32.
 1556,0.6048\C,0,22.5245,-33.2345,-0.0196\C,0,26.1697,-32.1881,0.0094\H
 ,0,26.7371,-31.2619,0.0127\C,0,24.7741,-32.1467,0.0101\H,0,24.2442,-31

 Normal termination of Gaussian 16 at Wed Apr  9 02:33:12 2025.
