 Gaussian 16, Revision C.01,

 ----------------------------------------------------------------------
 #t hf aug-cc-pvdz symm=none int=(grid=ultrafine) guess=(read,tcheck) s
 table=(opt,rrhf)
 ----------------------------------------------------------------------
 -----
 title
 -----
 Symbolic Z-matrix:
 Charge =  0 Multiplicity = 1

 SCF Done:  E(RHF) =  -453.940158646     A.U. after   11 cycles
 Normal termination of Gaussian 16 at Wed Apr  9 02:21:56 2025.
 Gaussian 16:  ES64L-G16RevC.01  3-Jul-2019

 ----------------------------------------------------------------------
 #t hf aug-cc-pvdz iop(5/13=1,5/36=2,99/5=2) pseudo=read geom=check gue
 ss=(read,tcheck) scf=(maxcycle=1)
 ----------------------------------------------------------------------
 -----
 title
 -----
 Structure from the checkpoint file:  "DCONF_10_-100_mol1.chk"
 Charge =  0 Multiplicity = 1

                         Standard orientation:
 ---------------------------------------------------------------------
 Center     Atomic      Atomic             Coordinates (Angstroms)
 Number     Number       Type             X           Y           Z
 ---------------------------------------------------------------------
      1          6           0        0.467290   -0.602574   -0.055241
      2          1           0        0.564160   -1.317011    0.766413
      3          1           0        0.552164   -1.162171   -0.991454
      4          6           0        1.570132    0.456180   -0.000510
      5          1           0        1.472704    1.121380   -0.862700
      6          1           0        1.444818    1.074446    0.894862
      7          6           0        2.952540   -0.195417    0.007148
      8          1           0        3.098234   -0.809512   -0.887338
      9          1           0        3.076112   -0.840188    0.882772
     10          1           0        3.741579    0.560775    0.029834
     11          6           0       -0.939740   -0.038245   -0.001107
     12          9           0       -1.007114    1.255169   -0.364599
     13          9           0       -1.773393   -0.715674   -0.820706
     14          9           0       -1.469616   -0.133649    1.237067
 ---------------------------------------------------------------------

 SCF Done:  E(RHF) =  -455.729603388     A.U. after    2 cycles

 The electronic state is 1-A.
 Alpha  occ. eigenvalues --  -29.30015 -29.29702 -29.29559 -11.60186 -11.44055
 Alpha  occ. eigenvalues --  -11.40589 -11.36819  -1.42997  -1.20639  -1.02723
 Alpha  occ. eigenvalues --   -0.90428  -0.87567  -0.84176  -0.70724  -0.65482
 Alpha  occ. eigenvalues --   -0.58163  -0.55864  -0.51171  -0.49406  -0.48839
 Alpha  occ. eigenvalues --   -0.46142  -0.42743  -0.42437  -0.34940  -0.34199
 Alpha  occ. eigenvalues --   -0.29121  -0.24383  -0.24053  -0.20377
 Alpha virt. eigenvalues --    0.03701   0.05592   0.05654   0.06133   0.06174
 Alpha virt. eigenvalues --    0.07385   0.08155   0.10512   0.10780   0.12820
 Alpha virt. eigenvalues --    0.13559   0.14165   0.14549   0.15623   0.16968

 Mulliken charges:
               1
     1  C   -4.026996
     2  H    1.289258
     3  H    1.437016
     4  C   -3.049477
     5  H    1.459978
     6  H    1.511032
     7  C   -3.805567
     8  H    1.239102
     9  H    1.239865
    10  H    1.095022
    11  C    0.548039
    12  F    0.406200
    13  F    0.369483
    14  F    0.287047
 Sum of Mulliken charges =  -0.00000

 Dipole moment (field-independent basis, Debye):
    X=             -0.5993    Y=              0.5927    Z=              0.0223  Tot=              0.8432

 Test job not archived.
 1\1\GINC-SE412\SP\RHF\Aug-CC-pVDZ\C4H7F3\OHZDE\09-Apr-2025\0\\#t hf au
 g-cc-pvdz iop(5/13=1,5/36=2,99/5=2) pseudo=read geom=check guess=(read
 ,tcheck) scf=(maxcycle=1)\\title\\0,1\C,0,-0.1421,0.0053,0.1881\H,0,0.
 1048,-0.6029,1.0622\H,0,0.1606,-0.5557,-0.701\C,0,0.6013,1.342,0.2165\
 H,0,0.3707,1.9008,-0.6945\H,0,0.2456,1.9449,1.0589\C,0,2.1097,1.1254,0
 .3327\H,0,2.4836,0.5325,-0.5082\H,0,2.3585,0.5945,1.2568\H,0,2.643,2.0
 796,0.3367\C,0,-1.6527,0.1348,0.1386\F,0,-2.0682,1.3296,-0.319\F,0,-2.
 2006,-0.8013,-0.6671\F,0,-2.2101,-0.0431,1.3554\\Version=ES64L-G16RevC

 Normal termination of Gaussian 16 at Wed Apr  9 02:22:00 2025.
