 Gaussian 16, Revision C.01,

 ----------------------------------------------------------------------
 #t hf aug-cc-pvdz symm=none int=(grid=ultrafine) guess=(read,tcheck) s
 table=(opt,rrhf)
 ----------------------------------------------------------------------
 -----
 title
 -----
 Symbolic Z-matrix:
 Charge =  0 Multiplicity = 1

 SCF Done:  E(RHF) =  -256.177006853     A.U. after   12 cycles
 Normal termination of Gaussian 16 at Wed Apr  9 02:31:22 2025.
 Gaussian 16:  ES64L-G16RevC.01  3-Jul-2019

 ----------------------------------------------------------------------
 #t hf aug-cc-pvdz iop(5/13=1,5/36=2,99/5=2) pseudo=read geom=check gue
 ss=(read,tcheck) scf=(maxcycle=1)
 ----------------------------------------------------------------------
 -----
 title
 -----
 Structure from the checkpoint file:  "DCONF_8_100_mol1.chk"
 Charge =  0 Multiplicity = 1

                         Standard orientation:
 ---------------------------------------------------------------------
 Center     Atomic      Atomic             Coordinates (Angstroms)
 Number     Number       Type             X           Y           Z
 ---------------------------------------------------------------------
      1          6           0        0.026957    0.406951   -0.433768
      2          1           0       -0.248666    1.396319   -0.820526
      3          1           0        0.103946   -0.259607   -1.299462
      4          6           0       -1.069290   -0.069215    0.520313
      5          1           0       -1.143806    0.637271    1.355960
      6          1           0       -0.777653   -1.036210    0.948312
      7          6           0       -2.427077   -0.197226   -0.168498
      8          1           0       -2.739784    0.763741   -0.590502
      9          1           0       -3.200806   -0.527014    0.530701
     10          1           0       -2.378277   -0.922772   -0.986566
     11          6           0        1.404473    0.491756    0.213920
     12          1           0        1.340226    0.528789    1.305446
     13          1           0        1.967658    1.357832   -0.142932
     14          9           0        2.162976   -0.636883   -0.121359
 ---------------------------------------------------------------------

 SCF Done:  E(RHF) =  -257.335876820     A.U. after    2 cycles

 The electronic state is 1-A.
 Alpha  occ. eigenvalues --  -29.23868 -11.45697 -11.41357 -11.38369 -11.35096
 Alpha  occ. eigenvalues --   -1.26967  -1.12065  -0.95698  -0.84443  -0.69484
 Alpha  occ. eigenvalues --   -0.64681  -0.61774  -0.60120  -0.54040  -0.52037
 Alpha  occ. eigenvalues --   -0.47356  -0.46494  -0.44880  -0.35337  -0.23954
 Alpha  occ. eigenvalues --   -0.23432
 Alpha virt. eigenvalues --    0.04151   0.05121   0.05562   0.06030   0.06235
 Alpha virt. eigenvalues --    0.06397   0.06662   0.08326   0.08503   0.11387
 Alpha virt. eigenvalues --    0.13097   0.13905   0.14201   0.15270   0.16521

 Mulliken charges:
               1
     1  C   -2.874204
     2  H    1.351961
     3  H    1.427093
     4  C   -2.868614
     5  H    1.408062
     6  H    1.461116
     7  C   -4.006428
     8  H    1.271305
     9  H    1.092525
    10  H    1.271349
    11  C   -2.535604
    12  H    1.501442
    13  H    1.335763
    14  F    0.164234
 Sum of Mulliken charges =   0.00000

 Dipole moment (field-independent basis, Debye):
    X=              0.2814    Y=             -0.6533    Z=             -0.1031  Tot=              0.7187

 Test job not archived.
 1\1\GINC-SE403\SP\RHF\Aug-CC-pVDZ\C4H9F1\OHZDE\09-Apr-2025\0\\#t hf au
 g-cc-pvdz iop(5/13=1,5/36=2,99/5=2) pseudo=read geom=check guess=(read
 ,tcheck) scf=(maxcycle=1)\\title\\0,1\C,0,0.0311,-0.0326,-0.006\H,0,0.
 0318,-0.656,-0.9092\H,0,0.0436,-0.7168,0.8492\C,0,-1.239,0.8192,0.0007
 \H,0,-1.2368,1.4664,-0.8848\H,0,-1.2234,1.4802,0.876\C,0,-2.51,-0.0286
 ,0.0158\H,0,-2.548,-0.6858,-0.8594\H,0,-3.4077,0.5962,0.0084\H,0,-2.54
 33,-0.6588,0.9101\C,0,1.3156,0.7876,0.0337\H,0,1.1474,1.8238,-0.2744\H
 ,0,2.0966,0.3484,-0.5922\F,0,1.826,0.8176,1.3376\\Version=ES64L-G16Rev

 Normal termination of Gaussian 16 at Wed Apr  9 02:31:26 2025.
