 Gaussian 16, Revision C.01,

 ----------------------------------------------------------------------
 #t hf aug-cc-pvdz symm=none int=(grid=ultrafine) guess=(read,tcheck) s
 table=(opt,rrhf)
 ----------------------------------------------------------------------
 -----
 title
 -----
 Symbolic Z-matrix:
 Charge =  0 Multiplicity = 1

 SCF Done:  E(RHF) =  -559.153361992     A.U. after   17 cycles

 1\1\GINC-SE080\Stability\RHF\Aug-CC-pVDZ\C12H9F1\OHZDE\09-Apr-2025\0\\
 #t hf aug-cc-pvdz symm=none int=(grid=ultrafine) guess=(read,tcheck) s
 table=(opt,rrhf)\\title\\0,1\C,0,12.8361,-32.1209,0.303\H,0,13.3928,-3
 1.2089,0.4872\C,0,11.4425,-32.0529,0.3676\H,0,10.9661,-31.1025,0.5941\
 C,0,10.6656,-33.1825,0.0898\H,0,9.581,-33.1309,0.1304\C,0,11.3106,-34.
 3817,-0.2238\H,0,10.7283,-35.2702,-0.4545\C,0,12.7066,-34.4513,-0.286\
 H,0,13.161,-35.4015,-0.5256\C,0,13.5101,-33.3336,0.0333\C,0,17.1478,-3
 2.2357,0.4521\H,0,17.6666,-31.3692,0.8518\C,0,15.7527,-32.2637,0.4576\

 Normal termination of Gaussian 16 at Wed Apr  9 02:32:05 2025.
 Gaussian 16:  ES64L-G16RevC.01  3-Jul-2019

 ----------------------------------------------------------------------
 #t hf aug-cc-pvdz iop(5/13=1,5/36=2,99/5=2) pseudo=read geom=check gue
 ss=(read,tcheck) scf=(maxcycle=1)
 ----------------------------------------------------------------------
 -----
 title
 -----
 Structure from the checkpoint file:  "DCONF_47_0_mol1.chk"
 Charge =  0 Multiplicity = 1

                         Standard orientation:
 ---------------------------------------------------------------------
 Center     Atomic      Atomic             Coordinates (Angstroms)
 Number     Number       Type             X           Y           Z
 ---------------------------------------------------------------------
      1          6           0       -1.608962   -1.312278    0.132420
      2          1           0       -1.120071   -2.270389    0.268797
      3          6           0       -3.005380   -1.295911    0.106577
      4          1           0       -3.550701   -2.228725    0.224912
      5          6           0       -3.696420   -0.085777   -0.015008
      6          1           0       -4.782807   -0.068484   -0.026491
      7          6           0       -2.963661    1.097543   -0.138573
      8          1           0       -3.478104    2.051456   -0.222996
      9          6           0       -1.564823    1.081676   -0.115555
     10          1           0       -1.041024    2.020405   -0.221341
     11          6           0       -0.847835   -0.133484   -0.037246
     12          6           0        2.693661   -1.572028   -0.082366
     13          1           0        3.140669   -2.558593   -0.163665
     14          6           0        1.304032   -1.445386   -0.085748
     15          1           0        0.716371   -2.352510   -0.163936
     16          6           0        0.640270   -0.201274    0.038555
     17          6           0        1.500660    0.914524    0.041353
     18          6           0        2.890361    0.821721    0.043565
     19          1           0        3.466168    1.741487    0.079211
     20          6           0        3.500252   -0.430261   -0.037527
     21          1           0        4.583338   -0.509543   -0.043990
     22          9           0        1.001471    2.171169    0.129645
 ---------------------------------------------------------------------

 SCF Done:  E(RHF) =  -561.688093636     A.U. after    2 cycles

 The electronic state is 1-A.
 Alpha  occ. eigenvalues --  -29.28407 -11.54376 -11.51304 -11.48403 -11.46451
 Alpha  occ. eigenvalues --  -11.43764 -11.43461 -11.43137 -11.42295 -11.41669
 Alpha  occ. eigenvalues --  -11.40920 -11.39885 -11.37133  -1.40064  -1.31265
 Alpha  occ. eigenvalues --   -1.15560  -1.14459  -1.08908  -1.05867  -0.92956
 Alpha  occ. eigenvalues --   -0.90346  -0.85433  -0.83889  -0.76568  -0.70750
 Alpha  occ. eigenvalues --   -0.69065  -0.64078  -0.62347  -0.60872  -0.58664
 Alpha  occ. eigenvalues --   -0.57661  -0.56209  -0.54422  -0.49923  -0.49007
 Alpha  occ. eigenvalues --   -0.48390  -0.44602  -0.43533  -0.41545  -0.38129
 Alpha  occ. eigenvalues --   -0.38009  -0.32830  -0.29950  -0.26474  -0.22996
 Alpha virt. eigenvalues --    0.03355   0.04754   0.05104   0.05372   0.05706
 Alpha virt. eigenvalues --    0.06189   0.07332   0.07536   0.07824   0.09046
 Alpha virt. eigenvalues --    0.09440   0.09863   0.11501   0.12006   0.12634

 Mulliken charges:
               1
     1  C   -2.508316
     2  H    1.852777
     3  C   -3.918379
     4  H    1.421904
     5  C   -3.131513
     6  H    1.527000
     7  C   -3.584552
     8  H    1.418957
     9  C   -0.788386
    10  H    1.812869
    11  C    7.085010
    12  C   -4.924053
    13  H    1.384494
    14  C   -1.246752
    15  H    1.771656
    16  C   -1.004020
    17  C    7.086807
    18  C   -6.258218
    19  H    1.696265
    20  C   -1.902259
    21  H    1.480188
    22  F    0.728520
 Sum of Mulliken charges =   0.00000

 Dipole moment (field-independent basis, Debye):
    X=             -0.4783    Y=              1.9095    Z=              0.1075  Tot=              1.9714

 Test job not archived.
 1\1\GINC-SE080\SP\RHF\Aug-CC-pVDZ\C12H9F1\OHZDE\09-Apr-2025\0\\#t hf a
 ug-cc-pvdz iop(5/13=1,5/36=2,99/5=2) pseudo=read geom=check guess=(rea
 d,tcheck) scf=(maxcycle=1)\\title\\0,1\C,0,12.8361,-32.1209,0.303\H,0,
 13.3928,-31.2089,0.4872\C,0,11.4425,-32.0529,0.3676\H,0,10.9661,-31.10
 25,0.5941\C,0,10.6656,-33.1825,0.0898\H,0,9.581,-33.1309,0.1304\C,0,11
 .3106,-34.3817,-0.2238\H,0,10.7283,-35.2702,-0.4545\C,0,12.7066,-34.45
 13,-0.286\H,0,13.161,-35.4015,-0.5256\C,0,13.5101,-33.3336,0.0333\C,0,
 17.1478,-32.2357,0.4521\H,0,17.6666,-31.3692,0.8518\C,0,15.7527,-32.26

 Normal termination of Gaussian 16 at Wed Apr  9 02:32:22 2025.
