 Gaussian 16, Revision C.01,

 ----------------------------------------------------------------------
 #t hf aug-cc-pvdz symm=none int=(grid=ultrafine) guess=(read,tcheck) s
 table=(opt,rrhf)
 ----------------------------------------------------------------------
 -----
 title
 -----
 Symbolic Z-matrix:
 Charge =  0 Multiplicity = 1

 SCF Done:  E(RHF) =  -911.012836436     A.U. after   16 cycles
 Normal termination of Gaussian 16 at Wed Apr  9 02:29:52 2025.
 Gaussian 16:  ES64L-G16RevC.01  3-Jul-2019

 ----------------------------------------------------------------------
 #t hf aug-cc-pvdz iop(5/13=1,5/36=2,99/5=2) pseudo=read geom=check gue
 ss=(read,tcheck) scf=(maxcycle=1)
 ----------------------------------------------------------------------
 -----
 title
 -----
 Structure from the checkpoint file:  "DCONF_30_0_mol1.chk"
 Charge =  0 Multiplicity = 1

                         Standard orientation:
 ---------------------------------------------------------------------
 Center     Atomic      Atomic             Coordinates (Angstroms)
 Number     Number       Type             X           Y           Z
 ---------------------------------------------------------------------
      1          6           0        2.359351    1.593796    0.000000
      2          1           0        2.585877    2.656591   -0.000065
      3          6           0        1.024141    1.170125    0.000071
      4          1           0        0.221134    1.899207   -0.000042
      5          6           0        0.742134   -0.199141   -0.000032
      6         16           0       -0.938911   -0.807775   -0.000072
      7          7           0       -1.931519    0.510979    0.000075
      8          6           0       -2.210122    1.230154   -1.238297
      9          1           0       -1.961418    0.598237   -2.090813
     10          1           0       -1.644242    2.169547   -1.298817
     11          1           0       -3.279621    1.461337   -1.276184
     12          6           0       -2.210106    1.230032    1.238294
     13          1           0       -1.961744    0.597875    2.091024
     14          1           0       -3.279643    1.461451    1.276219
     15          1           0       -1.643955    2.169497    1.299095
     16          6           0        1.771977   -1.150077   -0.000031
     17          1           0        1.532856   -2.210036   -0.000052
     18          6           0        3.099656   -0.715450    0.000024
     19          1           0        3.903432   -1.446408   -0.000144
     20          6           0        3.395869    0.654748    0.000034
     21          1           0        4.430146    0.987176    0.000043
     22          8           0       -1.137283   -1.492692    1.266950
     23          8           0       -1.137343   -1.492564   -1.266952
 ---------------------------------------------------------------------

 SCF Done:  E(RHF) =  -913.674036541     A.U. after    2 cycles

 The electronic state is 1-A.
 Alpha  occ. eigenvalues --  -75.89784 -21.03783 -21.03773 -15.74953 -13.52048
 Alpha  occ. eigenvalues --  -13.44933 -13.40384 -11.54709 -11.46594 -11.46091
 Alpha  occ. eigenvalues --  -11.43791 -11.43308 -11.41458 -11.41048 -11.39139
 Alpha  occ. eigenvalues --   -8.24844  -1.83076  -1.64673  -1.44428  -1.35806
 Alpha  occ. eigenvalues --   -1.14300  -1.11382  -1.06539  -1.03321  -0.90653
 Alpha  occ. eigenvalues --   -0.88804  -0.81907  -0.73755  -0.69086  -0.67013
 Alpha  occ. eigenvalues --   -0.65380  -0.63794  -0.60608  -0.59641  -0.58886
 Alpha  occ. eigenvalues --   -0.57063  -0.54052  -0.52628  -0.51774  -0.49981
 Alpha  occ. eigenvalues --   -0.47330  -0.44716  -0.40204  -0.39811  -0.36686
 Alpha  occ. eigenvalues --   -0.35497  -0.35079  -0.34660  -0.32769
 Alpha virt. eigenvalues --    0.02745   0.04105   0.04635   0.05100   0.05184
 Alpha virt. eigenvalues --    0.06291   0.06819   0.06905   0.07360   0.08013
 Alpha virt. eigenvalues --    0.08318   0.09622   0.10060   0.10424   0.11701

 Mulliken charges:
               1
     1  C   -2.189407
     2  H    1.438556
     3  C   -1.600791
     4  H    2.842010
     5  C    2.374909
     6  S    7.616258
     7  N   -3.236278
     8  C   -3.975421
     9  H    1.567443
    10  H    1.502212
    11  H    1.364772
    12  C   -3.974798
    13  H    1.567339
    14  H    1.364755
    15  H    1.501755
    16  C   -3.514228
    17  H    1.741355
    18  C   -1.243170
    19  H    1.516589
    20  C   -3.244591
    21  H    1.595199
    22  O   -2.506825
    23  O   -2.507641
 Sum of Mulliken charges =  -0.00000

 Dipole moment (field-independent basis, Debye):
    X=              1.0894    Y=              2.8315    Z=             -0.0008  Tot=              3.0338

 Test job not archived.
 1\1\GINC-SE333\SP\RHF\Aug-CC-pVDZ\C8H11N1O2S1\OHZDE\09-Apr-2025\0\\#t
 hf aug-cc-pvdz iop(5/13=1,5/36=2,99/5=2) pseudo=read geom=check guess=
 (read,tcheck) scf=(maxcycle=1)\\title\\0,1\C,0,3.078,-3.658,-0.7566\H,
 0,3.1074,-4.7441,-0.7758\C,0,1.8422,-2.9988,-0.7334\H,0,0.92,-3.5697,-
 0.7345\C,0,1.814,-1.6013,-0.7086\S,0,0.2718,-0.6974,-0.6781\N,0,-0.944
 1,-1.8136,-0.6862\C,0,-1.3371,-2.4917,0.5443\H,0,-0.9695,-1.9305,1.403
 3\H,0,-0.951,-3.5192,0.5832\H,0,-2.4304,-2.5253,0.592\C,0,-1.3606,-2.4
 483,-1.9318\H,0,-1.0095,-1.857,-2.7777\H,0,-2.4547,-2.4808,-1.9599\H,0

 Normal termination of Gaussian 16 at Wed Apr  9 02:30:10 2025.
