 Gaussian 16, Revision C.01,

 ----------------------------------------------------------------------
 #t hf aug-cc-pvdz symm=none int=(grid=ultrafine) guess=(read,tcheck) s
 table=(opt,rrhf)
 ----------------------------------------------------------------------
 -----
 title
 -----
 Symbolic Z-matrix:
 Charge =  0 Multiplicity = 1

 SCF Done:  E(RHF) =  -575.156130255     A.U. after   15 cycles
 Normal termination of Gaussian 16 at Wed Apr  9 02:33:37 2025.
 Gaussian 16:  ES64L-G16RevC.01  3-Jul-2019

 ----------------------------------------------------------------------
 #t hf aug-cc-pvdz iop(5/13=1,5/36=2,99/5=2) pseudo=read geom=check gue
 ss=(read,tcheck) scf=(maxcycle=1)
 ----------------------------------------------------------------------
 -----
 title
 -----
 Structure from the checkpoint file:  "DCONF_48_100_mol1.chk"
 Charge =  0 Multiplicity = 1

                         Standard orientation:
 ---------------------------------------------------------------------
 Center     Atomic      Atomic             Coordinates (Angstroms)
 Number     Number       Type             X           Y           Z
 ---------------------------------------------------------------------
      1          6           0       -1.555494    0.331396    1.147449
      2          1           0       -1.017390    0.699389    2.016804
      3          6           0       -2.950521    0.369787    1.085082
      4          1           0       -3.531789    0.771228    1.910772
      5          6           0       -3.576638   -0.115097   -0.066119
      6          1           0       -4.657867   -0.104952   -0.167266
      7          6           0       -2.779359   -0.618463   -1.099820
      8          1           0       -3.234200   -1.001641   -2.011148
      9          7           0       -1.435572   -0.663262   -1.056112
     10          6           0       -0.842059   -0.197308    0.061781
     11          6           0        2.737179   -1.467394    0.298556
     12          1           0        3.260610   -2.401629    0.480208
     13          6           0        1.338934   -1.435895    0.312726
     14          1           0        0.766396   -2.341632    0.496965
     15          6           0        0.642536   -0.238178    0.087685
     16          6           0        1.393888    0.908836   -0.180576
     17          6           0        2.785302    0.906569   -0.205867
     18          1           0        3.316031    1.828463   -0.422048
     19          6           0        3.458819   -0.295964    0.036426
     20          1           0        4.544843   -0.313780    0.019429
     21          9           0        0.742982    2.068629   -0.421653
 ---------------------------------------------------------------------

 SCF Done:  E(RHF) =  -577.733193023     A.U. after    2 cycles

 The electronic state is 1-A.
 Alpha  occ. eigenvalues --  -29.28151 -15.74123 -11.54649 -11.51573 -11.47551
 Alpha  occ. eigenvalues --  -11.46783 -11.44596 -11.44321 -11.42747 -11.41816
 Alpha  occ. eigenvalues --  -11.41525 -11.38613 -11.37895  -1.46175  -1.35560
 Alpha  occ. eigenvalues --   -1.18927  -1.16217  -1.14327  -1.07382  -0.93139
 Alpha  occ. eigenvalues --   -0.90671  -0.89126  -0.85042  -0.76144  -0.72299
 Alpha  occ. eigenvalues --   -0.67629  -0.64015  -0.62137  -0.61204  -0.61002
 Alpha  occ. eigenvalues --   -0.58216  -0.56044  -0.53794  -0.53140  -0.50415
 Alpha  occ. eigenvalues --   -0.47750  -0.44594  -0.41250  -0.38670  -0.36824
 Alpha  occ. eigenvalues --   -0.36143  -0.34363  -0.32828  -0.26817  -0.22997
 Alpha virt. eigenvalues --    0.03304   0.04958   0.05294   0.05342   0.05516
 Alpha virt. eigenvalues --    0.05548   0.06720   0.07246   0.09217   0.10110
 Alpha virt. eigenvalues --    0.10559   0.11313   0.11463   0.11795   0.12178

 Mulliken charges:
               1
     1  C   -3.068167
     2  H    1.790217
     3  C   -0.207460
     4  H    1.575853
     5  C   -1.304686
     6  H    1.484421
     7  C   -1.187117
     8  H    1.662121
     9  N   -3.581726
    10  C    2.801632
    11  C   -2.656238
    12  H    1.504410
    13  C   -2.097490
    14  H    1.768378
    15  C    0.567615
    16  C    3.304261
    17  C   -5.025897
    18  H    1.744912
    19  C   -1.312491
    20  H    1.523198
    21  F    0.714252
 Sum of Mulliken charges =   0.00000

 Dipole moment (field-independent basis, Debye):
    X=             -1.9361    Y=              2.3767    Z=              0.7673  Tot=              3.1600

 Test job not archived.
 1\1\GINC-SE165\SP\RHF\Aug-CC-pVDZ\C11H8F1N1\OHZDE\09-Apr-2025\0\\#t hf
  aug-cc-pvdz iop(5/13=1,5/36=2,99/5=2) pseudo=read geom=check guess=(r
 ead,tcheck) scf=(maxcycle=1)\\title\\0,1\C,0,21.7914,-33.5375,-1.1508\
 H,0,22.308,-33.7449,-2.084\C,0,20.3964,-33.514,-1.0809\H,0,19.7935,-33
 .7038,-1.9648\C,0,19.7985,-33.2463,0.1533\H,0,18.7184,-33.2199,0.2632\
 C,0,20.6228,-33.0116,1.2592\H,0,20.1902,-32.8025,2.2356\N,0,21.967,-33
 .03,1.2095\C,0,22.5334,-33.2844,0.0122\C,0,26.1762,-32.1844,0.0007\H,0
 ,26.7495,-31.2619,0.0104\C,0,24.7783,-32.1381,-0.0028\H,0,24.2557,-31.

 Normal termination of Gaussian 16 at Wed Apr  9 02:33:58 2025.
