 Gaussian 16, Revision C.01,

 ----------------------------------------------------------------------
 #t hf aug-cc-pvdz symm=none int=(grid=ultrafine) guess=(read,tcheck) s
 table=(opt,rrhf)
 ----------------------------------------------------------------------
 -----
 title
 -----
 Symbolic Z-matrix:
 Charge =  0 Multiplicity = 1

 SCF Done:  E(RHF) =  -812.895461258     A.U. after   17 cycles
 Normal termination of Gaussian 16 at Wed Apr  9 02:31:57 2025.
 Gaussian 16:  ES64L-G16RevC.01  3-Jul-2019

 ----------------------------------------------------------------------
 #t hf aug-cc-pvdz iop(5/13=1,5/36=2,99/5=2) pseudo=read geom=check gue
 ss=(read,tcheck) scf=(maxcycle=1)
 ----------------------------------------------------------------------
 -----
 title
 -----
 Structure from the checkpoint file:  "DCONF_56_-10_mol1.chk"
 Charge =  0 Multiplicity = 1

                         Standard orientation:
 ---------------------------------------------------------------------
 Center     Atomic      Atomic             Coordinates (Angstroms)
 Number     Number       Type             X           Y           Z
 ---------------------------------------------------------------------
      1          6           0        1.327224   -1.135381    0.174157
      2          1           0        0.743709   -2.039743    0.324871
      3          6           0        2.719443   -1.198941    0.127447
      4          1           0        3.230813   -2.151627    0.235570
      5          6           0        3.438079   -0.010540   -0.029914
      6          1           0        4.523495   -0.004631   -0.062272
      7          6           0        2.718998    1.185031   -0.144098
      8          1           0        3.242176    2.132481   -0.260100
      9          7           0        1.380063    1.264865   -0.124658
     10          6           0        0.695180    0.111820    0.014779
     11          7           0       -1.434386    1.365361    0.173326
     12          6           0       -2.779946    1.148627    0.122731
     13          1           0       -3.459918    1.987677    0.218405
     14          6           0       -3.173533   -0.165347   -0.044620
     15          1           0       -4.175748   -0.568034   -0.105583
     16         16           0       -1.796796   -1.170386   -0.150329
     17          6           0       -0.774702    0.224477    0.065134
 ---------------------------------------------------------------------

 SCF Done:  E(RHF) =  -815.052308789     A.U. after    2 cycles

 The electronic state is 1-A.
 Alpha  occ. eigenvalues --  -75.72625 -15.74521 -15.74352 -13.19165 -13.17688
 Alpha  occ. eigenvalues --  -13.04782 -11.52276 -11.48438 -11.45699 -11.45324
 Alpha  occ. eigenvalues --  -11.44667 -11.42418 -11.39832 -11.39180  -8.07261
 Alpha  occ. eigenvalues --   -1.50188  -1.42691  -1.20217  -1.18213  -1.15643
 Alpha  occ. eigenvalues --   -1.05684  -0.91761  -0.90110  -0.81950  -0.77856
 Alpha  occ. eigenvalues --   -0.71496  -0.68982  -0.64323  -0.61633  -0.57825
 Alpha  occ. eigenvalues --   -0.57643  -0.54796  -0.52709  -0.51515  -0.47366
 Alpha  occ. eigenvalues --   -0.42640  -0.38929  -0.36928  -0.36761  -0.34958
 Alpha  occ. eigenvalues --   -0.32236  -0.27858
 Alpha virt. eigenvalues --    0.02989   0.03853   0.05175   0.05298   0.05848
 Alpha virt. eigenvalues --    0.06514   0.07705   0.08844   0.09723   0.10067
 Alpha virt. eigenvalues --    0.10325   0.11977   0.12519   0.12572   0.12961

 Mulliken charges:
               1
     1  C   -1.047237
     2  H    1.925682
     3  C   -0.767848
     4  H    1.530923
     5  C   -1.263852
     6  H    1.451771
     7  C   -1.482529
     8  H    1.671171
     9  N   -4.019209
    10  C    2.591729
    11  N   -4.111917
    12  C    0.700579
    13  H    1.633348
    14  C   -3.292504
    15  H    1.255332
    16  S    1.795542
    17  C    1.429019
 Sum of Mulliken charges =   0.00000

 Dipole moment (field-independent basis, Debye):
    X=              0.6061    Y=             -4.4301    Z=             -0.3337  Tot=              4.4838

 Test job not archived.
 1\1\GINC-SE097\SP\RHF\Aug-CC-pVDZ\C8H6N2S1\OHZDE\09-Apr-2025\0\\#t hf
 aug-cc-pvdz iop(5/13=1,5/36=2,99/5=2) pseudo=read geom=check guess=(re
 ad,tcheck) scf=(maxcycle=1)\\title\\0,1\C,0,30.1206,-21.0948,0.0111\H,
 0,30.6754,-20.1607,0.0381\C,0,28.7263,-21.0819,-0.0049\H,0,28.1845,-20
 .14,0.0039\C,0,28.0463,-22.303,-0.0013\H,0,26.9613,-22.3475,-0.0032\C,
 0,28.804,-23.48,0.0069\H,0,28.3118,-24.4508,0.0178\N,0,30.145,-23.514,
 -0.0008\C,0,30.7921,-22.3312,-0.0171\N,0,32.9674,-23.4881,0.2303\C,0,3
 4.303,-23.2359,0.1179\H,0,35.014,-24.0354,0.2934\C,0,34.6463,-21.9392,

 Normal termination of Gaussian 16 at Wed Apr  9 02:32:07 2025.
