 Gaussian 16, Revision C.01,

 ----------------------------------------------------------------------
 #t hf aug-cc-pvdz symm=none int=(grid=ultrafine) guess=(read,tcheck) s
 table=(opt,rrhf)
 ----------------------------------------------------------------------
 -----
 title
 -----
 Symbolic Z-matrix:
 Charge =  0 Multiplicity = 1

 SCF Done:  E(RHF) =  -575.157977666     A.U. after   15 cycles
 Normal termination of Gaussian 16 at Wed Apr  9 02:32:49 2025.
 Gaussian 16:  ES64L-G16RevC.01  3-Jul-2019

 ----------------------------------------------------------------------
 #t hf aug-cc-pvdz iop(5/13=1,5/36=2,99/5=2) pseudo=read geom=check gue
 ss=(read,tcheck) scf=(maxcycle=1)
 ----------------------------------------------------------------------
 -----
 title
 -----
 Structure from the checkpoint file:  "DCONF_48_120_mol1.chk"
 Charge =  0 Multiplicity = 1

                         Standard orientation:
 ---------------------------------------------------------------------
 Center     Atomic      Atomic             Coordinates (Angstroms)
 Number     Number       Type             X           Y           Z
 ---------------------------------------------------------------------
      1          6           0       -1.549860    0.756598    0.861623
      2          1           0       -1.007163    1.444474    1.503644
      3          6           0       -2.944391    0.771681    0.796622
      4          1           0       -3.518587    1.477759    1.390281
      5          6           0       -3.581272   -0.141575   -0.048377
      6          1           0       -4.663260   -0.169426   -0.137218
      7          6           0       -2.792328   -1.029097   -0.788158
      8          1           0       -3.254851   -1.751533   -1.457909
      9          7           0       -1.448753   -1.055449   -0.740454
     10          6           0       -0.844106   -0.172781    0.081686
     11          6           0        2.714009   -1.461997    0.403039
     12          1           0        3.222227   -2.389415    0.650760
     13          6           0        1.317336   -1.406907    0.415515
     14          1           0        0.727528   -2.286669    0.659327
     15          6           0        0.637375   -0.216081    0.111172
     16          6           0        1.408537    0.895420   -0.242479
     17          6           0        2.799430    0.867740   -0.269768
     18          1           0        3.343545    1.761977   -0.557375
     19          6           0        3.454917   -0.323822    0.059164
     20          1           0        4.540567   -0.359936    0.042350
     21          9           0        0.781488    2.047316   -0.576768
 ---------------------------------------------------------------------

 SCF Done:  E(RHF) =  -577.734595324     A.U. after    2 cycles

 The electronic state is 1-A.
 Alpha  occ. eigenvalues --  -29.28307 -15.74089 -11.54335 -11.51319 -11.47904
 Alpha  occ. eigenvalues --  -11.46762 -11.44478 -11.44240 -11.42792 -11.41861
 Alpha  occ. eigenvalues --  -11.41472 -11.38679 -11.37883  -1.46249  -1.35528
 Alpha  occ. eigenvalues --   -1.18944  -1.16277  -1.14310  -1.07297  -0.93275
 Alpha  occ. eigenvalues --   -0.91019  -0.88645  -0.85026  -0.76250  -0.72144
 Alpha  occ. eigenvalues --   -0.67839  -0.64029  -0.62539  -0.60931  -0.60314
 Alpha  occ. eigenvalues --   -0.58278  -0.56110  -0.54185  -0.53021  -0.50139
 Alpha  occ. eigenvalues --   -0.47773  -0.44890  -0.41206  -0.38877  -0.37100
 Alpha  occ. eigenvalues --   -0.36183  -0.35332  -0.31871  -0.26837  -0.23046
 Alpha virt. eigenvalues --    0.03340   0.05046   0.05176   0.05420   0.05544
 Alpha virt. eigenvalues --    0.05724   0.06795   0.07395   0.09175   0.09944
 Alpha virt. eigenvalues --    0.10440   0.10766   0.11508   0.11767   0.12316

 Mulliken charges:
               1
     1  C   -2.747929
     2  H    1.785217
     3  C   -0.380999
     4  H    1.558400
     5  C   -1.380492
     6  H    1.483685
     7  C   -1.030930
     8  H    1.671484
     9  N   -3.682448
    10  C    2.625124
    11  C   -2.644489
    12  H    1.487900
    13  C   -2.132892
    14  H    1.729649
    15  C    0.221129
    16  C    3.871423
    17  C   -4.989299
    18  H    1.756345
    19  C   -1.466419
    20  H    1.517667
    21  F    0.747873
 Sum of Mulliken charges =  -0.00000

 Dipole moment (field-independent basis, Debye):
    X=             -1.7516    Y=              2.7877    Z=              0.2575  Tot=              3.3024

 Test job not archived.
 1\1\GINC-SE322\SP\RHF\Aug-CC-pVDZ\C11H8F1N1\OHZDE\09-Apr-2025\0\\#t hf
  aug-cc-pvdz iop(5/13=1,5/36=2,99/5=2) pseudo=read geom=check guess=(r
 ead,tcheck) scf=(maxcycle=1)\\title\\0,1\C,0,21.7676,-33.8962,-0.9826\
 H,0,22.2631,-34.4128,-1.7996\C,0,20.3752,-33.8351,-0.901\H,0,19.7551,-
 34.3076,-1.6579\C,0,19.8008,-33.1528,0.1752\H,0,18.7231,-33.0782,0.286
 4\C,0,20.6473,-32.5616,1.1193\H,0,20.2341,-32.025,1.9712\N,0,21.9896,-
 32.6133,1.0583\C,0,22.5339,-33.2705,0.0131\C,0,26.1735,-32.1848,0.0034
 \H,0,26.7453,-31.2614,0.0149\C,0,24.7764,-32.1403,-0.0005\H,0,24.2495,

 Normal termination of Gaussian 16 at Wed Apr  9 02:33:05 2025.
