 Gaussian 16, Revision C.01,

 ----------------------------------------------------------------------
 #t hf aug-cc-pvdz symm=none int=(grid=ultrafine) guess=(read,tcheck) s
 table=(opt,rrhf)
 ----------------------------------------------------------------------
 -----
 title
 -----
 Symbolic Z-matrix:
 Charge =  0 Multiplicity = 1

 SCF Done:  E(RHF) =  -559.157419689     A.U. after   17 cycles

 1\1\GINC-SE345\Stability\RHF\Aug-CC-pVDZ\C12H9F1\OHZDE\09-Apr-2025\0\\
 #t hf aug-cc-pvdz symm=none int=(grid=ultrafine) guess=(read,tcheck) s
 table=(opt,rrhf)\\title\\0,1\C,0,12.8485,-32.5675,0.9537\H,0,13.4126,-
 32.0411,1.7187\C,0,11.4531,-32.4926,0.9675\H,0,10.9543,-31.901,1.7309\
 C,0,10.7014,-33.2157,0.0344\H,0,9.6159,-33.1659,0.0462\C,0,11.3631,-33
 .997,-0.9193\H,0,10.7913,-34.5708,-1.644\C,0,12.7598,-34.0739,-0.9341\
 H,0,13.2465,-34.676,-1.6916\C,0,13.5302,-33.3177,-0.0274\C,0,17.1433,-
 32.2355,0.467\H,0,17.6654,-31.3503,0.8187\C,0,15.7472,-32.2576,0.4552\

 Normal termination of Gaussian 16 at Wed Apr  9 02:31:57 2025.
 Gaussian 16:  ES64L-G16RevC.01  3-Jul-2019

 ----------------------------------------------------------------------
 #t hf aug-cc-pvdz iop(5/13=1,5/36=2,99/5=2) pseudo=read geom=check gue
 ss=(read,tcheck) scf=(maxcycle=1)
 ----------------------------------------------------------------------
 -----
 title
 -----
 Structure from the checkpoint file:  "DCONF_47_-20_mol1.chk"
 Charge =  0 Multiplicity = 1

                         Standard orientation:
 ---------------------------------------------------------------------
 Center     Atomic      Atomic             Coordinates (Angstroms)
 Number     Number       Type             X           Y           Z
 ---------------------------------------------------------------------
      1          6           0       -1.588146   -1.264090   -0.369789
      2          1           0       -1.075809   -2.155963   -0.719937
      3          6           0       -2.985409   -1.247134   -0.352174
      4          1           0       -3.537527   -2.126319   -0.674311
      5          6           0       -3.669236   -0.087508    0.030253
      6          1           0       -4.755733   -0.067813    0.038452
      7          6           0       -2.938602    1.043764    0.410014
      8          1           0       -3.457018    1.953853    0.700486
      9          6           0       -1.539901    1.028944    0.392160
     10          1           0       -0.999422    1.914460    0.703529
     11          6           0       -0.838580   -0.145183    0.050056
     12          6           0        2.692400   -1.545286    0.254917
     13          1           0        3.153588   -2.509902    0.446442
     14          6           0        1.300650   -1.433196    0.241163
     15          1           0        0.698976   -2.316990    0.432426
     16          6           0        0.642063   -0.209624   -0.013255
     17          6           0        1.480476    0.910617   -0.144826
     18          6           0        2.870259    0.830779   -0.133688
     19          1           0        3.444342    1.741638   -0.273770
     20          6           0        3.485119   -0.404786    0.083416
     21          1           0        4.568902   -0.473932    0.101781
     22          9           0        0.943683    2.130800   -0.382730
 ---------------------------------------------------------------------

 SCF Done:  E(RHF) =  -561.690921104     A.U. after    2 cycles

 The electronic state is 1-A.
 Alpha  occ. eigenvalues --  -29.28308 -11.54024 -11.51644 -11.48122 -11.45816
 Alpha  occ. eigenvalues --  -11.43674 -11.43515 -11.42983 -11.41982 -11.41470
 Alpha  occ. eigenvalues --  -11.40776 -11.38973 -11.36877  -1.40136  -1.31159
 Alpha  occ. eigenvalues --   -1.15544  -1.14395  -1.08926  -1.05787  -0.92823
 Alpha  occ. eigenvalues --   -0.90195  -0.85649  -0.83732  -0.76316  -0.70902
 Alpha  occ. eigenvalues --   -0.68718  -0.63958  -0.62233  -0.60840  -0.58310
 Alpha  occ. eigenvalues --   -0.57979  -0.56775  -0.53821  -0.50105  -0.48974
 Alpha  occ. eigenvalues --   -0.48241  -0.44487  -0.43810  -0.41388  -0.38287
 Alpha  occ. eigenvalues --   -0.37258  -0.32932  -0.30136  -0.26600  -0.22803
 Alpha virt. eigenvalues --    0.03375   0.04853   0.05125   0.05400   0.05611
 Alpha virt. eigenvalues --    0.06085   0.06742   0.07322   0.07636   0.09254
 Alpha virt. eigenvalues --    0.09631   0.09773   0.11481   0.11951   0.12170

 Mulliken charges:
               1
     1  C   -2.579261
     2  H    1.837569
     3  C   -2.616052
     4  H    1.491793
     5  C   -2.921706
     6  H    1.548880
     7  C   -3.199379
     8  H    1.458375
     9  C   -1.959270
    10  H    1.881813
    11  C    6.142973
    12  C   -3.813844
    13  H    1.453242
    14  C   -1.121752
    15  H    1.808642
    16  C   -1.261086
    17  C    5.519518
    18  C   -6.014574
    19  H    1.736232
    20  C   -1.590563
    21  H    1.491994
    22  F    0.706457
 Sum of Mulliken charges =  -0.00000

 Dipole moment (field-independent basis, Debye):
    X=             -0.6348    Y=              1.9362    Z=             -0.3562  Tot=              2.0685

 Test job not archived.
 1\1\GINC-SE345\SP\RHF\Aug-CC-pVDZ\C12H9F1\OHZDE\09-Apr-2025\0\\#t hf a
 ug-cc-pvdz iop(5/13=1,5/36=2,99/5=2) pseudo=read geom=check guess=(rea
 d,tcheck) scf=(maxcycle=1)\\title\\0,1\C,0,12.8485,-32.5675,0.9537\H,0
 ,13.4126,-32.0411,1.7187\C,0,11.4531,-32.4926,0.9675\H,0,10.9543,-31.9
 01,1.7309\C,0,10.7014,-33.2157,0.0344\H,0,9.6159,-33.1659,0.0462\C,0,1
 1.3631,-33.997,-0.9193\H,0,10.7913,-34.5708,-1.644\C,0,12.7598,-34.073
 9,-0.9341\H,0,13.2465,-34.676,-1.6916\C,0,13.5302,-33.3177,-0.0274\C,0
 ,17.1433,-32.2355,0.467\H,0,17.6654,-31.3503,0.8187\C,0,15.7472,-32.25

 Normal termination of Gaussian 16 at Wed Apr  9 02:32:13 2025.
