 Gaussian 16, Revision C.01,

 ----------------------------------------------------------------------
 #t hf aug-cc-pvdz symm=none int=(grid=ultrafine) guess=(read,tcheck) s
 table=(opt,rrhf)
 ----------------------------------------------------------------------
 -----
 title
 -----
 Symbolic Z-matrix:
 Charge =  0 Multiplicity = 1

 SCF Done:  E(RHF) =  -453.945051690     A.U. after   11 cycles
 Normal termination of Gaussian 16 at Wed Apr  9 02:21:57 2025.
 Gaussian 16:  ES64L-G16RevC.01  3-Jul-2019

 ----------------------------------------------------------------------
 #t hf aug-cc-pvdz iop(5/13=1,5/36=2,99/5=2) pseudo=read geom=check gue
 ss=(read,tcheck) scf=(maxcycle=1)
 ----------------------------------------------------------------------
 -----
 title
 -----
 Structure from the checkpoint file:  "DCONF_10_0_mol2.chk"
 Charge =  0 Multiplicity = 1

                         Standard orientation:
 ---------------------------------------------------------------------
 Center     Atomic      Atomic             Coordinates (Angstroms)
 Number     Number       Type             X           Y           Z
 ---------------------------------------------------------------------
      1          6           0       -0.451507    0.622780    0.000659
      2          1           0       -0.532488    1.262459   -0.883786
      3          1           0       -0.531785    1.261752    0.885645
      4          6           0       -1.547728   -0.442550    0.000409
      5          1           0       -1.430017   -1.080935    0.881502
      6          1           0       -1.429395   -1.081508   -0.880267
      7          6           0       -2.937725    0.193732   -0.000262
      8          1           0       -3.079144    0.822230    0.884534
      9          1           0       -3.079173    0.820196   -0.886547
     10          1           0       -3.718287   -0.571598    0.000500
     11          6           0        0.936718    0.045027   -0.000151
     12          9           0        1.162412   -0.724763    1.083931
     13          9           0        1.876556    1.011687   -0.000784
     14          9           0        1.161225   -0.725427   -1.083760
 ---------------------------------------------------------------------

 SCF Done:  E(RHF) =  -455.735115546     A.U. after    2 cycles

 The electronic state is 1-A.
 Alpha  occ. eigenvalues --  -29.29861 -29.29849 -29.29777 -11.59902 -11.43589
 Alpha  occ. eigenvalues --  -11.40413 -11.36848  -1.43359  -1.20509  -1.02772
 Alpha  occ. eigenvalues --   -0.90348  -0.87821  -0.84332  -0.70628  -0.65403
 Alpha  occ. eigenvalues --   -0.58206  -0.55878  -0.50792  -0.49225  -0.49046
 Alpha  occ. eigenvalues --   -0.46366  -0.42770  -0.42253  -0.35146  -0.34926
 Alpha  occ. eigenvalues --   -0.29080  -0.24422  -0.24388  -0.20488
 Alpha virt. eigenvalues --    0.03748   0.05548   0.05601   0.06252   0.06259
 Alpha virt. eigenvalues --    0.07395   0.08096   0.10067   0.10709   0.12769
 Alpha virt. eigenvalues --    0.14037   0.14053   0.14488   0.16492   0.17324

 Mulliken charges:
               1
     1  C   -4.649892
     2  H    1.419455
     3  H    1.418682
     4  C   -2.621582
     5  H    1.428103
     6  H    1.428067
     7  C   -3.910881
     8  H    1.243633
     9  H    1.243551
    10  H    1.100898
    11  C    1.027683
    12  F    0.274805
    13  F    0.322161
    14  F    0.275318
 Sum of Mulliken charges =  -0.00000

 Dipole moment (field-independent basis, Debye):
    X=              0.6088    Y=             -0.5928    Z=             -0.0002  Tot=              0.8497

 Test job not archived.
 1\1\GINC-SE334\SP\RHF\Aug-CC-pVDZ\C4H7F3\OHZDE\09-Apr-2025\0\\#t hf au
 g-cc-pvdz iop(5/13=1,5/36=2,99/5=2) pseudo=read geom=check guess=(read
 ,tcheck) scf=(maxcycle=1)\\title\\0,1\C,0,-0.1442,0.0058,0.1879\H,0,0.
 1804,-0.6016,-0.6628\H,0,0.0479,-0.5658,1.1013\C,0,0.6018,1.3397,0.216
 6\H,0,0.2427,1.9353,1.0616\H,0,0.373,1.9005,-0.695\C,0,2.1112,1.1272,0
 .3328\H,0,2.3588,0.5831,1.2496\H,0,2.49,0.5497,-0.5163\H,0,2.6404,2.08
 35,0.3539\C,0,-1.6352,0.1627,0.0727\F,0,-2.1499,0.8574,1.1077\F,0,-2.2
 596,-1.032,0.0494\F,0,-1.9877,0.8151,-1.0535\\Version=ES64L-G16RevC.01

 Normal termination of Gaussian 16 at Wed Apr  9 02:22:01 2025.
