 Gaussian 16, Revision C.01,

 ----------------------------------------------------------------------
 #t hf aug-cc-pvdz symm=none int=(grid=ultrafine) guess=(read,tcheck) s
 table=(opt,rrhf)
 ----------------------------------------------------------------------
 -----
 title
 -----
 Symbolic Z-matrix:
 Charge =  0 Multiplicity = 1

 SCF Done:  E(RHF) =  -812.895772122     A.U. after   17 cycles
 Normal termination of Gaussian 16 at Wed Apr  9 02:31:43 2025.
 Gaussian 16:  ES64L-G16RevC.01  3-Jul-2019

 ----------------------------------------------------------------------
 #t hf aug-cc-pvdz iop(5/13=1,5/36=2,99/5=2) pseudo=read geom=check gue
 ss=(read,tcheck) scf=(maxcycle=1)
 ----------------------------------------------------------------------
 -----
 title
 -----
 Structure from the checkpoint file:  "DCONF_56_0_mol1.chk"
 Charge =  0 Multiplicity = 1

                         Standard orientation:
 ---------------------------------------------------------------------
 Center     Atomic      Atomic             Coordinates (Angstroms)
 Number     Number       Type             X           Y           Z
 ---------------------------------------------------------------------
      1          6           0        1.326853   -1.147038   -0.000146
      2          1           0        0.743137   -2.063623   -0.000146
      3          6           0        2.720098   -1.207255   -0.000146
      4          1           0        3.228520   -2.167583   -0.000146
      5          6           0        3.442117   -0.010849   -0.000046
      6          1           0        4.527935   -0.003739   -0.000046
      7          6           0        2.724646    1.191162   -0.000146
      8          1           0        3.250017    2.144517   -0.000046
      9          7           0        1.385808    1.270582   -0.000246
     10          6           0        0.697014    0.111334   -0.000246
     11          7           0       -1.430957    1.375169    0.000454
     12          6           0       -2.777307    1.160771    0.000654
     13          1           0       -3.453795    2.008127    0.001154
     14          6           0       -3.177244   -0.161511    0.000354
     15          1           0       -4.181398   -0.564430    0.000354
     16         16           0       -1.805478   -1.178464   -0.000246
     17          6           0       -0.774633    0.227036   -0.000046
 ---------------------------------------------------------------------

 SCF Done:  E(RHF) =  -815.052745359     A.U. after    2 cycles

 The electronic state is 1-A.
 Alpha  occ. eigenvalues --  -75.72639 -15.74488 -15.74322 -13.19627 -13.17731
 Alpha  occ. eigenvalues --  -13.04462 -11.52348 -11.48929 -11.45871 -11.45419
 Alpha  occ. eigenvalues --  -11.44762 -11.42503 -11.39853 -11.39236  -8.07275
 Alpha  occ. eigenvalues --   -1.50185  -1.42693  -1.20242  -1.18186  -1.15627
 Alpha  occ. eigenvalues --   -1.05699  -0.91780  -0.90121  -0.81940  -0.77838
 Alpha  occ. eigenvalues --   -0.71529  -0.68985  -0.64346  -0.61587  -0.57860
 Alpha  occ. eigenvalues --   -0.57645  -0.54790  -0.52646  -0.51572  -0.47394
 Alpha  occ. eigenvalues --   -0.42583  -0.39046  -0.36927  -0.36826  -0.34864
 Alpha  occ. eigenvalues --   -0.32223  -0.27807
 Alpha virt. eigenvalues --    0.02992   0.03826   0.05169   0.05292   0.05852
 Alpha virt. eigenvalues --    0.06512   0.07657   0.08843   0.09856   0.09986
 Alpha virt. eigenvalues --    0.10550   0.12369   0.12413   0.12808   0.12930

 Mulliken charges:
               1
     1  C   -0.678459
     2  H    1.934976
     3  C   -0.955804
     4  H    1.532055
     5  C   -1.268315
     6  H    1.457321
     7  C   -1.638390
     8  H    1.692318
     9  N   -4.157117
    10  C    2.272536
    11  N   -4.210110
    12  C    0.675511
    13  H    1.649120
    14  C   -3.402956
    15  H    1.244914
    16  S    2.086128
    17  C    1.766270
 Sum of Mulliken charges =  -0.00000

 Dipole moment (field-independent basis, Debye):
    X=              0.5698    Y=             -4.4703    Z=             -0.0004  Tot=              4.5064

 Test job not archived.
 1\1\GINC-SE343\SP\RHF\Aug-CC-pVDZ\C8H6N2S1\OHZDE\09-Apr-2025\0\\#t hf
 aug-cc-pvdz iop(5/13=1,5/36=2,99/5=2) pseudo=read geom=check guess=(re
 ad,tcheck) scf=(maxcycle=1)\\title\\0,1\C,0,30.1194,-21.0939,0.\H,0,30
 .6706,-20.1574,0.\C,0,28.7249,-21.0826,0.\H,0,28.1831,-20.1407,0.\C,0,
 28.0453,-22.3036,0.0001\H,0,26.9604,-22.3488,0.0001\C,0,28.8045,-23.47
 97,0.\H,0,28.3129,-24.4509,0.0001\N,0,30.1453,-23.5121,-0.0001\C,0,30.
 793,-22.3294,-0.0001\N,0,32.964,-23.5178,0.0006\C,0,34.302,-23.2563,0.
 0008\H,0,35.0078,-24.0794,0.0013\C,0,34.6553,-21.9208,0.0005\H,0,35.64

 Normal termination of Gaussian 16 at Wed Apr  9 02:31:53 2025.
