 Gaussian 16, Revision C.01,

 ----------------------------------------------------------------------
 #t hf aug-cc-pvdz symm=none int=(grid=ultrafine) guess=(read,tcheck) s
 table=(opt,rrhf)
 ----------------------------------------------------------------------
 -----
 title
 -----
 Symbolic Z-matrix:
 Charge =  0 Multiplicity = 1

 SCF Done:  E(RHF) =  -703.107993134     A.U. after   16 cycles
 Normal termination of Gaussian 16 at Wed Apr  9 02:23:45 2025.
 Gaussian 16:  ES64L-G16RevC.01  3-Jul-2019

 ----------------------------------------------------------------------
 #t hf aug-cc-pvdz iop(5/13=1,5/36=2,99/5=2) pseudo=read geom=check gue
 ss=(read,tcheck) scf=(maxcycle=1)
 ----------------------------------------------------------------------
 -----
 title
 -----
 Structure from the checkpoint file:  "DCONF_24_-100_mol1.chk"
 Charge =  0 Multiplicity = 1

                         Standard orientation:
 ---------------------------------------------------------------------
 Center     Atomic      Atomic             Coordinates (Angstroms)
 Number     Number       Type             X           Y           Z
 ---------------------------------------------------------------------
      1          8           0       -2.272355    0.660030   -1.044482
      2          6           0       -2.276265   -0.548929    1.033799
      3          1           0       -2.028901    0.022734    1.934538
      4          1           0       -3.358037   -0.591358    0.897647
      5          1           0       -1.869453   -1.556102    1.170229
      6          6           0       -1.629249    0.127427   -0.154452
      7          6           0        0.599692    1.341220    0.240901
      8          1           0        0.137313    2.305960    0.421450
      9          6           0        1.992716    1.080366    0.319812
     10          1           0        2.743726    1.823237    0.564223
     11          6           0        2.295162   -0.239965    0.046339
     12          1           0        3.269538   -0.708396   -0.003302
     13         16           0        0.886572   -1.153881   -0.301113
     14          6           0       -0.132137    0.220843   -0.121586
 ---------------------------------------------------------------------

 SCF Done:  E(RHF) =  -704.741182143     A.U. after    2 cycles

 The electronic state is 1-A.
 Alpha  occ. eigenvalues --  -75.72738 -21.06317 -13.19258 -13.17003 -13.05255
 Alpha  occ. eigenvalues --  -11.50986 -11.49061 -11.44978 -11.42767 -11.39585
 Alpha  occ. eigenvalues --  -11.38625  -8.07323  -1.71069  -1.38232  -1.13926
 Alpha  occ. eigenvalues --   -1.09612  -1.05115  -0.87613  -0.79827  -0.73675
 Alpha  occ. eigenvalues --   -0.68040  -0.60466  -0.60306  -0.57121  -0.53749
 Alpha  occ. eigenvalues --   -0.50773  -0.50546  -0.47038  -0.42220  -0.38834
 Alpha  occ. eigenvalues --   -0.32829  -0.28807  -0.28051
 Alpha virt. eigenvalues --    0.02890   0.04188   0.05163   0.05760   0.06258
 Alpha virt. eigenvalues --    0.06707   0.08645   0.09651   0.10011   0.10286
 Alpha virt. eigenvalues --    0.11941   0.12411   0.13037   0.13790   0.13951

 Mulliken charges:
               1
     1  O   -3.139890
     2  C   -4.222962
     3  H    1.368471
     4  H    1.275773
     5  H    1.399631
     6  C    2.742723
     7  C   -1.978506
     8  H    1.620104
     9  C   -0.711216
    10  H    1.455611
    11  C   -3.579411
    12  H    1.290032
    13  S    1.555168
    14  C    0.924471
 Sum of Mulliken charges =  -0.00000

 Dipole moment (field-independent basis, Debye):
    X=              0.8261    Y=             -2.2101    Z=              0.6838  Tot=              2.4566

 Test job not archived.
 1\1\GINC-SE334\SP\RHF\Aug-CC-pVDZ\C6H6O1S1\OHZDE\09-Apr-2025\0\\#t hf
 aug-cc-pvdz iop(5/13=1,5/36=2,99/5=2) pseudo=read geom=check guess=(re
 ad,tcheck) scf=(maxcycle=1)\\title\\0,1\O,0,21.1341,-5.3894,0.886\C,0,
 21.445,-4.7154,-1.4009\H,0,21.5984,-5.5162,-2.132\H,0,20.3912,-4.4351,
 -1.3621\H,0,22.0541,-3.8647,-1.7231\C,0,21.901,-5.2108,-0.0464\C,0,23.
 8447,-6.8891,0.0094\H,0,23.2001,-7.7618,0.0097\C,0,25.2634,-6.9269,-0.
 0161\H,0,25.8533,-7.8365,-0.0321\C,0,25.8216,-5.6628,-0.0166\H,0,26.86
 93,-5.3923,0.0047\S,0,24.6203,-4.4396,0.0108\C,0,23.3473,-5.5959,0.058

 Normal termination of Gaussian 16 at Wed Apr  9 02:23:50 2025.
