 Gaussian 16, Revision C.01,

 ----------------------------------------------------------------------
 #t hf aug-cc-pvdz symm=none int=(grid=ultrafine) guess=(read,tcheck) s
 table=(opt,rrhf)
 ----------------------------------------------------------------------
 -----
 title
 -----
 Symbolic Z-matrix:
 Charge =  0 Multiplicity = 1

 SCF Done:  E(RHF) =  -774.176930270     A.U. after   16 cycles
 Normal termination of Gaussian 16 at Wed Apr  9 02:28:05 2025.
 Gaussian 16:  ES64L-G16RevC.01  3-Jul-2019

 ----------------------------------------------------------------------
 #t hf aug-cc-pvdz iop(5/13=1,5/36=2,99/5=2) pseudo=read geom=check gue
 ss=(read,tcheck) scf=(maxcycle=1)
 ----------------------------------------------------------------------
 -----
 title
 -----
 Structure from the checkpoint file:  "DCONF_42_-20_mol1.chk"
 Charge =  0 Multiplicity = 1

                         Standard orientation:
 ---------------------------------------------------------------------
 Center     Atomic      Atomic             Coordinates (Angstroms)
 Number     Number       Type             X           Y           Z
 ---------------------------------------------------------------------
      1          6           0       -2.197889   -0.129237   -0.012106
      2          7           0       -0.951342   -0.753380   -0.149149
      3          1           0       -1.025713   -1.690784   -0.528004
      4          7           0        0.548621    1.107378   -0.392526
      5          6           0        1.894204    1.360364   -0.270501
      6          1           0        2.262527    2.363025   -0.452048
      7          6           0        2.683542    0.279637    0.043439
      8          1           0        3.759658    0.236761    0.141454
      9         16           0        1.705501   -1.116231    0.254188
     10          6           0        0.307620   -0.160525   -0.151336
     11          8           0       -3.200390   -0.755084   -0.313528
     12          6           0       -2.218739    1.265404    0.557882
     13          1           0       -1.922897    1.983514   -0.209054
     14          1           0       -3.236902    1.468441    0.889792
     15          1           0       -1.514954    1.367562    1.386532
 ---------------------------------------------------------------------

 SCF Done:  E(RHF) =  -776.108738775     A.U. after    2 cycles

 The electronic state is 1-A.
 Alpha  occ. eigenvalues --  -75.73683 -21.04172 -15.79449 -15.74993 -13.19302
 Alpha  occ. eigenvalues --  -13.17896 -13.05886 -11.51824 -11.49162 -11.46073
 Alpha  occ. eigenvalues --  -11.40648 -11.38855  -8.08306  -1.71763  -1.52251
 Alpha  occ. eigenvalues --   -1.37407  -1.20331  -1.10815  -1.06813  -0.86801
 Alpha  occ. eigenvalues --   -0.84213  -0.76401  -0.71839  -0.64484  -0.62627
 Alpha  occ. eigenvalues --   -0.60430  -0.57379  -0.55218  -0.53740  -0.49934
 Alpha  occ. eigenvalues --   -0.48411  -0.44065  -0.39277  -0.37568  -0.33017
 Alpha  occ. eigenvalues --   -0.29919  -0.27474
 Alpha virt. eigenvalues --    0.02788   0.04110   0.05094   0.05937   0.06827
 Alpha virt. eigenvalues --    0.07209   0.07917   0.09452   0.09675   0.10775
 Alpha virt. eigenvalues --    0.11149   0.11986   0.12559   0.12564   0.13071

 Mulliken charges:
               1
     1  C    4.601622
     2  N   -2.716561
     3  H    0.631807
     4  N   -2.917824
     5  C    0.486515
     6  H    1.584781
     7  C   -2.405296
     8  H    1.203819
     9  S    1.585622
    10  C    1.619451
    11  O   -3.237870
    12  C   -4.274761
    13  H    1.391987
    14  H    1.077543
    15  H    1.369164
 Sum of Mulliken charges =   0.00000

 Dipole moment (field-independent basis, Debye):
    X=              3.1151    Y=             -1.9752    Z=              1.0570  Tot=              3.8370

 Test job not archived.
 1\1\GINC-SE253\SP\RHF\Aug-CC-pVDZ\C5H6N2O1S1\OHZDE\09-Apr-2025\0\\#t h
 f aug-cc-pvdz iop(5/13=1,5/36=2,99/5=2) pseudo=read geom=check guess=(
 read,tcheck) scf=(maxcycle=1)\\title\\0,1\C,0,28.0914,-17.3623,-0.4207
 \N,0,29.3238,-16.8402,-0.0074\H,0,29.2222,-16.0015,0.553\N,0,30.7431,-
 18.7785,0.0037\C,0,32.0879,-19.0627,-0.0114\H,0,32.41,-20.0972,-0.0081
 \C,0,32.9323,-17.9782,0.0094\H,0,34.0129,-17.966,0.0497\S,0,32.0171,-1
 6.5251,-0.009\C,0,30.5602,-17.4784,0.0146\O,0,27.0723,-16.768,-0.1112\
 C,0,28.1129,-18.6026,-1.276\H,0,28.2961,-19.4795,-0.6524\H,0,27.14,-18

 Normal termination of Gaussian 16 at Wed Apr  9 02:28:13 2025.
