 Gaussian 16, Revision C.01,

 ----------------------------------------------------------------------
 #t hf aug-cc-pvdz symm=none int=(grid=ultrafine) guess=(read,tcheck) s
 table=(opt,rrhf)
 ----------------------------------------------------------------------
 -----
 title
 -----
 Symbolic Z-matrix:
 Charge =  0 Multiplicity = 1

 SCF Done:  E(RHF) =  -911.017119680     A.U. after   16 cycles
 Normal termination of Gaussian 16 at Wed Apr  9 02:29:55 2025.
 Gaussian 16:  ES64L-G16RevC.01  3-Jul-2019

 ----------------------------------------------------------------------
 #t hf aug-cc-pvdz iop(5/13=1,5/36=2,99/5=2) pseudo=read geom=check gue
 ss=(read,tcheck) scf=(maxcycle=1)
 ----------------------------------------------------------------------
 -----
 title
 -----
 Structure from the checkpoint file:  "DCONF_30_-30_mol1.chk"
 Charge =  0 Multiplicity = 1

                         Standard orientation:
 ---------------------------------------------------------------------
 Center     Atomic      Atomic             Coordinates (Angstroms)
 Number     Number       Type             X           Y           Z
 ---------------------------------------------------------------------
      1          6           0        2.532544    1.446669   -0.460474
      2          1           0        2.852021    2.440377   -0.762358
      3          6           0        1.174873    1.112555   -0.513297
      4          1           0        0.429781    1.822499   -0.857775
      5          6           0        0.781044   -0.170221   -0.115675
      6         16           0       -0.927016   -0.675508   -0.179503
      7          7           0       -1.694247    0.801143    0.075336
      8          6           0       -1.657698    1.215154    1.484316
      9          1           0       -0.640710    1.120341    1.872481
     10          1           0       -2.330549    0.612786    2.107672
     11          1           0       -1.952220    2.266686    1.531076
     12          6           0       -3.051877    0.852210   -0.488574
     13          1           0       -3.019438    0.601927   -1.548230
     14          1           0       -3.408203    1.878050   -0.369502
     15          1           0       -3.742697    0.172297    0.028491
     16          6           0        1.707233   -1.112039    0.348331
     17          1           0        1.367038   -2.088235    0.680827
     18          6           0        3.061983   -0.767264    0.380291
     19          1           0        3.792036   -1.490908    0.732293
     20          6           0        3.475086    0.511242   -0.015390
     21          1           0        4.527919    0.777299    0.021655
     22          8           0       -1.148133   -1.594643    0.933058
     23          8           0       -1.267132   -1.085711   -1.534196
 ---------------------------------------------------------------------

 SCF Done:  E(RHF) =  -913.675397645     A.U. after    2 cycles

 The electronic state is 1-A.
 Alpha  occ. eigenvalues --  -75.89261 -21.03900 -21.03747 -15.75073 -13.51067
 Alpha  occ. eigenvalues --  -13.44109 -13.38406 -11.54346 -11.46316 -11.46023
 Alpha  occ. eigenvalues --  -11.43816 -11.43018 -11.41202 -11.40315 -11.38941
 Alpha  occ. eigenvalues --   -8.24357  -1.82743  -1.64485  -1.44359  -1.35771
 Alpha  occ. eigenvalues --   -1.14490  -1.11260  -1.05785  -1.02584  -0.90391
 Alpha  occ. eigenvalues --   -0.88551  -0.81649  -0.73747  -0.68902  -0.66236
 Alpha  occ. eigenvalues --   -0.65182  -0.63219  -0.60425  -0.59499  -0.58389
 Alpha  occ. eigenvalues --   -0.56713  -0.53910  -0.52385  -0.51791  -0.48790
 Alpha  occ. eigenvalues --   -0.47315  -0.45376  -0.41548  -0.39082  -0.36281
 Alpha  occ. eigenvalues --   -0.35023  -0.34751  -0.34343  -0.32961
 Alpha virt. eigenvalues --    0.02904   0.04229   0.04838   0.05014   0.05355
 Alpha virt. eigenvalues --    0.06053   0.06637   0.07177   0.07460   0.07883
 Alpha virt. eigenvalues --    0.08213   0.08980   0.10398   0.11574   0.12095

 Mulliken charges:
               1
     1  C   -0.844828
     2  H    1.494995
     3  C   -2.257338
     4  H    2.089599
     5  C    2.152631
     6  S    7.122784
     7  N   -2.848553
     8  C   -3.830207
     9  H    1.666307
    10  H    1.446744
    11  H    1.303849
    12  C   -3.856546
    13  H    1.504105
    14  H    1.448254
    15  H    1.443621
    16  C   -3.758753
    17  H    1.826552
    18  C   -0.792633
    19  H    1.514980
    20  C   -2.967980
    21  H    1.579029
    22  O   -2.849505
    23  O   -2.587103
 Sum of Mulliken charges =   0.00000

 Dipole moment (field-independent basis, Debye):
    X=              1.2089    Y=              2.3572    Z=              0.8431  Tot=              2.7800

 Test job not archived.
 1\1\GINC-SE423\SP\RHF\Aug-CC-pVDZ\C8H11N1O2S1\OHZDE\09-Apr-2025\0\\#t
 hf aug-cc-pvdz iop(5/13=1,5/36=2,99/5=2) pseudo=read geom=check guess=
 (read,tcheck) scf=(maxcycle=1)\\title\\0,1\C,0,2.8679,-3.7856,-0.2492\
 H,0,2.8842,-4.7753,0.199\C,0,1.7019,-3.0154,-0.179\H,0,0.811,-3.3807,0
 .3217\C,0,1.6975,-1.7451,-0.7664\S,0,0.2574,-0.6973,-0.6951\N,0,-0.963
 7,-1.8554,-0.6526\C,0,-1.2135,-2.4541,-1.9706\H,0,-0.2676,-2.7589,-2.4
 248\H,0,-1.7221,-1.7576,-2.6491\H,0,-1.8314,-3.3433,-1.8217\C,0,-2.197
 4,-1.3716,-0.0141\H,0,-1.9726,-0.9982,0.9842\H,0,-2.8731,-2.2266,0.062

 Normal termination of Gaussian 16 at Wed Apr  9 02:30:13 2025.
