 Gaussian 16, Revision C.01,

 ----------------------------------------------------------------------
 #t hf aug-cc-pvdz symm=none int=(grid=ultrafine) guess=(read,tcheck) s
 table=(opt,rrhf)
 ----------------------------------------------------------------------
 -----
 title
 -----
 Symbolic Z-matrix:
 Charge =  0 Multiplicity = 1

 SCF Done:  E(RHF) =  -217.139459311     A.U. after   12 cycles
 Normal termination of Gaussian 16 at Wed Apr  9 02:30:11 2025.
 Gaussian 16:  ES64L-G16RevC.01  3-Jul-2019

 ----------------------------------------------------------------------
 #t hf aug-cc-pvdz iop(5/13=1,5/36=2,99/5=2) pseudo=read geom=check gue
 ss=(read,tcheck) scf=(maxcycle=1)
 ----------------------------------------------------------------------
 -----
 title
 -----
 Structure from the checkpoint file:  "DCONF_7_-150_mol1.chk"
 Charge =  0 Multiplicity = 1

                         Standard orientation:
 ---------------------------------------------------------------------
 Center     Atomic      Atomic             Coordinates (Angstroms)
 Number     Number       Type             X           Y           Z
 ---------------------------------------------------------------------
      1          9           0        1.828614   -0.152395   -0.196417
      2          6           0        0.637362    0.470379    0.187843
      3          1           0        0.797508    0.911320    1.175534
      4          1           0        0.456651    1.270585   -0.536874
      5          6           0       -0.510456   -0.527938    0.173460
      6          1           0       -0.286159   -1.264247   -0.605097
      7          1           0       -0.559659   -1.066970    1.123931
      8          6           0       -1.844828    0.149594   -0.145419
      9          1           0       -1.817663    0.601420   -1.141201
     10          1           0       -2.075244    0.939140    0.577561
     11          1           0       -2.665430   -0.571902   -0.121407
 ---------------------------------------------------------------------

 SCF Done:  E(RHF) =  -218.095048529     A.U. after    2 cycles

 The electronic state is 1-A.
 Alpha  occ. eigenvalues --  -29.24006 -11.45143 -11.40036 -11.36127  -1.25281
 Alpha  occ. eigenvalues --   -1.05677  -0.87520  -0.68622  -0.66865  -0.58974
 Alpha  occ. eigenvalues --   -0.57689  -0.50832  -0.48546  -0.47748  -0.35471
 Alpha  occ. eigenvalues --   -0.24081  -0.23484
 Alpha virt. eigenvalues --    0.03834   0.05529   0.05813   0.06041   0.06715
 Alpha virt. eigenvalues --    0.06742   0.07208   0.11605   0.12381   0.14712
 Alpha virt. eigenvalues --    0.15156   0.15328   0.16680   0.17603   0.18024

 Mulliken charges:
               1
     1  F    0.270514
     2  C   -2.499599
     3  H    1.333674
     4  H    1.377581
     5  C   -3.389398
     6  H    1.485930
     7  H    1.281742
     8  C   -3.534118
     9  H    1.225608
    10  H    1.265628
    11  H    1.182438
 Sum of Mulliken charges =  -0.00000

 Dipole moment (field-independent basis, Debye):
    X=              0.5572    Y=             -0.4270    Z=             -0.1691  Tot=              0.7221

 Test job not archived.
 1\1\GINC-SE021\SP\RHF\Aug-CC-pVDZ\C3H7F1\OHZDE\09-Apr-2025\0\\#t hf au
 g-cc-pvdz iop(5/13=1,5/36=2,99/5=2) pseudo=read geom=check guess=(read
 ,tcheck) scf=(maxcycle=1)\\title\\0,1\F,0,13.2553,-26.4747,0.005\C,0,1
 4.404,-25.6778,0.0001\H,0,14.3487,-25.022,-0.8731\H,0,14.3642,-25.0688
 ,0.9088\C,0,15.6519,-26.5479,-0.0015\H,0,15.4015,-27.4698,0.5333\H,0,1
 5.9197,-26.8296,-1.0239\C,0,16.8218,-25.8595,0.7047\H,0,16.5794,-25.67
 13,1.7546\H,0,17.0626,-24.8994,0.2363\H,0,17.7204,-26.4806,0.669\\Vers
 ion=ES64L-G16RevC.01\State=1-A\HF=-218.0950485\RMSD=2.412e-01\Dipole=-

 Normal termination of Gaussian 16 at Wed Apr  9 02:30:13 2025.
