 Gaussian 16, Revision C.01,

 ----------------------------------------------------------------------
 #t hf aug-cc-pvdz symm=none int=(grid=ultrafine) guess=(read,tcheck) s
 table=(opt,rrhf)
 ----------------------------------------------------------------------
 -----
 title
 -----
 Symbolic Z-matrix:
 Charge =  0 Multiplicity = 1

 SCF Done:  E(RHF) =  -774.182580187     A.U. after   16 cycles
 Normal termination of Gaussian 16 at Wed Apr  9 02:28:03 2025.
 Gaussian 16:  ES64L-G16RevC.01  3-Jul-2019

 ----------------------------------------------------------------------
 #t hf aug-cc-pvdz iop(5/13=1,5/36=2,99/5=2) pseudo=read geom=check gue
 ss=(read,tcheck) scf=(maxcycle=1)
 ----------------------------------------------------------------------
 -----
 title
 -----
 Structure from the checkpoint file:  "DCONF_42_-160_mol1.chk"
 Charge =  0 Multiplicity = 1

                         Standard orientation:
 ---------------------------------------------------------------------
 Center     Atomic      Atomic             Coordinates (Angstroms)
 Number     Number       Type             X           Y           Z
 ---------------------------------------------------------------------
      1          6           0       -1.989952   -0.110180    0.007700
      2          7           0       -0.963408    0.783327   -0.237049
      3          1           0       -1.159697    1.776767   -0.218154
      4          7           0        1.268980    1.461682    0.046241
      5          6           0        2.531594    0.930845    0.135588
      6          1           0        3.378084    1.595764    0.258616
      7          6           0        2.603136   -0.440828    0.071875
      8          1           0        3.478344   -1.072213    0.145815
      9         16           0        1.031295   -1.116492   -0.101622
     10          6           0        0.391828    0.489285   -0.086817
     11          8           0       -1.781602   -1.306106    0.150697
     12          6           0       -3.363909    0.517109    0.077885
     13          1           0       -3.432030    1.434952   -0.510568
     14          1           0       -4.097180   -0.206115   -0.279804
     15          1           0       -3.590616    0.751122    1.122735
 ---------------------------------------------------------------------

 SCF Done:  E(RHF) =  -776.115081561     A.U. after    2 cycles

 The electronic state is 1-A.
 Alpha  occ. eigenvalues --  -75.72232 -21.04729 -15.80074 -15.73701 -13.18631
 Alpha  occ. eigenvalues --  -13.16731 -13.04101 -11.52450 -11.47492 -11.44319
 Alpha  occ. eigenvalues --  -11.40773 -11.38869  -8.06775  -1.72752  -1.51186
 Alpha  occ. eigenvalues --   -1.37922  -1.18666  -1.12906  -1.04807  -0.87095
 Alpha  occ. eigenvalues --   -0.80917  -0.78444  -0.69537  -0.66422  -0.63892
 Alpha  occ. eigenvalues --   -0.60882  -0.58100  -0.54182  -0.52549  -0.49936
 Alpha  occ. eigenvalues --   -0.49312  -0.43195  -0.38839  -0.36591  -0.31680
 Alpha  occ. eigenvalues --   -0.30000  -0.27046
 Alpha virt. eigenvalues --    0.02920   0.04039   0.05540   0.05690   0.06046
 Alpha virt. eigenvalues --    0.07110   0.08983   0.09050   0.10601   0.11290
 Alpha virt. eigenvalues --    0.12204   0.12482   0.12796   0.13728   0.13739

 Mulliken charges:
               1
     1  C    4.266224
     2  N   -3.471922
     3  H    0.867571
     4  N   -3.107730
     5  C    0.544859
     6  H    1.561146
     7  C   -2.779691
     8  H    1.206811
     9  S    1.944164
    10  C    2.632817
    11  O   -3.031100
    12  C   -4.465533
    13  H    1.342672
    14  H    1.188499
    15  H    1.301213
 Sum of Mulliken charges =  -0.00000

 Dipole moment (field-independent basis, Debye):
    X=             -1.7543    Y=             -1.6867    Z=             -0.0980  Tot=              2.4356

 Test job not archived.
 1\1\GINC-SE164\SP\RHF\Aug-CC-pVDZ\C5H6N2O1S1\OHZDE\09-Apr-2025\0\\#t h
 f aug-cc-pvdz iop(5/13=1,5/36=2,99/5=2) pseudo=read geom=check guess=(
 read,tcheck) scf=(maxcycle=1)\\title\\0,1\C,0,29.0098,-15.5972,-0.3758
 \N,0,29.3067,-16.89,0.0148\H,0,28.5688,-17.5837,0.0245\N,0,30.7346,-18
 .7567,-0.0077\C,0,32.0722,-19.0643,0.0055\H,0,32.3765,-20.1041,0.0013\
 C,0,32.9274,-17.9876,0.0093\H,0,34.009,-17.9885,-0.0063\S,0,32.039,-16
 .5153,-0.0103\C,0,30.5844,-17.449,-0.0116\O,0,29.8844,-14.7623,-0.555\
 C,0,27.5343,-15.3192,-0.5541\H,0,26.9116,-15.9658,0.0684\H,0,27.3431,-

 Normal termination of Gaussian 16 at Wed Apr  9 02:28:10 2025.
