 Gaussian 16, Revision C.01,

 ----------------------------------------------------------------------
 #t hf aug-cc-pvdz symm=none int=(grid=ultrafine) guess=(read,tcheck) s
 table=(opt,rrhf)
 ----------------------------------------------------------------------
 -----
 title
 -----
 Symbolic Z-matrix:
 Charge =  0 Multiplicity = 1

 SCF Done:  E(RHF) =  -796.900964074     A.U. after   16 cycles
 Normal termination of Gaussian 16 at Wed Apr  9 02:30:43 2025.
 Gaussian 16:  ES64L-G16RevC.01  3-Jul-2019

 ----------------------------------------------------------------------
 #t hf aug-cc-pvdz iop(5/13=1,5/36=2,99/5=2) pseudo=read geom=check gue
 ss=(read,tcheck) scf=(maxcycle=1)
 ----------------------------------------------------------------------
 -----
 title
 -----
 Structure from the checkpoint file:  "DCONF_55_-100_mol1.chk"
 Charge =  0 Multiplicity = 1

                         Standard orientation:
 ---------------------------------------------------------------------
 Center     Atomic      Atomic             Coordinates (Angstroms)
 Number     Number       Type             X           Y           Z
 ---------------------------------------------------------------------
      1          6           0       -1.399291    1.077663   -0.594518
      2          1           0       -0.862993    1.899913   -1.061408
      3          6           0       -2.795993    1.019630   -0.637637
      4          1           0       -3.353904    1.800510   -1.147635
      5          6           0       -3.474865   -0.038036   -0.018960
      6          1           0       -4.560043   -0.081456   -0.052785
      7          6           0       -2.753965   -1.038265    0.644936
      8          1           0       -3.279002   -1.853992    1.134906
      9          6           0       -1.356790   -0.982277    0.692308
     10          1           0       -0.790741   -1.746755    1.219272
     11          6           0       -0.674129    0.069791    0.061077
     12          7           0        1.453058    0.955165    0.970826
     13          6           0        2.804437    0.792820    0.816426
     14          1           0        3.484967    1.376233    1.426174
     15          6           0        3.193447   -0.134829   -0.129269
     16          1           0        4.196283   -0.421776   -0.416532
     17         16           0        1.809904   -0.826362   -0.859968
     18          6           0        0.796410    0.160664    0.142592
 ---------------------------------------------------------------------

 SCF Done:  E(RHF) =  -799.012848126     A.U. after    2 cycles

 The electronic state is 1-A.
 Alpha  occ. eigenvalues --  -75.72490 -15.74427 -13.18900 -13.17297 -13.05363
 Alpha  occ. eigenvalues --  -11.53164 -11.46736 -11.44983 -11.44195 -11.44011
 Alpha  occ. eigenvalues --  -11.41974 -11.41364 -11.39517 -11.37251  -8.07094
 Alpha  occ. eigenvalues --   -1.48494  -1.33744  -1.18487  -1.14065  -1.09624
 Alpha  occ. eigenvalues --   -1.04525  -0.89056  -0.86979  -0.81691  -0.76808
 Alpha  occ. eigenvalues --   -0.70850  -0.69031  -0.63700  -0.59462  -0.58539
 Alpha  occ. eigenvalues --   -0.56127  -0.54497  -0.53074  -0.49226  -0.45481
 Alpha  occ. eigenvalues --   -0.45209  -0.42476  -0.36035  -0.34222  -0.33467
 Alpha  occ. eigenvalues --   -0.32181  -0.28749
 Alpha virt. eigenvalues --    0.03073   0.04095   0.05290   0.05416   0.05670
 Alpha virt. eigenvalues --    0.06670   0.06951   0.07849   0.09571   0.10332
 Alpha virt. eigenvalues --    0.10815   0.11584   0.11820   0.12028   0.12534

 Mulliken charges:
               1
     1  C   -3.588650
     2  H    1.743132
     3  C   -1.647279
     4  H    1.506814
     5  C   -2.856387
     6  H    1.562047
     7  C   -1.731923
     8  H    1.515178
     9  C   -3.245155
    10  H    1.807622
    11  C    6.680546
    12  N   -3.675295
    13  C    0.896653
    14  H    1.577094
    15  C   -2.836091
    16  H    1.257022
    17  S    0.901013
    18  C    0.133658
 Sum of Mulliken charges =   0.00000

 Dipole moment (field-independent basis, Debye):
    X=             -0.1130    Y=             -2.1880    Z=             -2.2679  Tot=              3.1534

 Test job not archived.
 1\1\GINC-SE459\SP\RHF\Aug-CC-pVDZ\C9H7N1S1\OHZDE\09-Apr-2025\0\\#t hf
 aug-cc-pvdz iop(5/13=1,5/36=2,99/5=2) pseudo=read geom=check guess=(re
 ad,tcheck) scf=(maxcycle=1)\\title\\0,1\C,0,21.8286,-21.1406,-0.0049\H
 ,0,22.3917,-20.2108,0.0044\C,0,20.4301,-21.129,0.0032\H,0,19.8975,-20.
 1817,0.0131\C,0,19.7173,-22.3349,0.006\H,0,18.6308,-22.3243,0.0129\C,0
 ,20.4061,-23.5541,0.002\H,0,19.8553,-24.4909,0.0151\C,0,21.8051,-23.56
 97,-0.0036\H,0,22.3472,-24.5123,0.0091\C,0,22.521,-22.362,-0.0202\N,0,
 24.7185,-22.151,1.1036\C,0,26.0542,-22.2436,0.8142\H,0,26.7827,-22.090

 Normal termination of Gaussian 16 at Wed Apr  9 02:30:54 2025.
