 Gaussian 16, Revision C.01,

 ----------------------------------------------------------------------
 #t hf aug-cc-pvdz symm=none int=(grid=ultrafine) guess=(read,tcheck) s
 table=(opt,rrhf)
 ----------------------------------------------------------------------
 -----
 title
 -----
 Symbolic Z-matrix:
 Charge =  0 Multiplicity = 1

 SCF Done:  E(RHF) =  -681.467035454     A.U. after   13 cycles
 Normal termination of Gaussian 16 at Wed Apr  9 02:22:54 2025.
 Gaussian 16:  ES64L-G16RevC.01  3-Jul-2019

 ----------------------------------------------------------------------
 #t hf aug-cc-pvdz iop(5/13=1,5/36=2,99/5=2) pseudo=read geom=check gue
 ss=(read,tcheck) scf=(maxcycle=1)
 ----------------------------------------------------------------------
 -----
 title
 -----
 Structure from the checkpoint file:  "DCONF_16_170_mol1.chk"
 Charge =  0 Multiplicity = 1

                         Standard orientation:
 ---------------------------------------------------------------------
 Center     Atomic      Atomic             Coordinates (Angstroms)
 Number     Number       Type             X           Y           Z
 ---------------------------------------------------------------------
      1          6           0        1.695915    0.971971   -0.257031
      2          1           0        1.544528    1.459744   -1.218786
      3          1           0        1.712444    1.691731    0.561852
      4          1           0        2.618288    0.389044   -0.257069
      5         16           0        0.380894   -0.190151    0.018444
      6          8           0        0.229409   -1.056168   -1.137825
      7          7           0       -0.943328    0.856688   -0.001544
      8          1           0       -0.888188    1.427303    0.841516
      9          8           0        0.580796   -0.767177    1.343710
     10          6           0       -2.238726    0.146604   -0.027684
     11          1           0       -2.312167   -0.409239   -0.962176
     12          1           0       -2.366637   -0.540567    0.815599
     13          1           0       -3.024047    0.902888   -0.004016
 ---------------------------------------------------------------------

 SCF Done:  E(RHF) =  -683.028967114     A.U. after    2 cycles

 The electronic state is 1-A.
 Alpha  occ. eigenvalues --  -75.89454 -21.04318 -21.04192 -15.77092 -13.51121
 Alpha  occ. eigenvalues --  -13.42241 -13.35090 -11.42672 -11.40932  -8.24623
 Alpha  occ. eigenvalues --   -1.83077  -1.64761  -1.40426  -1.15443  -1.00998
 Alpha  occ. eigenvalues --   -0.87597  -0.70417  -0.65500  -0.63978  -0.62796
 Alpha  occ. eigenvalues --   -0.57879  -0.54906  -0.53064  -0.47586  -0.41713
 Alpha  occ. eigenvalues --   -0.39141  -0.37635  -0.36037  -0.34146
 Alpha virt. eigenvalues --    0.02795   0.03562   0.04989   0.05656   0.06691
 Alpha virt. eigenvalues --    0.07129   0.07723   0.11113   0.12101   0.12876
 Alpha virt. eigenvalues --    0.13666   0.13940   0.14834   0.15020   0.15687

 Mulliken charges:
               1
     1  C   -4.516046
     2  H    1.325861
     3  H    1.357409
     4  H    1.341370
     5  S    7.133364
     6  O   -2.663578
     7  N   -2.734737
     8  H    0.677543
     9  O   -2.619019
    10  C   -3.338440
    11  H    1.418057
    12  H    1.305905
    13  H    1.312312
 Sum of Mulliken charges =   0.00000

 Dipole moment (field-independent basis, Debye):
    X=             -0.6254    Y=              2.1049    Z=              0.3298  Tot=              2.2205

 Test job not archived.
 1\1\GINC-SE195\SP\RHF\Aug-CC-pVDZ\C2H7N1O2S1\OHZDE\09-Apr-2025\0\\#t h
 f aug-cc-pvdz iop(5/13=1,5/36=2,99/5=2) pseudo=read geom=check guess=(
 read,tcheck) scf=(maxcycle=1)\\title\\0,1\C,0,-1.0853,-1.4007,-0.6377\
 H,0,-0.8536,-0.7863,0.231\H,0,-0.3906,-1.2175,-1.4579\H,0,-2.1092,-1.2
 295,-0.9737\S,0,-1.,-3.1142,-0.1769\O,0,-1.7887,-3.3493,1.02\N,0,0.616
 8,-3.2087,0.2994\H,0,1.1842,-3.113,-0.5422\O,0,-1.245,-3.9012,-1.381\C
 ,0,0.9465,-4.4837,0.9692\H,0,0.3809,-4.545,1.8987\H,0,0.7268,-5.3607,0
 .3509\H,0,2.0111,-4.461,1.2045\\Version=ES64L-G16RevC.01\State=1-A\HF=

 Normal termination of Gaussian 16 at Wed Apr  9 02:22:58 2025.
