 Gaussian 16, Revision C.01,

 ----------------------------------------------------------------------
 #t hf aug-cc-pvdz symm=none int=(grid=ultrafine) guess=(read,tcheck) s
 table=(opt,rrhf)
 ----------------------------------------------------------------------
 -----
 title
 -----
 Symbolic Z-matrix:
 Charge =  0 Multiplicity = 1

 SCF Done:  E(RHF) =  -217.134270429     A.U. after   11 cycles
 Normal termination of Gaussian 16 at Wed Apr  9 02:31:12 2025.
 Gaussian 16:  ES64L-G16RevC.01  3-Jul-2019

 ----------------------------------------------------------------------
 #t hf aug-cc-pvdz iop(5/13=1,5/36=2,99/5=2) pseudo=read geom=check gue
 ss=(read,tcheck) scf=(maxcycle=1)
 ----------------------------------------------------------------------
 -----
 title
 -----
 Structure from the checkpoint file:  "DCONF_7_0_mol1.chk"
 Charge =  0 Multiplicity = 1

                         Standard orientation:
 ---------------------------------------------------------------------
 Center     Atomic      Atomic             Coordinates (Angstroms)
 Number     Number       Type             X           Y           Z
 ---------------------------------------------------------------------
      1          9           0        1.237444   -0.771968   -0.000016
      2          6           0        0.886088    0.581645   -0.000004
      3          1           0        1.344827    1.020717    0.889069
      4          1           0        1.344733    1.020810   -0.888942
      5          6           0       -0.642727    0.769825    0.000003
      6          1           0       -0.930299    1.356232    0.877907
      7          1           0       -0.930331    1.356335   -0.877904
      8          6           0       -1.424582   -0.547250   -0.000035
      9          1           0       -1.190383   -1.147058    0.881685
     10          1           0       -1.190552   -1.146989   -0.881627
     11          1           0       -2.497663   -0.337650    0.000179
 ---------------------------------------------------------------------

 SCF Done:  E(RHF) =  -218.087934123     A.U. after    2 cycles

 The electronic state is 1-A.
 Alpha  occ. eigenvalues --  -29.23902 -11.44916 -11.39640 -11.35512  -1.24474
 Alpha  occ. eigenvalues --   -1.05138  -0.87820  -0.66903  -0.66844  -0.60218
 Alpha  occ. eigenvalues --   -0.57197  -0.49839  -0.47672  -0.47459  -0.35099
 Alpha  occ. eigenvalues --   -0.23902  -0.23832
 Alpha virt. eigenvalues --    0.04056   0.05455   0.05871   0.06172   0.06595
 Alpha virt. eigenvalues --    0.06731   0.07220   0.11837   0.12666   0.14329
 Alpha virt. eigenvalues --    0.14874   0.15413   0.16210   0.16752   0.18565

 Mulliken charges:
               1
     1  F    0.245396
     2  C   -2.620323
     3  H    1.489027
     4  H    1.489150
     5  C   -3.414606
     6  H    1.251236
     7  H    1.251150
     8  C   -3.454599
     9  H    1.311212
    10  H    1.311380
    11  H    1.140976
 Sum of Mulliken charges =   0.00000

 Dipole moment (field-independent basis, Debye):
    X=              0.2693    Y=             -0.8432    Z=             -0.0002  Tot=              0.8852

 Test job not archived.
 1\1\GINC-SE015\SP\RHF\Aug-CC-pVDZ\C3H7F1\OHZDE\09-Apr-2025\0\\#t hf au
 g-cc-pvdz iop(5/13=1,5/36=2,99/5=2) pseudo=read geom=check guess=(read
 ,tcheck) scf=(maxcycle=1)\\title\\0,1\F,0,13.2416,-26.4694,0.005\C,0,1
 4.3978,-25.6827,0.0001\H,0,14.3396,-25.0521,-0.8902\H,0,14.3446,-25.04
 82,0.8878\C,0,15.6718,-26.5485,-0.0015\H,0,16.2721,-26.2988,-0.8816\H,
 0,16.277,-26.2949,0.8742\C,0,15.3921,-28.0544,0.0026\H,0,14.8183,-28.3
 532,-0.8769\H,0,14.8233,-28.3494,0.8864\H,0,16.3374,-28.6038,0.001\\Ve
 rsion=ES64L-G16RevC.01\State=1-A\HF=-218.0879341\RMSD=2.349e-01\Dipole

 Normal termination of Gaussian 16 at Wed Apr  9 02:31:14 2025.
