 Gaussian 16, Revision C.01,

 ----------------------------------------------------------------------
 #t hf aug-cc-pvdz symm=none int=(grid=ultrafine) guess=(read,tcheck) s
 table=(opt,rrhf)
 ----------------------------------------------------------------------
 -----
 title
 -----
 Symbolic Z-matrix:
 Charge =  0 Multiplicity = 1

 SCF Done:  E(RHF) =  -681.469428665     A.U. after   13 cycles
 Normal termination of Gaussian 16 at Wed Apr  9 02:22:26 2025.
 Gaussian 16:  ES64L-G16RevC.01  3-Jul-2019

 ----------------------------------------------------------------------
 #t hf aug-cc-pvdz iop(5/13=1,5/36=2,99/5=2) pseudo=read geom=check gue
 ss=(read,tcheck) scf=(maxcycle=1)
 ----------------------------------------------------------------------
 -----
 title
 -----
 Structure from the checkpoint file:  "DCONF_16_0_mol2.chk"
 Charge =  0 Multiplicity = 1

                         Standard orientation:
 ---------------------------------------------------------------------
 Center     Atomic      Atomic             Coordinates (Angstroms)
 Number     Number       Type             X           Y           Z
 ---------------------------------------------------------------------
      1          6           0       -1.127561    1.397710   -0.406050
      2          1           0       -0.434391    2.193223   -0.130338
      3          1           0       -1.290426    1.370363   -1.482413
      4          1           0       -2.070194    1.515487    0.130254
      5         16           0       -0.439962   -0.161448    0.098898
      6          8           0       -0.168634   -0.078535    1.526411
      7          7           0        1.003563   -0.188291   -0.755488
      8          1           0        1.070753   -1.093113   -1.213258
      9          8           0       -1.260498   -1.223325   -0.462235
     10          6           0        2.221606    0.179198   -0.020110
     11          1           0        2.145518    1.217817    0.306801
     12          1           0        2.403069   -0.450858    0.854470
     13          1           0        3.058904    0.101716   -0.715916
 ---------------------------------------------------------------------

 SCF Done:  E(RHF) =  -683.031134727     A.U. after    2 cycles

 The electronic state is 1-A.
 Alpha  occ. eigenvalues --  -75.89551 -21.04380 -21.04347 -15.76817 -13.51457
 Alpha  occ. eigenvalues --  -13.41910 -13.35743 -11.42420 -11.41183  -8.24696
 Alpha  occ. eigenvalues --   -1.83263  -1.65066  -1.40226  -1.14783  -1.01968
 Alpha  occ. eigenvalues --   -0.87645  -0.69352  -0.65706  -0.63686  -0.62454
 Alpha  occ. eigenvalues --   -0.58651  -0.57365  -0.52674  -0.45317  -0.42532
 Alpha  occ. eigenvalues --   -0.38904  -0.37372  -0.36284  -0.35110
 Alpha virt. eigenvalues --    0.02705   0.03924   0.04993   0.05859   0.06561
 Alpha virt. eigenvalues --    0.06847   0.07885   0.10612   0.11879   0.13175
 Alpha virt. eigenvalues --    0.13844   0.14398   0.14757   0.15280   0.15526

 Mulliken charges:
               1
     1  C   -4.436598
     2  H    1.389428
     3  H    1.372439
     4  H    1.357098
     5  S    6.848120
     6  O   -2.507961
     7  N   -2.683256
     8  H    0.517609
     9  O   -2.616199
    10  C   -3.225173
    11  H    1.377504
    12  H    1.327936
    13  H    1.279053
 Sum of Mulliken charges =  -0.00000

 Dipole moment (field-independent basis, Debye):
    X=              1.6239    Y=              1.1546    Z=             -0.9857  Tot=              2.2230

 Test job not archived.
 1\1\GINC-SE131\SP\RHF\Aug-CC-pVDZ\C2H7N1O2S1\OHZDE\09-Apr-2025\0\\#t h
 f aug-cc-pvdz iop(5/13=1,5/36=2,99/5=2) pseudo=read geom=check guess=(
 read,tcheck) scf=(maxcycle=1)\\title\\0,1\C,0,-1.1153,-1.3956,-0.6123\
 H,0,-0.8192,-0.7875,0.2432\H,0,-0.4646,-1.2189,-1.4674\H,0,-2.1587,-1.
 2055,-0.8677\S,0,-1.0003,-3.1112,-0.1626\O,0,-1.8241,-3.3098,1.0207\N,
 0,0.622,-3.2478,0.2423\H,0,0.9893,-4.0639,-0.2392\O,0,-1.1846,-3.9096,
 -1.3644\C,0,0.9577,-3.221,1.6727\H,0,0.678,-2.2521,2.0903\H,0,0.4596,-
 4.0067,2.2466\H,0,2.0407,-3.3278,1.7559\\Version=ES64L-G16RevC.01\Stat

 Normal termination of Gaussian 16 at Wed Apr  9 02:22:30 2025.
