 Gaussian 16, Revision C.01,

 ----------------------------------------------------------------------
 #t hf aug-cc-pvdz symm=none int=(grid=ultrafine) guess=(read,tcheck) s
 table=(opt,rrhf)
 ----------------------------------------------------------------------
 -----
 title
 -----
 Symbolic Z-matrix:
 Charge =  0 Multiplicity = 1

 SCF Done:  E(RHF) =  -1153.54745534     A.U. after   15 cycles
 Normal termination of Gaussian 16 at Wed Apr  9 02:27:01 2025.
 Gaussian 16:  ES64L-G16RevC.01  3-Jul-2019

 ----------------------------------------------------------------------
 #t hf aug-cc-pvdz iop(5/13=1,5/36=2,99/5=2) pseudo=read geom=check gue
 ss=(read,tcheck) scf=(maxcycle=1)
 ----------------------------------------------------------------------
 -----
 title
 -----
 Structure from the checkpoint file:  "DCONF_29_110_mol1.chk"
 Charge =  0 Multiplicity = 1

                         Standard orientation:
 ---------------------------------------------------------------------
 Center     Atomic      Atomic             Coordinates (Angstroms)
 Number     Number       Type             X           Y           Z
 ---------------------------------------------------------------------
      1          6           0       -2.742562   -0.160921    0.057593
      2          1           0       -3.745029   -0.568271    0.068589
      3          6           0       -2.351808    1.166285    0.102220
      4          1           0       -3.030567    2.009475    0.152936
      5          7           0       -1.005905    1.386533    0.067705
      6          6           0       -0.374092    0.230663    0.013045
      7         16           0       -1.371983   -1.174255   -0.055076
      8         16           0        1.403725    0.098119   -0.168323
      9          6           0        1.913319   -0.509369    1.428161
     10          1           0        1.639590    0.224087    2.188110
     11          1           0        2.998782   -0.619392    1.376423
     12          1           0        1.441568   -1.475869    1.607902
     13          8           0        1.948029    1.428223   -0.360177
     14          8           0        1.621968   -0.980416   -1.127276
 ---------------------------------------------------------------------

 SCF Done:  E(RHF) =  -1155.64901147     A.U. after    2 cycles

 The electronic state is 1-A.
 Alpha  occ. eigenvalues --  -75.90045 -75.75886 -21.05216 -21.05015 -15.78555
 Alpha  occ. eigenvalues --  -13.52289 -13.41884 -13.38577 -13.21721 -13.20497
 Alpha  occ. eigenvalues --  -13.08262 -11.47933 -11.47448 -11.43512 -11.42390
 Alpha  occ. eigenvalues --   -8.25027  -8.10455  -1.83253  -1.65300  -1.50807
 Alpha  occ. eigenvalues --   -1.21996  -1.18203  -1.10530  -0.95759  -0.84759
 Alpha  occ. eigenvalues --   -0.77510  -0.72739  -0.64619  -0.64006  -0.61769
 Alpha  occ. eigenvalues --   -0.57664  -0.56171  -0.55143  -0.45405  -0.43979
 Alpha  occ. eigenvalues --   -0.42061  -0.39767  -0.38311  -0.37460  -0.35647
 Alpha  occ. eigenvalues --   -0.35554  -0.31566
 Alpha virt. eigenvalues --    0.02122   0.03280   0.04737   0.05593   0.06084
 Alpha virt. eigenvalues --    0.07622   0.08189   0.09054   0.10058   0.11092
 Alpha virt. eigenvalues --    0.11636   0.12142   0.12809   0.13321   0.13490

 Mulliken charges:
               1
     1  C   -2.684823
     2  H    1.236597
     3  C    0.762512
     4  H    1.571289
     5  N   -3.685949
     6  C    0.538172
     7  S    1.380254
     8  S    6.451497
     9  C   -4.688708
    10  H    1.371468
    11  H    1.350378
    12  H    1.377457
    13  O   -2.514914
    14  O   -2.465231
 Sum of Mulliken charges =   0.00000

 Dipole moment (field-independent basis, Debye):
    X=             -2.3291    Y=             -3.9040    Z=              1.3369  Tot=              4.7384

 Test job not archived.
 1\1\GINC-SE059\SP\RHF\Aug-CC-pVDZ\C4H5N1O2S2\OHZDE\09-Apr-2025\0\\#t h
 f aug-cc-pvdz iop(5/13=1,5/36=2,99/5=2) pseudo=read geom=check guess=(
 read,tcheck) scf=(maxcycle=1)\\title\\0,1\C,0,2.0229,-24.6256,-0.8863\
 H,0,0.9693,-24.6334,-1.133\C,0,2.8137,-25.6759,-0.4531\H,0,2.4636,-26.
 689,-0.294\N,0,4.1207,-25.3693,-0.2104\C,0,4.3276,-24.094,-0.4731\S,0,
 2.9458,-23.1907,-0.972\S,0,5.8913,-23.2753,-0.1638\C,0,6.5079,-22.9798
 ,-1.81\H,0,6.6476,-23.9387,-2.3114\H,0,7.4659,-22.47,-1.6861\H,0,5.803
 8,-22.341,-2.344\O,0,6.775,-24.2079,0.5082\O,0,5.549,-21.9757,0.4057\\

 Normal termination of Gaussian 16 at Wed Apr  9 02:27:08 2025.
