 Gaussian 16, Revision C.01,

 ----------------------------------------------------------------------
 #t hf aug-cc-pvdz symm=none int=(grid=ultrafine) guess=(read,tcheck) s
 table=(opt,rrhf)
 ----------------------------------------------------------------------
 -----
 title
 -----
 Symbolic Z-matrix:
 Charge =  0 Multiplicity = 1

 SCF Done:  E(RHF) =  -355.053555735     A.U. after   12 cycles
 Normal termination of Gaussian 16 at Wed Apr  9 02:32:28 2025.
 Gaussian 16:  ES64L-G16RevC.01  3-Jul-2019

 ----------------------------------------------------------------------
 #t hf aug-cc-pvdz iop(5/13=1,5/36=2,99/5=2) pseudo=read geom=check gue
 ss=(read,tcheck) scf=(maxcycle=1)
 ----------------------------------------------------------------------
 -----
 title
 -----
 Structure from the checkpoint file:  "DCONF_9_-10_mol1.chk"
 Charge =  0 Multiplicity = 1

                         Standard orientation:
 ---------------------------------------------------------------------
 Center     Atomic      Atomic             Coordinates (Angstroms)
 Number     Number       Type             X           Y           Z
 ---------------------------------------------------------------------
      1          6           0        0.262155   -0.539693    0.457253
      2          1           0        0.537097   -0.675485    1.509601
      3          1           0        0.309005   -1.525805   -0.014390
      4          6           0        1.266804    0.412389   -0.195538
      5          1           0        1.224208    1.384274    0.304092
      6          1           0        0.985798    0.582810   -1.239560
      7          6           0        2.685216   -0.151867   -0.121968
      8          1           0        2.987812   -0.312430    0.918079
      9          1           0        3.404659    0.532232   -0.580318
     10          1           0        2.751655   -1.111781   -0.643668
     11          6           0       -1.189804   -0.076675    0.400820
     12          1           0       -1.722014   -0.140980    1.351575
     13          9           0       -1.889052   -0.838634   -0.503143
     14          9           0       -1.291442    1.216660   -0.035614
 ---------------------------------------------------------------------

 SCF Done:  E(RHF) =  -356.526544267     A.U. after    2 cycles

 The electronic state is 1-A.
 Alpha  occ. eigenvalues --  -29.27059 -29.26789 -11.52768 -11.42444 -11.39414
 Alpha  occ. eigenvalues --  -11.35778  -1.33350  -1.16991  -0.99351  -0.86916
 Alpha  occ. eigenvalues --   -0.78178  -0.73494  -0.65456  -0.63497  -0.56683
 Alpha  occ. eigenvalues --   -0.53945  -0.49155  -0.47862  -0.46650  -0.42117
 Alpha  occ. eigenvalues --   -0.37078  -0.29875  -0.27532  -0.25608  -0.20476
 Alpha virt. eigenvalues --    0.03955   0.04975   0.05849   0.05984   0.06329
 Alpha virt. eigenvalues --    0.06583   0.07403   0.08382   0.11084   0.12750
 Alpha virt. eigenvalues --    0.12963   0.13675   0.14312   0.14893   0.16156

 Mulliken charges:
               1
     1  C   -3.579078
     2  H    1.249444
     3  H    1.401603
     4  C   -3.016124
     5  H    1.507508
     6  H    1.508647
     7  C   -3.866731
     8  H    1.280737
     9  H    1.082773
    10  H    1.247439
    11  C   -1.123435
    12  H    1.727697
    13  F    0.248545
    14  F    0.330976
 Sum of Mulliken charges =  -0.00000

 Dipole moment (field-independent basis, Debye):
    X=             -0.3583    Y=              0.6209    Z=             -0.9990  Tot=              1.2296

 Test job not archived.
 1\1\GINC-SE029\SP\RHF\Aug-CC-pVDZ\C4H8F2\OHZDE\09-Apr-2025\0\\#t hf au
 g-cc-pvdz iop(5/13=1,5/36=2,99/5=2) pseudo=read geom=check guess=(read
 ,tcheck) scf=(maxcycle=1)\\title\\0,1\C,0,-0.117,-0.0992,-0.0782\H,0,-
 0.1676,0.4022,-1.0516\H,0,-0.2136,0.6777,0.6861\C,0,1.2366,-0.8026,0.0
 439\H,0,1.3262,-1.5576,-0.7422\H,0,1.2886,-1.335,0.9988\C,0,2.3866,0.1
 987,-0.059\H,0,2.3583,0.7283,-1.017\H,0,3.3542,-0.3046,0.0192\H,0,2.32
 8,0.9448,0.7397\C,0,-1.3294,-1.0156,0.0485\H,0,-2.0852,-0.875,-0.7263\
 F,0,-1.9491,-0.8073,1.2565\F,0,-0.9692,-2.336,0.0306\\Version=ES64L-G1

 Normal termination of Gaussian 16 at Wed Apr  9 02:32:31 2025.
