 Gaussian 16, Revision C.01,

 ----------------------------------------------------------------------
 #t hf aug-cc-pvdz symm=none int=(grid=ultrafine) guess=(read,tcheck) s
 table=(opt,rrhf)
 ----------------------------------------------------------------------
 -----
 title
 -----
 Symbolic Z-matrix:
 Charge =  0 Multiplicity = 1

 SCF Done:  E(RHF) =  -774.174211382     A.U. after   16 cycles
 Normal termination of Gaussian 16 at Wed Apr  9 02:28:00 2025.
 Gaussian 16:  ES64L-G16RevC.01  3-Jul-2019

 ----------------------------------------------------------------------
 #t hf aug-cc-pvdz iop(5/13=1,5/36=2,99/5=2) pseudo=read geom=check gue
 ss=(read,tcheck) scf=(maxcycle=1)
 ----------------------------------------------------------------------
 -----
 title
 -----
 Structure from the checkpoint file:  "DCONF_42_-50_mol1.chk"
 Charge =  0 Multiplicity = 1

                         Standard orientation:
 ---------------------------------------------------------------------
 Center     Atomic      Atomic             Coordinates (Angstroms)
 Number     Number       Type             X           Y           Z
 ---------------------------------------------------------------------
      1          6           0       -2.163681   -0.068488   -0.002043
      2          7           0       -0.998471   -0.682877   -0.462005
      3          1           0       -1.156506   -1.451941   -1.102872
      4          7           0        0.640155    1.062843   -0.670269
      5          6           0        1.960329    1.272963   -0.374567
      6          1           0        2.410404    2.232394   -0.600842
      7          6           0        2.631552    0.201043    0.176865
      8          1           0        3.677472    0.129877    0.443714
      9         16           0        1.555439   -1.113522    0.380028
     10          6           0        0.290155   -0.162697   -0.334802
     11          8           0       -3.251914   -0.506731   -0.333441
     12          6           0       -1.971107    1.107994    0.924774
     13          1           0       -1.183842    0.912820    1.657661
     14          1           0       -2.918925    1.296614    1.428098
     15          1           0       -1.675588    1.985789    0.345869
 ---------------------------------------------------------------------

 SCF Done:  E(RHF) =  -776.106077983     A.U. after    2 cycles

 The electronic state is 1-A.
 Alpha  occ. eigenvalues --  -75.74018 -21.03716 -15.78683 -15.75883 -13.20082
 Alpha  occ. eigenvalues --  -13.18428 -13.06603 -11.51369 -11.48465 -11.46368
 Alpha  occ. eigenvalues --  -11.40994 -11.39036  -8.08641  -1.71277  -1.52281
 Alpha  occ. eigenvalues --   -1.37353  -1.20574  -1.10796  -1.06801  -0.86540
 Alpha  occ. eigenvalues --   -0.83670  -0.77491  -0.71922  -0.64707  -0.62289
 Alpha  occ. eigenvalues --   -0.60571  -0.56959  -0.55526  -0.54366  -0.49186
 Alpha  occ. eigenvalues --   -0.48049  -0.44223  -0.38240  -0.37457  -0.33064
 Alpha  occ. eigenvalues --   -0.29662  -0.28741
 Alpha virt. eigenvalues --    0.02669   0.04112   0.05056   0.05783   0.06805
 Alpha virt. eigenvalues --    0.07001   0.07980   0.09419   0.09971   0.10315
 Alpha virt. eigenvalues --    0.11168   0.11493   0.12465   0.12735   0.13249

 Mulliken charges:
               1
     1  C    4.479864
     2  N   -2.717649
     3  H    0.545000
     4  N   -2.921889
     5  C    0.501780
     6  H    1.569006
     7  C   -2.426941
     8  H    1.222364
     9  S    1.641914
    10  C    2.019231
    11  O   -3.243177
    12  C   -4.480278
    13  H    1.320752
    14  H    1.075275
    15  H    1.414747
 Sum of Mulliken charges =  -0.00000

 Dipole moment (field-independent basis, Debye):
    X=              3.2596    Y=             -2.1119    Z=              1.5947  Tot=              4.1986

 Test job not archived.
 1\1\GINC-SE340\SP\RHF\Aug-CC-pVDZ\C5H6N2O1S1\OHZDE\09-Apr-2025\0\\#t h
 f aug-cc-pvdz iop(5/13=1,5/36=2,99/5=2) pseudo=read geom=check guess=(
 read,tcheck) scf=(maxcycle=1)\\title\\0,1\C,0,28.2953,-17.1239,-0.9192
 \N,0,29.3164,-16.8446,-0.0103\H,0,29.0251,-16.2945,0.7895\N,0,30.7458,
 -18.7766,0.0036\C,0,32.0843,-19.0641,-0.011\H,0,32.4066,-20.0987,-0.01
 22\C,0,32.9336,-17.9769,0.0068\H,0,34.0147,-17.9708,0.0443\S,0,32.0215
 ,-16.5294,-0.0071\C,0,30.5628,-17.4715,0.0181\O,0,27.1807,-16.664,-0.7
 395\C,0,28.6789,-17.9751,-2.106\H,0,29.6468,-17.6743,-2.5155\H,0,27.89

 Normal termination of Gaussian 16 at Wed Apr  9 02:28:06 2025.
