 Gaussian 16, Revision C.01,

 ----------------------------------------------------------------------
 #t hf aug-cc-pvdz symm=none int=(grid=ultrafine) guess=(read,tcheck) s
 table=(opt,rrhf)
 ----------------------------------------------------------------------
 -----
 title
 -----
 Symbolic Z-matrix:
 Charge =  0 Multiplicity = 1

 SCF Done:  E(RHF) =  -796.904054567     A.U. after   17 cycles
 Normal termination of Gaussian 16 at Wed Apr  9 02:30:51 2025.
 Gaussian 16:  ES64L-G16RevC.01  3-Jul-2019

 ----------------------------------------------------------------------
 #t hf aug-cc-pvdz iop(5/13=1,5/36=2,99/5=2) pseudo=read geom=check gue
 ss=(read,tcheck) scf=(maxcycle=1)
 ----------------------------------------------------------------------
 -----
 title
 -----
 Structure from the checkpoint file:  "DCONF_55_-130_mol1.chk"
 Charge =  0 Multiplicity = 1

                         Standard orientation:
 ---------------------------------------------------------------------
 Center     Atomic      Atomic             Coordinates (Angstroms)
 Number     Number       Type             X           Y           Z
 ---------------------------------------------------------------------
      1          6           0       -1.436812    1.182379   -0.431886
      2          1           0       -0.927005    2.081039   -0.768268
      3          6           0       -2.831847    1.100304   -0.439190
      4          1           0       -3.419319    1.944746   -0.790081
      5          6           0       -3.473746   -0.063127    0.006119
      6          1           0       -4.558596   -0.123975   -0.001405
      7          6           0       -2.713431   -1.145986    0.464010
      8          1           0       -3.207296   -2.043344    0.827496
      9          6           0       -1.316951   -1.067058    0.480935
     10          1           0       -0.726313   -1.895568    0.865107
     11          6           0       -0.671923    0.091088    0.014568
     12          7           0        1.440450    1.243746    0.565189
     13          6           0        2.791973    1.042861    0.494397
     14          1           0        3.465898    1.803717    0.871496
     15          6           0        3.191861   -0.158820   -0.056040
     16          1           0        4.197945   -0.526019   -0.209815
     17         16           0        1.819004   -1.067155   -0.519406
     18          6           0        0.792121    0.206305    0.060363
 ---------------------------------------------------------------------

 SCF Done:  E(RHF) =  -799.015163942     A.U. after    2 cycles

 The electronic state is 1-A.
 Alpha  occ. eigenvalues --  -75.72438 -15.74289 -13.18893 -13.17498 -13.05244
 Alpha  occ. eigenvalues --  -11.52891 -11.47021 -11.45098 -11.44203 -11.43753
 Alpha  occ. eigenvalues --  -11.41932 -11.41399 -11.39581 -11.37269  -8.07062
 Alpha  occ. eigenvalues --   -1.48589  -1.33725  -1.18579  -1.14201  -1.09637
 Alpha  occ. eigenvalues --   -1.04421  -0.89216  -0.87192  -0.81485  -0.76723
 Alpha  occ. eigenvalues --   -0.71038  -0.68963  -0.63715  -0.59378  -0.58410
 Alpha  occ. eigenvalues --   -0.56250  -0.55062  -0.52246  -0.49484  -0.45399
 Alpha  occ. eigenvalues --   -0.45058  -0.42655  -0.36940  -0.34916  -0.33483
 Alpha  occ. eigenvalues --   -0.31792  -0.27993
 Alpha virt. eigenvalues --    0.03116   0.04077   0.05153   0.05447   0.05813
 Alpha virt. eigenvalues --    0.06673   0.07213   0.08323   0.09343   0.09714
 Alpha virt. eigenvalues --    0.10425   0.11588   0.11825   0.12331   0.12792

 Mulliken charges:
               1
     1  C   -3.492560
     2  H    1.695275
     3  C   -1.595620
     4  H    1.491282
     5  C   -2.821543
     6  H    1.554648
     7  C   -1.762408
     8  H    1.505028
     9  C   -2.566428
    10  H    1.917724
    11  C    6.012513
    12  N   -3.914561
    13  C    0.917041
    14  H    1.578594
    15  C   -2.963837
    16  H    1.250877
    17  S    1.224490
    18  C   -0.030517
 Sum of Mulliken charges =   0.00000

 Dipole moment (field-independent basis, Debye):
    X=             -0.0467    Y=             -2.8002    Z=             -1.3355  Tot=              3.1028

 Test job not archived.
 1\1\GINC-SE366\SP\RHF\Aug-CC-pVDZ\C9H7N1S1\OHZDE\09-Apr-2025\0\\#t hf
 aug-cc-pvdz iop(5/13=1,5/36=2,99/5=2) pseudo=read geom=check guess=(re
 ad,tcheck) scf=(maxcycle=1)\\title\\0,1\C,0,21.8307,-21.1411,-0.0038\H
 ,0,22.398,-20.2144,0.0027\C,0,20.4333,-21.1301,0.0043\H,0,19.9021,-20.
 1819,0.0129\C,0,19.717,-22.3346,0.0044\H,0,18.6305,-22.3226,0.0101\C,0
 ,20.4052,-23.5539,0.0005\H,0,19.8541,-24.4905,0.0191\C,0,21.8039,-23.5
 715,0.0001\H,0,22.3396,-24.5176,0.0282\C,0,22.5228,-22.3642,-0.0216\N,
 0,24.713,-21.6311,0.8499\C,0,26.0471,-21.8721,0.6653\H,0,26.7742,-21.3

 Normal termination of Gaussian 16 at Wed Apr  9 02:31:00 2025.
