 Gaussian 16, Revision C.01,

 ----------------------------------------------------------------------
 #t hf aug-cc-pvdz symm=none int=(grid=ultrafine) guess=(read,tcheck) s
 table=(opt,rrhf)
 ----------------------------------------------------------------------
 -----
 title
 -----
 Symbolic Z-matrix:
 Charge =  0 Multiplicity = 1

 SCF Done:  E(RHF) =  -703.109066879     A.U. after   16 cycles
 Normal termination of Gaussian 16 at Wed Apr  9 02:25:18 2025.
 Gaussian 16:  ES64L-G16RevC.01  3-Jul-2019

 ----------------------------------------------------------------------
 #t hf aug-cc-pvdz iop(5/13=1,5/36=2,99/5=2) pseudo=read geom=check gue
 ss=(read,tcheck) scf=(maxcycle=1)
 ----------------------------------------------------------------------
 -----
 title
 -----
 Structure from the checkpoint file:  "DCONF_24_-70_mol1.chk"
 Charge =  0 Multiplicity = 1

                         Standard orientation:
 ---------------------------------------------------------------------
 Center     Atomic      Atomic             Coordinates (Angstroms)
 Number     Number       Type             X           Y           Z
 ---------------------------------------------------------------------
      1          8           0       -1.999230   -0.935643   -0.935724
      2          6           0       -2.532297    0.733714    0.709826
      3          1           0       -2.396868    0.379626    1.737460
      4          1           0       -3.568749    0.590477    0.400295
      5          1           0       -2.271122    1.796451    0.698959
      6          6           0       -1.603876   -0.063867   -0.176827
      7          6           0        0.560525    1.334734   -0.312761
      8          1           0        0.072000    2.265197   -0.584011
      9          6           0        1.964497    1.151973   -0.256703
     10          1           0        2.694719    1.927272   -0.460356
     11          6           0        2.307370   -0.144029    0.087196
     12          1           0        3.297513   -0.551012    0.247702
     13         16           0        0.927877   -1.130955    0.313372
     14          6           0       -0.142833    0.182877    0.021234
 ---------------------------------------------------------------------

 SCF Done:  E(RHF) =  -704.742208560     A.U. after    2 cycles

 The electronic state is 1-A.
 Alpha  occ. eigenvalues --  -75.72484 -21.05877 -13.18556 -13.16947 -13.04577
 Alpha  occ. eigenvalues --  -11.51097 -11.49135 -11.44853 -11.42752 -11.39726
 Alpha  occ. eigenvalues --  -11.38767  -8.07059  -1.70930  -1.38069  -1.13967
 Alpha  occ. eigenvalues --   -1.09615  -1.04968  -0.87624  -0.79765  -0.73851
 Alpha  occ. eigenvalues --   -0.68120  -0.60449  -0.60204  -0.57350  -0.53752
 Alpha  occ. eigenvalues --   -0.51851  -0.48418  -0.47340  -0.41606  -0.39206
 Alpha  occ. eigenvalues --   -0.32610  -0.29416  -0.27131
 Alpha virt. eigenvalues --    0.02836   0.04458   0.05015   0.05607   0.06324
 Alpha virt. eigenvalues --    0.07017   0.08404   0.09888   0.09929   0.10575
 Alpha virt. eigenvalues --    0.11803   0.12802   0.13202   0.13282   0.13881

 Mulliken charges:
               1
     1  O   -3.198868
     2  C   -4.314242
     3  H    1.276750
     4  H    1.232122
     5  H    1.415592
     6  C    3.027688
     7  C   -1.726734
     8  H    1.660158
     9  C   -1.073463
    10  H    1.427044
    11  C   -3.281517
    12  H    1.282085
    13  S    1.528180
    14  C    0.745205
 Sum of Mulliken charges =  -0.00000

 Dipole moment (field-independent basis, Debye):
    X=              0.5640    Y=             -1.1143    Z=              0.9600  Tot=              1.5752

 Test job not archived.
 1\1\GINC-SE128\SP\RHF\Aug-CC-pVDZ\C6H6O1S1\OHZDE\09-Apr-2025\0\\#t hf
 aug-cc-pvdz iop(5/13=1,5/36=2,99/5=2) pseudo=read geom=check guess=(re
 ad,tcheck) scf=(maxcycle=1)\\title\\0,1\O,0,21.5884,-4.4675,1.0092\C,0
 ,20.9648,-5.6097,-1.012\H,0,21.2314,-5.0534,-1.9171\H,0,19.9365,-5.383
 7,-0.7255\H,0,21.0742,-6.6735,-1.2446\C,0,21.9195,-5.191,0.0823\C,0,23
 .8505,-6.8997,-0.0215\H,0,23.2171,-7.7809,-0.0046\C,0,25.2661,-6.9276,
 0.0331\H,0,25.8626,-7.832,0.0782\C,0,25.8124,-5.656,0.0268\H,0,26.8592
 ,-5.3806,0.0148\S,0,24.6063,-4.443,-0.0194\C,0,23.3434,-5.6076,-0.1013

 Normal termination of Gaussian 16 at Wed Apr  9 02:25:23 2025.
