 Gaussian 16, Revision C.01,

 ----------------------------------------------------------------------
 #t hf aug-cc-pvdz symm=none int=(grid=ultrafine) guess=(read,tcheck) s
 table=(opt,rrhf)
 ----------------------------------------------------------------------
 -----
 title
 -----
 Symbolic Z-matrix:
 Charge =  0 Multiplicity = 1

 SCF Done:  E(RHF) =  -719.113924082     A.U. after   16 cycles
 Normal termination of Gaussian 16 at Wed Apr  9 02:25:40 2025.
 Gaussian 16:  ES64L-G16RevC.01  3-Jul-2019

 ----------------------------------------------------------------------
 #t hf aug-cc-pvdz iop(5/13=1,5/36=2,99/5=2) pseudo=read geom=check gue
 ss=(read,tcheck) scf=(maxcycle=1)
 ----------------------------------------------------------------------
 -----
 title
 -----
 Structure from the checkpoint file:  "DCONF_28_-60_mol1.chk"
 Charge =  0 Multiplicity = 1

                         Standard orientation:
 ---------------------------------------------------------------------
 Center     Atomic      Atomic             Coordinates (Angstroms)
 Number     Number       Type             X           Y           Z
 ---------------------------------------------------------------------
      1          8           0       -1.975995   -1.059480   -0.798893
      2          6           0       -2.496778    0.823764    0.615839
      3          1           0       -2.213247    1.866581    0.448578
      4          1           0       -3.536463    0.650892    0.334823
      5          1           0       -2.358001    0.612174    1.681895
      6          6           0       -1.588294   -0.095673   -0.157671
      7          7           0        0.441859    1.318401   -0.329328
      8          6           0        1.801680    1.206743   -0.284361
      9          1           0        2.419362    2.066505   -0.516608
     10          6           0        2.284598   -0.041501    0.063928
     11          1           0        3.313648   -0.348667    0.195456
     12         16           0        0.987653   -1.121533    0.319969
     13          6           0       -0.120006    0.164015    0.001064
 ---------------------------------------------------------------------

 SCF Done:  E(RHF) =  -720.792994858     A.U. after    2 cycles

 The electronic state is 1-A.
 Alpha  occ. eigenvalues --  -75.74027 -21.07012 -15.76560 -13.20002 -13.18484
 Alpha  occ. eigenvalues --  -13.06014 -11.51925 -11.46357 -11.45408 -11.40899
 Alpha  occ. eigenvalues --  -11.39565  -8.08637  -1.72034  -1.48893  -1.20169
 Alpha  occ. eigenvalues --   -1.15304  -1.07434  -0.90024  -0.82204  -0.72781
 Alpha  occ. eigenvalues --   -0.69026  -0.61208  -0.60866  -0.59376  -0.55793
 Alpha  occ. eigenvalues --   -0.51475  -0.49585  -0.44771  -0.42799  -0.37716
 Alpha  occ. eigenvalues --   -0.34983  -0.31378  -0.28536
 Alpha virt. eigenvalues --    0.02823   0.04334   0.05235   0.06237   0.06799
 Alpha virt. eigenvalues --    0.07748   0.09210   0.09873   0.10180   0.11376
 Alpha virt. eigenvalues --    0.12021   0.12388   0.13000   0.13175   0.13701

 Mulliken charges:
               1
     1  O   -3.186711
     2  C   -4.360531
     3  H    1.394553
     4  H    1.259431
     5  H    1.291066
     6  C    3.918041
     7  N   -3.444863
     8  C    0.617596
     9  H    1.511033
    10  C   -2.441694
    11  H    1.197912
    12  S    1.463540
    13  C    0.780627
 Sum of Mulliken charges =  -0.00000

 Dipole moment (field-independent basis, Debye):
    X=              1.2868    Y=             -2.4144    Z=              1.3500  Tot=              3.0508

 Test job not archived.
 1\1\GINC-SE423\SP\RHF\Aug-CC-pVDZ\C5H5N1O1S1\OHZDE\09-Apr-2025\0\\#t h
 f aug-cc-pvdz iop(5/13=1,5/36=2,99/5=2) pseudo=read geom=check guess=(
 read,tcheck) scf=(maxcycle=1)\\title\\0,1\O,0,21.7274,-16.9393,0.9087\
 C,0,21.1436,-18.3603,-0.9512\H,0,21.3208,-19.4362,-1.0341\H,0,20.106,-
 18.1538,-0.6856\H,0,21.3762,-17.9128,-1.9239\C,0,22.0727,-17.7543,0.06
 79\N,0,23.9519,-19.3703,-0.0201\C,0,25.316,-19.3925,0.0283\H,0,25.8368
 ,-20.3421,0.0694\C,0,25.9314,-18.154,0.0231\H,0,26.9904,-17.9324,0.020
 5\S,0,24.757,-16.9158,-0.0186\C,0,23.5197,-18.1185,-0.0806\\Version=ES

 Normal termination of Gaussian 16 at Wed Apr  9 02:25:45 2025.
