 Gaussian 16, Revision C.01,

 ----------------------------------------------------------------------
 #t hf aug-cc-pvdz symm=none int=(grid=ultrafine) guess=(read,tcheck) s
 table=(opt,rrhf)
 ----------------------------------------------------------------------
 -----
 title
 -----
 Symbolic Z-matrix:
 Charge =  0 Multiplicity = 1

 SCF Done:  E(RHF) =  -217.134794776     A.U. after   12 cycles
 Normal termination of Gaussian 16 at Wed Apr  9 02:31:12 2025.
 Gaussian 16:  ES64L-G16RevC.01  3-Jul-2019

 ----------------------------------------------------------------------
 #t hf aug-cc-pvdz iop(5/13=1,5/36=2,99/5=2) pseudo=read geom=check gue
 ss=(read,tcheck) scf=(maxcycle=1)
 ----------------------------------------------------------------------
 -----
 title
 -----
 Structure from the checkpoint file:  "DCONF_7_10_mol1.chk"
 Charge =  0 Multiplicity = 1

                         Standard orientation:
 ---------------------------------------------------------------------
 Center     Atomic      Atomic             Coordinates (Angstroms)
 Number     Number       Type             X           Y           Z
 ---------------------------------------------------------------------
      1          9           0        1.240285   -0.769063   -0.036638
      2          6           0        0.882983    0.580048    0.050455
      3          1           0        1.410442    1.101933   -0.751141
      4          1           0        1.262395    0.932139    1.013092
      5          6           0       -0.640856    0.767056   -0.048426
      6          1           0       -0.883046    1.262792   -0.993753
      7          1           0       -0.965071    1.439537    0.751642
      8          6           0       -1.425970   -0.545546    0.026947
      9          1           0       -1.154693   -1.212055   -0.793155
     10          1           0       -1.231881   -1.074122    0.963348
     11          1           0       -2.497655   -0.338000   -0.034146
 ---------------------------------------------------------------------

 SCF Done:  E(RHF) =  -218.088444818     A.U. after    2 cycles

 The electronic state is 1-A.
 Alpha  occ. eigenvalues --  -29.23914 -11.44921 -11.39658 -11.35516  -1.24538
 Alpha  occ. eigenvalues --   -1.05128  -0.87819  -0.67217  -0.66600  -0.60210
 Alpha  occ. eigenvalues --   -0.57179  -0.49855  -0.47778  -0.47388  -0.35103
 Alpha  occ. eigenvalues --   -0.23942  -0.23829
 Alpha virt. eigenvalues --    0.04065   0.05444   0.05858   0.06160   0.06544
 Alpha virt. eigenvalues --    0.06764   0.07240   0.11823   0.12654   0.14327
 Alpha virt. eigenvalues --    0.14855   0.15385   0.16202   0.16817   0.18508

 Mulliken charges:
               1
     1  F    0.254744
     2  C   -2.604493
     3  H    1.452915
     4  H    1.491539
     5  C   -3.416484
     6  H    1.281026
     7  H    1.240818
     8  C   -3.452069
     9  H    1.283796
    10  H    1.328058
    11  H    1.140151
 Sum of Mulliken charges =  -0.00000

 Dipole moment (field-independent basis, Debye):
    X=              0.2752    Y=             -0.8425    Z=             -0.0745  Tot=              0.8894

 Test job not archived.
 1\1\GINC-SE149\SP\RHF\Aug-CC-pVDZ\C3H7F1\OHZDE\09-Apr-2025\0\\#t hf au
 g-cc-pvdz iop(5/13=1,5/36=2,99/5=2) pseudo=read geom=check guess=(read
 ,tcheck) scf=(maxcycle=1)\\title\\0,1\F,0,13.2427,-26.4697,0.005\C,0,1
 4.3984,-25.6825,0.0001\H,0,14.3471,-25.0354,0.8786\H,0,14.3401,-25.064
 8,-0.8997\C,0,15.6701,-26.5483,-0.0015\H,0,16.1822,-26.4392,0.9597\H,0
 ,16.3533,-26.1679,-0.767\C,0,15.3987,-28.0362,-0.2413\H,0,14.7594,-28.
 4489,0.5406\H,0,14.9013,-28.2023,-1.1999\H,0,16.343,-28.5872,-0.2447\\
 Version=ES64L-G16RevC.01\State=1-A\HF=-218.0884448\RMSD=2.378e-01\Dipo

 Normal termination of Gaussian 16 at Wed Apr  9 02:31:14 2025.
