 Gaussian 16, Revision C.01,

 ----------------------------------------------------------------------
 #t hf aug-cc-pvdz symm=none int=(grid=ultrafine) guess=(read,tcheck) s
 table=(opt,rrhf)
 ----------------------------------------------------------------------
 -----
 title
 -----
 Symbolic Z-matrix:
 Charge =  0 Multiplicity = 1

 SCF Done:  E(RHF) =  -911.019730347     A.U. after   16 cycles
 Normal termination of Gaussian 16 at Wed Apr  9 02:29:21 2025.
 Gaussian 16:  ES64L-G16RevC.01  3-Jul-2019

 ----------------------------------------------------------------------
 #t hf aug-cc-pvdz iop(5/13=1,5/36=2,99/5=2) pseudo=read geom=check gue
 ss=(read,tcheck) scf=(maxcycle=1)
 ----------------------------------------------------------------------
 -----
 title
 -----
 Structure from the checkpoint file:  "DCONF_30_110_mol1.chk"
 Charge =  0 Multiplicity = 1

                         Standard orientation:
 ---------------------------------------------------------------------
 Center     Atomic      Atomic             Coordinates (Angstroms)
 Number     Number       Type             X           Y           Z
 ---------------------------------------------------------------------
      1          6           0        2.809734   -0.938652    0.536165
      2          1           0        3.442506   -1.730292    0.928220
      3          6           0        1.459898   -1.197656    0.273476
      4          1           0        1.023590   -2.175849    0.451797
      5          6           0        0.658866   -0.168942   -0.235637
      6         16           0       -1.058585   -0.496447   -0.592115
      7          7           0       -1.925640    0.351122    0.560540
      8          6           0       -1.697907   -0.089533    1.940185
      9          1           0       -1.751442   -1.177147    1.992140
     10          1           0       -0.726406    0.255672    2.326242
     11          1           0       -2.494215    0.332366    2.558483
     12          6           0       -1.949870    1.809331    0.432300
     13          1           0       -2.072315    2.084018   -0.615553
     14          1           0       -2.813942    2.174464    0.993970
     15          1           0       -1.041188    2.273996    0.843326
     16          6           0        1.192159    1.094462   -0.527025
     17          1           0        0.573865    1.854953   -0.993736
     18          6           0        2.541370    1.340838   -0.252330
     19          1           0        2.965770    2.316070   -0.474768
     20          6           0        3.348828    0.328558    0.282463
     21          1           0        4.398277    0.523066    0.485854
     22          8           0       -1.368261    0.116997   -1.872230
     23          8           0       -1.290004   -1.906555   -0.333206
 ---------------------------------------------------------------------

 SCF Done:  E(RHF) =  -913.680288528     A.U. after    2 cycles

 The electronic state is 1-A.
 Alpha  occ. eigenvalues --  -75.89484 -21.04091 -21.03982 -15.75017 -13.52167
 Alpha  occ. eigenvalues --  -13.43088 -13.38921 -11.54719 -11.46434 -11.46187
 Alpha  occ. eigenvalues --  -11.43956 -11.43258 -11.41433 -11.40510 -11.39228
 Alpha  occ. eigenvalues --   -8.24601  -1.83249  -1.65103  -1.44209  -1.35986
 Alpha  occ. eigenvalues --   -1.14327  -1.11506  -1.05936  -1.02766  -0.90759
 Alpha  occ. eigenvalues --   -0.89052  -0.82158  -0.73458  -0.69177  -0.66742
 Alpha  occ. eigenvalues --   -0.65177  -0.63146  -0.60875  -0.60178  -0.59839
 Alpha  occ. eigenvalues --   -0.56677  -0.54741  -0.52261  -0.51209  -0.49137
 Alpha  occ. eigenvalues --   -0.47652  -0.42944  -0.39925  -0.39473  -0.38472
 Alpha  occ. eigenvalues --   -0.35365  -0.35208  -0.34769  -0.34192
 Alpha virt. eigenvalues --    0.02791   0.04275   0.04738   0.04778   0.05200
 Alpha virt. eigenvalues --    0.06310   0.06584   0.06943   0.07471   0.07950
 Alpha virt. eigenvalues --    0.08788   0.09245   0.10255   0.10343   0.11401

 Mulliken charges:
               1
     1  C   -0.717207
     2  H    1.550640
     3  C   -4.295956
     4  H    2.046619
     5  C    1.808475
     6  S    7.875277
     7  N   -2.476147
     8  C   -3.914857
     9  H    1.444963
    10  H    1.681841
    11  H    1.297011
    12  C   -3.915352
    13  H    1.427497
    14  H    1.264326
    15  H    1.670292
    16  C   -2.456442
    17  H    2.148609
    18  C   -0.827618
    19  H    1.498976
    20  C   -2.800799
    21  H    1.584435
    22  O   -2.880245
    23  O   -3.014339
 Sum of Mulliken charges =  -0.00000

 Dipole moment (field-independent basis, Debye):
    X=              2.0365    Y=              1.8021    Z=              2.2522  Tot=              3.5309

 Test job not archived.
 1\1\GINC-SE365\SP\RHF\Aug-CC-pVDZ\C8H11N1O2S1\OHZDE\09-Apr-2025\0\\#t
 hf aug-cc-pvdz iop(5/13=1,5/36=2,99/5=2) pseudo=read geom=check guess=
 (read,tcheck) scf=(maxcycle=1)\\title\\0,1\C,0,3.7766,-2.34,-1.894\H,0
 ,4.397,-2.3322,-2.7861\C,0,2.5815,-1.6123,-1.8757\H,0,2.2542,-1.0351,-
 2.7352\C,0,1.7956,-1.6286,-0.7176\S,0,0.2802,-0.6873,-0.679\N,0,-0.951
 5,-1.8194,-0.6849\C,0,-1.0104,-2.6494,-1.892\H,0,-0.9243,-2.0181,-2.77
 66\H,0,-0.2205,-3.4162,-1.9018\H,0,-1.9844,-3.1449,-1.9062\C,0,-1.1447
 ,-2.5953,0.5415\H,0,-1.0432,-1.9428,1.4089\H,0,-2.162,-2.9954,0.5206\H

 Normal termination of Gaussian 16 at Wed Apr  9 02:29:36 2025.
