 Gaussian 16, Revision C.01,

 ----------------------------------------------------------------------
 #t hf aug-cc-pvdz symm=none int=(grid=ultrafine) guess=(read,tcheck) s
 table=(opt,rrhf)
 ----------------------------------------------------------------------
 -----
 title
 -----
 Symbolic Z-matrix:
 Charge =  0 Multiplicity = 1

 SCF Done:  E(RHF) =  -719.121627731     A.U. after   16 cycles
 Normal termination of Gaussian 16 at Wed Apr  9 02:25:13 2025.
 Gaussian 16:  ES64L-G16RevC.01  3-Jul-2019

 ----------------------------------------------------------------------
 #t hf aug-cc-pvdz iop(5/13=1,5/36=2,99/5=2) pseudo=read geom=check gue
 ss=(read,tcheck) scf=(maxcycle=1)
 ----------------------------------------------------------------------
 -----
 title
 -----
 Structure from the checkpoint file:  "DCONF_28_-100_mol2.chk"
 Charge =  0 Multiplicity = 1

                         Standard orientation:
 ---------------------------------------------------------------------
 Center     Atomic      Atomic             Coordinates (Angstroms)
 Number     Number       Type             X           Y           Z
 ---------------------------------------------------------------------
      1          8           0        1.961703   -1.336326   -0.000200
      2          6           0        2.509172    1.013518    0.000600
      3          1           0        2.317214    1.634829   -0.878200
      4          1           0        3.539846    0.657217    0.001100
      5          1           0        2.316310    1.634877    0.879200
      6          6           0        1.579180   -0.172854    0.000000
      7          7           0       -0.386655    1.356582   -0.000100
      8          6           0       -1.745955    1.295066    0.000000
      9          1           0       -2.327783    2.209731    0.000000
     10          6           0       -2.282309    0.016979   -0.000100
     11          1           0       -3.326445   -0.267616    0.000000
     12         16           0       -1.038294   -1.148322   -0.000100
     13          6           0        0.124333    0.130397   -0.000200
 ---------------------------------------------------------------------

 SCF Done:  E(RHF) =  -720.802055329     A.U. after    2 cycles

 The electronic state is 1-A.
 Alpha  occ. eigenvalues --  -75.74055 -21.06501 -15.76958 -13.20357 -13.18439
 Alpha  occ. eigenvalues --  -13.05798 -11.52677 -11.46688 -11.44845 -11.41239
 Alpha  occ. eigenvalues --  -11.39283  -8.08644  -1.71758  -1.49093  -1.20387
 Alpha  occ. eigenvalues --   -1.15026  -1.07066  -0.90295  -0.82268  -0.72935
 Alpha  occ. eigenvalues --   -0.68974  -0.61173  -0.60862  -0.58838  -0.55886
 Alpha  occ. eigenvalues --   -0.50617  -0.49007  -0.44441  -0.44007  -0.38089
 Alpha  occ. eigenvalues --   -0.34815  -0.29848  -0.29804
 Alpha virt. eigenvalues --    0.02745   0.04538   0.05097   0.06820   0.06839
 Alpha virt. eigenvalues --    0.07824   0.08319   0.08658   0.10312   0.11363
 Alpha virt. eigenvalues --    0.11840   0.12283   0.13105   0.13432   0.14047

 Mulliken charges:
               1
     1  O   -3.287083
     2  C   -4.477216
     3  H    1.309418
     4  H    1.248379
     5  H    1.309408
     6  C    4.303848
     7  N   -3.758292
     8  C    0.492635
     9  H    1.553687
    10  C   -2.690174
    11  H    1.237396
    12  S    1.704107
    13  C    1.053887
 Sum of Mulliken charges =  -0.00000

 Dipole moment (field-independent basis, Debye):
    X=             -1.4538    Y=             -2.2166    Z=              0.0007  Tot=              2.6508

 Test job not archived.
 1\1\GINC-SE188\SP\RHF\Aug-CC-pVDZ\C5H5N1O1S1\OHZDE\09-Apr-2025\0\\#t h
 f aug-cc-pvdz iop(5/13=1,5/36=2,99/5=2) pseudo=read geom=check guess=(
 read,tcheck) scf=(maxcycle=1)\\title\\0,1\O,0,21.7654,-16.5574,-0.0001
 \C,0,21.0855,-18.8724,0.0007\H,0,21.2419,-19.5036,-0.8781\H,0,20.0767,
 -18.4582,0.0012\H,0,21.2428,-19.5037,0.8793\C,0,22.0813,-17.7407,0.000
 1\N,0,23.9572,-19.3792,0.\C,0,25.3178,-19.3949,0.0001\H,0,25.8468,-20.
 3411,0.0001\C,0,25.9258,-18.1493,0.\H,0,26.9844,-17.9244,0.0001\S,0,24
 .7499,-16.9153,0.\C,0,23.5166,-18.126,-0.0001\\Version=ES64L-G16RevC.0

 Normal termination of Gaussian 16 at Wed Apr  9 02:25:18 2025.
