 Gaussian 16, Revision C.01,

 ----------------------------------------------------------------------
 #t hf aug-cc-pvdz symm=none int=(grid=ultrafine) guess=(read,tcheck) s
 table=(opt,rrhf)
 ----------------------------------------------------------------------
 -----
 title
 -----
 Symbolic Z-matrix:
 Charge =  0 Multiplicity = 1

 SCF Done:  E(RHF) =  -681.464704516     A.U. after   13 cycles
 Normal termination of Gaussian 16 at Wed Apr  9 02:23:24 2025.
 Gaussian 16:  ES64L-G16RevC.01  3-Jul-2019

 ----------------------------------------------------------------------
 #t hf aug-cc-pvdz iop(5/13=1,5/36=2,99/5=2) pseudo=read geom=check gue
 ss=(read,tcheck) scf=(maxcycle=1)
 ----------------------------------------------------------------------
 -----
 title
 -----
 Structure from the checkpoint file:  "DCONF_16_40_mol1.chk"
 Charge =  0 Multiplicity = 1

                         Standard orientation:
 ---------------------------------------------------------------------
 Center     Atomic      Atomic             Coordinates (Angstroms)
 Number     Number       Type             X           Y           Z
 ---------------------------------------------------------------------
      1          6           0       -0.459413    1.584921   -0.410233
      2          1           0       -0.234735    1.669032   -1.474560
      3          1           0        0.273522    2.113401    0.198561
      4          1           0       -1.457528    1.974940   -0.205481
      5         16           0       -0.500722   -0.136199    0.067147
      6          8           0       -1.415647   -0.845436   -0.810196
      7          7           0        1.013879   -0.754504   -0.270453
      8          1           0        1.008119   -1.123735   -1.216908
      9          8           0       -0.659213   -0.137088    1.509825
     10          6           0        2.193702    0.067293    0.012669
     11          1           0        2.146394    0.406460    1.049618
     12          1           0        2.295261    0.933085   -0.652352
     13          1           0        3.076512   -0.565555   -0.091699
 ---------------------------------------------------------------------

 SCF Done:  E(RHF) =  -683.029912679     A.U. after    2 cycles

 The electronic state is 1-A.
 Alpha  occ. eigenvalues --  -75.89699 -21.04479 -21.03949 -15.77138 -13.51738
 Alpha  occ. eigenvalues --  -13.42335 -13.34925 -11.42823 -11.42330  -8.24843
 Alpha  occ. eigenvalues --   -1.83297  -1.64922  -1.40855  -1.14374  -1.03253
 Alpha  occ. eigenvalues --   -0.87944  -0.70168  -0.66383  -0.64086  -0.63190
 Alpha  occ. eigenvalues --   -0.59894  -0.57122  -0.53339  -0.44191  -0.41018
 Alpha  occ. eigenvalues --   -0.39661  -0.37980  -0.36940  -0.35075
 Alpha virt. eigenvalues --    0.02149   0.03873   0.04775   0.05260   0.06534
 Alpha virt. eigenvalues --    0.06845   0.07810   0.10779   0.11090   0.12285
 Alpha virt. eigenvalues --    0.13126   0.14614   0.14754   0.15195   0.16169

 Mulliken charges:
               1
     1  C   -4.586505
     2  H    1.359004
     3  H    1.328829
     4  H    1.309575
     5  S    7.062054
     6  O   -2.571742
     7  N   -2.667911
     8  H    0.534239
     9  O   -2.556586
    10  C   -3.309288
    11  H    1.397523
    12  H    1.418130
    13  H    1.282679
 Sum of Mulliken charges =  -0.00000

 Dipole moment (field-independent basis, Debye):
    X=              2.5022    Y=              1.6433    Z=             -1.4585  Tot=              3.3299

 Test job not archived.
 1\1\GINC-SE128\SP\RHF\Aug-CC-pVDZ\C2H7N1O2S1\OHZDE\09-Apr-2025\0\\#t h
 f aug-cc-pvdz iop(5/13=1,5/36=2,99/5=2) pseudo=read geom=check guess=(
 read,tcheck) scf=(maxcycle=1)\\title\\0,1\C,0,-1.1695,-1.3767,-0.6149\
 H,0,-0.5047,-1.1328,-1.4449\H,0,-0.9684,-0.7556,0.2574\H,0,-2.2101,-1.
 2567,-0.9199\S,0,-0.9853,-3.0986,-0.1756\O,0,-1.1689,-3.9097,-1.3665\N
 ,0,0.6131,-3.3035,0.2642\H,0,1.1442,-3.5642,-0.5617\O,0,-1.7918,-3.285
 4,1.0165\C,0,1.2691,-2.2599,1.0567\H,0,0.6586,-2.0501,1.9375\H,0,1.442
 9,-1.3309,0.5009\H,0,2.2276,-2.6521,1.4005\\Version=ES64L-G16RevC.01\S

 Normal termination of Gaussian 16 at Wed Apr  9 02:23:28 2025.
