 Gaussian 16, Revision C.01,

 ----------------------------------------------------------------------
 #t hf aug-cc-pvdz symm=none int=(grid=ultrafine) guess=(read,tcheck) s
 table=(opt,rrhf)
 ----------------------------------------------------------------------
 -----
 title
 -----
 Symbolic Z-matrix:
 Charge =  0 Multiplicity = 1

 SCF Done:  E(RHF) =  -796.896755434     A.U. after   15 cycles
 Normal termination of Gaussian 16 at Wed Apr  9 02:30:57 2025.
 Gaussian 16:  ES64L-G16RevC.01  3-Jul-2019

 ----------------------------------------------------------------------
 #t hf aug-cc-pvdz iop(5/13=1,5/36=2,99/5=2) pseudo=read geom=check gue
 ss=(read,tcheck) scf=(maxcycle=1)
 ----------------------------------------------------------------------
 -----
 title
 -----
 Structure from the checkpoint file:  "DCONF_52_-140_mol1.chk"
 Charge =  0 Multiplicity = 1

                         Standard orientation:
 ---------------------------------------------------------------------
 Center     Atomic      Atomic             Coordinates (Angstroms)
 Number     Number       Type             X           Y           Z
 ---------------------------------------------------------------------
      1          6           0       -1.498483    1.204775   -0.394562
      2          1           0       -1.025392    2.121113   -0.736183
      3          6           0       -2.887268    1.083647   -0.344312
      4          1           0       -3.524869    1.914368   -0.634929
      5          6           0       -3.438461   -0.135921    0.061449
      6          1           0       -4.513204   -0.282934    0.109586
      7          6           0       -2.568843   -1.177368    0.402158
      8          1           0       -2.960821   -2.144101    0.712796
      9          7           0       -1.229770   -1.071713    0.385881
     10          6           0       -0.704704    0.110834   -0.004080
     11          6           0        1.522054    1.314625    0.407780
     12          1           0        1.082293    2.251077    0.736016
     13          6           0        2.913398    1.052076    0.358552
     14          1           0        3.684908    1.764269    0.629901
     15          6           0        3.184364   -0.242248   -0.052903
     16          1           0        4.151917   -0.709845   -0.184976
     17         16           0        1.752594   -1.126261   -0.374451
     18          6           0        0.756617    0.224284    0.008891
 ---------------------------------------------------------------------

 SCF Done:  E(RHF) =  -799.007275045     A.U. after    2 cycles

 The electronic state is 1-A.
 Alpha  occ. eigenvalues --  -75.71055 -15.74059 -13.18234 -13.15623 -13.03536
 Alpha  occ. eigenvalues --  -11.51377 -11.48202 -11.46646 -11.44626 -11.43718
 Alpha  occ. eigenvalues --  -11.41945 -11.41717 -11.39045 -11.37740  -8.05627
 Alpha  occ. eigenvalues --   -1.46432  -1.35473  -1.19097  -1.14187  -1.08331
 Alpha  occ. eigenvalues --   -1.03070  -0.90013  -0.89427  -0.79319  -0.77316
 Alpha  occ. eigenvalues --   -0.72284  -0.68249  -0.63421  -0.61065  -0.57041
 Alpha  occ. eigenvalues --   -0.55826  -0.54960  -0.51371  -0.49704  -0.47219
 Alpha  occ. eigenvalues --   -0.44650  -0.39316  -0.37621  -0.36301  -0.35192
 Alpha  occ. eigenvalues --   -0.29080  -0.26523
 Alpha virt. eigenvalues --    0.03027   0.04464   0.04973   0.05340   0.05822
 Alpha virt. eigenvalues --    0.06255   0.06794   0.08928   0.09278   0.09715
 Alpha virt. eigenvalues --    0.09987   0.10400   0.12030   0.12574   0.12895

 Mulliken charges:
               1
     1  C   -2.654771
     2  H    1.801532
     3  C   -0.234308
     4  H    1.540335
     5  C   -1.534618
     6  H    1.478710
     7  C   -0.816832
     8  H    1.668726
     9  N   -3.822827
    10  C    2.798042
    11  C   -3.478147
    12  H    1.636630
    13  C   -1.272818
    14  H    1.428907
    15  C   -3.811150
    16  H    1.285345
    17  S    1.249659
    18  C    2.737585
 Sum of Mulliken charges =  -0.00000

 Dipole moment (field-independent basis, Debye):
    X=             -1.3751    Y=             -0.8289    Z=             -0.8268  Tot=              1.8060

 Test job not archived.
 1\1\GINC-SE070\SP\RHF\Aug-CC-pVDZ\C9H7N1S1\OHZDE\09-Apr-2025\0\\#t hf
 aug-cc-pvdz iop(5/13=1,5/36=2,99/5=2) pseudo=read geom=check guess=(re
 ad,tcheck) scf=(maxcycle=1)\\title\\0,1\C,0,30.1869,-8.3577,-0.0205\H,
 0,30.7583,-7.4346,-0.0603\C,0,28.7923,-8.3438,0.0081\H,0,28.2493,-7.40
 24,0.005\C,0,28.1108,-9.565,0.0136\H,0,27.0259,-9.6074,0.0276\C,0,28.8
 619,-10.745,-0.0059\H,0,28.3666,-11.7142,-0.0126\N,0,30.2048,-10.7791,
 -0.0065\C,0,30.8562,-9.5951,-0.0084\C,0,33.1863,-8.8217,0.733\H,0,32.8
 387,-7.9973,1.3475\C,0,34.544,-9.1979,0.5836\H,0,35.3791,-8.6925,1.056

 Normal termination of Gaussian 16 at Wed Apr  9 02:31:08 2025.
