 Gaussian 16, Revision C.01,

 ----------------------------------------------------------------------
 #t hf aug-cc-pvdz symm=none int=(grid=ultrafine) guess=(read,tcheck) s
 table=(opt,rrhf)
 ----------------------------------------------------------------------
 -----
 title
 -----
 Symbolic Z-matrix:
 Charge =  0 Multiplicity = 1

 SCF Done:  E(RHF) =  -355.054595736     A.U. after   12 cycles
 Normal termination of Gaussian 16 at Wed Apr  9 02:31:26 2025.
 Gaussian 16:  ES64L-G16RevC.01  3-Jul-2019

 ----------------------------------------------------------------------
 #t hf aug-cc-pvdz iop(5/13=1,5/36=2,99/5=2) pseudo=read geom=check gue
 ss=(read,tcheck) scf=(maxcycle=1)
 ----------------------------------------------------------------------
 -----
 title
 -----
 Structure from the checkpoint file:  "DCONF_9_-100_mol1.chk"
 Charge =  0 Multiplicity = 1

                         Standard orientation:
 ---------------------------------------------------------------------
 Center     Atomic      Atomic             Coordinates (Angstroms)
 Number     Number       Type             X           Y           Z
 ---------------------------------------------------------------------
      1          6           0       -0.263476   -0.492191    0.524176
      2          1           0       -0.335877   -1.536666    0.206380
      3          1           0       -0.529447   -0.460395    1.587260
      4          6           0       -1.249184    0.383457   -0.252573
      5          1           0       -0.963762    0.410196   -1.309266
      6          1           0       -1.187227    1.410843    0.116637
      7          6           0       -2.678941   -0.138211   -0.112175
      8          1           0       -2.764788   -1.155321   -0.507433
      9          1           0       -3.384456    0.496290   -0.655666
     10          1           0       -2.984532   -0.158694    0.939130
     11          6           0        1.194356   -0.076555    0.393869
     12          1           0        1.759774   -0.160960    1.324424
     13          9           0        1.318125    1.215824   -0.034013
     14          9           0        1.834518   -0.871857   -0.523904
 ---------------------------------------------------------------------

 SCF Done:  E(RHF) =  -356.527324004     A.U. after    2 cycles

 The electronic state is 1-A.
 Alpha  occ. eigenvalues --  -29.27245 -29.26888 -11.52718 -11.42412 -11.39369
 Alpha  occ. eigenvalues --  -11.35771  -1.33397  -1.16930  -0.99347  -0.86857
 Alpha  occ. eigenvalues --   -0.78746  -0.73124  -0.65420  -0.63521  -0.56694
 Alpha  occ. eigenvalues --   -0.54036  -0.49066  -0.47910  -0.46491  -0.42273
 Alpha  occ. eigenvalues --   -0.37205  -0.29697  -0.27889  -0.25518  -0.20929
 Alpha virt. eigenvalues --    0.03987   0.04977   0.05852   0.05951   0.06399
 Alpha virt. eigenvalues --    0.06592   0.07466   0.08250   0.11046   0.12700
 Alpha virt. eigenvalues --    0.12969   0.13743   0.14337   0.14858   0.16121

 Mulliken charges:
               1
     1  C   -3.609610
     2  H    1.395964
     3  H    1.285743
     4  C   -2.983155
     5  H    1.510406
     6  H    1.480403
     7  C   -3.926281
     8  H    1.246353
     9  H    1.083217
    10  H    1.283212
    11  C   -0.985172
    12  H    1.682884
    13  F    0.314758
    14  F    0.221278
 Sum of Mulliken charges =  -0.00000

 Dipole moment (field-independent basis, Debye):
    X=              0.3379    Y=              0.5896    Z=             -1.0291  Tot=              1.2333

 Test job not archived.
 1\1\GINC-SE462\SP\RHF\Aug-CC-pVDZ\C4H8F2\OHZDE\09-Apr-2025\0\\#t hf au
 g-cc-pvdz iop(5/13=1,5/36=2,99/5=2) pseudo=read geom=check guess=(read
 ,tcheck) scf=(maxcycle=1)\\title\\0,1\C,0,-0.1192,-0.0949,-0.0551\H,0,
 -0.1896,0.4538,-0.9991\H,0,-0.2046,0.6419,0.7522\C,0,1.2342,-0.7986,0.
 0667\H,0,1.313,-1.5791,-0.6971\H,0,1.294,-1.2998,1.0367\C,0,2.3869,0.1
 94,-0.0819\H,0,2.3597,0.6812,-1.0617\H,0,3.3534,-0.3073,0.0196\H,0,2.3
 298,0.9746,0.6839\C,0,-1.3251,-1.0192,0.0254\H,0,-2.1602,-0.6029,0.592
 9\F,0,-1.0088,-2.2185,0.6001\F,0,-1.8042,-1.2852,-1.2333\\Version=ES64

 Normal termination of Gaussian 16 at Wed Apr  9 02:31:30 2025.
