 Gaussian 16, Revision C.01,

 ----------------------------------------------------------------------
 #t hf aug-cc-pvdz symm=none int=(grid=ultrafine) guess=(read,tcheck) s
 table=(opt,rrhf)
 ----------------------------------------------------------------------
 -----
 title
 -----
 Symbolic Z-matrix:
 Charge =  0 Multiplicity = 1

 SCF Done:  E(RHF) =  -719.111153199     A.U. after   16 cycles
 Normal termination of Gaussian 16 at Wed Apr  9 02:25:43 2025.
 Gaussian 16:  ES64L-G16RevC.01  3-Jul-2019

 ----------------------------------------------------------------------
 #t hf aug-cc-pvdz iop(5/13=1,5/36=2,99/5=2) pseudo=read geom=check gue
 ss=(read,tcheck) scf=(maxcycle=1)
 ----------------------------------------------------------------------
 -----
 title
 -----
 Structure from the checkpoint file:  "DCONF_28_-150_mol1.chk"
 Charge =  0 Multiplicity = 1

                         Standard orientation:
 ---------------------------------------------------------------------
 Center     Atomic      Atomic             Coordinates (Angstroms)
 Number     Number       Type             X           Y           Z
 ---------------------------------------------------------------------
      1          8           0       -2.218825    1.258053   -0.372654
      2          6           0       -2.273355   -1.026708    0.378446
      3          1           0       -2.025129   -1.233102    1.424266
      4          1           0       -3.353079   -0.922508    0.266646
      5          1           0       -1.923443   -1.876108   -0.217784
      6          6           0       -1.599941    0.257456   -0.055837
      7          7           0        0.607693    1.368200    0.197911
      8          6           0        1.936992    1.077632    0.208199
      9          1           0        2.657972    1.869203    0.378069
     10          6           0        2.265610   -0.251473    0.000323
     11          1           0        3.247743   -0.702643   -0.049349
     12         16           0        0.845413   -1.171584   -0.203573
     13          6           0       -0.101625    0.271204   -0.022603
 ---------------------------------------------------------------------

 SCF Done:  E(RHF) =  -720.791299405     A.U. after    2 cycles

 The electronic state is 1-A.
 Alpha  occ. eigenvalues --  -75.74485 -21.06462 -15.76505 -13.20633 -13.19443
 Alpha  occ. eigenvalues --  -13.06690 -11.52134 -11.46756 -11.45101 -11.41293
 Alpha  occ. eigenvalues --  -11.40147  -8.09117  -1.71419  -1.48879  -1.20690
 Alpha  occ. eigenvalues --   -1.15360  -1.07697  -0.90386  -0.82495  -0.72571
 Alpha  occ. eigenvalues --   -0.69170  -0.61594  -0.61339  -0.58032  -0.56163
 Alpha  occ. eigenvalues --   -0.53241  -0.48997  -0.44517  -0.43673  -0.37290
 Alpha  occ. eigenvalues --   -0.34713  -0.30640  -0.29296
 Alpha virt. eigenvalues --    0.02726   0.03618   0.05233   0.05923   0.06332
 Alpha virt. eigenvalues --    0.08321   0.08625   0.09746   0.10448   0.11291
 Alpha virt. eigenvalues --    0.11860   0.12443   0.12796   0.13338   0.14013

 Mulliken charges:
               1
     1  O   -3.224840
     2  C   -4.458578
     3  H    1.353051
     4  H    1.214383
     5  H    1.380693
     6  C    3.805998
     7  N   -3.595236
     8  C    0.695392
     9  H    1.537754
    10  C   -2.864377
    11  H    1.225726
    12  S    2.019525
    13  C    0.910510
 Sum of Mulliken charges =  -0.00000

 Dipole moment (field-independent basis, Debye):
    X=              1.2444    Y=             -4.2830    Z=             -0.0906  Tot=              4.4610

 Test job not archived.
 1\1\GINC-SE059\SP\RHF\Aug-CC-pVDZ\C5H5N1O1S1\OHZDE\09-Apr-2025\0\\#t h
 f aug-cc-pvdz iop(5/13=1,5/36=2,99/5=2) pseudo=read geom=check guess=(
 read,tcheck) scf=(maxcycle=1)\\title\\0,1\O,0,21.2276,-18.5269,0.4391\
 C,0,21.6994,-16.4451,-0.6703\H,0,21.9885,-16.4756,-1.7255\H,0,20.6246,
 -16.2821,-0.5843\H,0,22.235,-15.6107,-0.2052\C,0,22.0598,-17.7588,-0.0
 104\N,0,23.9533,-19.367,0.0013\C,0,25.3138,-19.3909,-0.005\H,0,25.8337
 ,-20.3421,-0.0182\C,0,25.9389,-18.1552,-0.0007\H,0,26.9984,-17.9364,0.
 0132\S,0,24.768,-16.9166,-0.0011\C,0,23.5149,-18.1169,0.0159\\Version=

 Normal termination of Gaussian 16 at Wed Apr  9 02:25:48 2025.
