 Gaussian 16, Revision C.01,

 ----------------------------------------------------------------------
 #t hf aug-cc-pvdz symm=none int=(grid=ultrafine) guess=(read,tcheck) s
 table=(opt,rrhf)
 ----------------------------------------------------------------------
 -----
 title
 -----
 Symbolic Z-matrix:
 Charge =  0 Multiplicity = 1

 SCF Done:  E(RHF) =  -355.056673208     A.U. after   12 cycles
 Normal termination of Gaussian 16 at Wed Apr  9 02:32:28 2025.
 Gaussian 16:  ES64L-G16RevC.01  3-Jul-2019

 ----------------------------------------------------------------------
 #t hf aug-cc-pvdz iop(5/13=1,5/36=2,99/5=2) pseudo=read geom=check gue
 ss=(read,tcheck) scf=(maxcycle=1)
 ----------------------------------------------------------------------
 -----
 title
 -----
 Structure from the checkpoint file:  "DCONF_9_-150_mol1.chk"
 Charge =  0 Multiplicity = 1

                         Standard orientation:
 ---------------------------------------------------------------------
 Center     Atomic      Atomic             Coordinates (Angstroms)
 Number     Number       Type             X           Y           Z
 ---------------------------------------------------------------------
      1          6           0       -0.242853   -0.603160    0.099547
      2          1           0       -0.196800   -1.100977   -0.875631
      3          1           0       -0.450746   -1.375169    0.848360
      4          6           0       -1.355895    0.446550    0.074009
      5          1           0       -1.156632    1.157295   -0.731515
      6          1           0       -1.349234    1.019528    1.009027
      7          6           0       -2.725905   -0.202194   -0.122313
      8          1           0       -2.754220   -0.771106   -1.057155
      9          1           0       -3.516794    0.551894   -0.161746
     10          1           0       -2.954951   -0.890275    0.697615
     11          6           0        1.135975   -0.036130    0.372273
     12          1           0        1.399203    0.039778    1.429496
     13          9           0        1.258318    1.219795   -0.165931
     14          9           0        2.087487   -0.804390   -0.245130
 ---------------------------------------------------------------------

 SCF Done:  E(RHF) =  -356.530371895     A.U. after    2 cycles

 The electronic state is 1-A.
 Alpha  occ. eigenvalues --  -29.27057 -29.26833 -11.52729 -11.42491 -11.39416
 Alpha  occ. eigenvalues --  -11.35991  -1.33673  -1.17146  -0.99386  -0.87047
 Alpha  occ. eigenvalues --   -0.77190  -0.74867  -0.65390  -0.63416  -0.56739
 Alpha  occ. eigenvalues --   -0.53823  -0.49440  -0.47828  -0.47349  -0.42115
 Alpha  occ. eigenvalues --   -0.36951  -0.30211  -0.27652  -0.25493  -0.20413
 Alpha virt. eigenvalues --    0.03864   0.05094   0.05563   0.05969   0.06185
 Alpha virt. eigenvalues --    0.06462   0.07452   0.08697   0.10680   0.12610
 Alpha virt. eigenvalues --    0.13237   0.13989   0.14244   0.15657   0.16288

 Mulliken charges:
               1
     1  C   -3.967499
     2  H    1.481340
     3  H    1.298266
     4  C   -2.800524
     5  H    1.436367
     6  H    1.488354
     7  C   -3.751302
     8  H    1.286021
     9  H    1.102544
    10  H    1.260842
    11  C   -0.966140
    12  H    1.502417
    13  F    0.314426
    14  F    0.314888
 Sum of Mulliken charges =  -0.00000

 Dipole moment (field-independent basis, Debye):
    X=              0.5389    Y=              0.5421    Z=             -0.8314  Tot=              1.1294

 Test job not archived.
 1\1\GINC-SE054\SP\RHF\Aug-CC-pVDZ\C4H8F2\OHZDE\09-Apr-2025\0\\#t hf au
 g-cc-pvdz iop(5/13=1,5/36=2,99/5=2) pseudo=read geom=check guess=(read
 ,tcheck) scf=(maxcycle=1)\\title\\0,1\C,0,-0.1221,-0.0957,-0.0906\H,0,
 -0.1972,0.3656,-1.0818\H,0,-0.212,0.7076,0.6487\C,0,1.2298,-0.8019,0.0
 321\H,0,1.3174,-1.5442,-0.7648\H,0,1.2791,-1.3501,0.9806\C,0,2.3857,0.
 1951,-0.0468\H,0,2.3582,0.7453,-0.9928\H,0,3.3508,-0.3147,0.0195\H,0,2
 .3312,0.9238,0.7682\C,0,-1.3167,-1.0161,0.0606\H,0,-1.6605,-1.1555,1.0
 878\F,0,-1.0363,-2.2605,-0.4442\F,0,-2.3694,-0.5399,-0.6755\\Version=E

 Normal termination of Gaussian 16 at Wed Apr  9 02:32:32 2025.
