 Gaussian 16, Revision C.01,

 ----------------------------------------------------------------------
 #t hf aug-cc-pvdz symm=none int=(grid=ultrafine) guess=(read,tcheck) s
 table=(opt,rrhf)
 ----------------------------------------------------------------------
 -----
 title
 -----
 Symbolic Z-matrix:
 Charge =  0 Multiplicity = 1

 SCF Done:  E(RHF) =  -812.899917752     A.U. after   17 cycles
 Normal termination of Gaussian 16 at Wed Apr  9 02:31:55 2025.
 Gaussian 16:  ES64L-G16RevC.01  3-Jul-2019

 ----------------------------------------------------------------------
 #t hf aug-cc-pvdz iop(5/13=1,5/36=2,99/5=2) pseudo=read geom=check gue
 ss=(read,tcheck) scf=(maxcycle=1)
 ----------------------------------------------------------------------
 -----
 title
 -----
 Structure from the checkpoint file:  "DCONF_56_-130_mol1.chk"
 Charge =  0 Multiplicity = 1

                         Standard orientation:
 ---------------------------------------------------------------------
 Center     Atomic      Atomic             Coordinates (Angstroms)
 Number     Number       Type             X           Y           Z
 ---------------------------------------------------------------------
      1          6           0       -1.475986    1.179103   -0.457046
      2          1           0       -0.991166    2.083624   -0.811173
      3          6           0       -2.864630    1.059101   -0.400809
      4          1           0       -3.504002    1.876272   -0.723656
      5          6           0       -3.414367   -0.137116    0.073010
      6          1           0       -4.489241   -0.278852    0.134434
      7          6           0       -2.547127   -1.157110    0.478298
      8          1           0       -2.939538   -2.097494    0.859890
      9          7           0       -1.206899   -1.056415    0.446739
     10          6           0       -0.692257    0.095742   -0.028763
     11          7           0        1.405433    1.273714    0.498924
     12          6           0        2.755883    1.063216    0.480090
     13          1           0        3.422750    1.831632    0.854185
     14          6           0        3.161071   -0.161420   -0.016880
     15          1           0        4.168778   -0.539094   -0.128033
     16         16           0        1.798064   -1.086530   -0.472405
     17          6           0        0.773023    0.223035   -0.002367
 ---------------------------------------------------------------------

 SCF Done:  E(RHF) =  -815.055756601     A.U. after    2 cycles

 The electronic state is 1-A.
 Alpha  occ. eigenvalues --  -75.72317 -15.74969 -15.74563 -13.18756 -13.17009
 Alpha  occ. eigenvalues --  -13.04923 -11.51604 -11.47800 -11.45308 -11.44961
 Alpha  occ. eigenvalues --  -11.44673 -11.42158 -11.39476 -11.38914  -8.06941
 Alpha  occ. eigenvalues --   -1.50282  -1.42811  -1.19885  -1.18255  -1.15590
 Alpha  occ. eigenvalues --   -1.05480  -0.91507  -0.90000  -0.81853  -0.77964
 Alpha  occ. eigenvalues --   -0.71135  -0.68841  -0.64013  -0.61853  -0.57748
 Alpha  occ. eigenvalues --   -0.57235  -0.55299  -0.52968  -0.51239  -0.46993
 Alpha  occ. eigenvalues --   -0.42542  -0.38251  -0.37734  -0.36517  -0.34813
 Alpha  occ. eigenvalues --   -0.32198  -0.28104
 Alpha virt. eigenvalues --    0.03047   0.04174   0.05139   0.05377   0.05814
 Alpha virt. eigenvalues --    0.07004   0.08116   0.09146   0.09561   0.09783
 Alpha virt. eigenvalues --    0.10569   0.11636   0.11867   0.12544   0.12770

 Mulliken charges:
               1
     1  C   -2.005540
     2  H    1.678775
     3  C    0.045975
     4  H    1.543558
     5  C   -1.306677
     6  H    1.490399
     7  C   -1.050360
     8  H    1.644744
     9  N   -3.417213
    10  C    2.198150
    11  N   -3.928722
    12  C    1.061040
    13  H    1.587010
    14  C   -2.978362
    15  H    1.237218
    16  S    1.064834
    17  C    1.135170
 Sum of Mulliken charges =   0.00000

 Dipole moment (field-independent basis, Debye):
    X=             -0.9790    Y=             -2.0040    Z=             -1.5527  Tot=              2.7176

 Test job not archived.
 1\1\GINC-SE149\SP\RHF\Aug-CC-pVDZ\C8H6N2S1\OHZDE\09-Apr-2025\0\\#t hf
 aug-cc-pvdz iop(5/13=1,5/36=2,99/5=2) pseudo=read geom=check guess=(re
 ad,tcheck) scf=(maxcycle=1)\\title\\0,1\C,0,30.1281,-21.0937,-0.0147\H
 ,0,30.7116,-20.1782,-0.0138\C,0,28.7334,-21.0805,0.0084\H,0,28.1892,-2
 0.14,0.0184\C,0,28.0525,-22.3028,0.0113\H,0,26.9675,-22.3443,0.0277\C,
 0,28.8005,-23.4848,0.0002\H,0,28.3045,-24.4532,0.0105\N,0,30.1444,-23.
 5199,-0.0066\C,0,30.786,-22.334,-0.027\N,0,32.976,-21.6601,0.8764\C,0,
 34.2983,-21.9883,0.766\H,0,35.0284,-21.4866,1.3908\C,0,34.5918,-22.977

 Normal termination of Gaussian 16 at Wed Apr  9 02:32:05 2025.
