 Gaussian 16, Revision C.01,

 ----------------------------------------------------------------------
 #t hf aug-cc-pvdz symm=none int=(grid=ultrafine) guess=(read,tcheck) s
 table=(opt,rrhf)
 ----------------------------------------------------------------------
 -----
 title
 -----
 Symbolic Z-matrix:
 Charge =  0 Multiplicity = 1

 SCF Done:  E(RHF) =  -1153.54416074     A.U. after   16 cycles
 Normal termination of Gaussian 16 at Wed Apr  9 02:26:33 2025.
 Gaussian 16:  ES64L-G16RevC.01  3-Jul-2019

 ----------------------------------------------------------------------
 #t hf aug-cc-pvdz iop(5/13=1,5/36=2,99/5=2) pseudo=read geom=check gue
 ss=(read,tcheck) scf=(maxcycle=1)
 ----------------------------------------------------------------------
 -----
 title
 -----
 Structure from the checkpoint file:  "DCONF_29_-140_mol1.chk"
 Charge =  0 Multiplicity = 1

                         Standard orientation:
 ---------------------------------------------------------------------
 Center     Atomic      Atomic             Coordinates (Angstroms)
 Number     Number       Type             X           Y           Z
 ---------------------------------------------------------------------
      1          6           0       -2.746547   -0.187510   -0.006454
      2          1           0       -3.743097   -0.608747    0.011684
      3          6           0       -2.371507    1.140152   -0.099051
      4          1           0       -3.061103    1.974217   -0.155135
      5          7           0       -1.027149    1.375656   -0.121707
      6          6           0       -0.377983    0.231315   -0.059514
      7         16           0       -1.359286   -1.183308    0.069556
      8         16           0        1.409431    0.176637    0.114969
      9          6           0        1.851744   -1.167762   -0.968826
     10          1           0        1.413447   -2.097070   -0.603315
     11          1           0        2.941700   -1.229019   -0.929586
     12          1           0        1.522056   -0.932303   -1.981319
     13          8           0        1.698573   -0.247149    1.479480
     14          8           0        1.948987    1.406260   -0.434443
 ---------------------------------------------------------------------

 SCF Done:  E(RHF) =  -1155.64475443     A.U. after    2 cycles

 The electronic state is 1-A.
 Alpha  occ. eigenvalues --  -75.90148 -75.76065 -21.05118 -21.05074 -15.78492
 Alpha  occ. eigenvalues --  -13.52267 -13.42976 -13.38152 -13.21995 -13.21017
 Alpha  occ. eigenvalues --  -13.08250 -11.48086 -11.47646 -11.43805 -11.42537
 Alpha  occ. eigenvalues --   -8.25118  -8.10662  -1.83197  -1.65128  -1.50919
 Alpha  occ. eigenvalues --   -1.22236  -1.18428  -1.10591  -0.95901  -0.84952
 Alpha  occ. eigenvalues --   -0.77430  -0.72886  -0.64806  -0.64316  -0.61386
 Alpha  occ. eigenvalues --   -0.58155  -0.56132  -0.54909  -0.45812  -0.44760
 Alpha  occ. eigenvalues --   -0.42338  -0.39994  -0.37976  -0.36980  -0.35757
 Alpha  occ. eigenvalues --   -0.35320  -0.31484
 Alpha virt. eigenvalues --    0.02147   0.03109   0.04690   0.05548   0.05788
 Alpha virt. eigenvalues --    0.07715   0.08300   0.09440   0.10093   0.11024
 Alpha virt. eigenvalues --    0.11421   0.12278   0.12330   0.13178   0.13454

 Mulliken charges:
               1
     1  C   -2.875753
     2  H    1.238129
     3  C    0.835103
     4  H    1.548560
     5  N   -3.475701
     6  C    0.388069
     7  S    1.655884
     8  S    6.115230
     9  C   -4.643150
    10  H    1.477989
    11  H    1.341369
    12  H    1.354075
    13  O   -2.449703
    14  O   -2.510101
 Sum of Mulliken charges =   0.00000

 Dipole moment (field-independent basis, Debye):
    X=             -2.3844    Y=             -4.5824    Z=             -0.7624  Tot=              5.2216

 Test job not archived.
 1\1\GINC-SE322\SP\RHF\Aug-CC-pVDZ\C4H5N1O2S2\OHZDE\09-Apr-2025\0\\#t h
 f aug-cc-pvdz iop(5/13=1,5/36=2,99/5=2) pseudo=read geom=check guess=(
 read,tcheck) scf=(maxcycle=1)\\title\\0,1\C,0,2.0284,-24.6412,-0.9227\
 H,0,0.9835,-24.6635,-1.203\C,0,2.8295,-25.6825,-0.4916\H,0,2.5025,-26.
 7102,-0.3855\N,0,4.1175,-25.3509,-0.1844\C,0,4.2959,-24.0589,-0.368\S,
 0,2.9274,-23.1878,-0.9589\S,0,5.9233,-23.3095,-0.2329\C,0,5.5637,-21.7
 795,0.6082\H,0,4.9183,-21.1583,-0.0138\H,0,6.5295,-21.289,0.7494\H,0,5
 .1076,-22.0023,1.5734\O,0,6.3596,-22.9753,-1.5831\O,0,6.725,-24.1397,0

 Normal termination of Gaussian 16 at Wed Apr  9 02:26:40 2025.
