 Gaussian 16, Revision C.01,

 ----------------------------------------------------------------------
 #t hf aug-cc-pvdz symm=none int=(grid=ultrafine) guess=(read,tcheck) s
 table=(opt,rrhf)
 ----------------------------------------------------------------------
 -----
 title
 -----
 Symbolic Z-matrix:
 Charge =  0 Multiplicity = 1

 SCF Done:  E(RHF) =  -1153.54503249     A.U. after   16 cycles
 Normal termination of Gaussian 16 at Wed Apr  9 02:26:34 2025.
 Gaussian 16:  ES64L-G16RevC.01  3-Jul-2019

 ----------------------------------------------------------------------
 #t hf aug-cc-pvdz iop(5/13=1,5/36=2,99/5=2) pseudo=read geom=check gue
 ss=(read,tcheck) scf=(maxcycle=1)
 ----------------------------------------------------------------------
 -----
 title
 -----
 Structure from the checkpoint file:  "DCONF_29_-130_mol1.chk"
 Charge =  0 Multiplicity = 1

                         Standard orientation:
 ---------------------------------------------------------------------
 Center     Atomic      Atomic             Coordinates (Angstroms)
 Number     Number       Type             X           Y           Z
 ---------------------------------------------------------------------
      1          6           0       -2.745759   -0.183030   -0.023090
      2          1           0       -3.743409   -0.602066   -0.012296
      3          6           0       -2.368281    1.144689   -0.109386
      4          1           0       -3.056228    1.979914   -0.169569
      5          7           0       -1.023637    1.378742   -0.115134
      6          6           0       -0.377003    0.232719   -0.047595
      7         16           0       -1.361268   -1.180140    0.073701
      8         16           0        1.408080    0.155372    0.136122
      9          6           0        1.873036   -0.980831   -1.156531
     10          1           0        1.561788   -0.570167   -2.118013
     11          1           0        2.961681   -1.055718   -1.108841
     12          1           0        1.420824   -1.954702   -0.966103
     13          8           0        1.949725    1.463237   -0.178957
     14          8           0        1.672758   -0.504918    1.409357
 ---------------------------------------------------------------------

 SCF Done:  E(RHF) =  -1155.64596444     A.U. after    2 cycles

 The electronic state is 1-A.
 Alpha  occ. eigenvalues --  -75.90113 -75.75979 -21.05156 -21.05055 -15.78531
 Alpha  occ. eigenvalues --  -13.52297 -13.42449 -13.38394 -13.21923 -13.20911
 Alpha  occ. eigenvalues --  -13.08268 -11.48044 -11.47614 -11.43683 -11.42485
 Alpha  occ. eigenvalues --   -8.25083  -8.10571  -1.83207  -1.65180  -1.50871
 Alpha  occ. eigenvalues --   -1.22145  -1.18329  -1.10571  -0.95831  -0.84895
 Alpha  occ. eigenvalues --   -0.77443  -0.72831  -0.64741  -0.64185  -0.61551
 Alpha  occ. eigenvalues --   -0.57924  -0.56172  -0.55020  -0.45645  -0.44451
 Alpha  occ. eigenvalues --   -0.42297  -0.39847  -0.38038  -0.37192  -0.35765
 Alpha  occ. eigenvalues --   -0.35466  -0.31405
 Alpha virt. eigenvalues --    0.02141   0.03162   0.04698   0.05641   0.05815
 Alpha virt. eigenvalues --    0.07671   0.08333   0.09373   0.09958   0.11022
 Alpha virt. eigenvalues --    0.11511   0.12210   0.12467   0.13238   0.13380

 Mulliken charges:
               1
     1  C   -2.791212
     2  H    1.237690
     3  C    0.803095
     4  H    1.552729
     5  N   -3.571862
     6  C    0.487959
     7  S    1.519703
     8  S    6.228822
     9  C   -4.646381
    10  H    1.358686
    11  H    1.351535
    12  H    1.436783
    13  O   -2.520525
    14  O   -2.447023
 Sum of Mulliken charges =   0.00000

 Dipole moment (field-independent basis, Debye):
    X=             -2.3686    Y=             -4.3816    Z=             -0.9554  Tot=              5.0716

 Test job not archived.
 1\1\GINC-SE128\SP\RHF\Aug-CC-pVDZ\C4H5N1O2S2\OHZDE\09-Apr-2025\0\\#t h
 f aug-cc-pvdz iop(5/13=1,5/36=2,99/5=2) pseudo=read geom=check guess=(
 read,tcheck) scf=(maxcycle=1)\\title\\0,1\C,0,2.0282,-24.6376,-0.9186\
 H,0,0.9837,-24.6575,-1.2008\C,0,2.8266,-25.6827,-0.4907\H,0,2.4969,-26
 .7099,-0.3875\N,0,4.1167,-25.3564,-0.1873\C,0,4.2985,-24.0642,-0.3696\
 S,0,2.9335,-23.1888,-0.9613\S,0,5.9186,-23.3011,-0.231\C,0,5.5989,-21.
 9292,0.8616\H,0,5.2267,-22.3129,1.8125\H,0,6.5607,-21.431,1.0022\H,0,4
 .8879,-21.2479,0.3931\O,0,6.7996,-24.2353,0.443\O,0,6.2369,-22.7462,-1

 Normal termination of Gaussian 16 at Wed Apr  9 02:26:40 2025.
