 Gaussian 16, Revision C.01,

 ----------------------------------------------------------------------
 #t hf aug-cc-pvdz symm=none int=(grid=ultrafine) guess=(read,tcheck) s
 table=(opt,rrhf)
 ----------------------------------------------------------------------
 -----
 title
 -----
 Symbolic Z-matrix:
 Charge =  0 Multiplicity = 1

 SCF Done:  E(RHF) =  -1153.54613064     A.U. after   16 cycles
 Normal termination of Gaussian 16 at Wed Apr  9 02:26:32 2025.
 Gaussian 16:  ES64L-G16RevC.01  3-Jul-2019

 ----------------------------------------------------------------------
 #t hf aug-cc-pvdz iop(5/13=1,5/36=2,99/5=2) pseudo=read geom=check gue
 ss=(read,tcheck) scf=(maxcycle=1)
 ----------------------------------------------------------------------
 -----
 title
 -----
 Structure from the checkpoint file:  "DCONF_29_-120_mol1.chk"
 Charge =  0 Multiplicity = 1

                         Standard orientation:
 ---------------------------------------------------------------------
 Center     Atomic      Atomic             Coordinates (Angstroms)
 Number     Number       Type             X           Y           Z
 ---------------------------------------------------------------------
      1          6           0        2.744026   -0.174847    0.041104
      2          1           0        3.743626   -0.589700    0.039422
      3          6           0        2.362078    1.153160    0.111056
      4          1           0        3.047006    1.990997    0.168219
      5          7           0        1.016992    1.382716    0.098215
      6          6           0        0.375507    0.232959    0.034803
      7         16           0        1.364738   -1.176985   -0.068378
      8         16           0       -1.405560    0.129170   -0.154588
      9          6           0       -1.898084   -0.755573    1.312782
     10          1           0       -1.610117   -0.174102    2.190038
     11          1           0       -2.984960   -0.848448    1.256554
     12          1           0       -1.433710   -1.742077    1.310274
     13          8           0       -1.949176    1.471885   -0.096341
     14          8           0       -1.641924   -0.757488   -1.289037
 ---------------------------------------------------------------------

 SCF Done:  E(RHF) =  -1155.64740140     A.U. after    2 cycles

 The electronic state is 1-A.
 Alpha  occ. eigenvalues --  -75.90076 -75.75911 -21.05203 -21.05024 -15.78552
 Alpha  occ. eigenvalues --  -13.52312 -13.42068 -13.38574 -13.21805 -13.20699
 Alpha  occ. eigenvalues --  -13.08293 -11.47985 -11.47539 -11.43583 -11.42430
 Alpha  occ. eigenvalues --   -8.25053  -8.10494  -1.83235  -1.65249  -1.50827
 Alpha  occ. eigenvalues --   -1.22057  -1.18241  -1.10550  -0.95784  -0.84821
 Alpha  occ. eigenvalues --   -0.77469  -0.72776  -0.64670  -0.64073  -0.61686
 Alpha  occ. eigenvalues --   -0.57745  -0.56192  -0.55100  -0.45503  -0.44165
 Alpha  occ. eigenvalues --   -0.42210  -0.39780  -0.38143  -0.37374  -0.35699
 Alpha  occ. eigenvalues --   -0.35572  -0.31428
 Alpha virt. eigenvalues --    0.02134   0.03220   0.04717   0.05626   0.05941
 Alpha virt. eigenvalues --    0.07652   0.08283   0.09229   0.09954   0.11050
 Alpha virt. eigenvalues --    0.11588   0.12162   0.12654   0.13279   0.13397

 Mulliken charges:
               1
     1  C   -2.726570
     2  H    1.238284
     3  C    0.775220
     4  H    1.561664
     5  N   -3.651742
     6  C    0.522497
     7  S    1.434236
     8  S    6.362081
     9  C   -4.660939
    10  H    1.368835
    11  H    1.350547
    12  H    1.399855
    13  O   -2.525692
    14  O   -2.448275
 Sum of Mulliken charges =  -0.00000

 Dipole moment (field-independent basis, Debye):
    X=              2.3402    Y=             -4.1496    Z=              1.1415  Tot=              4.8988

 Test job not archived.
 1\1\GINC-SE123\SP\RHF\Aug-CC-pVDZ\C4H5N1O2S2\OHZDE\09-Apr-2025\0\\#t h
 f aug-cc-pvdz iop(5/13=1,5/36=2,99/5=2) pseudo=read geom=check guess=(
 read,tcheck) scf=(maxcycle=1)\\title\\0,1\C,0,2.0285,-24.6337,-0.9139\
 H,0,0.9845,-24.6515,-1.1986\C,0,2.8241,-25.683,-0.4892\H,0,2.4915,-26.
 7095,-0.389\N,0,4.1163,-25.3617,-0.1907\C,0,4.3009,-24.0692,-0.3719\S,
 0,2.9398,-23.1895,-0.9641\S,0,5.9124,-23.2937,-0.2287\C,0,5.6569,-22.1
 138,1.0832\H,0,5.3752,-22.6495,1.9911\H,0,6.6143,-21.6064,1.2211\H,0,4
 .8908,-21.3997,0.7799\O,0,6.8614,-24.2939,0.2194\O,0,6.1068,-22.5321,-

 Normal termination of Gaussian 16 at Wed Apr  9 02:26:39 2025.
