 Gaussian 16, Revision C.01,

 ----------------------------------------------------------------------
 #t hf aug-cc-pvdz symm=none int=(grid=ultrafine) guess=(read,tcheck) s
 table=(opt,rrhf)
 ----------------------------------------------------------------------
 -----
 title
 -----
 Symbolic Z-matrix:
 Charge = -1 Multiplicity = 1

 SCF Done:  E(RHF) =  -935.215530384     A.U. after   16 cycles
 Normal termination of Gaussian 16 at Wed Apr  9 02:39:16 2025.
 Gaussian 16:  ES64L-G16RevC.01  3-Jul-2019

 ----------------------------------------------------------------------
 #t hf aug-cc-pvdz iop(5/13=1,5/36=2,99/5=2) pseudo=read geom=check gue
 ss=(read,tcheck) scf=(maxcycle=1)
 ----------------------------------------------------------------------
 -----
 title
 -----
 Structure from the checkpoint file:  "E2SN2_172_mol2.chk"
 Charge = -1 Multiplicity = 1

                         Standard orientation:
 ---------------------------------------------------------------------
 Center     Atomic      Atomic             Coordinates (Angstroms)
 Number     Number       Type             X           Y           Z
 ---------------------------------------------------------------------
      1          6           0        0.162096    0.200630    0.176244
      2          6           0       -0.907577    0.090450   -0.901876
      3         17           0        0.936856    1.819356    0.271413
      4          1           0       -0.467365    0.312408   -1.879955
      5          1           0       -0.315058   -0.082583    1.136274
      6          7           0        1.298321   -0.754348   -0.077919
      7          8           0        1.889819   -1.189217    0.907097
      8          8           0        1.586439   -1.030645   -1.244139
      9          6           0       -2.043401    1.051174   -0.567014
     10          1           0       -2.395358    0.765523    0.427115
     11          1           0       -2.844019    0.904061   -1.295248
     12          1           0       -1.730183    2.097170   -0.578427
     13          7           0       -1.462154   -1.260011   -0.886526
     14          1           0       -1.720836   -1.399152    0.111155
     15          1           0       -0.737806   -1.923505   -1.136628
     16          9           0       -1.738430   -0.866343    1.756113
 ---------------------------------------------------------------------

 SCF Done:  E(RHF) =  -937.506393760     A.U. after    2 cycles

 The electronic state is 1-A.
 Alpha  occ. eigenvalues --  -99.77565 -28.90502 -20.97621 -20.97114 -15.86578
 Alpha  occ. eigenvalues --  -15.56788 -11.36686 -11.29962 -11.23092 -10.34920
 Alpha  occ. eigenvalues --   -9.54952  -9.54230  -9.54051  -1.86579  -1.56478
 Alpha  occ. eigenvalues --   -1.27122  -1.18317  -1.01198  -0.94738  -0.77008
 Alpha  occ. eigenvalues --   -0.69769  -0.60391  -0.57504  -0.54517  -0.52353
 Alpha  occ. eigenvalues --   -0.46405  -0.45208  -0.43603  -0.40495  -0.39576
 Alpha  occ. eigenvalues --   -0.37760  -0.36249  -0.34020  -0.27103  -0.23324
 Alpha  occ. eigenvalues --   -0.21304  -0.18957  -0.18141   0.00548   0.00636
 Alpha  occ. eigenvalues --    0.02500
 Alpha virt. eigenvalues --    0.13883   0.14595   0.15068   0.16156   0.17414
 Alpha virt. eigenvalues --    0.18105   0.19244   0.20266   0.21212   0.22647
 Alpha virt. eigenvalues --    0.24161   0.25084   0.26059   0.26840   0.27086

 Mulliken charges:
               1
     1  C   -1.595552
     2  C    2.279220
     3  Cl  -0.137751
     4  H    1.782047
     5  H    1.369123
     6  N    4.659316
     7  O   -2.886474
     8  O   -2.927435
     9  C   -3.625765
    10  H    0.992331
    11  H    1.081017
    12  H    1.156140
    13  N   -3.145278
    14  H    0.298236
    15  H    0.506182
    16  F   -0.805356
 Sum of Mulliken charges =  -1.00000

 Dipole moment (field-independent basis, Debye):
    X=              2.7005    Y=              1.1783    Z=             -2.7741  Tot=              4.0468

 Test job not archived.
 1\1\GINC-SE366\SP\RHF\Aug-CC-pVDZ\C3H7Cl1F1N2O2(1-)\OHZDE\09-Apr-2025\
 0\\#t hf aug-cc-pvdz iop(5/13=1,5/36=2,99/5=2) pseudo=read geom=check
 guess=(read,tcheck) scf=(maxcycle=1)\\title\\-1,1\C,0,-0.19293,-0.0636
 17,0.01913\C,0,-0.418344,-0.040158,-1.486633\Cl,0,1.284715,0.811535,0.
 548525\H,0,0.441404,-0.491162,-1.993703\H,0,-1.106588,0.352296,0.49007
 5\N,0,-0.007999,-1.469905,0.524838\O,0,-0.383845,-1.702313,1.67112\O,0
 ,0.522155,-2.298501,-0.217986\C,0,-0.636319,1.402965,-1.928335\H,0,-1.
 491311,1.767196,-1.353802\H,0,-0.883141,1.403248,-2.992306\H,0,0.23834

 Normal termination of Gaussian 16 at Wed Apr  9 02:39:22 2025.
