 Gaussian 16, Revision C.01,

 ----------------------------------------------------------------------
 #t hf aug-cc-pvdz symm=none int=(grid=ultrafine) guess=(read,tcheck) s
 table=(opt,rrhf)
 ----------------------------------------------------------------------
 -----
 title
 -----
 Symbolic Z-matrix:
 Charge = -1 Multiplicity = 1

 SCF Done:  E(RHF) =  -1387.01746716     A.U. after   18 cycles
 Normal termination of Gaussian 16 at Wed Apr  9 03:00:24 2025.
 Gaussian 16:  ES64L-G16RevC.01  3-Jul-2019

 ----------------------------------------------------------------------
 #t hf aug-cc-pvdz iop(5/13=1,5/36=2,99/5=2) pseudo=read geom=check gue
 ss=(read,tcheck) scf=(maxcycle=1)
 ----------------------------------------------------------------------
 -----
 title
 -----
 Structure from the checkpoint file:  "E2SN2_43_mol1.chk"
 Charge = -1 Multiplicity = 1

                         Standard orientation:
 ---------------------------------------------------------------------
 Center     Atomic      Atomic             Coordinates (Angstroms)
 Number     Number       Type             X           Y           Z
 ---------------------------------------------------------------------
      1          6           0        0.478109    0.005932   -0.405326
      2          6           0       -0.472916    0.699554    0.378425
      3         17           0        2.614278    0.623098    0.374232
      4         17           0       -2.989736   -0.840090   -0.121224
      5          1           0       -1.736127   -0.112520    0.042674
      6          7           0        0.746542   -1.431748   -0.077187
      7          8           0        1.284823   -2.106201   -0.951465
      8          8           0        0.397723   -1.846264    1.021481
      9          7           0        0.570750    0.214424   -1.748684
     10          1           0        0.608848    1.195666   -1.987319
     11          1           0        1.317509   -0.325192   -2.162781
     12          6           0       -0.473228    0.665326    1.895775
     13          1           0        0.552052    0.776248    2.260619
     14          1           0       -1.081884    1.491340    2.269982
     15          1           0       -0.885646   -0.268040    2.274055
     16          6           0       -0.791724    1.970121   -0.195317
     17          7           0       -1.073547    3.003821   -0.688391
 ---------------------------------------------------------------------

 SCF Done:  E(RHF) =  -1389.63339586     A.U. after    2 cycles

 The electronic state is 1-A.
 Alpha  occ. eigenvalues --  -99.72214 -99.68351 -21.00128 -20.99814 -15.90354
 Alpha  occ. eigenvalues --  -15.68773 -15.64357 -11.49397 -11.36069 -11.31367
 Alpha  occ. eigenvalues --  -11.27511 -10.29203 -10.25257  -9.49313  -9.48663
 Alpha  occ. eigenvalues --   -9.48655  -9.45368  -9.44874  -9.44827  -1.89892
 Alpha  occ. eigenvalues --   -1.59812  -1.34494  -1.19383  -1.11993  -1.08493
 Alpha  occ. eigenvalues --   -1.05154  -0.99590  -0.86758  -0.70403  -0.64691
 Alpha  occ. eigenvalues --   -0.61154  -0.60885  -0.55029  -0.53559  -0.49964
 Alpha  occ. eigenvalues --   -0.46293  -0.45109  -0.43990  -0.41427  -0.39114
 Alpha  occ. eigenvalues --   -0.36143  -0.35605  -0.34930  -0.33206  -0.32147
 Alpha  occ. eigenvalues --   -0.31341  -0.29158  -0.26025  -0.21755  -0.21486
 Alpha  occ. eigenvalues --   -0.19337
 Alpha virt. eigenvalues --    0.13196   0.14349   0.15426   0.15834   0.16354
 Alpha virt. eigenvalues --    0.16578   0.17727   0.19438   0.20040   0.21533
 Alpha virt. eigenvalues --    0.22740   0.24022   0.24512   0.24996   0.25265

 Mulliken charges:
               1
     1  C    4.649861
     2  C    1.720883
     3  Cl  -0.666009
     4  Cl  -0.976513
     5  H    1.339951
     6  N    4.140062
     7  O   -2.943548
     8  O   -3.121801
     9  N   -3.967913
    10  H    0.621192
    11  H    0.846401
    12  C   -4.644640
    13  H    1.217337
    14  H    1.158072
    15  H    1.333135
    16  C    0.814622
    17  N   -2.521091
 Sum of Mulliken charges =  -1.00000

 Dipole moment (field-independent basis, Debye):
    X=              0.6240    Y=             -1.9660    Z=             -0.9467  Tot=              2.2696

 Test job not archived.
 1\1\GINC-SE461\SP\RHF\Aug-CC-pVDZ\C4H6Cl2N3O2(1-)\OHZDE\09-Apr-2025\0\
 \#t hf aug-cc-pvdz iop(5/13=1,5/36=2,99/5=2) pseudo=read geom=check gu
 ess=(read,tcheck) scf=(maxcycle=1)\\title\\-1,1\C,0,-0.35989143,0.1283
 4456,-0.18294442\C,0,-0.10015845,0.01079031,1.20217146\Cl,0,1.6713847,
 -0.25702962,-1.31308947\Cl,0,-2.83492754,-0.36454272,2.35746467\H,0,-1
 .53816102,-0.13523505,1.73011107\N,0,-0.99740399,-1.03499408,-0.880710
 73\O,0,-1.53038423,-0.80471894,-1.96325378\O,0,-0.9667157,-2.12649725,
 -0.32550883\N,0,-0.79149273,1.30316387,-0.72162967\H,0,-0.23244499,2.0

 Normal termination of Gaussian 16 at Wed Apr  9 03:00:34 2025.
