 Gaussian 16, Revision C.01,

 ----------------------------------------------------------------------
 #t hf aug-cc-pvdz symm=none int=(grid=ultrafine) guess=(read,tcheck) s
 table=(opt,rrhf)
 ----------------------------------------------------------------------
 -----
 title
 -----
 Symbolic Z-matrix:
 Charge = -1 Multiplicity = 1

 SCF Done:  E(RHF) =  -1099.64863477     A.U. after   16 cycles
 Normal termination of Gaussian 16 at Wed Apr  9 02:46:00 2025.
 Gaussian 16:  ES64L-G16RevC.01  3-Jul-2019

 ----------------------------------------------------------------------
 #t hf aug-cc-pvdz iop(5/13=1,5/36=2,99/5=2) pseudo=read geom=check gue
 ss=(read,tcheck) scf=(maxcycle=1)
 ----------------------------------------------------------------------
 -----
 title
 -----
 Structure from the checkpoint file:  "E2SN2_237_mol1.chk"
 Charge = -1 Multiplicity = 1

                         Standard orientation:
 ---------------------------------------------------------------------
 Center     Atomic      Atomic             Coordinates (Angstroms)
 Number     Number       Type             X           Y           Z
 ---------------------------------------------------------------------
      1          6           0       -0.571881   -0.159359   -0.512272
      2          1           0        0.764819    1.115635   -1.586140
      3          9           0       -0.134638   -2.022735   -0.654848
      4         17           0       -1.125589    1.883944   -0.004971
      5          6           0        0.798207    0.148567   -1.093117
      6          1           0        1.029640   -0.662846   -1.772182
      7          7           0       -0.782304   -0.594899    0.923143
      8          8           0        0.169341   -0.527478    1.684518
      9          8           0       -1.912347   -0.962763    1.208075
     10          7           0       -1.591225   -0.356862   -1.464402
     11          1           0       -2.435625    0.108936   -1.167029
     12          1           0       -1.712647   -1.361541   -1.503683
     13          7           0        1.941408    0.219513   -0.136360
     14          8           0        2.160082    1.301052    0.404534
     15          8           0        2.628858   -0.789826    0.000729
 ---------------------------------------------------------------------

 SCF Done:  E(RHF) =  -1102.58867914     A.U. after    2 cycles

 The electronic state is 1-A.
 Alpha  occ. eigenvalues --  -99.69992 -28.97379 -20.96616 -20.96390 -20.96122
 Alpha  occ. eigenvalues --  -20.95872 -15.87063 -15.86565 -15.63913 -11.50907
 Alpha  occ. eigenvalues --  -11.33964 -10.27100  -9.47228  -9.46657  -9.46614
 Alpha  occ. eigenvalues --   -1.86469  -1.85683  -1.56537  -1.55727  -1.30394
 Alpha  occ. eigenvalues --   -1.10795  -1.07588  -0.97876  -0.79785  -0.67109
 Alpha  occ. eigenvalues --   -0.66464  -0.59708  -0.56198  -0.55395  -0.53990
 Alpha  occ. eigenvalues --   -0.52691  -0.49606  -0.45147  -0.42053  -0.35523
 Alpha  occ. eigenvalues --   -0.34934  -0.34015  -0.33629  -0.31261  -0.22545
 Alpha  occ. eigenvalues --   -0.22083  -0.20154  -0.18036  -0.17774  -0.17019
 Alpha  occ. eigenvalues --   -0.07756  -0.04327  -0.03716
 Alpha virt. eigenvalues --    0.13857   0.14920   0.15701   0.16552   0.19891
 Alpha virt. eigenvalues --    0.21160   0.23087   0.23491   0.25103   0.25446
 Alpha virt. eigenvalues --    0.25748   0.26990   0.27420   0.27845   0.28310

 Mulliken charges:
               1
     1  C    2.819727
     2  H    1.498502
     3  F   -0.382275
     4  Cl  -0.647301
     5  C   -1.323042
     6  H    1.250654
     7  N    6.024331
     8  O   -3.566390
     9  O   -3.314927
    10  N   -3.290240
    11  H    0.576922
    12  H    0.434415
    13  N    4.637357
    14  O   -2.931262
    15  O   -2.786472
 Sum of Mulliken charges =  -1.00000

 Dipole moment (field-independent basis, Debye):
    X=              1.4172    Y=             -4.6098    Z=             -1.6799  Tot=              5.1069

 Test job not archived.
 1\1\GINC-SE051\SP\RHF\Aug-CC-pVDZ\C2H4Cl1F1N3O4(1-)\OHZDE\09-Apr-2025\
 0\\#t hf aug-cc-pvdz iop(5/13=1,5/36=2,99/5=2) pseudo=read geom=check
 guess=(read,tcheck) scf=(maxcycle=1)\\title\\-1,1\C,0,0.73327732,-0.05
 576755,0.01489529\H,0,1.26848538,1.94485257,0.54086241\F,0,-1.16217226
 ,-0.34607247,-0.06680717\Cl,0,2.89602231,0.08016157,-0.19268161\C,0,0.
 44639373,1.43623481,0.04600736\H,0,-0.49616116,1.55356991,0.56649088\N
 ,0,0.64357859,-0.8886311,-1.24711937\O,0,0.50350557,-0.30204486,-2.308
 32656\O,0,0.74265133,-2.09728571,-1.09596784\N,0,0.74485019,-0.6859566

 Normal termination of Gaussian 16 at Wed Apr  9 02:46:09 2025.
