 Gaussian 16, Revision C.01,

 ----------------------------------------------------------------------
 #t hf aug-cc-pvdz symm=none int=(grid=ultrafine) guess=(read,tcheck) s
 table=(opt,rrhf)
 ----------------------------------------------------------------------
 -----
 title
 -----
 Symbolic Z-matrix:
 Charge = -1 Multiplicity = 1

 SCF Done:  E(RHF) =  -502.450037925     A.U. after   15 cycles
 Normal termination of Gaussian 16 at Wed Apr  9 02:59:21 2025.
 Gaussian 16:  ES64L-G16RevC.01  3-Jul-2019

 ----------------------------------------------------------------------
 #t hf aug-cc-pvdz iop(5/13=1,5/36=2,99/5=2) pseudo=read geom=check gue
 ss=(read,tcheck) scf=(maxcycle=1)
 ----------------------------------------------------------------------
 -----
 title
 -----
 Structure from the checkpoint file:  "E2SN2_406_mol2.chk"
 Charge = -1 Multiplicity = 1

                         Standard orientation:
 ---------------------------------------------------------------------
 Center     Atomic      Atomic             Coordinates (Angstroms)
 Number     Number       Type             X           Y           Z
 ---------------------------------------------------------------------
      1          6           0        0.470224   -0.531613   -0.397090
      2          6           0       -0.479393    0.190738    0.586395
      3          9           0       -0.222598   -1.650819   -0.910835
      4          1           0        0.118131    1.098753    0.822443
      5          7           0        0.861258    0.313325   -1.488012
      6          1           0        0.018011    0.670507   -1.929955
      7          1           0        1.308653    1.109833   -0.982586
      8          6           0        1.719977   -1.008134    0.308556
      9          1           0        1.494433   -1.752415    1.074731
     10          1           0        2.179257   -0.111398    0.731525
     11          1           0        2.378002   -1.451063   -0.441178
     12          6           0       -0.842955   -0.607807    1.840014
     13          1           0       -1.218607   -1.599461    1.573332
     14          1           0        0.035045   -0.719828    2.477674
     15          1           0       -1.612447   -0.090464    2.419120
     16          6           0       -1.697234    0.580305   -0.119681
     17          7           0       -2.691535    0.886757   -0.667102
     18          9           0        1.676794    1.951267    0.469893
 ---------------------------------------------------------------------

 SCF Done:  E(RHF) =  -504.601461302     A.U. after    2 cycles

 The electronic state is 1-A.
 Alpha  occ. eigenvalues --  -29.10624 -28.90517 -15.62679 -15.56531 -11.37472
 Alpha  occ. eigenvalues --  -11.33325 -11.29836 -11.27059 -11.23148  -1.28467
 Alpha  occ. eigenvalues --   -1.16592  -1.05559  -0.95849  -0.85114  -0.77167
 Alpha  occ. eigenvalues --   -0.62199  -0.54842  -0.51456  -0.48325  -0.45384
 Alpha  occ. eigenvalues --   -0.43724  -0.42617  -0.41232  -0.39656  -0.37374
 Alpha  occ. eigenvalues --   -0.34811  -0.30305  -0.29711  -0.26911  -0.22675
 Alpha  occ. eigenvalues --   -0.19329  -0.11720  -0.11260   0.00773   0.00986
 Alpha  occ. eigenvalues --    0.02607
 Alpha virt. eigenvalues --    0.13282   0.13946   0.14667   0.14776   0.16359
 Alpha virt. eigenvalues --    0.16997   0.17840   0.18507   0.19905   0.20397
 Alpha virt. eigenvalues --    0.21185   0.22901   0.24343   0.25267   0.25495

 Mulliken charges:
               1
     1  C    6.138027
     2  C   -1.397144
     3  F   -0.098025
     4  H    1.363191
     5  N   -4.120147
     6  H    0.595905
     7  H    0.115261
     8  C   -4.297947
     9  H    1.267082
    10  H    0.841720
    11  H    1.094876
    12  C   -4.117989
    13  H    1.234729
    14  H    1.310239
    15  H    1.161525
    16  C    1.420002
    17  N   -2.581661
    18  F   -0.929643
 Sum of Mulliken charges =  -1.00000

 Dipole moment (field-independent basis, Debye):
    X=             -1.9486    Y=             -5.7936    Z=              0.8143  Tot=              6.1666

 Test job not archived.
 1\1\GINC-SE036\SP\RHF\Aug-CC-pVDZ\C5H9F2N2(1-)\OHZDE\09-Apr-2025\0\\#t
  hf aug-cc-pvdz iop(5/13=1,5/36=2,99/5=2) pseudo=read geom=check guess
 =(read,tcheck) scf=(maxcycle=1)\\title\\-1,1\C,0,-0.019621,-0.010631,0
 .006772\C,0,-0.509317,-0.053244,-1.459239\F,0,1.39077,0.071053,-0.0193
 8\H,0,-1.610163,0.007618,-1.312002\N,0,-0.537374,1.123598,0.71557\H,0,
 -0.303875,1.960611,0.187512\H,0,-1.56638,0.973874,0.621912\C,0,-0.4260
 95,-1.263398,0.749905\H,0,0.040043,-2.155314,0.326765\H,0,-1.516288,-1
 .302257,0.687094\H,0,-0.111969,-1.151451,1.789173\C,0,-0.096025,-1.300

 Normal termination of Gaussian 16 at Wed Apr  9 02:59:31 2025.
