 Gaussian 16, Revision C.01,

 ----------------------------------------------------------------------
 #t hf aug-cc-pvdz symm=none int=(grid=ultrafine) guess=(read,tcheck) s
 table=(opt,rrhf)
 ----------------------------------------------------------------------
 -----
 title
 -----
 Symbolic Z-matrix:
 Charge = -1 Multiplicity = 1

 SCF Done:  E(RHF) =  -1348.02738310     A.U. after   16 cycles
 Normal termination of Gaussian 16 at Wed Apr  9 02:50:49 2025.
 Gaussian 16:  ES64L-G16RevC.01  3-Jul-2019

 ----------------------------------------------------------------------
 #t hf aug-cc-pvdz iop(5/13=1,5/36=2,99/5=2) pseudo=read geom=check gue
 ss=(read,tcheck) scf=(maxcycle=1)
 ----------------------------------------------------------------------
 -----
 title
 -----
 Structure from the checkpoint file:  "E2SN2_294_mol2.chk"
 Charge = -1 Multiplicity = 1

                         Standard orientation:
 ---------------------------------------------------------------------
 Center     Atomic      Atomic             Coordinates (Angstroms)
 Number     Number       Type             X           Y           Z
 ---------------------------------------------------------------------
      1          6           0        0.166419   -0.729511   -0.214292
      2          6           0       -0.041175    0.775418   -0.317184
      3         17           0        1.764402   -1.136070   -1.030071
      4          1           0       -0.951875    1.049325    0.226402
      5          1           0       -0.149293    1.033636   -1.367426
      6          6           0        0.326036   -1.215028    1.169050
      7          7           0        0.381419   -1.719187    2.229681
      8          7           0       -0.899268   -1.347031   -0.919213
      9          1           0       -1.784379   -0.846669   -0.732094
     10          1           0       -0.994181   -2.319929   -0.657450
     11          7           0        1.100220    1.556382    0.216399
     12          8           0        1.607918    2.395490   -0.526439
     13          8           0        1.444614    1.335645    1.375590
     14         17           0       -3.371744    0.478313   -0.074409
 ---------------------------------------------------------------------

 SCF Done:  E(RHF) =  -1350.40183410     A.U. after    2 cycles

 The electronic state is 1-A.
 Alpha  occ. eigenvalues --  -99.79635 -99.63369 -21.00338 -20.99987 -15.89832
 Alpha  occ. eigenvalues --  -15.67329 -15.64553 -11.46252 -11.37150 -11.34106
 Alpha  occ. eigenvalues --  -10.37000 -10.20088  -9.57009  -9.56291  -9.56192
 Alpha  occ. eigenvalues --   -9.40115  -9.39813  -9.39616  -1.89560  -1.59421
 Alpha  occ. eigenvalues --   -1.35973  -1.18908  -1.18169  -1.10905  -0.99472
 Alpha  occ. eigenvalues --   -0.90665  -0.78254  -0.66943  -0.62552  -0.61386
 Alpha  occ. eigenvalues --   -0.56326  -0.52900  -0.51839  -0.47407  -0.46448
 Alpha  occ. eigenvalues --   -0.43937  -0.40785  -0.40214  -0.35395  -0.33746
 Alpha  occ. eigenvalues --   -0.29007  -0.27533  -0.27235  -0.26303  -0.25258
 Alpha  occ. eigenvalues --   -0.22026  -0.21575
 Alpha virt. eigenvalues --    0.13734   0.14918   0.15544   0.16965   0.18555
 Alpha virt. eigenvalues --    0.18982   0.19784   0.21406   0.21780   0.22146
 Alpha virt. eigenvalues --    0.23038   0.23969   0.24733   0.25435   0.26206

 Mulliken charges:
               1
     1  C    1.811718
     2  C   -1.560121
     3  Cl  -0.019214
     4  H    1.312181
     5  H    1.617535
     6  C    2.943296
     7  N   -2.766105
     8  N   -3.283099
     9  H    0.534417
    10  H    0.675331
    11  N    4.212429
    12  O   -2.701348
    13  O   -2.824544
    14  Cl  -0.952474
 Sum of Mulliken charges =  -1.00000

 Dipole moment (field-independent basis, Debye):
    X=              8.0198    Y=             -1.2072    Z=             -1.4262  Tot=              8.2346

 Test job not archived.
 1\1\GINC-SE187\SP\RHF\Aug-CC-pVDZ\C3H4Cl2N3O2(1-)\OHZDE\09-Apr-2025\0\
 \#t hf aug-cc-pvdz iop(5/13=1,5/36=2,99/5=2) pseudo=read geom=check gu
 ess=(read,tcheck) scf=(maxcycle=1)\\title\\-1,1\C,0,0.028584,0.036674,
 0.021463\C,0,-0.589062,-0.032382,-1.368586\Cl,0,1.838328,-0.245614,-0.
 150221\H,0,-1.656027,0.20548,-1.298629\H,0,-0.462759,-1.043081,-1.7479
 41\C,0,-0.07782,1.364295,0.654662\N,0,-0.17998,2.35233,1.283575\N,0,-0
 .546786,-1.011069,0.786393\H,0,-1.556685,-1.08746,0.578872\H,0,-0.4117
 93,-0.855674,1.777195\N,0,0.054633,0.888156,-2.335884\O,0,0.473941,0.4

 Normal termination of Gaussian 16 at Wed Apr  9 02:50:57 2025.
