 Gaussian 16, Revision C.01,

 ----------------------------------------------------------------------
 #t hf aug-cc-pvdz symm=none int=(grid=ultrafine) guess=(read,tcheck) s
 table=(opt,rrhf)
 ----------------------------------------------------------------------
 -----
 title
 -----
 Symbolic Z-matrix:
 Charge = -1 Multiplicity = 1

 SCF Done:  E(RHF) =  -951.233311734     A.U. after   16 cycles
 Normal termination of Gaussian 16 at Wed Apr  9 02:41:10 2025.
 Gaussian 16:  ES64L-G16RevC.01  3-Jul-2019

 ----------------------------------------------------------------------
 #t hf aug-cc-pvdz iop(5/13=1,5/36=2,99/5=2) pseudo=read geom=check gue
 ss=(read,tcheck) scf=(maxcycle=1)
 ----------------------------------------------------------------------
 -----
 title
 -----
 Structure from the checkpoint file:  "E2SN2_19_mol2.chk"
 Charge = -1 Multiplicity = 1

                         Standard orientation:
 ---------------------------------------------------------------------
 Center     Atomic      Atomic             Coordinates (Angstroms)
 Number     Number       Type             X           Y           Z
 ---------------------------------------------------------------------
      1          6           0       -0.629786    0.431078    0.003791
      2          6           0        0.275167   -0.494877   -0.804236
      3         17           0        0.117603    2.084396    0.171259
      4          1           0       -0.288149   -1.427631   -0.849290
      5          1           0        0.483520   -0.052465   -1.774276
      6          7           0       -1.817775    0.568491   -0.813264
      7          1           0       -2.216560   -0.393894   -0.730566
      8          1           0       -2.443943    1.209310   -0.333865
      9          7           0       -0.785725   -0.124189    1.323542
     10          1           0       -1.417827    0.481762    1.838764
     11          1           0       -1.298659   -1.001796    1.105698
     12          7           0        1.581279   -0.762675   -0.156109
     13          8           0        2.515001   -0.001871   -0.426113
     14          8           0        1.668960   -1.732291    0.594484
     15          9           0       -2.111785   -1.973924   -0.132372
 ---------------------------------------------------------------------

 SCF Done:  E(RHF) =  -953.570490192     A.U. after    2 cycles

 The electronic state is 1-A.
 Alpha  occ. eigenvalues --  -99.74491 -28.92118 -20.96157 -20.95801 -15.85456
 Alpha  occ. eigenvalues --  -15.58669 -15.58522 -11.38954 -11.29474 -10.31940
 Alpha  occ. eigenvalues --   -9.51960  -9.51136  -9.51071  -1.85188  -1.55018
 Alpha  occ. eigenvalues --   -1.33397  -1.13557  -1.11193  -1.05974  -0.79498
 Alpha  occ. eigenvalues --   -0.69957  -0.61444  -0.57246  -0.54703  -0.50347
 Alpha  occ. eigenvalues --   -0.49736  -0.47120  -0.44759  -0.41471  -0.40499
 Alpha  occ. eigenvalues --   -0.36401  -0.35394  -0.31331  -0.26986  -0.21572
 Alpha  occ. eigenvalues --   -0.20526  -0.17470  -0.16992  -0.00969  -0.00938
 Alpha  occ. eigenvalues --    0.00938
 Alpha virt. eigenvalues --    0.13918   0.15123   0.15653   0.17424   0.18213
 Alpha virt. eigenvalues --    0.19207   0.20128   0.22426   0.23857   0.25273
 Alpha virt. eigenvalues --    0.25436   0.25917   0.26198   0.27217   0.28156

 Mulliken charges:
               1
     1  C    5.475297
     2  C   -1.224906
     3  Cl  -0.267106
     4  H    1.240347
     5  H    1.594792
     6  N   -3.572257
     7  H    0.287476
     8  H    0.569673
     9  N   -3.629473
    10  H    0.622544
    11  H    0.243990
    12  N    4.165729
    13  O   -2.886825
    14  O   -2.741912
    15  F   -0.877369
 Sum of Mulliken charges =  -1.00000

 Dipole moment (field-independent basis, Debye):
    X=              1.5633    Y=              2.2822    Z=              0.2426  Tot=              2.7769

 Test job not archived.
 1\1\GINC-SE340\SP\RHF\Aug-CC-pVDZ\C2H6Cl1F1N3O2(1-)\OHZDE\09-Apr-2025\
 0\\#t hf aug-cc-pvdz iop(5/13=1,5/36=2,99/5=2) pseudo=read geom=check
 guess=(read,tcheck) scf=(maxcycle=1)\\title\\-1,1\C,0,0.044839,0.01011
 8,-1.461314\C,0,-0.016753,-0.001353,0.063585\Cl,0,-1.628401,0.097427,-
 2.177375\H,0,1.031863,-0.031864,0.361673\H,0,-0.555673,0.872998,0.4174
 12\N,0,0.722596,1.24979,-1.780119\H,0,1.685992,1.031796,-1.438944\H,0,
 0.758436,1.324879,-2.792856\N,0,0.654952,-1.218363,-1.900605\H,0,0.722
 414,-1.182442,-2.91369\H,0,1.614721,-1.106608,-1.517062\N,0,-0.701217,

 Normal termination of Gaussian 16 at Wed Apr  9 02:41:16 2025.
