 Gaussian 16, Revision C.01,

 ----------------------------------------------------------------------
 #t hf aug-cc-pvdz symm=none int=(grid=ultrafine) guess=(read,tcheck) s
 table=(opt,rrhf)
 ----------------------------------------------------------------------
 -----
 title
 -----
 Symbolic Z-matrix:
 Charge = -1 Multiplicity = 1

 SCF Done:  E(RHF) =  -1404.74958679     A.U. after   16 cycles
 Normal termination of Gaussian 16 at Wed Apr  9 02:39:26 2025.
 Gaussian 16:  ES64L-G16RevC.01  3-Jul-2019

 ----------------------------------------------------------------------
 #t hf aug-cc-pvdz iop(5/13=1,5/36=2,99/5=2) pseudo=read geom=check gue
 ss=(read,tcheck) scf=(maxcycle=1)
 ----------------------------------------------------------------------
 -----
 title
 -----
 Structure from the checkpoint file:  "E2SN2_168_mol2.chk"
 Charge = -1 Multiplicity = 1

                         Standard orientation:
 ---------------------------------------------------------------------
 Center     Atomic      Atomic             Coordinates (Angstroms)
 Number     Number       Type             X           Y           Z
 ---------------------------------------------------------------------
      1          6           0        0.185660   -0.510282   -0.232240
      2          6           0       -0.657833    0.261452    0.745656
      3         17           0       -0.538369   -2.098847   -0.610051
      4          1           0       -0.159784    1.227712    0.893857
      5          1           0        0.356657    0.041339   -1.150443
      6          1           0       -0.818923   -0.274047    1.676051
      7          7           0        1.538083   -0.796933    0.363953
      8          8           0        2.426619   -1.076170   -0.428488
      9          8           0        1.631704   -0.793000    1.588182
     10          7           0       -1.996733    0.554977    0.171498
     11          8           0       -2.915615    0.698437    0.977568
     12          8           0       -2.096347    0.680918   -1.045348
     13         17           0        1.379236    2.458269   -0.388974
 ---------------------------------------------------------------------

 SCF Done:  E(RHF) =  -1407.30474370     A.U. after    2 cycles

 The electronic state is 1-A.
 Alpha  occ. eigenvalues --  -99.81347 -99.61912 -20.99924 -20.99765 -20.99696
 Alpha  occ. eigenvalues --  -20.99459 -15.89765 -15.89400 -11.42755 -11.34810
 Alpha  occ. eigenvalues --  -10.38743 -10.18602  -9.58728  -9.57954  -9.57818
 Alpha  occ. eigenvalues --   -9.38638  -9.38285  -9.38205  -1.90726  -1.87586
 Alpha  occ. eigenvalues --   -1.59365  -1.58860  -1.29219  -1.13102  -1.02100
 Alpha  occ. eigenvalues --   -0.97818  -0.79597  -0.73550  -0.65121  -0.62881
 Alpha  occ. eigenvalues --   -0.60104  -0.57724  -0.54781  -0.51378  -0.49402
 Alpha  occ. eigenvalues --   -0.46593  -0.43983  -0.43194  -0.40124  -0.27450
 Alpha  occ. eigenvalues --   -0.26691  -0.26068  -0.25699  -0.25293  -0.21444
 Alpha  occ. eigenvalues --   -0.21294  -0.20737  -0.20544
 Alpha virt. eigenvalues --    0.13970   0.14605   0.16673   0.18257   0.18896
 Alpha virt. eigenvalues --    0.21609   0.22146   0.22779   0.24049   0.24703
 Alpha virt. eigenvalues --    0.25175   0.25398   0.25895   0.26468   0.27026

 Mulliken charges:
               1
     1  C   -1.867313
     2  C   -0.985052
     3  Cl   0.047703
     4  H    1.292317
     5  H    2.062893
     6  H    1.625547
     7  N    4.812924
     8  O   -2.949944
     9  O   -2.852054
    10  N    4.306628
    11  O   -2.807577
    12  O   -2.757752
    13  Cl  -0.928319
 Sum of Mulliken charges =  -1.00000

 Dipole moment (field-independent basis, Debye):
    X=             -3.7555    Y=             -7.3834    Z=              1.4113  Tot=              8.4030

 Test job not archived.
 1\1\GINC-SE131\SP\RHF\Aug-CC-pVDZ\C2H3Cl2N2O4(1-)\OHZDE\09-Apr-2025\0\
 \#t hf aug-cc-pvdz iop(5/13=1,5/36=2,99/5=2) pseudo=read geom=check gu
 ess=(read,tcheck) scf=(maxcycle=1)\\title\\-1,1\C,0,-0.075741,-0.01551
 6,0.008053\C,0,-0.516008,0.032048,-1.429736\Cl,0,1.69419,0.173165,0.15
 719\H,0,-1.609428,-0.057884,-1.425146\H,0,-0.575589,0.732077,0.614583\
 H,0,-0.035809,-0.725088,-2.041699\N,0,-0.406431,-1.356747,0.606723\O,0
 ,-0.447908,-1.404794,1.827953\O,0,-0.543806,-2.303916,-0.162378\N,0,-0
 .198767,1.351353,-2.035756\O,0,-0.022329,1.363111,-3.253707\O,0,-0.177

 Normal termination of Gaussian 16 at Wed Apr  9 02:39:32 2025.
