 Gaussian 16, Revision C.01,

 ----------------------------------------------------------------------
 #t hf aug-cc-pvdz symm=none int=(grid=ultrafine) guess=(read,tcheck) s
 table=(opt,rrhf)
 ----------------------------------------------------------------------
 -----
 title
 -----
 Symbolic Z-matrix:
 Charge = -1 Multiplicity = 1

 SCF Done:  E(RHF) =  -380.445484560     A.U. after   15 cycles
 Normal termination of Gaussian 16 at Wed Apr  9 02:43:51 2025.
 Gaussian 16:  ES64L-G16RevC.01  3-Jul-2019

 ----------------------------------------------------------------------
 #t hf aug-cc-pvdz iop(5/13=1,5/36=2,99/5=2) pseudo=read geom=check gue
 ss=(read,tcheck) scf=(maxcycle=1)
 ----------------------------------------------------------------------
 -----
 title
 -----
 Structure from the checkpoint file:  "E2SN2_22_mol2.chk"
 Charge = -1 Multiplicity = 1

                         Standard orientation:
 ---------------------------------------------------------------------
 Center     Atomic      Atomic             Coordinates (Angstroms)
 Number     Number       Type             X           Y           Z
 ---------------------------------------------------------------------
      1          6           0        0.714149   -0.610740   -0.355395
      2          6           0       -0.260215    0.567806   -0.289011
      3          9           0        0.465432   -1.403718    0.807836
      4          1           0       -0.103769    1.150652   -1.205878
      5          1           0        0.451104   -1.288036   -1.179118
      6          7           0        2.041635   -0.154054   -0.370940
      7          1           0        2.620279   -0.683672   -1.005432
      8          1           0        2.109164    0.867918   -0.581109
      9          7           0       -0.020150    1.482098    0.813736
     10          1           0        0.355146    0.947386    1.589293
     11          1           0        0.723880    2.104351    0.457671
     12          6           0       -1.645320    0.067091   -0.273287
     13          7           0       -2.745952   -0.342624   -0.287147
     14          1           0        1.874893    2.491989   -0.929335
 ---------------------------------------------------------------------

 SCF Done:  E(RHF) =  -382.121972303     A.U. after    2 cycles

 The electronic state is 1-A.
 Alpha  occ. eigenvalues --  -29.11195 -15.63608 -15.59217 -15.59078 -11.38835
 Alpha  occ. eigenvalues --  -11.33869 -11.29223  -1.30648  -1.18667  -1.14739
 Alpha  occ. eigenvalues --   -0.96354  -0.82780  -0.63042  -0.59838  -0.53849
 Alpha  occ. eigenvalues --   -0.50001  -0.47892  -0.43189  -0.41417  -0.37877
 Alpha  occ. eigenvalues --   -0.30666  -0.30475  -0.26306  -0.24779  -0.19350
 Alpha  occ. eigenvalues --   -0.13800  -0.12125  -0.10719
 Alpha virt. eigenvalues --    0.13520   0.14946   0.16044   0.16501   0.18937
 Alpha virt. eigenvalues --    0.19200   0.20248   0.20899   0.22179   0.23412
 Alpha virt. eigenvalues --    0.23962   0.24706   0.25510   0.26898   0.27365

 Mulliken charges:
               1
     1  C   -0.245053
     2  C   -1.397240
     3  F    0.293285
     4  H    2.019917
     5  H    1.868949
     6  N   -2.525058
     7  H    0.459843
     8  H    0.800144
     9  N   -2.344728
    10  H    0.547266
    11  H    0.686661
    12  C    2.486825
    13  N   -2.521307
    14  H   -1.129503
 Sum of Mulliken charges =  -1.00000

 Dipole moment (field-independent basis, Debye):
    X=             -2.3176    Y=             -8.6212    Z=              3.1524  Tot=              9.4676

 Test job not archived.
 1\1\GINC-SE131\SP\RHF\Aug-CC-pVDZ\C3H7F1N3(1-)\OHZDE\09-Apr-2025\0\\#t
  hf aug-cc-pvdz iop(5/13=1,5/36=2,99/5=2) pseudo=read geom=check guess
 =(read,tcheck) scf=(maxcycle=1)\\title\\-1,1\C,0,-0.273695,0.058734,-1
 .507018\C,0,0.000197,0.177946,-0.00584\F,0,-1.652264,-0.296862,-1.6369
 36\H,0,1.045302,0.498434,0.093521\H,0,-0.223939,1.043141,-1.991694\N,0
 ,0.548963,-0.922348,-2.082982\H,0,0.897834,-0.644922,-2.988094\H,0,1.3
 38561,-1.198826,-1.455883\N,0,-0.107072,-1.073324,0.723837\H,0,-0.8114
 3,-1.643253,0.268519\H,0,0.814005,-1.519179,0.58104\C,0,-0.872467,1.21

 Normal termination of Gaussian 16 at Wed Apr  9 02:43:55 2025.
