 Gaussian 16, Revision C.01,

 ----------------------------------------------------------------------
 #t hf aug-cc-pvdz symm=none int=(grid=ultrafine) guess=(read,tcheck) s
 table=(opt,rrhf)
 ----------------------------------------------------------------------
 -----
 title
 -----
 Symbolic Z-matrix:
 Charge = -1 Multiplicity = 1

 SCF Done:  E(RHF) =  -763.487674832     A.U. after   17 cycles
 Normal termination of Gaussian 16 at Wed Apr  9 02:54:27 2025.
 Gaussian 16:  ES64L-G16RevC.01  3-Jul-2019

 ----------------------------------------------------------------------
 #t hf aug-cc-pvdz iop(5/13=1,5/36=2,99/5=2) pseudo=read geom=check gue
 ss=(read,tcheck) scf=(maxcycle=1)
 ----------------------------------------------------------------------
 -----
 title
 -----
 Structure from the checkpoint file:  "E2SN2_346_mol1.chk"
 Charge = -1 Multiplicity = 1

                         Standard orientation:
 ---------------------------------------------------------------------
 Center     Atomic      Atomic             Coordinates (Angstroms)
 Number     Number       Type             X           Y           Z
 ---------------------------------------------------------------------
      1          6           0        0.727296    0.107864    0.552573
      2          1           0       -0.723342    1.421665    1.309948
      3         17           0        0.552039   -0.940064   -1.310535
      4          1           0        0.848074    1.263637    2.397102
      5          6           0       -0.623253    0.843183    0.394533
      6          6           0        2.016789    0.878295    0.291182
      7          1           0        2.517421    0.499057   -0.607202
      8          1           0        1.795036    1.933967    0.157332
      9          1           0        2.677273    0.781067    1.147086
     10          6           0        0.788584   -1.153897    1.402357
     11          1           0        0.881470   -0.892967    2.449843
     12          1           0       -0.100373   -1.768168    1.243812
     13          1           0        1.653363   -1.743368    1.084322
     14          6           0       -1.768242   -0.092565    0.354836
     15          7           0       -2.765406   -0.717005    0.357152
     16          7           0       -0.620599    1.776997   -0.727014
     17          1           0       -1.475009    2.320271   -0.695578
     18          1           0       -0.603592    1.248703   -1.591417
 ---------------------------------------------------------------------

 SCF Done:  E(RHF) =  -765.260508082     A.U. after    2 cycles

 The electronic state is 1-A.
 Alpha  occ. eigenvalues --  -99.68794 -15.63231 -15.62373 -11.40013 -11.34979
 Alpha  occ. eigenvalues --  -11.30419 -11.25473 -11.23988 -10.25980  -9.46038
 Alpha  occ. eigenvalues --   -9.45607  -9.45561  -1.28260  -1.15075  -1.12264
 Alpha  occ. eigenvalues --   -1.02416  -0.89981  -0.88739  -0.68384  -0.60034
 Alpha  occ. eigenvalues --   -0.55678  -0.50273  -0.48609  -0.44421  -0.43691
 Alpha  occ. eigenvalues --   -0.42368  -0.39245  -0.36434  -0.35105  -0.33077
 Alpha  occ. eigenvalues --   -0.32368  -0.31243  -0.30094  -0.28483  -0.24829
 Alpha  occ. eigenvalues --   -0.11950
 Alpha virt. eigenvalues --    0.13540   0.14575   0.15061   0.15531   0.15929
 Alpha virt. eigenvalues --    0.16072   0.16869   0.17172   0.17616   0.19503
 Alpha virt. eigenvalues --    0.20361   0.22346   0.22608   0.23345   0.25015

 Mulliken charges:
               1
     1  C    3.939682
     2  H    1.829222
     3  Cl  -0.703764
     4  H   -1.042067
     5  C   -1.269490
     6  C   -4.674516
     7  H    1.010185
     8  H    1.307896
     9  H    1.406804
    10  C   -4.893488
    11  H    1.347824
    12  H    1.222154
    13  H    1.219198
    14  C    2.790366
    15  N   -2.726306
    16  N   -2.918547
    17  H    0.598308
    18  H    0.556540
 Sum of Mulliken charges =  -1.00000

 Dipole moment (field-independent basis, Debye):
    X=             -0.2853    Y=             -0.1545    Z=             -3.6939  Tot=              3.7082

 Test job not archived.
 1\1\GINC-SE462\SP\RHF\Aug-CC-pVDZ\C5H10Cl1N2(1-)\OHZDE\09-Apr-2025\0\\
 #t hf aug-cc-pvdz iop(5/13=1,5/36=2,99/5=2) pseudo=read geom=check gue
 ss=(read,tcheck) scf=(maxcycle=1)\\title\\-1,1\C,0,0.46989146,-0.08075
 167,0.00170689\H,0,1.68469457,1.63046267,-0.00436667\Cl,0,-1.67281602,
 -0.03991684,0.08641078\H,0,2.64400943,-0.02335898,-0.14863416\C,0,0.61
 086387,1.45865502,-0.00092169\C,0,0.65865728,-0.83672962,-1.30884529\H
 ,0,-0.28850245,-1.27868759,-1.63916067\H,0,1.02300347,-0.15885973,-2.0
 7648951\H,0,1.39981074,-1.61813541,-1.17334951\C,0,0.63412179,-0.83726

 Normal termination of Gaussian 16 at Wed Apr  9 02:54:35 2025.
