 Gaussian 16, Revision C.01,

 ----------------------------------------------------------------------
 #t hf aug-cc-pvdz symm=none int=(grid=ultrafine) guess=(read,tcheck) s
 table=(opt,rrhf)
 ----------------------------------------------------------------------
 -----
 title
 -----
 Symbolic Z-matrix:
 Charge = -1 Multiplicity = 1

 SCF Done:  E(RHF) =  -987.894915455     A.U. after   17 cycles
 Normal termination of Gaussian 16 at Wed Apr  9 02:40:29 2025.
 Gaussian 16:  ES64L-G16RevC.01  3-Jul-2019

 ----------------------------------------------------------------------
 #t hf aug-cc-pvdz iop(5/13=1,5/36=2,99/5=2) pseudo=read geom=check gue
 ss=(read,tcheck) scf=(maxcycle=1)
 ----------------------------------------------------------------------
 -----
 title
 -----
 Structure from the checkpoint file:  "E2SN2_180_mol1.chk"
 Charge = -1 Multiplicity = 1

                         Standard orientation:
 ---------------------------------------------------------------------
 Center     Atomic      Atomic             Coordinates (Angstroms)
 Number     Number       Type             X           Y           Z
 ---------------------------------------------------------------------
      1          6           0       -0.679888   -0.157393   -0.517333
      2          1           0        0.269464   -1.801545    0.356354
      3         17           0       -0.058215    1.895127   -0.456427
      4          9           0       -1.398937   -1.968046   -0.697032
      5          6           0        0.349546   -0.722686    0.462224
      6          1           0       -0.519929   -0.254060   -1.575315
      7          6           0       -2.005621    0.077428   -0.005331
      8          7           0       -3.055245    0.342366    0.453911
      9          7           0        0.221583   -0.343854    1.828907
     10          1           0       -0.612209   -0.783774    2.197819
     11          1           0        0.115959    0.662653    1.893340
     12          7           0        1.735631   -0.390512   -0.050764
     13          8           0        2.549735    0.129057    0.700765
     14          8           0        1.953866   -0.725072   -1.213437
 ---------------------------------------------------------------------

 SCF Done:  E(RHF) =  -990.376315545     A.U. after    2 cycles

 The electronic state is 1-A.
 Alpha  occ. eigenvalues --  -99.71036 -28.96408 -20.98047 -20.97228 -15.87060
 Alpha  occ. eigenvalues --  -15.64200 -15.63608 -11.46302 -11.36962 -11.32749
 Alpha  occ. eigenvalues --  -10.28109  -9.48167  -9.47750  -9.47576  -1.87150
 Alpha  occ. eigenvalues --   -1.57138  -1.29883  -1.18518  -1.11073  -1.03065
 Alpha  occ. eigenvalues --   -0.95101  -0.72995  -0.64816  -0.62050  -0.59480
 Alpha  occ. eigenvalues --   -0.52603  -0.51884  -0.50907  -0.46287  -0.41972
 Alpha  occ. eigenvalues --   -0.39859  -0.35307  -0.35005  -0.32480  -0.31586
 Alpha  occ. eigenvalues --   -0.28759  -0.28163  -0.23574  -0.19646  -0.18947
 Alpha  occ. eigenvalues --   -0.06205  -0.04214  -0.03000
 Alpha virt. eigenvalues --    0.14180   0.15770   0.16024   0.16555   0.19780
 Alpha virt. eigenvalues --    0.20387   0.22168   0.23231   0.23587   0.24199
 Alpha virt. eigenvalues --    0.24985   0.25567   0.26379   0.26746   0.27192

 Mulliken charges:
               1
     1  C   -0.639291
     2  H    1.336675
     3  Cl  -0.618166
     4  F   -0.429937
     5  C    1.169810
     6  H    1.633423
     7  C    3.016046
     8  N   -3.039336
     9  N   -2.849292
    10  H    0.499276
    11  H    0.512395
    12  N    4.392669
    13  O   -2.894414
    14  O   -3.089858
 Sum of Mulliken charges =  -1.00000

 Dipole moment (field-independent basis, Debye):
    X=              2.0607    Y=             -4.7037    Z=              0.7264  Tot=              5.1865

 Test job not archived.
 1\1\GINC-SE227\SP\RHF\Aug-CC-pVDZ\C3H4Cl1F1N3O2(1-)\OHZDE\09-Apr-2025\
 0\\#t hf aug-cc-pvdz iop(5/13=1,5/36=2,99/5=2) pseudo=read geom=check
 guess=(read,tcheck) scf=(maxcycle=1)\\title\\-1,1\C,0,0.56160761,0.008
 65714,0.04905803\H,0,1.75110179,1.68532072,-0.32742245\Cl,0,-1.5794556
 ,-0.07730526,0.15622027\F,0,2.51268688,-0.11705523,-0.0235566\C,0,0.71
 054038,1.52708925,-0.05584799\H,0,0.61785795,-0.59616516,-0.83710361\C
 ,0,0.79526981,-0.58081971,1.34241553\N,0,0.90515697,-1.03089816,2.4232
 2996\N,0,0.37250463,2.29366943,1.09558518\H,0,1.06879418,2.11104257,1.

 Normal termination of Gaussian 16 at Wed Apr  9 02:40:36 2025.
