 Gaussian 16, Revision C.01,

 ----------------------------------------------------------------------
 #t hf aug-cc-pvdz symm=none int=(grid=ultrafine) guess=(read,tcheck) s
 table=(opt,rrhf)
 ----------------------------------------------------------------------
 -----
 title
 -----
 Symbolic Z-matrix:
 Charge = -1 Multiplicity = 1

 SCF Done:  E(RHF) =  -679.697348251     A.U. after   16 cycles
 Normal termination of Gaussian 16 at Wed Apr  9 02:37:32 2025.
 Gaussian 16:  ES64L-G16RevC.01  3-Jul-2019

 ----------------------------------------------------------------------
 #t hf aug-cc-pvdz iop(5/13=1,5/36=2,99/5=2) pseudo=read geom=check gue
 ss=(read,tcheck) scf=(maxcycle=1)
 ----------------------------------------------------------------------
 -----
 title
 -----
 Structure from the checkpoint file:  "E2SN2_13_mol1.chk"
 Charge = -1 Multiplicity = 1

                         Standard orientation:
 ---------------------------------------------------------------------
 Center     Atomic      Atomic             Coordinates (Angstroms)
 Number     Number       Type             X           Y           Z
 ---------------------------------------------------------------------
      1          6           0       -0.590960    0.565643   -0.190812
      2          6           0        0.836396    0.516283    0.290895
      3          9           0       -0.668777    0.560881   -1.570302
      4          1           0        1.020645    1.671590    2.472476
      5          1           0        0.841725    0.678627    1.470340
      6          6           0       -1.297601    1.790817    0.343347
      7          1           0       -2.369053    1.711910    0.143040
      8          1           0       -1.090075    1.884622    1.412343
      9          1           0       -0.906811    2.675193   -0.158689
     10          7           0        1.623266    1.621987   -0.118094
     11          1           0        1.689982    2.233582    0.706576
     12          1           0        1.261000    2.099508   -0.930541
     13          7           0        1.493742   -0.770140   -0.046627
     14          8           0        0.783415   -1.711232   -0.433137
     15          8           0        2.704690   -0.859236    0.146103
     16          7           0       -1.413681   -0.621019    0.288575
     17          8           0       -2.178791   -1.149849   -0.507155
     18          8           0       -1.314153   -0.886583    1.480390
 ---------------------------------------------------------------------

 SCF Done:  E(RHF) =  -682.605592419     A.U. after    2 cycles

 The electronic state is 1-A.
 Alpha  occ. eigenvalues --  -29.17245 -20.98138 -20.97871 -20.95853 -20.95303
 Alpha  occ. eigenvalues --  -15.87682 -15.85097 -15.61724 -11.45731 -11.35923
 Alpha  occ. eigenvalues --  -11.28595  -1.87901  -1.84937  -1.57993  -1.54929
 Alpha  occ. eigenvalues --   -1.29801  -1.16671  -0.99017  -0.92013  -0.81296
 Alpha  occ. eigenvalues --   -0.73396  -0.63302  -0.60922  -0.59611  -0.56967
 Alpha  occ. eigenvalues --   -0.52285  -0.49516  -0.49012  -0.46851  -0.45684
 Alpha  occ. eigenvalues --   -0.45134  -0.41445  -0.39704  -0.30259  -0.27208
 Alpha  occ. eigenvalues --   -0.24260  -0.23252  -0.21151  -0.20670  -0.17786
 Alpha  occ. eigenvalues --   -0.17127  -0.15581  -0.14310  -0.11577
 Alpha virt. eigenvalues --    0.12774   0.13664   0.14785   0.16366   0.17138
 Alpha virt. eigenvalues --    0.19272   0.20229   0.21066   0.22380   0.23313
 Alpha virt. eigenvalues --    0.24482   0.24652   0.25462   0.26138   0.26295

 Mulliken charges:
               1
     1  C    2.951977
     2  C    1.116660
     3  F    0.222313
     4  H   -0.881344
     5  H    1.860189
     6  C   -3.916484
     7  H    1.164893
     8  H    1.289471
     9  H    1.192241
    10  N   -2.592418
    11  H    0.524131
    12  H    0.544626
    13  N    3.211070
    14  O   -2.812747
    15  O   -2.844472
    16  N    3.952264
    17  O   -2.876693
    18  O   -3.105677
 Sum of Mulliken charges =  -1.00000

 Dipole moment (field-independent basis, Debye):
    X=             -4.0685    Y=             -1.5709    Z=             -9.1907  Tot=             10.1730

 Test job not archived.
 1\1\GINC-SE054\SP\RHF\Aug-CC-pVDZ\C3H7F1N3O4(1-)\OHZDE\09-Apr-2025\0\\
 #t hf aug-cc-pvdz iop(5/13=1,5/36=2,99/5=2) pseudo=read geom=check gue
 ss=(read,tcheck) scf=(maxcycle=1)\\title\\-1,1\C,0,-0.06647796,-0.0174
 2964,-0.37467225\C,0,-0.15147577,-0.0889816,1.1284831\F,0,1.23154568,0
 .17344476,-0.8080019\H,0,-2.35733942,0.7464161,1.87965354\H,0,-1.30032
 436,-0.09762173,1.44080714\C,0,-0.93891856,1.09467639,-0.9111291\H,0,-
 1.01207738,1.01052842,-1.99829316\H,0,-1.92011146,1.04068763,-0.432626
 33\H,0,-0.48892834,2.05422933,-0.65885002\N,0,0.27913994,1.08901315,1.

 Normal termination of Gaussian 16 at Wed Apr  9 02:37:43 2025.
