 Gaussian 16, Revision C.01,

 ----------------------------------------------------------------------
 #t hf aug-cc-pvdz symm=none int=(grid=ultrafine) guess=(read,tcheck) s
 table=(opt,rrhf)
 ----------------------------------------------------------------------
 -----
 title
 -----
 Symbolic Z-matrix:
 Charge = -1 Multiplicity = 1

 SCF Done:  E(RHF) =  -463.349604052     A.U. after   15 cycles
 Normal termination of Gaussian 16 at Wed Apr  9 02:53:07 2025.
 Gaussian 16:  ES64L-G16RevC.01  3-Jul-2019

 ----------------------------------------------------------------------
 #t hf aug-cc-pvdz iop(5/13=1,5/36=2,99/5=2) pseudo=read geom=check gue
 ss=(read,tcheck) scf=(maxcycle=1)
 ----------------------------------------------------------------------
 -----
 title
 -----
 Structure from the checkpoint file:  "E2SN2_326_mol1.chk"
 Charge = -1 Multiplicity = 1

                         Standard orientation:
 ---------------------------------------------------------------------
 Center     Atomic      Atomic             Coordinates (Angstroms)
 Number     Number       Type             X           Y           Z
 ---------------------------------------------------------------------
      1          6           0       -0.731922    0.138877   -0.395303
      2          1           0        0.202104    0.901547    1.332801
      3          9           0       -0.186816   -1.387279   -1.163712
      4          9           0       -1.162535    1.886510    0.111566
      5          6           0        0.405433    0.108952    0.614864
      6          1           0       -0.581038    0.598926   -1.351575
      7          6           0       -2.085609   -0.347065    0.044472
      8          1           0       -2.153604   -1.429830   -0.042897
      9          1           0       -2.260915   -0.042522    1.075410
     10          1           0       -2.846724    0.130081   -0.573542
     11          6           0        1.677283    0.438743   -0.063082
     12          7           0        2.730886    0.667350   -0.530539
     13          7           0        0.464991   -1.180967    1.304608
     14          1           0        1.316722   -1.229210    1.851319
     15          1           0        0.505368   -1.863799    0.553605
 ---------------------------------------------------------------------

 SCF Done:  E(RHF) =  -465.295130553     A.U. after    2 cycles

 The electronic state is 1-A.
 Alpha  occ. eigenvalues --  -28.96573 -28.93416 -15.62011 -15.60164 -11.39223
 Alpha  occ. eigenvalues --  -11.33668 -11.29001 -11.23358  -1.26050  -1.13754
 Alpha  occ. eigenvalues --   -1.04407  -0.88944  -0.73890  -0.60814  -0.59149
 Alpha  occ. eigenvalues --   -0.49859  -0.44590  -0.43880  -0.41535  -0.37888
 Alpha  occ. eigenvalues --   -0.36663  -0.34276  -0.32306  -0.28676  -0.27576
 Alpha  occ. eigenvalues --   -0.23496  -0.11776  -0.03782  -0.03354  -0.01112
 Alpha  occ. eigenvalues --   -0.00249   0.05328
 Alpha virt. eigenvalues --    0.14015   0.15014   0.15685   0.16281   0.16395
 Alpha virt. eigenvalues --    0.17298   0.18481   0.19525   0.22882   0.23116
 Alpha virt. eigenvalues --    0.24167   0.25266   0.26036   0.27350   0.28278

 Mulliken charges:
               1
     1  C    1.290166
     2  H    1.528882
     3  F   -0.627442
     4  F   -0.643138
     5  C   -1.642705
     6  H    1.532163
     7  C   -4.597363
     8  H    1.129813
     9  H    1.279582
    10  H    1.020135
    11  C    2.991377
    12  N   -2.770020
    13  N   -2.611836
    14  H    0.641094
    15  H    0.479290
 Sum of Mulliken charges =  -1.00000

 Dipole moment (field-independent basis, Debye):
    X=             -0.3328    Y=             -2.2112    Z=              1.1271  Tot=              2.5041

 Test job not archived.
 1\1\GINC-SE149\SP\RHF\Aug-CC-pVDZ\C4H7F2N2(1-)\OHZDE\09-Apr-2025\0\\#t
  hf aug-cc-pvdz iop(5/13=1,5/36=2,99/5=2) pseudo=read geom=check guess
 =(read,tcheck) scf=(maxcycle=1)\\title\\-1,1\C,0,0.56935765,-0.0296694
 3,-0.05947335\H,0,1.68883486,1.74281232,-0.27275926\F,0,-1.22406306,-0
 .01412318,-0.04745377\F,0,2.4059929,-0.12992306,0.27710594\C,0,0.64388
 826,1.48936405,-0.10295125\H,0,0.5072457,-0.53159103,0.88555789\C,0,0.
 74051393,-0.78647246,-1.34786968\H,0,-0.20178331,-0.8434242,-1.8895978
 2\H,0,1.49485621,-0.29265144,-1.95895031\H,0,1.1059438,-1.78812865,-1.

 Normal termination of Gaussian 16 at Wed Apr  9 02:53:12 2025.
