 Gaussian 16, Revision C.01,

 ----------------------------------------------------------------------
 #t hf aug-cc-pvdz symm=none int=(grid=ultrafine) guess=(read,tcheck) s
 table=(opt,rrhf)
 ----------------------------------------------------------------------
 -----
 title
 -----
 Symbolic Z-matrix:
 Charge = -1 Multiplicity = 1

 SCF Done:  E(RHF) =  -825.757150940     A.U. after   15 cycles
 Normal termination of Gaussian 16 at Wed Apr  9 02:33:55 2025.
 Gaussian 16:  ES64L-G16RevC.01  3-Jul-2019

 ----------------------------------------------------------------------
 #t hf aug-cc-pvdz iop(5/13=1,5/36=2,99/5=2) pseudo=read geom=check gue
 ss=(read,tcheck) scf=(maxcycle=1)
 ----------------------------------------------------------------------
 -----
 title
 -----
 Structure from the checkpoint file:  "E2SN2_111_mol1.chk"
 Charge = -1 Multiplicity = 1

                         Standard orientation:
 ---------------------------------------------------------------------
 Center     Atomic      Atomic             Coordinates (Angstroms)
 Number     Number       Type             X           Y           Z
 ---------------------------------------------------------------------
      1          6           0       -0.203976   -0.481451    0.100941
      2          6           0        0.644932    0.674042    0.054942
      3         17           0       -2.209976    0.135333   -0.186430
      4          9           0        2.823212   -0.647305   -0.001171
      5          1           0        1.849795   -0.023303    0.132088
      6          6           0       -0.036515   -1.446481   -1.049826
      7          1           0       -0.226007   -0.962467   -2.007490
      8          1           0        1.003238   -1.786606   -1.021736
      9          1           0       -0.717384   -2.293523   -0.949314
     10          6           0       -0.281826   -1.169856    1.442227
     11          1           0       -0.991056   -2.000009    1.415539
     12          1           0        0.722406   -1.550688    1.659358
     13          1           0       -0.560935   -0.464650    2.220598
     14          7           0        0.456164    1.561601    1.187363
     15          1           0       -0.409559    2.080499    1.028634
     16          1           0        1.207477    2.241079    1.150338
     17          7           0        0.736445    1.374898   -1.221662
     18          1           0        1.378367    0.878785   -1.828344
     19          1           0       -0.179611    1.392945   -1.669430
 ---------------------------------------------------------------------

 SCF Done:  E(RHF) =  -827.717638752     A.U. after    2 cycles

 The electronic state is 1-A.
 Alpha  occ. eigenvalues --  -99.67831 -28.97256 -15.57395 -15.57108 -11.33974
 Alpha  occ. eigenvalues --  -11.27056 -11.25461 -11.21729 -10.24868  -9.44991
 Alpha  occ. eigenvalues --   -9.44423  -9.44389  -1.26461  -1.10342  -1.07821
 Alpha  occ. eigenvalues --   -1.01707  -0.88235  -0.79272  -0.63725  -0.56376
 Alpha  occ. eigenvalues --   -0.50660  -0.47440  -0.46703  -0.46571  -0.45598
 Alpha  occ. eigenvalues --   -0.42001  -0.38599  -0.35413  -0.34001  -0.33018
 Alpha  occ. eigenvalues --   -0.30689  -0.29496  -0.22590  -0.21211  -0.19090
 Alpha  occ. eigenvalues --   -0.04864  -0.04637  -0.00186
 Alpha virt. eigenvalues --    0.14075   0.14742   0.14884   0.15267   0.16225
 Alpha virt. eigenvalues --    0.16251   0.16653   0.17177   0.17290   0.18996
 Alpha virt. eigenvalues --    0.19635   0.22230   0.23891   0.24461   0.25427

 Mulliken charges:
               1
     1  C    2.791904
     2  C    1.690786
     3  Cl  -0.819332
     4  F    0.760575
     5  H    0.832814
     6  C   -4.253034
     7  H    1.204765
     8  H    1.168028
     9  H    1.157336
    10  C   -4.365602
    11  H    1.205560
    12  H    1.145434
    13  H    1.207470
    14  N   -3.824052
    15  H    0.462605
    16  H    0.627391
    17  N   -2.979121
    18  H    0.439452
    19  H    0.547021
 Sum of Mulliken charges =  -1.00000

 Dipole moment (field-independent basis, Debye):
    X=              1.9585    Y=             -1.5239    Z=             -0.3455  Tot=              2.5054

 Test job not archived.
 1\1\GINC-SE015\SP\RHF\Aug-CC-pVDZ\C4H11Cl1F1N2(1-)\OHZDE\09-Apr-2025\0
 \\#t hf aug-cc-pvdz iop(5/13=1,5/36=2,99/5=2) pseudo=read geom=check g
 uess=(read,tcheck) scf=(maxcycle=1)\\title\\-1,1\C,0,-0.25731699,0.083
 74068,-0.3130914\C,0,-0.19916551,0.11895669,1.11984352\Cl,0,1.71768119
 ,0.14361187,-1.07652958\F,0,-2.66866392,-0.41019742,1.4598255\H,0,-1.5
 6569461,-0.06241033,1.32874621\C,0,-0.74998959,-1.21729202,-0.90315722
 \H,0,-0.12409488,-2.05582871,-0.59916674\H,0,-1.76266704,-1.36999117,-
 0.51750372\H,0,-0.76048039,-1.17055045,-1.99351065\C,0,-0.87609341,1.2

 Normal termination of Gaussian 16 at Wed Apr  9 02:34:04 2025.
