 Gaussian 16, Revision C.01,

 ----------------------------------------------------------------------
 #t hf aug-cc-pvdz symm=none int=(grid=ultrafine) guess=(read,tcheck) s
 table=(opt,rrhf)
 ----------------------------------------------------------------------
 -----
 title
 -----
 Symbolic Z-matrix:
 Charge = -1 Multiplicity = 1

 SCF Done:  E(RHF) =  -951.206062350     A.U. after   16 cycles
 Normal termination of Gaussian 16 at Wed Apr  9 03:02:23 2025.
 Gaussian 16:  ES64L-G16RevC.01  3-Jul-2019

 ----------------------------------------------------------------------
 #t hf aug-cc-pvdz iop(5/13=1,5/36=2,99/5=2) pseudo=read geom=check gue
 ss=(read,tcheck) scf=(maxcycle=1)
 ----------------------------------------------------------------------
 -----
 title
 -----
 Structure from the checkpoint file:  "E2SN2_92_mol2.chk"
 Charge = -1 Multiplicity = 1

                         Standard orientation:
 ---------------------------------------------------------------------
 Center     Atomic      Atomic             Coordinates (Angstroms)
 Number     Number       Type             X           Y           Z
 ---------------------------------------------------------------------
      1          6           0       -0.380010   -0.143166    0.327648
      2          6           0        0.773264   -0.972994   -0.239176
      3         17           0       -0.010013    1.638091    0.110141
      4          1           0        1.126280   -0.528947   -1.171128
      5          1           0        0.347609   -1.964349   -0.437128
      6          7           0       -1.663896   -0.312024   -0.476176
      7          8           0       -1.569379   -0.704109   -1.635402
      8          8           0       -2.714882   -0.022438    0.088827
      9          7           0       -0.630160   -0.516330    1.649197
     10          1           0       -1.191453    0.161514    2.144106
     11          1           0        0.306389   -0.634891    2.047031
     12          7           0        1.839110   -0.990187    0.751289
     13          1           0        2.605601   -0.389421    0.249731
     14          1           0        2.197529   -1.936398    0.800461
     15          9           0        3.319717    0.298230   -0.792652
 ---------------------------------------------------------------------

 SCF Done:  E(RHF) =  -953.563024268     A.U. after    2 cycles

 The electronic state is 1-A.
 Alpha  occ. eigenvalues --  -99.76305 -28.89421 -20.98857 -20.98473 -15.87785
 Alpha  occ. eigenvalues --  -15.63643 -15.54753 -11.41893 -11.27561 -10.33674
 Alpha  occ. eigenvalues --   -9.53752  -9.52920  -9.52843  -1.88116  -1.58085
 Alpha  occ. eigenvalues --   -1.33480  -1.16512  -1.15201  -0.99432  -0.84005
 Alpha  occ. eigenvalues --   -0.67883  -0.62989  -0.61132  -0.55842  -0.54068
 Alpha  occ. eigenvalues --   -0.50362  -0.47034  -0.43683  -0.42527  -0.39252
 Alpha  occ. eigenvalues --   -0.38360  -0.34828  -0.28998  -0.25841  -0.24115
 Alpha  occ. eigenvalues --   -0.20926  -0.20491  -0.19619   0.01899   0.02011
 Alpha  occ. eigenvalues --    0.03784
 Alpha virt. eigenvalues --    0.13358   0.14324   0.15268   0.17066   0.18204
 Alpha virt. eigenvalues --    0.19023   0.20379   0.20665   0.22482   0.24573
 Alpha virt. eigenvalues --    0.24677   0.25816   0.26231   0.26835   0.27589

 Mulliken charges:
               1
     1  C    2.352018
     2  C   -0.132380
     3  Cl   0.038490
     4  H    1.297709
     5  H    1.313196
     6  N    4.129802
     7  O   -2.838913
     8  O   -2.910980
     9  N   -3.272880
    10  H    0.689600
    11  H    0.633041
    12  N   -2.222758
    13  H    0.150376
    14  H    0.330561
    15  F   -0.556883
 Sum of Mulliken charges =  -1.00000

 Dipole moment (field-independent basis, Debye):
    X=             -7.5880    Y=             -1.3248    Z=              2.2366  Tot=              8.0209

 Test job not archived.
 1\1\GINC-SE455\SP\RHF\Aug-CC-pVDZ\C2H6Cl1F1N3O2(1-)\OHZDE\09-Apr-2025\
 0\\#t hf aug-cc-pvdz iop(5/13=1,5/36=2,99/5=2) pseudo=read geom=check
 guess=(read,tcheck) scf=(maxcycle=1)\\title\\-1,1\C,0,-0.596159,-0.074
 286,-1.462971\C,0,-0.016552,-0.174356,-0.050885\Cl,0,0.579588,0.829775
 ,-2.538785\H,0,1.052884,-0.38388,-0.103236\H,0,-0.538428,-1.017547,0.4
 17972\N,0,-0.689263,-1.432771,-2.147704\O,0,0.03266,-2.335562,-1.73507
 3\O,0,-1.473013,-1.528025,-3.088088\N,0,-1.872799,0.488001,-1.414601\H
 ,0,-2.18876,0.811338,-2.317418\H,0,-1.778522,1.239809,-0.725146\N,0,-0

 Normal termination of Gaussian 16 at Wed Apr  9 03:02:29 2025.
