 Gaussian 16, Revision C.01,

 ----------------------------------------------------------------------
 #t hf aug-cc-pvdz symm=none int=(grid=ultrafine) guess=(read,tcheck) s
 table=(opt,rrhf)
 ----------------------------------------------------------------------
 -----
 title
 -----
 Symbolic Z-matrix:
 Charge = -1 Multiplicity = 1

 SCF Done:  E(RHF) =  -463.397434011     A.U. after   14 cycles
 Normal termination of Gaussian 16 at Wed Apr  9 02:40:30 2025.
 Gaussian 16:  ES64L-G16RevC.01  3-Jul-2019

 ----------------------------------------------------------------------
 #t hf aug-cc-pvdz iop(5/13=1,5/36=2,99/5=2) pseudo=read geom=check gue
 ss=(read,tcheck) scf=(maxcycle=1)
 ----------------------------------------------------------------------
 -----
 title
 -----
 Structure from the checkpoint file:  "E2SN2_191_mol2.chk"
 Charge = -1 Multiplicity = 1

                         Standard orientation:
 ---------------------------------------------------------------------
 Center     Atomic      Atomic             Coordinates (Angstroms)
 Number     Number       Type             X           Y           Z
 ---------------------------------------------------------------------
      1          6           0       -0.453792    0.753363   -0.201458
      2          6           0        0.501406   -0.052063    0.681708
      3          9           0        0.145878    2.021280   -0.381552
      4          1           0        0.714671    0.577124    1.560312
      5          1           0       -0.550671    0.262428   -1.167433
      6          6           0       -1.820947    0.900151    0.413067
      7          1           0       -2.304911   -0.065488    0.269188
      8          1           0       -1.768046    1.173239    1.470952
      9          1           0       -2.374526    1.670281   -0.132279
     10          6           0        1.797430   -0.204848   -0.023545
     11          7           0        2.849128   -0.364916   -0.523605
     12          7           0       -0.116492   -1.305613    1.074607
     13          1           0        0.601963   -1.980515    1.306305
     14          1           0       -0.688655   -1.638925    0.241874
     15          9           0       -1.579529   -1.652841   -1.021178
 ---------------------------------------------------------------------

 SCF Done:  E(RHF) =  -465.337820920     A.U. after    2 cycles

 The electronic state is 1-A.
 Alpha  occ. eigenvalues --  -29.11198 -28.89962 -15.63015 -15.56736 -11.35870
 Alpha  occ. eigenvalues --  -11.32576 -11.29360 -11.23422  -1.25950  -1.14251
 Alpha  occ. eigenvalues --   -1.06762  -0.89096  -0.77184  -0.60308  -0.60102
 Alpha  occ. eigenvalues --   -0.51686  -0.45860  -0.44435  -0.42816  -0.39161
 Alpha  occ. eigenvalues --   -0.37788  -0.37438  -0.30977  -0.29583  -0.26837
 Alpha  occ. eigenvalues --   -0.22357  -0.20883  -0.11927  -0.11459   0.01372
 Alpha  occ. eigenvalues --    0.01630   0.03099
 Alpha virt. eigenvalues --    0.13814   0.14444   0.15132   0.15856   0.18153
 Alpha virt. eigenvalues --    0.18714   0.19194   0.20761   0.21805   0.23137
 Alpha virt. eigenvalues --    0.23497   0.25152   0.25628   0.26638   0.27386

 Mulliken charges:
               1
     1  C    0.604663
     2  C   -1.336592
     3  F    0.038978
     4  H    1.774631
     5  H    1.371417
     6  C   -4.364498
     7  H    1.044688
     8  H    1.248305
     9  H    1.055158
    10  C    2.815563
    11  N   -2.697196
    12  N   -2.522601
    13  H    0.516315
    14  H    0.138378
    15  F   -0.687208
 Sum of Mulliken charges =  -1.00000

 Dipole moment (field-independent basis, Debye):
    X=              1.4874    Y=              5.3767    Z=              2.0334  Tot=              5.9377

 Test job not archived.
 1\1\GINC-SE247\SP\RHF\Aug-CC-pVDZ\C4H7F2N2(1-)\OHZDE\09-Apr-2025\0\\#t
  hf aug-cc-pvdz iop(5/13=1,5/36=2,99/5=2) pseudo=read geom=check guess
 =(read,tcheck) scf=(maxcycle=1)\\title\\-1,1\C,0,-0.195954,0.034881,-0
 .003945\C,0,-0.39279,-0.036983,-1.519592\F,0,1.130098,0.480069,0.20352
 8\H,0,0.447044,-0.631646,-1.912476\H,0,-0.88781,0.762757,0.414436\C,0,
 -0.416434,-1.294219,0.669244\H,0,-1.497609,-1.428141,0.691702\H,0,0.08
 2027,-2.110563,0.138569\H,0,-0.034246,-1.241418,1.69301\C,0,-0.223024,
 1.320496,-2.093031\N,0,-0.102214,2.366869,-2.614817\N,0,-1.665719,-0.6

 Normal termination of Gaussian 16 at Wed Apr  9 02:40:36 2025.
