 Gaussian 16, Revision C.01,

 ----------------------------------------------------------------------
 #t hf aug-cc-pvdz symm=none int=(grid=ultrafine) guess=(read,tcheck) s
 table=(opt,rrhf)
 ----------------------------------------------------------------------
 -----
 title
 -----
 Symbolic Z-matrix:
 Charge = -1 Multiplicity = 1

 SCF Done:  E(RHF) =  -821.089726635     A.U. after   16 cycles
 Normal termination of Gaussian 16 at Wed Apr  9 02:45:35 2025.
 Gaussian 16:  ES64L-G16RevC.01  3-Jul-2019

 ----------------------------------------------------------------------
 #t hf aug-cc-pvdz iop(5/13=1,5/36=2,99/5=2) pseudo=read geom=check gue
 ss=(read,tcheck) scf=(maxcycle=1)
 ----------------------------------------------------------------------
 -----
 title
 -----
 Structure from the checkpoint file:  "E2SN2_248_mol1.chk"
 Charge = -1 Multiplicity = 1

                         Standard orientation:
 ---------------------------------------------------------------------
 Center     Atomic      Atomic             Coordinates (Angstroms)
 Number     Number       Type             X           Y           Z
 ---------------------------------------------------------------------
      1          6           0        0.558769    0.293423   -0.502284
      2          1           0        0.436746   -1.674086   -1.223904
      3         17           0       -1.064034    1.678555   -0.247676
      4          9           0        2.180172   -0.728785   -0.886811
      5          6           0       -0.273232   -0.896300   -0.947688
      6          1           0        1.017361    0.912824   -1.247480
      7          1           0       -0.868846   -0.605188   -1.814721
      8          6           0        1.078197    0.337079    0.840400
      9          7           0        1.446230    0.392122    1.955507
     10          6           0       -1.182276   -1.408687    0.074171
     11          7           0       -1.904367   -1.901124    0.857394
 ---------------------------------------------------------------------

 SCF Done:  E(RHF) =  -822.876304894     A.U. after    2 cycles

 The electronic state is 1-A.
 Alpha  occ. eigenvalues --  -99.70293 -28.95716 -15.64495 -15.63165 -11.43696
 Alpha  occ. eigenvalues --  -11.35257 -11.32111 -11.30866 -10.27322  -9.47325
 Alpha  occ. eigenvalues --   -9.46807  -9.46751  -1.23333  -1.17223  -1.11264
 Alpha  occ. eigenvalues --   -1.04143  -0.89238  -0.65250  -0.58260  -0.54032
 Alpha  occ. eigenvalues --   -0.51769  -0.44399  -0.39780  -0.39016  -0.35259
 Alpha  occ. eigenvalues --   -0.33801  -0.31774  -0.31522  -0.30782  -0.30022
 Alpha  occ. eigenvalues --   -0.27989  -0.05398  -0.03521  -0.02747
 Alpha virt. eigenvalues --    0.13884   0.15688   0.16330   0.18828   0.20021
 Alpha virt. eigenvalues --    0.20703   0.22221   0.22923   0.23481   0.24615
 Alpha virt. eigenvalues --    0.25355   0.25665   0.26442   0.27029   0.28055

 Mulliken charges:
               1
     1  C   -0.004464
     2  H    1.133843
     3  Cl  -0.557914
     4  F   -0.374664
     5  C   -2.454246
     6  H    1.280768
     7  H    1.351815
     8  C    1.942502
     9  N   -2.697576
    10  C    1.877124
    11  N   -2.497188
 Sum of Mulliken charges =  -1.00000

 Dipole moment (field-independent basis, Debye):
    X=              2.4567    Y=             -2.8307    Z=             -4.3943  Tot=              5.7757

 Test job not archived.
 1\1\GINC-SE143\SP\RHF\Aug-CC-pVDZ\C4H3Cl1F1N2(1-)\OHZDE\09-Apr-2025\0\
 \#t hf aug-cc-pvdz iop(5/13=1,5/36=2,99/5=2) pseudo=read geom=check gu
 ess=(read,tcheck) scf=(maxcycle=1)\\title\\-1,1\C,0,0.58574367,-0.0527
 2391,-0.02467827\H,0,1.74342304,1.69818,-0.05345023\Cl,0,-1.54848676,-
 0.18646941,0.18527357\F,0,2.53789134,-0.14865266,0.0157518\C,0,0.68049
 701,1.4625921,-0.05450053\H,0,0.74474753,-0.56345088,0.90438452\H,0,0.
 20525483,1.86328239,0.84262877\C,0,0.71850675,-0.79926066,-1.24924727\
 N,0,0.76738494,-1.39529164,-2.26132403\C,0,0.04691138,2.08039653,-1.21

 Normal termination of Gaussian 16 at Wed Apr  9 02:45:41 2025.
