 Gaussian 16, Revision C.01,

 ----------------------------------------------------------------------
 #t hf aug-cc-pvdz symm=none int=(grid=ultrafine) guess=(read,tcheck) s
 table=(opt,rrhf)
 ----------------------------------------------------------------------
 -----
 title
 -----
 Symbolic Z-matrix:
 Charge = -1 Multiplicity = 1

 SCF Done:  E(RHF) =  -1220.21719606     A.U. after   16 cycles
 Normal termination of Gaussian 16 at Wed Apr  9 02:53:35 2025.
 Gaussian 16:  ES64L-G16RevC.01  3-Jul-2019

 ----------------------------------------------------------------------
 #t hf aug-cc-pvdz iop(5/13=1,5/36=2,99/5=2) pseudo=read geom=check gue
 ss=(read,tcheck) scf=(maxcycle=1)
 ----------------------------------------------------------------------
 -----
 title
 -----
 Structure from the checkpoint file:  "E2SN2_325_mol1.chk"
 Charge = -1 Multiplicity = 1

                         Standard orientation:
 ---------------------------------------------------------------------
 Center     Atomic      Atomic             Coordinates (Angstroms)
 Number     Number       Type             X           Y           Z
 ---------------------------------------------------------------------
      1          6           0       -0.494772   -0.521081   -0.297272
      2          1           0       -0.724455    0.915251    1.255650
      3         17           0        1.614742   -0.911677   -1.300941
      4         17           0       -2.694398    0.103954    0.001195
      5          6           0        0.069178    0.606521    0.565986
      6          1           0       -0.716521   -0.325582   -1.325877
      7          6           0       -0.638417   -1.875458    0.339976
      8          1           0        0.338518   -2.309303    0.546558
      9          1           0       -1.204792   -1.795009    1.268725
     10          1           0       -1.186285   -2.532552   -0.334431
     11          6           0        0.418749    1.790729   -0.220680
     12          7           0        0.651176    2.785753   -0.797945
     13          6           0        1.195103    0.185665    1.411077
     14          7           0        1.998628   -0.120008    2.210879
 ---------------------------------------------------------------------

 SCF Done:  E(RHF) =  -1222.12822493     A.U. after    2 cycles

 The electronic state is 1-A.
 Alpha  occ. eigenvalues --  -99.68399 -99.66578 -15.66657 -15.66545 -11.45218
 Alpha  occ. eigenvalues --  -11.40543 -11.36020 -11.34139 -11.28783 -10.25380
 Alpha  occ. eigenvalues --  -10.23581  -9.45477  -9.44993  -9.44897  -9.43630
 Alpha  occ. eigenvalues --   -9.43228  -9.43144  -1.27319  -1.18322  -1.14442
 Alpha  occ. eigenvalues --   -1.05078  -1.03375  -0.98591  -0.79117  -0.67878
 Alpha  occ. eigenvalues --   -0.61856  -0.56036  -0.49316  -0.46907  -0.44282
 Alpha  occ. eigenvalues --   -0.42408  -0.41054  -0.36534  -0.35461  -0.34912
 Alpha  occ. eigenvalues --   -0.32948  -0.32351  -0.31959  -0.31358  -0.29775
 Alpha  occ. eigenvalues --   -0.29715  -0.28630
 Alpha virt. eigenvalues --    0.13494   0.14583   0.15308   0.15973   0.16856
 Alpha virt. eigenvalues --    0.18525   0.18973   0.19831   0.20529   0.22019
 Alpha virt. eigenvalues --    0.22286   0.22781   0.23393   0.24325   0.24846

 Mulliken charges:
               1
     1  C   -0.325013
     2  H    1.520763
     3  Cl  -0.722778
     4  Cl  -0.651086
     5  C   -1.528670
     6  H    1.727693
     7  C   -3.916870
     8  H    1.351677
     9  H    1.193656
    10  H    1.081116
    11  C    2.146819
    12  N   -2.637090
    13  C    2.473028
    14  N   -2.713245
 Sum of Mulliken charges =  -1.00000

 Dipole moment (field-independent basis, Debye):
    X=             -0.9255    Y=             -1.2934    Z=              2.3810  Tot=              2.8633

 Test job not archived.
 1\1\GINC-SE023\SP\RHF\Aug-CC-pVDZ\C5H5Cl2N2(1-)\OHZDE\09-Apr-2025\0\\#
 t hf aug-cc-pvdz iop(5/13=1,5/36=2,99/5=2) pseudo=read geom=check gues
 s=(read,tcheck) scf=(maxcycle=1)\\title\\-1,1\C,0,0.64521449,-0.065568
 68,-0.05997148\H,0,1.5834601,1.82888454,-0.30103689\Cl,0,-1.70709137,-
 0.24878955,0.14753027\Cl,0,2.89750172,-0.13337577,0.4306472\C,0,0.5737
 3436,1.46049326,-0.08761822\H,0,0.55993008,-0.57190256,0.87905558\C,0,
 0.7600902,-0.77744323,-1.37947704\H,0,-0.1586979,-0.67357639,-1.954229
 38\H,0,1.59560673,-0.37317524,-1.95245713\H,0,0.95266321,-1.83466851,-

 Normal termination of Gaussian 16 at Wed Apr  9 02:53:41 2025.
