 Gaussian 16, Revision C.01,

 ----------------------------------------------------------------------
 #t hf aug-cc-pvdz symm=none int=(grid=ultrafine) guess=(read,tcheck) s
 table=(opt,rrhf)
 ----------------------------------------------------------------------
 -----
 title
 -----
 Symbolic Z-matrix:
 Charge = -1 Multiplicity = 1

 SCF Done:  E(RHF) =  -664.508739556     A.U. after   17 cycles
 Normal termination of Gaussian 16 at Wed Apr  9 02:43:10 2025.
 Gaussian 16:  ES64L-G16RevC.01  3-Jul-2019

 ----------------------------------------------------------------------
 #t hf aug-cc-pvdz iop(5/13=1,5/36=2,99/5=2) pseudo=read geom=check gue
 ss=(read,tcheck) scf=(maxcycle=1)
 ----------------------------------------------------------------------
 -----
 title
 -----
 Structure from the checkpoint file:  "E2SN2_225_mol1.chk"
 Charge = -1 Multiplicity = 1

                         Standard orientation:
 ---------------------------------------------------------------------
 Center     Atomic      Atomic             Coordinates (Angstroms)
 Number     Number       Type             X           Y           Z
 ---------------------------------------------------------------------
      1          6           0       -0.137260    0.071202    0.155202
      2          1           0        0.974864   -0.805741    1.761590
      3          9           0        0.321491   -0.250485   -1.495143
      4          9           0       -0.792319    0.373836    1.721646
      5          6           0        0.933391   -0.868987    0.675969
      6          1           0        0.613205   -1.871165    0.387155
      7          7           0       -1.486485   -0.481768   -0.213442
      8          8           0       -1.661182   -1.681399   -0.043804
      9          8           0       -2.310172    0.309291   -0.644991
     10          6           0        0.101462    1.487028   -0.040408
     11          7           0        0.327954    2.631954   -0.168559
     12          6           0        2.258531   -0.607061    0.120231
     13          7           0        3.370455   -0.428684   -0.209838
 ---------------------------------------------------------------------

 SCF Done:  E(RHF) =  -667.220141796     A.U. after    2 cycles

 The electronic state is 1-A.
 Alpha  occ. eigenvalues --  -29.03751 -29.02718 -20.97916 -20.97659 -15.88673
 Alpha  occ. eigenvalues --  -15.65126 -15.64965 -11.54712 -11.37394 -11.34252
 Alpha  occ. eigenvalues --  -11.32275  -1.88063  -1.58099  -1.26781  -1.18711
 Alpha  occ. eigenvalues --   -1.13938  -0.99332  -0.82484  -0.72569  -0.65596
 Alpha  occ. eigenvalues --   -0.59916  -0.56251  -0.52535  -0.48211  -0.46241
 Alpha  occ. eigenvalues --   -0.41343  -0.40687  -0.39060  -0.33436  -0.33084
 Alpha  occ. eigenvalues --   -0.32008  -0.31409  -0.25728  -0.20851  -0.19878
 Alpha  occ. eigenvalues --   -0.18874  -0.09282  -0.08646  -0.07911  -0.07641
 Alpha  occ. eigenvalues --   -0.01405
 Alpha virt. eigenvalues --    0.14243   0.15521   0.18667   0.19694   0.20481
 Alpha virt. eigenvalues --    0.21775   0.23046   0.23751   0.24547   0.25090
 Alpha virt. eigenvalues --    0.25160   0.25611   0.26107   0.27131   0.28281

 Mulliken charges:
               1
     1  C    2.731791
     2  H    1.147597
     3  F   -0.253188
     4  F   -0.453466
     5  C   -3.696133
     6  H    1.538622
     7  N    5.325356
     8  O   -3.299745
     9  O   -3.404948
    10  C    2.699148
    11  N   -3.104486
    12  C    2.547632
    13  N   -2.778180
 Sum of Mulliken charges =  -1.00000

 Dipole moment (field-independent basis, Debye):
    X=             -1.8812    Y=             -3.1298    Z=              0.8349  Tot=              3.7458

 Test job not archived.
 1\1\GINC-SE340\SP\RHF\Aug-CC-pVDZ\C4H2F2N3O2(1-)\OHZDE\09-Apr-2025\0\\
 #t hf aug-cc-pvdz iop(5/13=1,5/36=2,99/5=2) pseudo=read geom=check gue
 ss=(read,tcheck) scf=(maxcycle=1)\\title\\-1,1\C,0,0.67400923,-0.05807
 126,0.04730097\H,0,1.86012135,1.7124337,0.25891315\F,0,-1.0629738,0.06
 452151,-0.02642089\F,0,2.3755282,-0.32889057,-0.02967902\C,0,0.8164456
 7,1.45153517,0.09470102\H,0,0.5079701,1.80896833,-0.88885278\N,0,0.585
 63045,-0.74753665,-1.28645638\O,0,0.66291088,-0.04176336,-2.28361369\O
 ,0,0.45350577,-1.96115895,-1.27488586\C,0,0.57936625,-0.86673451,1.246

 Normal termination of Gaussian 16 at Wed Apr  9 02:43:26 2025.
