 Gaussian 16, Revision C.01,

 ----------------------------------------------------------------------
 #t hf aug-cc-pvdz symm=none int=(grid=ultrafine) guess=(read,tcheck) s
 table=(opt,rrhf)
 ----------------------------------------------------------------------
 -----
 title
 -----
 Symbolic Z-matrix:
 Charge = -1 Multiplicity = 1

 SCF Done:  E(RHF) =  -987.892204930     A.U. after   17 cycles
 Normal termination of Gaussian 16 at Wed Apr  9 02:45:18 2025.
 Gaussian 16:  ES64L-G16RevC.01  3-Jul-2019

 ----------------------------------------------------------------------
 #t hf aug-cc-pvdz iop(5/13=1,5/36=2,99/5=2) pseudo=read geom=check gue
 ss=(read,tcheck) scf=(maxcycle=1)
 ----------------------------------------------------------------------
 -----
 title
 -----
 Structure from the checkpoint file:  "E2SN2_238_mol1.chk"
 Charge = -1 Multiplicity = 1

                         Standard orientation:
 ---------------------------------------------------------------------
 Center     Atomic      Atomic             Coordinates (Angstroms)
 Number     Number       Type             X           Y           Z
 ---------------------------------------------------------------------
      1          6           0       -0.304372    0.053509    0.513051
      2          1           0        0.585333   -1.888778    0.857369
      3          9           0        0.898427    1.513143    0.932589
      4         17           0       -1.648030   -1.470967   -0.247138
      5          6           0        0.878677   -0.838771    0.861764
      6          1           0        1.133511   -0.550542    1.880989
      7          7           0       -0.361358    0.793658   -0.809870
      8          8           0        0.403950    0.443398   -1.694121
      9          8           0       -1.206731    1.673776   -0.893933
     10          7           0       -1.137191    0.474401    1.567926
     11          1           0       -2.095328    0.515983    1.253365
     12          1           0       -0.792501    1.396567    1.808685
     13          6           0        2.096937   -0.695310    0.070021
     14          7           0        3.140612   -0.716490   -0.466192
 ---------------------------------------------------------------------

 SCF Done:  E(RHF) =  -990.396141270     A.U. after    2 cycles

 The electronic state is 1-A.
 Alpha  occ. eigenvalues --  -99.70496 -28.97071 -20.96183 -20.95892 -15.86816
 Alpha  occ. eigenvalues --  -15.63531 -15.62587 -11.49375 -11.34886 -11.30211
 Alpha  occ. eigenvalues --  -10.27603  -9.47710  -9.47163  -9.47076  -1.86256
 Alpha  occ. eigenvalues --   -1.56405  -1.30383  -1.17264  -1.09459  -1.04164
 Alpha  occ. eigenvalues --   -0.95273  -0.70489  -0.65654  -0.61711  -0.54184
 Alpha  occ. eigenvalues --   -0.53600  -0.52695  -0.50788  -0.44623  -0.38704
 Alpha  occ. eigenvalues --   -0.35883  -0.35652  -0.34489  -0.33971  -0.30992
 Alpha  occ. eigenvalues --   -0.30167  -0.29010  -0.22022  -0.18605  -0.17448
 Alpha  occ. eigenvalues --   -0.07489  -0.04473  -0.03945
 Alpha virt. eigenvalues --    0.14086   0.14799   0.15815   0.16526   0.19492
 Alpha virt. eigenvalues --    0.19983   0.22510   0.23309   0.23508   0.23637
 Alpha virt. eigenvalues --    0.24839   0.26313   0.27141   0.27608   0.28265

 Mulliken charges:
               1
     1  C    3.658264
     2  H    1.331712
     3  F   -0.339756
     4  Cl  -0.675370
     5  C   -3.072669
     6  H    1.286198
     7  N    5.473878
     8  O   -3.396140
     9  O   -3.208248
    10  N   -3.320354
    11  H    0.638064
    12  H    0.468665
    13  C    2.878454
    14  N   -2.722697
 Sum of Mulliken charges =  -1.00000

 Dipole moment (field-independent basis, Debye):
    X=              0.6741    Y=              3.8256    Z=              2.8452  Tot=              4.8150

 Test job not archived.
 1\1\GINC-SE123\SP\RHF\Aug-CC-pVDZ\C3H4Cl1F1N3O2(1-)\OHZDE\09-Apr-2025\
 0\\#t hf aug-cc-pvdz iop(5/13=1,5/36=2,99/5=2) pseudo=read geom=check
 guess=(read,tcheck) scf=(maxcycle=1)\\title\\-1,1\C,0,0.80846118,-0.06
 273074,0.01451383\H,0,1.66594676,1.91943904,0.14990171\F,0,-1.12258474
 ,-0.03439105,-0.13887263\Cl,0,2.96888868,-0.23137879,-0.09245791\C,0,0
 .69593779,1.45479033,-0.02833798\H,0,0.03523995,1.69271944,0.80455121\
 N,0,0.65988107,-0.89296977,-1.24636442\O,0,0.73384349,-0.31844651,-2.3
 2094806\O,0,0.50857332,-2.09534783,-1.0798614\N,0,0.67115526,-0.691880

 Normal termination of Gaussian 16 at Wed Apr  9 02:45:25 2025.
