 Gaussian 16, Revision C.01,

 ----------------------------------------------------------------------
 #t hf aug-cc-pvdz symm=none int=(grid=ultrafine) guess=(read,tcheck) s
 table=(opt,rrhf)
 ----------------------------------------------------------------------
 -----
 title
 -----
 Symbolic Z-matrix:
 Charge = -1 Multiplicity = 1

 SCF Done:  E(RHF) =  -682.913654614     A.U. after   16 cycles
 Normal termination of Gaussian 16 at Wed Apr  9 02:52:49 2025.
 Gaussian 16:  ES64L-G16RevC.01  3-Jul-2019

 ----------------------------------------------------------------------
 #t hf aug-cc-pvdz iop(5/13=1,5/36=2,99/5=2) pseudo=read geom=check gue
 ss=(read,tcheck) scf=(maxcycle=1)
 ----------------------------------------------------------------------
 -----
 title
 -----
 Structure from the checkpoint file:  "E2SN2_320_mol2.chk"
 Charge = -1 Multiplicity = 1

                         Standard orientation:
 ---------------------------------------------------------------------
 Center     Atomic      Atomic             Coordinates (Angstroms)
 Number     Number       Type             X           Y           Z
 ---------------------------------------------------------------------
      1          6           0       -0.735184   -0.477723   -0.306918
      2          6           0        0.290848   -0.230322    0.809916
      3          9           0       -0.678415   -1.842623   -0.657330
      4          1           0        0.223125   -1.066940    1.511783
      5          6           0       -2.101144   -0.340475    0.286921
      6          7           0       -3.209898   -0.275725    0.671758
      7          7           0       -0.479531    0.312564   -1.432145
      8          1           0       -1.275891    0.290868   -2.057292
      9          1           0       -0.259158    1.332517   -1.173665
     10          7           0        0.103622    1.020834    1.406103
     11          1           0        0.101882    1.802880    0.697810
     12          1           0        0.784749    1.184270    2.133957
     13          7           0        1.693306   -0.466447    0.178314
     14          8           0        2.369141    0.516493   -0.101368
     15          8           0        2.046408   -1.638277    0.045163
     16          9           0       -0.030331    2.685203   -0.583857
 ---------------------------------------------------------------------

 SCF Done:  E(RHF) =  -685.731689480     A.U. after    2 cycles

 The electronic state is 1-A.
 Alpha  occ. eigenvalues --  -29.14786 -28.93963 -20.97079 -20.96547 -15.85381
 Alpha  occ. eigenvalues --  -15.65915 -15.60379 -15.59489 -11.45948 -11.37780
 Alpha  occ. eigenvalues --  -11.32447  -1.85625  -1.56069  -1.34326  -1.21882
 Alpha  occ. eigenvalues --   -1.17401  -1.01828  -0.93711  -0.73446  -0.68027
 Alpha  occ. eigenvalues --   -0.67108  -0.58191  -0.57372  -0.51971  -0.51569
 Alpha  occ. eigenvalues --   -0.49397  -0.44052  -0.42572  -0.42330  -0.35010
 Alpha  occ. eigenvalues --   -0.34162  -0.31109  -0.27519  -0.27061  -0.22888
 Alpha  occ. eigenvalues --   -0.21760  -0.19518  -0.18180  -0.14901  -0.12856
 Alpha  occ. eigenvalues --   -0.02168  -0.01702  -0.00200
 Alpha virt. eigenvalues --    0.13478   0.14641   0.15254   0.18405   0.19234
 Alpha virt. eigenvalues --    0.20610   0.20993   0.21169   0.22627   0.22996
 Alpha virt. eigenvalues --    0.23849   0.24573   0.25763   0.26416   0.27247

 Mulliken charges:
               1
     1  C    4.192340
     2  C    0.411759
     3  F    0.238513
     4  H    2.002900
     5  C    1.755516
     6  N   -2.632499
     7  N   -3.827535
     8  H    0.496999
     9  H    0.177228
    10  N   -2.991028
    11  H    0.304830
    12  H    0.388482
    13  N    4.415141
    14  O   -2.761367
    15  O   -2.960588
    16  F   -0.210690
 Sum of Mulliken charges =  -1.00000

 Dipole moment (field-independent basis, Debye):
    X=              2.1437    Y=             -5.4373    Z=              0.2123  Tot=              5.8485

 Test job not archived.
 1\1\GINC-SE462\SP\RHF\Aug-CC-pVDZ\C3H5F2N4O2(1-)\OHZDE\09-Apr-2025\0\\
 #t hf aug-cc-pvdz iop(5/13=1,5/36=2,99/5=2) pseudo=read geom=check gue
 ss=(read,tcheck) scf=(maxcycle=1)\\title\\-1,1\C,0,0.021791,-0.00312,-
 0.001046\C,0,-0.314347,0.23487,-1.481465\F,0,1.372837,-0.3991,0.081637
 \H,0,0.529526,0.767462,-1.930195\C,0,0.018482,1.324051,0.688833\N,0,0.
 0616,2.322919,1.306919\N,0,-0.796551,-0.98507,0.566528\H,0,-0.703621,-
 0.971287,1.574815\H,0,-1.831071,-0.856793,0.303861\N,0,-1.538186,0.896
 002,-1.626395\H,0,-2.321195,0.398501,-1.123733\H,0,-1.760623,1.043429,

 Normal termination of Gaussian 16 at Wed Apr  9 02:52:56 2025.
