 Gaussian 16, Revision C.01,

 ----------------------------------------------------------------------
 #t hf aug-cc-pvdz symm=none int=(grid=ultrafine) guess=(read,tcheck) s
 table=(opt,rrhf)
 ----------------------------------------------------------------------
 -----
 title
 -----
 Symbolic Z-matrix:
 Charge = -1 Multiplicity = 1

 SCF Done:  E(RHF) =  -1043.01138322     A.U. after   16 cycles
 Normal termination of Gaussian 16 at Wed Apr  9 02:52:15 2025.
 Gaussian 16:  ES64L-G16RevC.01  3-Jul-2019

 ----------------------------------------------------------------------
 #t hf aug-cc-pvdz iop(5/13=1,5/36=2,99/5=2) pseudo=read geom=check gue
 ss=(read,tcheck) scf=(maxcycle=1)
 ----------------------------------------------------------------------
 -----
 title
 -----
 Structure from the checkpoint file:  "E2SN2_308_mol2.chk"
 Charge = -1 Multiplicity = 1

                         Standard orientation:
 ---------------------------------------------------------------------
 Center     Atomic      Atomic             Coordinates (Angstroms)
 Number     Number       Type             X           Y           Z
 ---------------------------------------------------------------------
      1          6           0       -0.171756    0.848999   -0.494920
      2          6           0       -0.443819   -0.170675    0.615022
      3          9           0       -1.416536    1.332393   -0.942764
      4          1           0        0.498912   -0.679691    0.848375
      5          6           0        0.489076    2.046700    0.089400
      6          7           0        1.032330    3.032633    0.425336
      7          7           0        0.518306    0.260581   -1.574806
      8          1           0        0.923695    0.975047   -2.166385
      9          1           0        1.272065   -0.336668   -1.210917
     10          7           0       -1.363446   -1.238190    0.006377
     11          8           0       -2.569409   -1.131417    0.239951
     12          8           0       -0.845784   -2.128173   -0.655547
     13          7           0       -1.027228    0.462137    1.742797
     14          1           0       -1.033682   -0.166350    2.534151
     15          1           0       -1.978501    0.733759    1.528274
     16         17           0        2.766302   -1.200658    0.283600
 ---------------------------------------------------------------------

 SCF Done:  E(RHF) =  -1045.73033578     A.U. after    2 cycles

 The electronic state is 1-A.
 Alpha  occ. eigenvalues --  -99.62437 -29.17194 -20.99163 -20.98480 -15.87654
 Alpha  occ. eigenvalues --  -15.67014 -15.66357 -15.63640 -11.48195 -11.38996
 Alpha  occ. eigenvalues --  -11.33685 -10.19135  -9.39210  -9.38875  -9.38703
 Alpha  occ. eigenvalues --   -1.87884  -1.58232  -1.36913  -1.25947  -1.18614
 Alpha  occ. eigenvalues --   -1.03831  -0.98548  -0.96687  -0.77489  -0.70628
 Alpha  occ. eigenvalues --   -0.63638  -0.62171  -0.59640  -0.53873  -0.52880
 Alpha  occ. eigenvalues --   -0.51323  -0.44994  -0.44484  -0.43194  -0.36954
 Alpha  occ. eigenvalues --   -0.35532  -0.31805  -0.29358  -0.27831  -0.26735
 Alpha  occ. eigenvalues --   -0.26182  -0.24826  -0.23637  -0.20863  -0.19575
 Alpha  occ. eigenvalues --   -0.17320  -0.16069
 Alpha virt. eigenvalues --    0.12331   0.14257   0.14644   0.17672   0.18485
 Alpha virt. eigenvalues --    0.19458   0.20459   0.21479   0.22176   0.23064
 Alpha virt. eigenvalues --    0.23697   0.24237   0.24631   0.25667   0.26327

 Mulliken charges:
               1
     1  C    4.275380
     2  C   -0.006360
     3  F    0.152260
     4  H    1.901067
     5  C    2.048644
     6  N   -2.740781
     7  N   -3.516245
     8  H    0.588117
     9  H    0.522879
    10  N    4.628697
    11  O   -2.889112
    12  O   -3.008487
    13  N   -3.068113
    14  H    0.497091
    15  H    0.559868
    16  Cl  -0.944905
 Sum of Mulliken charges =  -1.00000

 Dipole moment (field-independent basis, Debye):
    X=            -10.8515    Y=              2.8287    Z=             -1.4882  Tot=             11.3125

 Test job not archived.
 1\1\GINC-SE074\SP\RHF\Aug-CC-pVDZ\C3H5Cl1F1N4O2(1-)\OHZDE\09-Apr-2025\
 0\\#t hf aug-cc-pvdz iop(5/13=1,5/36=2,99/5=2) pseudo=read geom=check
 guess=(read,tcheck) scf=(maxcycle=1)\\title\\-1,1\C,0,0.019176,-0.0086
 19,0.021186\C,0,-0.493368,-0.067922,-1.420863\F,0,1.413437,-0.20474,-0
 .01464\H,0,-1.5892,-0.092681,-1.392032\C,0,-0.135048,1.376579,0.540858
 \N,0,-0.225614,2.420897,1.071177\N,0,-0.574261,-1.008926,0.818553\H,0,
 -0.444018,-0.801294,1.800741\H,0,-1.581982,-1.049269,0.618192\N,0,-0.0
 52523,-1.426988,-1.981529\O,0,0.966803,-1.437741,-2.675188\O,0,-0.7413

 Normal termination of Gaussian 16 at Wed Apr  9 02:52:24 2025.
