 Gaussian 16, Revision C.01,

 ----------------------------------------------------------------------
 #t hf aug-cc-pvdz symm=none int=(grid=ultrafine) guess=(read,tcheck) s
 table=(opt,rrhf)
 ----------------------------------------------------------------------
 -----
 title
 -----
 Symbolic Z-matrix:
 Charge = -1 Multiplicity = 1

 SCF Done:  E(RHF) =  -515.187519669     A.U. after   17 cycles
 Normal termination of Gaussian 16 at Wed Apr  9 02:44:40 2025.
 Gaussian 16:  ES64L-G16RevC.01  3-Jul-2019

 ----------------------------------------------------------------------
 #t hf aug-cc-pvdz iop(5/13=1,5/36=2,99/5=2) pseudo=read geom=check gue
 ss=(read,tcheck) scf=(maxcycle=1)
 ----------------------------------------------------------------------
 -----
 title
 -----
 Structure from the checkpoint file:  "E2SN2_234_mol1.chk"
 Charge = -1 Multiplicity = 1

                         Standard orientation:
 ---------------------------------------------------------------------
 Center     Atomic      Atomic             Coordinates (Angstroms)
 Number     Number       Type             X           Y           Z
 ---------------------------------------------------------------------
      1          6           0        0.128951    0.341937    0.047428
      2          1           0       -0.882838   -1.008660   -1.207165
      3          9           0        0.253441   -0.249823    1.571415
      4          1           0        0.309838    0.783050   -1.735928
      5          6           0       -1.181317   -0.298108   -0.431869
      6          7           0        1.381037   -0.304682   -0.387335
      7          8           0        1.328022   -1.496785   -0.714384
      8          8           0        2.439781    0.310745   -0.227248
      9          6           0        0.194972    1.791206    0.472309
     10          1           0        0.208004    2.480768   -0.365206
     11          1           0       -0.682154    1.984612    1.092868
     12          1           0        1.093751    1.919842    1.073523
     13          7           0       -2.060875    0.760585   -0.958316
     14          1           0       -2.858107    0.301183   -1.389452
     15          1           0       -1.510289    1.181901   -1.707600
     16          6           0       -1.956100   -1.059583    0.639157
     17          1           0       -1.356902   -1.879160    1.030150
     18          1           0       -2.232197   -0.402507    1.463870
     19          1           0       -2.872664   -1.468335    0.192664
 ---------------------------------------------------------------------

 SCF Done:  E(RHF) =  -517.498164345     A.U. after    2 cycles

 The electronic state is 1-A.
 Alpha  occ. eigenvalues --  -29.01395 -20.90956 -20.90768 -15.82154 -15.58564
 Alpha  occ. eigenvalues --  -11.43028 -11.31044 -11.25637 -11.22403  -1.80997
 Alpha  occ. eigenvalues --   -1.50741  -1.23753  -1.08978  -0.94358  -0.88316
 Alpha  occ. eigenvalues --   -0.76015  -0.65151  -0.57329  -0.56058  -0.51051
 Alpha  occ. eigenvalues --   -0.47053  -0.46259  -0.43372  -0.42968  -0.39995
 Alpha  occ. eigenvalues --   -0.37319  -0.35290  -0.33424  -0.31318  -0.23116
 Alpha  occ. eigenvalues --   -0.19474  -0.18958  -0.15061  -0.12964  -0.06897
 Alpha  occ. eigenvalues --   -0.05858  -0.04885
 Alpha virt. eigenvalues --    0.13018   0.14274   0.14804   0.15173   0.15450
 Alpha virt. eigenvalues --    0.16427   0.16716   0.17362   0.18336   0.19798
 Alpha virt. eigenvalues --    0.22806   0.23296   0.24663   0.25560   0.26209

 Mulliken charges:
               1
     1  C    3.240416
     2  H    1.745685
     3  F   -0.285307
     4  H   -0.851715
     5  C   -0.184847
     6  N    4.776063
     7  O   -3.204810
     8  O   -3.247612
     9  C   -4.396568
    10  H    1.190567
    11  H    1.266146
    12  H    1.296744
    13  N   -2.891417
    14  H    0.563407
    15  H    0.651761
    16  C   -4.085117
    17  H    1.186064
    18  H    1.232330
    19  H    0.998208
 Sum of Mulliken charges =  -1.00000

 Dipole moment (field-independent basis, Debye):
    X=             -2.3045    Y=             -2.1161    Z=              4.8438  Tot=              5.7664

 Test job not archived.
 1\1\GINC-SE462\SP\RHF\Aug-CC-pVDZ\C4H10F1N2O2(1-)\OHZDE\09-Apr-2025\0\
 \#t hf aug-cc-pvdz iop(5/13=1,5/36=2,99/5=2) pseudo=read geom=check gu
 ess=(read,tcheck) scf=(maxcycle=1)\\title\\-1,1\C,0,0.49655237,-0.0702
 6572,-0.08939763\H,0,1.56077293,1.56525427,-0.87319827\F,0,-0.90707446
 ,-0.30457665,-0.9037349\H,0,2.2354991,-0.01430676,0.52752349\C,0,0.688
 66389,1.44662019,-0.22480983\N,0,1.26494361,-0.92166821,-1.01651287\O,
 0,1.65193825,-0.41312246,-2.07599285\O,0,1.32275297,-2.13283574,-0.781
 8932\C,0,0.00005096,-0.69558844,1.19423766\H,0,0.76564718,-0.7617625,1

 Normal termination of Gaussian 16 at Wed Apr  9 02:44:49 2025.
