 Gaussian 16, Revision C.01,

 ----------------------------------------------------------------------
 #t hf aug-cc-pvdz symm=none int=(grid=ultrafine) guess=(read,tcheck) s
 table=(opt,rrhf)
 ----------------------------------------------------------------------
 -----
 title
 -----
 Symbolic Z-matrix:
 Charge = -1 Multiplicity = 1

 SCF Done:  E(RHF) =  -456.167167424     A.U. after   17 cycles
 Normal termination of Gaussian 16 at Wed Apr  9 02:36:14 2025.
 Gaussian 16:  ES64L-G16RevC.01  3-Jul-2019

 ----------------------------------------------------------------------
 #t hf aug-cc-pvdz iop(5/13=1,5/36=2,99/5=2) pseudo=read geom=check gue
 ss=(read,tcheck) scf=(maxcycle=1)
 ----------------------------------------------------------------------
 -----
 title
 -----
 Structure from the checkpoint file:  "E2SN2_136_mol1.chk"
 Charge = -1 Multiplicity = 1

                         Standard orientation:
 ---------------------------------------------------------------------
 Center     Atomic      Atomic             Coordinates (Angstroms)
 Number     Number       Type             X           Y           Z
 ---------------------------------------------------------------------
      1          6           0       -0.433788   -0.475520   -0.096987
      2          6           0        0.559434    0.568252    0.375286
      3          9           0       -0.317042   -0.699766   -1.481272
      4          1           0       -0.106922    0.098224    2.775889
      5          1           0        0.341108    0.472046    1.596824
      6          7           0       -0.308726   -1.741440    0.571293
      7          1           0       -0.360369   -1.499779    1.573285
      8          1           0        0.642601   -2.062407    0.405970
      9          6           0       -1.816258    0.028559    0.102082
     10          7           0       -2.911215    0.440290    0.197081
     11          6           0        1.899486    0.104708    0.130589
     12          7           0        3.005937   -0.276911   -0.016794
     13          6           0        0.308524    1.987133   -0.113454
     14          1           0        1.124804    2.641881    0.202057
     15          1           0        0.219439    2.047368   -1.203449
     16          1           0       -0.613637    2.368189    0.334713
 ---------------------------------------------------------------------

 SCF Done:  E(RHF) =  -458.192070587     A.U. after    2 cycles

 The electronic state is 1-A.
 Alpha  occ. eigenvalues --  -29.15001 -15.65598 -15.63270 -15.62192 -11.45339
 Alpha  occ. eigenvalues --  -11.33776 -11.33245 -11.29819 -11.26995  -1.33511
 Alpha  occ. eigenvalues --   -1.17868  -1.17107  -1.06970  -0.94548  -0.83435
 Alpha  occ. eigenvalues --   -0.70768  -0.59277  -0.54503  -0.51457  -0.49011
 Alpha  occ. eigenvalues --   -0.45954  -0.43750  -0.41347  -0.40998  -0.37305
 Alpha  occ. eigenvalues --   -0.33534  -0.33304  -0.30808  -0.30097  -0.26602
 Alpha  occ. eigenvalues --   -0.24560  -0.16179  -0.15436  -0.10142
 Alpha virt. eigenvalues --    0.13484   0.14627   0.15371   0.16121   0.17906
 Alpha virt. eigenvalues --    0.18528   0.19370   0.19683   0.20278   0.21083
 Alpha virt. eigenvalues --    0.22670   0.23570   0.24594   0.24791   0.25708

 Mulliken charges:
               1
     1  C    5.187766
     2  C   -2.568527
     3  F    0.037117
     4  H   -0.492177
     5  H    1.838010
     6  N   -3.706509
     7  H    0.601884
     8  H    0.592677
     9  C    0.689177
    10  N   -2.429480
    11  C    2.324126
    12  N   -2.723989
    13  C   -4.006909
    14  H    1.231128
    15  H    1.228215
    16  H    1.197491
 Sum of Mulliken charges =  -1.00000

 Dipole moment (field-independent basis, Debye):
    X=              0.5631    Y=             -0.0004    Z=             -9.1119  Tot=              9.1293

 Test job not archived.
 1\1\GINC-SE419\SP\RHF\Aug-CC-pVDZ\C5H7F1N3(1-)\OHZDE\09-Apr-2025\0\\#t
  hf aug-cc-pvdz iop(5/13=1,5/36=2,99/5=2) pseudo=read geom=check guess
 =(read,tcheck) scf=(maxcycle=1)\\title\\-1,1\C,0,-0.0935162,-0.1007155
 7,-0.392877\C,0,-0.05421374,0.00775818,1.11897044\F,0,1.19726155,-0.27
 892722,-0.924191\H,0,-2.58872552,-0.02374416,1.17474636\H,0,-1.2821423
 3,0.01978333,1.32176273\N,0,-0.92579246,-1.16699612,-0.8778024\H,0,-1.
 83561248,-0.99996938,-0.42021733\H,0,-0.55904839,-2.02594153,-0.473962
 49\C,0,-0.58064576,1.17780433,-0.96997336\N,0,-0.9052433,2.2028537,-1.

 Normal termination of Gaussian 16 at Wed Apr  9 02:36:21 2025.
