 Gaussian 16, Revision C.01,

 ----------------------------------------------------------------------
 #t hf aug-cc-pvdz symm=none int=(grid=ultrafine) guess=(read,tcheck) s
 table=(opt,rrhf)
 ----------------------------------------------------------------------
 -----
 title
 -----
 Symbolic Z-matrix:
 Charge = -1 Multiplicity = 1

 SCF Done:  E(RHF) =  -463.354944768     A.U. after   15 cycles
 Normal termination of Gaussian 16 at Wed Apr  9 02:56:10 2025.
 Gaussian 16:  ES64L-G16RevC.01  3-Jul-2019

 ----------------------------------------------------------------------
 #t hf aug-cc-pvdz iop(5/13=1,5/36=2,99/5=2) pseudo=read geom=check gue
 ss=(read,tcheck) scf=(maxcycle=1)
 ----------------------------------------------------------------------
 -----
 title
 -----
 Structure from the checkpoint file:  "E2SN2_372_mol1.chk"
 Charge = -1 Multiplicity = 1

                         Standard orientation:
 ---------------------------------------------------------------------
 Center     Atomic      Atomic             Coordinates (Angstroms)
 Number     Number       Type             X           Y           Z
 ---------------------------------------------------------------------
      1          6           0        0.839053   -0.200820    0.258128
      2          1           0        0.069647    1.008727   -1.275916
      3          9           0       -0.276774   -1.027953    1.419919
      4          9           0        2.081853    0.741532   -0.632731
      5          6           0       -0.286060    0.645218   -0.309977
      6          1           0        1.352767    0.129831    1.145867
      7          7           0        1.154245   -1.417038   -0.428359
      8          1           0        0.969706   -2.163829    0.225759
      9          1           0        2.133563   -1.363279   -0.667794
     10          6           0       -0.577566    1.825717    0.611860
     11          1           0       -0.882446    1.438905    1.584485
     12          1           0        0.341341    2.406472    0.715346
     13          1           0       -1.365681    2.469979    0.211651
     14          6           0       -1.508026   -0.126995   -0.562492
     15          7           0       -2.535532   -0.612639   -0.858669
 ---------------------------------------------------------------------

 SCF Done:  E(RHF) =  -465.308843777     A.U. after    2 cycles

 The electronic state is 1-A.
 Alpha  occ. eigenvalues --  -28.95775 -28.94964 -15.60008 -15.58441 -11.40482
 Alpha  occ. eigenvalues --  -11.32183 -11.28395 -11.24352  -1.24297  -1.14942
 Alpha  occ. eigenvalues --   -1.05185  -0.85050  -0.76881  -0.62667  -0.53627
 Alpha  occ. eigenvalues --   -0.51636  -0.49285  -0.42664  -0.39502  -0.37200
 Alpha  occ. eigenvalues --   -0.36567  -0.33228  -0.32685  -0.27200  -0.26291
 Alpha  occ. eigenvalues --   -0.22723  -0.12007  -0.03769  -0.03232  -0.01985
 Alpha  occ. eigenvalues --   -0.01789   0.05426
 Alpha virt. eigenvalues --    0.13784   0.15023   0.15488   0.16296   0.16440
 Alpha virt. eigenvalues --    0.16630   0.17687   0.20735   0.22952   0.24273
 Alpha virt. eigenvalues --    0.25310   0.25979   0.26670   0.27431   0.28000

 Mulliken charges:
               1
     1  C    1.445913
     2  H    1.671277
     3  F   -0.493926
     4  F   -0.583411
     5  C   -2.327507
     6  H    1.829065
     7  N   -3.576655
     8  H    0.493163
     9  H    0.482730
    10  C   -3.895290
    11  H    1.250920
    12  H    1.189083
    13  H    1.214134
    14  C    3.228526
    15  N   -2.928021
 Sum of Mulliken charges =  -1.00000

 Dipole moment (field-independent basis, Debye):
    X=              1.3433    Y=              1.4054    Z=              1.2972  Tot=              2.3372

 Test job not archived.
 1\1\GINC-SE072\SP\RHF\Aug-CC-pVDZ\C4H7F2N2(1-)\OHZDE\09-Apr-2025\0\\#t
  hf aug-cc-pvdz iop(5/13=1,5/36=2,99/5=2) pseudo=read geom=check guess
 =(read,tcheck) scf=(maxcycle=1)\\title\\-1,1\C,0,0.54737474,-0.0598277
 3,-0.03817972\H,0,1.61054903,1.72853436,-0.3205\F,0,-1.24748078,-0.105
 87338,-0.27344664\F,0,2.26414395,-0.13099128,0.48512437\C,0,0.57544746
 ,1.45644596,-0.10547034\H,0,0.3338158,-0.54350667,0.90084082\N,0,0.804
 65323,-0.77375642,-1.25222724\H,0,-0.03758106,-1.29205327,-1.45626665\
 H,0,1.58407361,-1.38673391,-1.06237317\C,0,0.15077632,2.05331591,1.233

 Normal termination of Gaussian 16 at Wed Apr  9 02:56:15 2025.
