 Gaussian 16, Revision C.01,

 ----------------------------------------------------------------------
 #t hf aug-cc-pvdz symm=none int=(grid=ultrafine) guess=(read,tcheck) s
 table=(opt,rrhf)
 ----------------------------------------------------------------------
 -----
 title
 -----
 Symbolic Z-matrix:
 Charge = -1 Multiplicity = 1

 SCF Done:  E(RHF) =  -860.129067339     A.U. after   16 cycles
 Normal termination of Gaussian 16 at Wed Apr  9 02:53:27 2025.
 Gaussian 16:  ES64L-G16RevC.01  3-Jul-2019

 ----------------------------------------------------------------------
 #t hf aug-cc-pvdz iop(5/13=1,5/36=2,99/5=2) pseudo=read geom=check gue
 ss=(read,tcheck) scf=(maxcycle=1)
 ----------------------------------------------------------------------
 -----
 title
 -----
 Structure from the checkpoint file:  "E2SN2_324_mol1.chk"
 Charge = -1 Multiplicity = 1

                         Standard orientation:
 ---------------------------------------------------------------------
 Center     Atomic      Atomic             Coordinates (Angstroms)
 Number     Number       Type             X           Y           Z
 ---------------------------------------------------------------------
      1          6           0       -0.847372    0.363616   -0.322262
      2          1           0        0.265451    1.499951    1.000548
      3         17           0       -0.298916   -1.592372   -1.181437
      4          9           0       -1.227261    2.243146    0.044853
      5          6           0        0.447026    0.564171    0.458552
      6          1           0       -0.896937    0.757354   -1.317082
      7          6           0       -2.070008   -0.087983    0.427766
      8          1           0       -1.877372   -1.006783    0.982304
      9          1           0       -2.373849    0.715667    1.094801
     10          1           0       -2.871121   -0.287983   -0.284243
     11          6           0        1.605782    0.783585   -0.407377
     12          7           0        2.551869    1.027061   -1.058127
     13          6           0        0.730685   -0.492624    1.434271
     14          7           0        0.974424   -1.252889    2.295089
 ---------------------------------------------------------------------

 SCF Done:  E(RHF) =  -862.118390992     A.U. after    2 cycles

 The electronic state is 1-A.
 Alpha  occ. eigenvalues --  -99.67679 -28.95748 -15.65886 -15.65620 -11.43971
 Alpha  occ. eigenvalues --  -11.38632 -11.35110 -11.32916 -11.26940 -10.24751
 Alpha  occ. eigenvalues --   -9.44800  -9.44351  -9.44261  -1.26161  -1.17500
 Alpha  occ. eigenvalues --   -1.13510  -1.04175  -0.97747  -0.78480  -0.66579
 Alpha  occ. eigenvalues --   -0.61987  -0.55238  -0.49168  -0.45630  -0.43377
 Alpha  occ. eigenvalues --   -0.40963  -0.40086  -0.37155  -0.34516  -0.33555
 Alpha  occ. eigenvalues --   -0.31967  -0.31689  -0.31093  -0.30424  -0.28829
 Alpha  occ. eigenvalues --   -0.05557  -0.03594  -0.03263
 Alpha virt. eigenvalues --    0.13967   0.15296   0.15437   0.16139   0.16848
 Alpha virt. eigenvalues --    0.19172   0.19998   0.20796   0.22305   0.22782
 Alpha virt. eigenvalues --    0.23262   0.24574   0.24977   0.25381   0.25843

 Mulliken charges:
               1
     1  C    1.217117
     2  H    1.270982
     3  Cl  -0.716903
     4  F   -0.553999
     5  C   -1.387972
     6  H    1.431344
     7  C   -4.476350
     8  H    1.280456
     9  H    1.083559
    10  H    1.087964
    11  C    2.090407
    12  N   -2.658145
    13  C    2.000204
    14  N   -2.668665
 Sum of Mulliken charges =  -1.00000

 Dipole moment (field-independent basis, Debye):
    X=             -2.4008    Y=              3.8643    Z=              2.0433  Tot=              4.9872

 Test job not archived.
 1\1\GINC-SE036\SP\RHF\Aug-CC-pVDZ\C5H5Cl1F1N2(1-)\OHZDE\09-Apr-2025\0\
 \#t hf aug-cc-pvdz iop(5/13=1,5/36=2,99/5=2) pseudo=read geom=check gu
 ess=(read,tcheck) scf=(maxcycle=1)\\title\\-1,1\C,0,0.60836558,-0.0686
 1669,-0.04578505\H,0,1.60452949,1.73024688,-0.27206893\Cl,0,-1.5662015
 7,-0.3648292,0.17419448\F,0,2.53836454,0.11393952,0.18551484\C,0,0.558
 72009,1.45482039,-0.09086328\H,0,0.74219586,-0.53617814,0.90848416\C,0
 ,0.77763606,-0.81525487,-1.34008057\H,0,0.01043343,-0.53468753,-2.0622
 2879\H,0,1.77311154,-0.60467414,-1.72452006\H,0,0.68342277,-1.88461334

 Normal termination of Gaussian 16 at Wed Apr  9 02:53:34 2025.
