 Gaussian 16, Revision C.01,

 ----------------------------------------------------------------------
 #t hf aug-cc-pvdz symm=none int=(grid=ultrafine) guess=(read,tcheck) s
 table=(opt,rrhf)
 ----------------------------------------------------------------------
 -----
 title
 -----
 Symbolic Z-matrix:
 Charge = -1 Multiplicity = 1

 SCF Done:  E(RHF) =  -1275.27016293     A.U. after   16 cycles
 Normal termination of Gaussian 16 at Wed Apr  9 02:50:02 2025.
 Gaussian 16:  ES64L-G16RevC.01  3-Jul-2019

 ----------------------------------------------------------------------
 #t hf aug-cc-pvdz iop(5/13=1,5/36=2,99/5=2) pseudo=read geom=check gue
 ss=(read,tcheck) scf=(maxcycle=1)
 ----------------------------------------------------------------------
 -----
 title
 -----
 Structure from the checkpoint file:  "E2SN2_275_mol2.chk"
 Charge = -1 Multiplicity = 1

                         Standard orientation:
 ---------------------------------------------------------------------
 Center     Atomic      Atomic             Coordinates (Angstroms)
 Number     Number       Type             X           Y           Z
 ---------------------------------------------------------------------
      1          6           0        0.735017   -0.277801    0.087472
      2          6           0       -0.142516    1.006146   -0.020941
      3         17           0        2.236252   -0.097333   -0.930232
      4          1           0       -0.985402    0.808042    0.653430
      5          6           0        1.184255   -0.504461    1.461990
      6          7           0        1.543054   -0.646535    2.572081
      7          6           0        0.051306   -1.469380   -0.416779
      8          7           0       -0.424361   -2.434865   -0.888095
      9          7           0       -0.719764    1.187595   -1.327473
     10          1           0       -1.607068    0.686403   -1.344841
     11          1           0       -0.107646    0.880930   -2.072990
     12          6           0        0.628361    2.238113    0.433945
     13          1           0       -0.088071    3.058142    0.494021
     14          1           0        1.395471    2.512893   -0.293355
     15          1           0        1.095704    2.106744    1.413878
     16         17           0       -3.250018   -0.064562    0.305535
 ---------------------------------------------------------------------

 SCF Done:  E(RHF) =  -1277.41637676     A.U. after    2 cycles

 The electronic state is 1-A.
 Alpha  occ. eigenvalues --  -99.82366 -99.60760 -15.69678 -15.68076 -15.61418
 Alpha  occ. eigenvalues --  -11.48261 -11.38221 -11.36541 -11.34378 -11.28080
 Alpha  occ. eigenvalues --  -10.39703 -10.17425  -9.59681  -9.59006  -9.58949
 Alpha  occ. eigenvalues --   -9.37455  -9.37104  -9.37010  -1.35663  -1.22421
 Alpha  occ. eigenvalues --   -1.21165  -1.19499  -1.04655  -0.97448  -0.96486
 Alpha  occ. eigenvalues --   -0.77661  -0.72100  -0.64847  -0.57351  -0.54673
 Alpha  occ. eigenvalues --   -0.49671  -0.47331  -0.45933  -0.44455  -0.43439
 Alpha  occ. eigenvalues --   -0.41053  -0.39321  -0.38355  -0.36307  -0.36087
 Alpha  occ. eigenvalues --   -0.33977  -0.33039  -0.25360  -0.24494  -0.24363
 Alpha  occ. eigenvalues --   -0.23622
 Alpha virt. eigenvalues --    0.11992   0.13020   0.14346   0.14589   0.14833
 Alpha virt. eigenvalues --    0.15912   0.17658   0.19349   0.19448   0.20688
 Alpha virt. eigenvalues --    0.20923   0.21896   0.22602   0.22928   0.23294

 Mulliken charges:
               1
     1  C    0.738030
     2  C    1.053924
     3  Cl   0.037477
     4  H    1.799830
     5  C    1.743868
     6  N   -2.492107
     7  C    2.690112
     8  N   -2.642462
     9  N   -2.929221
    10  H    0.402247
    11  H    0.593507
    12  C   -4.724332
    13  H    1.179864
    14  H    1.238072
    15  H    1.269923
    16  Cl  -0.958730
 Sum of Mulliken charges =  -1.00000

 Dipole moment (field-independent basis, Debye):
    X=             10.4835    Y=              2.3629    Z=             -2.0546  Tot=             10.9412

 Test job not archived.
 1\1\GINC-SE023\SP\RHF\Aug-CC-pVDZ\C5H6Cl2N3(1-)\OHZDE\09-Apr-2025\0\\#
 t hf aug-cc-pvdz iop(5/13=1,5/36=2,99/5=2) pseudo=read geom=check gues
 s=(read,tcheck) scf=(maxcycle=1)\\title\\-1,1\C,0,0.120642,0.083448,0.
 040631\C,0,-0.522895,0.252019,-1.369256\Cl,0,1.931632,-0.055721,-0.110
 841\H,0,-1.593903,0.366981,-1.159013\C,0,-0.141536,1.245632,0.890974\N
 ,0,-0.354295,2.201727,1.540465\C,0,-0.318886,-1.138137,0.71601\N,0,-0.
 576598,-2.147243,1.259928\N,0,-0.408167,-0.927101,-2.187595\H,0,-1.212
 802,-1.520136,-1.988411\H,0,0.461764,-1.423366,-2.04107\C,0,0.019066,1

 Normal termination of Gaussian 16 at Wed Apr  9 02:50:11 2025.
