 Gaussian 16, Revision C.01,

 ----------------------------------------------------------------------
 #t hf aug-cc-pvdz symm=none int=(grid=ultrafine) guess=(read,tcheck) s
 table=(opt,rrhf)
 ----------------------------------------------------------------------
 -----
 title
 -----
 Symbolic Z-matrix:
 Charge = -1 Multiplicity = 1

 SCF Done:  E(RHF) =  -860.116469068     A.U. after   16 cycles
 Normal termination of Gaussian 16 at Wed Apr  9 03:01:28 2025.
 Gaussian 16:  ES64L-G16RevC.01  3-Jul-2019

 ----------------------------------------------------------------------
 #t hf aug-cc-pvdz iop(5/13=1,5/36=2,99/5=2) pseudo=read geom=check gue
 ss=(read,tcheck) scf=(maxcycle=1)
 ----------------------------------------------------------------------
 -----
 title
 -----
 Structure from the checkpoint file:  "E2SN2_66_mol2.chk"
 Charge = -1 Multiplicity = 1

                         Standard orientation:
 ---------------------------------------------------------------------
 Center     Atomic      Atomic             Coordinates (Angstroms)
 Number     Number       Type             X           Y           Z
 ---------------------------------------------------------------------
      1          6           0       -0.170506    0.097433   -0.054463
      2          6           0        0.648440   -0.100197   -1.338118
      3         17           0       -0.162986    1.924945    0.310090
      4          1           0        0.362920   -1.098313   -1.686725
      5          1           0        0.331286    0.666486   -2.052331
      6          6           0       -1.574667   -0.250765   -0.266215
      7          7           0       -2.724645   -0.334221   -0.495539
      8          6           0        0.401076   -0.561416    1.123425
      9          7           0        0.961099   -0.687812    2.154220
     10          6           0        2.145583   -0.042187   -1.083093
     11          1           0        2.438239    0.881264   -0.577180
     12          1           0        2.437068   -0.889559   -0.460983
     13          1           0        2.691474   -0.103334   -2.029363
     14          9           0       -0.204995   -2.209287   -0.040549
 ---------------------------------------------------------------------

 SCF Done:  E(RHF) =  -862.114406690     A.U. after    2 cycles

 The electronic state is 1-A.
 Alpha  occ. eigenvalues --  -99.77229 -28.91740 -15.63107 -15.60499 -11.43187
 Alpha  occ. eigenvalues --  -11.32979 -11.31802 -11.30384 -11.25282 -10.34485
 Alpha  occ. eigenvalues --   -9.54451  -9.53795  -9.53773  -1.28617  -1.15201
 Alpha  occ. eigenvalues --   -1.13922  -1.07417  -0.94763  -0.78245  -0.67213
 Alpha  occ. eigenvalues --   -0.60347  -0.52453  -0.49044  -0.43642  -0.42225
 Alpha  occ. eigenvalues --   -0.40916  -0.39245  -0.37558  -0.37299  -0.35605
 Alpha  occ. eigenvalues --   -0.34681  -0.31129  -0.29433  -0.28168  -0.23744
 Alpha  occ. eigenvalues --   -0.01242  -0.00166   0.00548
 Alpha virt. eigenvalues --    0.12481   0.14510   0.14722   0.16304   0.16688
 Alpha virt. eigenvalues --    0.18322   0.19986   0.20887   0.23055   0.23453
 Alpha virt. eigenvalues --    0.23705   0.24368   0.24450   0.25273   0.25677

 Mulliken charges:
               1
     1  C   -0.565645
     2  C   -2.627837
     3  Cl  -0.175496
     4  H    1.199492
     5  H    1.348231
     6  C    2.937584
     7  N   -3.064339
     8  C    4.047044
     9  N   -3.264553
    10  C   -3.918967
    11  H    1.286150
    12  H    1.376618
    13  H    1.055395
    14  F   -0.633677
 Sum of Mulliken charges =  -1.00000

 Dipole moment (field-independent basis, Debye):
    X=              2.4716    Y=             -0.6007    Z=             -4.3345  Tot=              5.0257

 Test job not archived.
 1\1\GINC-SE114\SP\RHF\Aug-CC-pVDZ\C5H5Cl1F1N2(1-)\OHZDE\09-Apr-2025\0\
 \#t hf aug-cc-pvdz iop(5/13=1,5/36=2,99/5=2) pseudo=read geom=check gu
 ess=(read,tcheck) scf=(maxcycle=1)\\title\\-1,1\C,0,-0.096948,-0.00898
 7,-1.416425\C,0,-0.082573,0.08645,0.115954\Cl,0,-1.881154,0.098734,-1.
 943453\H,0,0.95557,0.336589,0.358797\H,0,-0.755734,0.901215,0.401438\C
 ,0,0.557927,1.149098,-2.022828\N,0,0.897907,2.167726,-2.501173\C,0,0.4
 12196,-1.280465,-1.938274\N,0,0.405629,-2.357963,-2.418997\C,0,-0.4756
 58,-1.222796,0.780184\H,0,-1.443283,-1.586385,0.425415\H,0,0.282272,-1

 Normal termination of Gaussian 16 at Wed Apr  9 03:01:34 2025.
