 Gaussian 16, Revision C.01,

 ----------------------------------------------------------------------
 #t hf aug-cc-pvdz symm=none int=(grid=ultrafine) guess=(read,tcheck) s
 table=(opt,rrhf)
 ----------------------------------------------------------------------
 -----
 title
 -----
 Symbolic Z-matrix:
 Charge = -1 Multiplicity = 1

 SCF Done:  E(RHF) =  -836.239304196     A.U. after   17 cycles
 Normal termination of Gaussian 16 at Wed Apr  9 02:40:09 2025.
 Gaussian 16:  ES64L-G16RevC.01  3-Jul-2019

 ----------------------------------------------------------------------
 #t hf aug-cc-pvdz iop(5/13=1,5/36=2,99/5=2) pseudo=read geom=check gue
 ss=(read,tcheck) scf=(maxcycle=1)
 ----------------------------------------------------------------------
 -----
 title
 -----
 Structure from the checkpoint file:  "E2SN2_188_mol1.chk"
 Charge = -1 Multiplicity = 1

                         Standard orientation:
 ---------------------------------------------------------------------
 Center     Atomic      Atomic             Coordinates (Angstroms)
 Number     Number       Type             X           Y           Z
 ---------------------------------------------------------------------
      1          6           0       -1.011365    0.270037    0.717102
      2          1           0        0.815714    0.754449    1.678969
      3         17           0       -1.368767   -1.020297   -0.857775
      4          1           0       -1.049340    1.201271    2.688300
      5          6           0        0.472810    0.021176    0.953909
      6          1           0       -1.611438   -0.231858    1.452413
      7          6           0       -1.498198    1.589675    0.153967
      8          1           0       -1.012281    2.427395    0.640699
      9          1           0       -1.313931    1.638772   -0.919982
     10          1           0       -2.571973    1.660990    0.335138
     11          7           0        1.289052    0.378225   -0.311709
     12          8           0        1.998858   -0.490555   -0.818228
     13          8           0        1.255000    1.549583   -0.686707
     14          7           0        0.725021   -1.301574    1.394549
     15          1           0        1.717285   -1.447324    1.518567
     16          1           0        0.386139   -1.952761    0.697802
 ---------------------------------------------------------------------

 SCF Done:  E(RHF) =  -838.234194008     A.U. after    2 cycles

 The electronic state is 1-A.
 Alpha  occ. eigenvalues --  -99.70949 -20.97065 -20.96685 -15.85409 -15.62898
 Alpha  occ. eigenvalues --  -11.39137 -11.33373 -11.24929 -10.28038  -9.48085
 Alpha  occ. eigenvalues --   -9.47657  -9.47506  -1.85862  -1.56104  -1.27846
 Alpha  occ. eigenvalues --   -1.12604  -1.01777  -0.95103  -0.79979  -0.68577
 Alpha  occ. eigenvalues --   -0.60540  -0.56777  -0.53146  -0.51422  -0.47847
 Alpha  occ. eigenvalues --   -0.46405  -0.42057  -0.39851  -0.37729  -0.34991
 Alpha  occ. eigenvalues --   -0.33524  -0.32967  -0.29423  -0.21733  -0.19106
 Alpha  occ. eigenvalues --   -0.17760  -0.11630
 Alpha virt. eigenvalues --    0.13634   0.14824   0.15338   0.16221   0.16255
 Alpha virt. eigenvalues --    0.16977   0.17726   0.19584   0.21631   0.23027
 Alpha virt. eigenvalues --    0.23310   0.25045   0.25476   0.26197   0.26502

 Mulliken charges:
               1
     1  C   -0.632289
     2  H    1.947565
     3  Cl  -0.559309
     4  H   -0.942072
     5  C    0.700848
     6  H    1.636531
     7  C   -3.713752
     8  H    1.478222
     9  H    1.195122
    10  H    1.069407
    11  N    4.624193
    12  O   -2.780426
    13  O   -3.044247
    14  N   -3.078615
    15  H    0.575943
    16  H    0.522878
 Sum of Mulliken charges =  -1.00000

 Dipole moment (field-independent basis, Debye):
    X=              3.9402    Y=             -1.9664    Z=             -4.9717  Tot=              6.6415

 Test job not archived.
 1\1\GINC-SE073\SP\RHF\Aug-CC-pVDZ\C3H8Cl1N2O2(1-)\OHZDE\09-Apr-2025\0\
 \#t hf aug-cc-pvdz iop(5/13=1,5/36=2,99/5=2) pseudo=read geom=check gu
 ess=(read,tcheck) scf=(maxcycle=1)\\title\\-1,1\C,0,0.35915658,-0.0360
 1852,0.07273541\H,0,1.74218895,1.56397554,0.23179776\Cl,0,-1.7053914,0
 .01205809,-0.01817614\H,0,2.45282528,-0.37167279,-0.43534954\C,0,0.677
 02321,1.45363739,0.0467805\H,0,0.53419799,-0.48719519,-0.88563259\C,0,
 0.5958791,-0.85978251,1.32211418\H,0,1.56065922,-0.63641869,1.76268905
 \H,0,-0.18881226,-0.67487789,2.0568251\H,0,0.58055319,-1.91433486,1.04

 Normal termination of Gaussian 16 at Wed Apr  9 02:40:16 2025.
