 Gaussian 16, Revision C.01,

 ----------------------------------------------------------------------
 #t hf aug-cc-pvdz symm=none int=(grid=ultrafine) guess=(read,tcheck) s
 table=(opt,rrhf)
 ----------------------------------------------------------------------
 -----
 title
 -----
 Symbolic Z-matrix:
 Charge = -1 Multiplicity = 1

 SCF Done:  E(RHF) =  -528.900424407     A.U. after   16 cycles
 Normal termination of Gaussian 16 at Wed Apr  9 02:35:58 2025.
 Gaussian 16:  ES64L-G16RevC.01  3-Jul-2019

 ----------------------------------------------------------------------
 #t hf aug-cc-pvdz iop(5/13=1,5/36=2,99/5=2) pseudo=read geom=check gue
 ss=(read,tcheck) scf=(maxcycle=1)
 ----------------------------------------------------------------------
 -----
 title
 -----
 Structure from the checkpoint file:  "E2SN2_135_mol1.chk"
 Charge = -1 Multiplicity = 1

                         Standard orientation:
 ---------------------------------------------------------------------
 Center     Atomic      Atomic             Coordinates (Angstroms)
 Number     Number       Type             X           Y           Z
 ---------------------------------------------------------------------
      1          6           0       -0.095954    0.128604    0.302447
      2          6           0        0.806334   -0.295468   -0.827112
      3          9           0        0.057759   -0.651809    1.434239
      4          1           0        0.334829    1.853356   -2.114212
      5          1           0        0.615371    0.633124   -1.622218
      6          1           0        0.538277   -1.272316   -1.232325
      7          7           0       -0.019817    1.491849    0.668842
      8          1           0       -0.020768    2.013362   -0.224011
      9          1           0        0.893176    1.627765    1.092000
     10          6           0        2.188427   -0.243397   -0.430089
     11          7           0        3.324549   -0.162974   -0.129554
     12          7           0       -1.529865   -0.166131   -0.171956
     13          8           0       -1.808078   -1.357188   -0.303661
     14          8           0       -2.279125    0.773858   -0.402613
 ---------------------------------------------------------------------

 SCF Done:  E(RHF) =  -531.164782256     A.U. after    2 cycles

 The electronic state is 1-A.
 Alpha  occ. eigenvalues --  -29.16781 -20.98749 -20.97687 -15.86902 -15.63605
 Alpha  occ. eigenvalues --  -15.62409 -11.45333 -11.33417 -11.28219  -1.87430
 Alpha  occ. eigenvalues --   -1.57677  -1.32830  -1.17675  -1.05941  -0.95108
 Alpha  occ. eigenvalues --   -0.80264  -0.65478  -0.60187  -0.58674  -0.52049
 Alpha  occ. eigenvalues --   -0.51365  -0.48574  -0.47019  -0.45814  -0.39076
 Alpha  occ. eigenvalues --   -0.32611  -0.31257  -0.29123  -0.26842  -0.25294
 Alpha  occ. eigenvalues --   -0.20927  -0.19794  -0.16205  -0.14890  -0.11023
 Alpha virt. eigenvalues --    0.14485   0.15630   0.17912   0.19018   0.19358
 Alpha virt. eigenvalues --    0.20427   0.20720   0.22750   0.23167   0.23408
 Alpha virt. eigenvalues --    0.24464   0.25674   0.26234   0.27113   0.27565

 Mulliken charges:
               1
     1  C    4.158431
     2  C   -3.262987
     3  F    0.461423
     4  H   -0.639779
     5  H    1.498629
     6  H    1.495395
     7  N   -3.380928
     8  H    0.655751
     9  H    0.524779
    10  C    2.259071
    11  N   -2.617411
    12  N    3.423662
    13  O   -2.919030
    14  O   -2.657006
 Sum of Mulliken charges =  -1.00000

 Dipole moment (field-independent basis, Debye):
    X=             -2.3961    Y=             -5.6254    Z=              7.1305  Tot=              9.3931

 Test job not archived.
 1\1\GINC-SE252\SP\RHF\Aug-CC-pVDZ\C3H5F1N3O2(1-)\OHZDE\09-Apr-2025\0\\
 #t hf aug-cc-pvdz iop(5/13=1,5/36=2,99/5=2) pseudo=read geom=check gue
 ss=(read,tcheck) scf=(maxcycle=1)\\title\\-1,1\C,0,-0.15038337,-0.0590
 8056,-0.34182758\C,0,-0.10635053,0.03788421,1.16101052\F,0,1.10636187,
 -0.16638696,-0.90989594\H,0,-2.6130076,-0.38763181,1.33987485\H,0,-1.3
 1186036,-0.05630809,1.42334254\H,0,0.33868057,0.97198233,1.50697571\N,
 0,-0.9814777,-1.07531196,-0.86626625\H,0,-1.85809518,-1.01741827,-0.32
 09647\H,0,-0.54199879,-1.95978082,-0.63033002\C,0,0.54831286,-1.108987

 Normal termination of Gaussian 16 at Wed Apr  9 02:36:04 2025.
