 Gaussian 16, Revision C.01,

 ----------------------------------------------------------------------
 #t hf aug-cc-pvdz symm=none int=(grid=ultrafine) guess=(read,tcheck) s
 table=(opt,rrhf)
 ----------------------------------------------------------------------
 -----
 title
 -----
 Symbolic Z-matrix:
 Charge = -1 Multiplicity = 1

 SCF Done:  E(RHF) =  -1350.36725545     A.U. after   15 cycles
 Normal termination of Gaussian 16 at Wed Apr  9 03:01:16 2025.
 Gaussian 16:  ES64L-G16RevC.01  3-Jul-2019

 ----------------------------------------------------------------------
 #t hf aug-cc-pvdz iop(5/13=1,5/36=2,99/5=2) pseudo=read geom=check gue
 ss=(read,tcheck) scf=(maxcycle=1)
 ----------------------------------------------------------------------
 -----
 title
 -----
 Structure from the checkpoint file:  "E2SN2_44_mol2.chk"
 Charge = -1 Multiplicity = 1

                         Standard orientation:
 ---------------------------------------------------------------------
 Center     Atomic      Atomic             Coordinates (Angstroms)
 Number     Number       Type             X           Y           Z
 ---------------------------------------------------------------------
      1          6           0       -0.399367   -0.275663   -0.089732
      2          6           0        0.192505    1.021380    0.466403
      3         17           0       -0.737096   -1.418864    1.325048
      4          1           0        1.133644    0.677410    0.911448
      5          7           0       -1.804068   -0.101891   -0.693832
      6          8           0       -2.255360   -1.060282   -1.308848
      7          8           0       -2.376527    0.977599   -0.557066
      8          7           0        0.398669   -0.814821   -1.085040
      9          1           0        0.130334   -1.757711   -1.328654
     10          1           0        1.403121   -0.741898   -0.862009
     11          7           0       -0.628328    1.591056    1.528152
     12          1           0       -1.329564    2.195854    1.121201
     13          1           0       -0.030150    2.148340    2.124018
     14          6           0        0.557857    1.999169   -0.652248
     15          1           0        1.023851    2.876885   -0.194945
     16          1           0        1.279023    1.559641   -1.338921
     17          1           0       -0.331587    2.322363   -1.198900
     18         17           0        3.437482   -0.334615   -0.201367
 ---------------------------------------------------------------------

 SCF Done:  E(RHF) =  -1352.83285163     A.U. after    2 cycles

 The electronic state is 1-A.
 Alpha  occ. eigenvalues --  -99.76566 -99.61841 -20.99380 -20.99149 -15.88383
 Alpha  occ. eigenvalues --  -15.62646 -15.62359 -11.44314 -11.33764 -11.25810
 Alpha  occ. eigenvalues --  -10.33923 -10.18537  -9.54020  -9.53198  -9.53154
 Alpha  occ. eigenvalues --   -9.38592  -9.38236  -9.38106  -1.88844  -1.58930
 Alpha  occ. eigenvalues --   -1.34021  -1.21905  -1.16096  -1.00081  -0.97791
 Alpha  occ. eigenvalues --   -0.96487  -0.82242  -0.68433  -0.60968  -0.60689
 Alpha  occ. eigenvalues --   -0.59019  -0.53748  -0.52206  -0.48761  -0.46581
 Alpha  occ. eigenvalues --   -0.46410  -0.43466  -0.40434  -0.39865  -0.37636
 Alpha  occ. eigenvalues --   -0.34464  -0.28311  -0.26439  -0.25724  -0.25629
 Alpha  occ. eigenvalues --   -0.24886  -0.22821  -0.21248  -0.20843
 Alpha virt. eigenvalues --    0.12494   0.14053   0.14332   0.14928   0.15454
 Alpha virt. eigenvalues --    0.16984   0.17269   0.18663   0.20124   0.20483
 Alpha virt. eigenvalues --    0.21989   0.23333   0.24166   0.24985   0.25473

 Mulliken charges:
               1
     1  C    3.151414
     2  C    2.247570
     3  Cl  -0.111827
     4  H    1.705668
     5  N    4.245786
     6  O   -3.036741
     7  O   -2.901139
     8  N   -3.571805
     9  H    0.667166
    10  H    0.554139
    11  N   -3.659810
    12  H    0.640165
    13  H    0.461709
    14  C   -4.069723
    15  H    1.115757
    16  H    1.282431
    17  H    1.271777
    18  Cl  -0.992535
 Sum of Mulliken charges =  -1.00000

 Dipole moment (field-independent basis, Debye):
    X=             -9.2187    Y=              2.9935    Z=             -0.2560  Tot=              9.6960

 Test job not archived.
 1\1\GINC-SE092\SP\RHF\Aug-CC-pVDZ\C3H8Cl2N3O2(1-)\OHZDE\09-Apr-2025\0\
 \#t hf aug-cc-pvdz iop(5/13=1,5/36=2,99/5=2) pseudo=read geom=check gu
 ess=(read,tcheck) scf=(maxcycle=1)\\title\\-1,1\C,0,-0.252231,-0.07976
 ,-1.472777\C,0,-0.022239,-0.116076,0.039739\Cl,0,0.020995,-1.780561,-2
 .147461\H,0,1.037712,-0.387793,0.108993\N,0,-1.716793,0.181563,-1.8665
 89\O,0,-1.932348,0.395463,-3.053267\O,0,-2.572914,0.192133,-0.984174\N
 ,0,0.506095,0.907104,-2.080421\H,0,0.515896,0.823592,-3.087061\H,0,1.4
 57376,0.966427,-1.686049\N,0,-0.800964,-1.162694,0.69073\H,0,-1.713447

 Normal termination of Gaussian 16 at Wed Apr  9 03:01:27 2025.
