 Gaussian 16, Revision C.01,

 ----------------------------------------------------------------------
 #t hf aug-cc-pvdz symm=none int=(grid=ultrafine) guess=(read,tcheck) s
 table=(opt,rrhf)
 ----------------------------------------------------------------------
 -----
 title
 -----
 Symbolic Z-matrix:
 Charge = -1 Multiplicity = 1

 SCF Done:  E(RHF) =  -583.953147645     A.U. after   17 cycles
 Normal termination of Gaussian 16 at Wed Apr  9 02:46:29 2025.
 Gaussian 16:  ES64L-G16RevC.01  3-Jul-2019

 ----------------------------------------------------------------------
 #t hf aug-cc-pvdz iop(5/13=1,5/36=2,99/5=2) pseudo=read geom=check gue
 ss=(read,tcheck) scf=(maxcycle=1)
 ----------------------------------------------------------------------
 -----
 title
 -----
 Structure from the checkpoint file:  "E2SN2_247_mol2.chk"
 Charge = -1 Multiplicity = 1

                         Standard orientation:
 ---------------------------------------------------------------------
 Center     Atomic      Atomic             Coordinates (Angstroms)
 Number     Number       Type             X           Y           Z
 ---------------------------------------------------------------------
      1          6           0        0.322088    0.516126    0.205138
      2          6           0       -1.042167    0.261872   -0.446033
      3          9           0        0.239267    0.230137    1.574620
      4          1           0       -0.871335    0.246959   -1.528117
      5          7           0        1.349615   -0.553808   -0.257398
      6          8           0        1.039621   -1.322225   -1.165714
      7          8           0        2.449633   -0.511907    0.290208
      8          7           0        0.759297    1.791216   -0.036391
      9          1           0        1.754407    1.901556    0.104669
     10          1           0        0.369533    2.196215   -0.962935
     11          7           0       -2.001064    1.321901   -0.191389
     12          1           0       -1.858317    1.670790    0.750132
     13          1           0       -1.727355    2.064545   -0.848851
     14          6           0       -1.578709   -1.038257   -0.016635
     15          7           0       -2.040404   -2.055909    0.343037
     16          1           0       -0.413754    2.559509   -2.142266
 ---------------------------------------------------------------------

 SCF Done:  E(RHF) =  -586.462457509     A.U. after    2 cycles

 The electronic state is 1-A.
 Alpha  occ. eigenvalues --  -29.16527 -20.99656 -20.98989 -15.87775 -15.64859
 Alpha  occ. eigenvalues --  -15.61793 -15.61450 -11.47713 -11.37175 -11.31844
 Alpha  occ. eigenvalues --   -1.88345  -1.58734  -1.35331  -1.22548  -1.16373
 Alpha  occ. eigenvalues --   -1.04586  -0.90724  -0.80802  -0.68352  -0.63335
 Alpha  occ. eigenvalues --   -0.58918  -0.58539  -0.50907  -0.50040  -0.49246
 Alpha  occ. eigenvalues --   -0.46573  -0.44111  -0.39361  -0.34602  -0.32731
 Alpha  occ. eigenvalues --   -0.31445  -0.28682  -0.26943  -0.22647  -0.21192
 Alpha  occ. eigenvalues --   -0.19769  -0.16596  -0.15480  -0.13077
 Alpha virt. eigenvalues --    0.14427   0.14926   0.16431   0.17852   0.18863
 Alpha virt. eigenvalues --    0.19786   0.20082   0.20716   0.22020   0.22452
 Alpha virt. eigenvalues --    0.23766   0.24071   0.26173   0.26324   0.26862

 Mulliken charges:
               1
     1  C    4.981541
     2  C   -1.395794
     3  F    0.424403
     4  H    2.126196
     5  N    3.463805
     6  O   -2.647054
     7  O   -2.888235
     8  N   -3.550930
     9  H    0.510456
    10  H    0.617942
    11  N   -2.394586
    12  H    0.542138
    13  H    0.615540
    14  C    2.210266
    15  N   -2.596817
    16  H   -1.018872
 Sum of Mulliken charges =  -1.00000

 Dipole moment (field-independent basis, Debye):
    X=              2.8223    Y=             -3.9874    Z=              7.4395  Tot=              8.9000

 Test job not archived.
 1\1\GINC-SE227\SP\RHF\Aug-CC-pVDZ\C3H6F1N4O2(1-)\OHZDE\09-Apr-2025\0\\
 #t hf aug-cc-pvdz iop(5/13=1,5/36=2,99/5=2) pseudo=read geom=check gue
 ss=(read,tcheck) scf=(maxcycle=1)\\title\\-1,1\C,0,-0.069139,0.047699,
 0.042084\C,0,-0.649474,0.254429,-1.361602\F,0,1.277636,-0.324498,-0.06
 6531\H,0,-1.600828,0.781437,-1.229309\N,0,0.060313,1.40936,0.779397\O,
 0,-0.445434,2.409533,0.273953\O,0,0.619301,1.374701,1.873928\N,0,-0.80
 5396,-0.859228,0.756754\H,0,-0.649158,-0.797659,1.753807\H,0,-1.843139
 ,-0.889918,0.445994\N,0,-0.955856,-0.99195,-2.04032\H,0,-0.251209,-1.6

 Normal termination of Gaussian 16 at Wed Apr  9 02:46:37 2025.
