 Gaussian 16, Revision C.01,

 ----------------------------------------------------------------------
 #t hf aug-cc-pvdz symm=none int=(grid=ultrafine) guess=(read,tcheck) s
 table=(opt,rrhf)
 ----------------------------------------------------------------------
 -----
 title
 -----
 Symbolic Z-matrix:
 Charge = -1 Multiplicity = 1

 SCF Done:  E(RHF) =  -403.486907029     A.U. after   15 cycles
 Normal termination of Gaussian 16 at Wed Apr  9 02:38:12 2025.
 Gaussian 16:  ES64L-G16RevC.01  3-Jul-2019

 ----------------------------------------------------------------------
 #t hf aug-cc-pvdz iop(5/13=1,5/36=2,99/5=2) pseudo=read geom=check gue
 ss=(read,tcheck) scf=(maxcycle=1)
 ----------------------------------------------------------------------
 -----
 title
 -----
 Structure from the checkpoint file:  "E2SN2_155_mol2.chk"
 Charge = -1 Multiplicity = 1

                         Standard orientation:
 ---------------------------------------------------------------------
 Center     Atomic      Atomic             Coordinates (Angstroms)
 Number     Number       Type             X           Y           Z
 ---------------------------------------------------------------------
      1          6           0       -0.759284   -0.268677   -0.103081
      2          6           0        0.447645    0.492925    0.484781
      3          9           0       -0.544054   -0.378735   -1.495954
      4          1           0        0.273353    0.413386    1.564988
      5          7           0       -0.892235   -1.585798    0.442857
      6          1           0       -0.004207   -2.069943    0.333666
      7          1           0       -1.012278   -1.420027    1.464675
      8          6           0       -2.049809    0.483500    0.121994
      9          1           0       -2.051576    1.438290   -0.407276
     10          1           0       -2.164715    0.631106    1.200781
     11          1           0       -2.866801   -0.137099   -0.249346
     12          6           0        0.571507    1.954276    0.047561
     13          1           0       -0.243643    2.539305    0.476121
     14          1           0        0.538553    2.037781   -1.041558
     15          1           0        1.512622    2.383249    0.400958
     16          6           0        1.676234   -0.229399    0.161921
     17          7           0        2.677278   -0.790104   -0.093653
     18          1           0       -0.897887   -0.371876    2.997084
 ---------------------------------------------------------------------

 SCF Done:  E(RHF) =  -405.326211465     A.U. after    2 cycles

 The electronic state is 1-A.
 Alpha  occ. eigenvalues --  -29.11646 -15.63571 -15.58334 -11.39004 -11.34322
 Alpha  occ. eigenvalues --  -11.30930 -11.28147 -11.24569  -1.29871  -1.17471
 Alpha  occ. eigenvalues --   -1.06636  -0.97029  -0.86171  -0.78199  -0.62698
 Alpha  occ. eigenvalues --   -0.56105  -0.52235  -0.49435  -0.45739  -0.43984
 Alpha  occ. eigenvalues --   -0.42449  -0.41758  -0.39831  -0.38598  -0.35499
 Alpha  occ. eigenvalues --   -0.30714  -0.29823  -0.23790  -0.21585  -0.12628
 Alpha  occ. eigenvalues --   -0.12327  -0.10552
 Alpha virt. eigenvalues --    0.13024   0.13645   0.14392   0.14452   0.16114
 Alpha virt. eigenvalues --    0.16724   0.17539   0.18319   0.19782   0.20538
 Alpha virt. eigenvalues --    0.21151   0.22014   0.23147   0.24273   0.25087

 Mulliken charges:
               1
     1  C    5.041298
     2  C   -2.218961
     3  F   -0.053821
     4  H    2.009309
     5  N   -3.866250
     6  H    0.570045
     7  H    0.638307
     8  C   -4.316087
     9  H    1.228908
    10  H    1.198616
    11  H    1.110807
    12  C   -4.186729
    13  H    1.324944
    14  H    1.238515
    15  H    1.160117
    16  C    1.845664
    17  N   -2.604837
    18  H   -1.119844
 Sum of Mulliken charges =  -1.00000

 Dipole moment (field-independent basis, Debye):
    X=              0.9147    Y=              3.2171    Z=            -10.7787  Tot=             11.2857

 Test job not archived.
 1\1\GINC-SE106\SP\RHF\Aug-CC-pVDZ\C5H10F1N2(1-)\OHZDE\09-Apr-2025\0\\#
 t hf aug-cc-pvdz iop(5/13=1,5/36=2,99/5=2) pseudo=read geom=check gues
 s=(read,tcheck) scf=(maxcycle=1)\\title\\-1,1\C,0,-0.283825,0.003249,-
 1.452283\C,0,-0.026023,-0.00191,0.069495\F,0,-1.680995,0.113167,-1.637
 664\H,0,1.068436,0.050935,0.123508\N,0,0.351125,1.105516,-2.109838\H,0
 ,0.072496,1.963678,-1.639907\H,0,1.362812,0.970888,-1.899199\C,0,0.182
 95,-1.281207,-2.095848\H,0,-0.385153,-2.138853,-1.73053\H,0,1.249921,-
 1.393786,-1.877509\H,0,0.040211,-1.185571,-3.173341\C,0,-0.561272,-1.2

 Normal termination of Gaussian 16 at Wed Apr  9 02:38:20 2025.
