 Gaussian 16, Revision C.01,

 ----------------------------------------------------------------------
 #t hf aug-cc-pvdz symm=none int=(grid=ultrafine) guess=(read,tcheck) s
 table=(opt,rrhf)
 ----------------------------------------------------------------------
 -----
 title
 -----
 Symbolic Z-matrix:
 Charge = -1 Multiplicity = 1

 SCF Done:  E(RHF) =  -502.383730201     A.U. after   15 cycles
 Normal termination of Gaussian 16 at Wed Apr  9 02:58:42 2025.
 Gaussian 16:  ES64L-G16RevC.01  3-Jul-2019

 ----------------------------------------------------------------------
 #t hf aug-cc-pvdz iop(5/13=1,5/36=2,99/5=2) pseudo=read geom=check gue
 ss=(read,tcheck) scf=(maxcycle=1)
 ----------------------------------------------------------------------
 -----
 title
 -----
 Structure from the checkpoint file:  "E2SN2_406_mol1.chk"
 Charge = -1 Multiplicity = 1

                         Standard orientation:
 ---------------------------------------------------------------------
 Center     Atomic      Atomic             Coordinates (Angstroms)
 Number     Number       Type             X           Y           Z
 ---------------------------------------------------------------------
      1          6           0        0.686398   -0.231200    0.012264
      2          1           0       -0.355673    0.843256   -1.470118
      3          9           0       -0.281632   -0.805351    1.474949
      4          9           0        1.630822    0.435749   -1.413901
      5          6           0       -0.526759    0.604726   -0.419843
      6          7           0        0.725272   -1.556664   -0.538863
      7          1           0        0.655587   -2.195086    0.241312
      8          1           0        1.605017   -1.643096   -1.027790
      9          6           0        1.777979    0.243174    0.959366
     10          1           0        2.719702    0.306995    0.418737
     11          1           0        1.547330    1.225130    1.373966
     12          1           0        1.847407   -0.457068    1.789704
     13          6           0       -0.691879    1.900155    0.368633
     14          1           0       -0.788681    1.661668    1.427733
     15          1           0        0.178864    2.538380    0.205482
     16          1           0       -1.583245    2.441485    0.038728
     17          6           0       -1.774511   -0.166352   -0.367479
     18          7           0       -2.839041   -0.657374   -0.441827
 ---------------------------------------------------------------------

 SCF Done:  E(RHF) =  -504.550228171     A.U. after    2 cycles

 The electronic state is 1-A.
 Alpha  occ. eigenvalues --  -28.95168 -28.94595 -15.59477 -15.58496 -11.44194
 Alpha  occ. eigenvalues --  -11.32696 -11.28330 -11.25389 -11.22879  -1.25596
 Alpha  occ. eigenvalues --   -1.14760  -1.05261  -0.94793  -0.83735  -0.69260
 Alpha  occ. eigenvalues --   -0.64098  -0.54062  -0.51043  -0.47475  -0.45345
 Alpha  occ. eigenvalues --   -0.42379  -0.40616  -0.39054  -0.37057  -0.34499
 Alpha  occ. eigenvalues --   -0.32731  -0.29270  -0.26570  -0.25999  -0.21776
 Alpha  occ. eigenvalues --   -0.11511  -0.03772  -0.02738  -0.02185   0.00012
 Alpha  occ. eigenvalues --    0.03317
 Alpha virt. eigenvalues --    0.13687   0.14390   0.14901   0.15101   0.15422
 Alpha virt. eigenvalues --    0.16128   0.17070   0.17743   0.18409   0.21097
 Alpha virt. eigenvalues --    0.22521   0.23514   0.24792   0.25567   0.26111

 Mulliken charges:
               1
     1  C    7.006368
     2  H    1.565348
     3  F   -0.478656
     4  F   -0.806691
     5  C   -3.101531
     6  N   -4.241505
     7  H    0.490982
     8  H    0.512022
     9  C   -5.270718
    10  H    1.092888
    11  H    1.222258
    12  H    1.263714
    13  C   -3.950443
    14  H    1.386876
    15  H    1.354707
    16  H    1.133739
    17  C    2.730012
    18  N   -2.909371
 Sum of Mulliken charges =  -1.00000

 Dipole moment (field-independent basis, Debye):
    X=              2.3043    Y=              1.4155    Z=              1.2539  Tot=              2.9809

 Test job not archived.
 1\1\GINC-SE462\SP\RHF\Aug-CC-pVDZ\C5H9F2N2(1-)\OHZDE\09-Apr-2025\0\\#t
  hf aug-cc-pvdz iop(5/13=1,5/36=2,99/5=2) pseudo=read geom=check guess
 =(read,tcheck) scf=(maxcycle=1)\\title\\-1,1\C,0,0.63795709,-0.0786514
 5,0.02130051\H,0,1.61101802,1.76207767,-0.2991559\F,0,-1.19986188,-0.1
 0135798,-0.14629048\F,0,2.4553323,0.00665275,0.26741557\C,0,0.59254015
 ,1.45382204,-0.06056271\N,0,0.80637972,-0.73954766,-1.24240692\H,0,-0.
 0299898,-1.28557614,-1.39554134\H,0,1.6316543,-1.3164962,-1.16163148\C
 ,0,0.50048259,-0.88670414,1.30260173\H,0,1.43503666,-1.40664208,1.5012

 Normal termination of Gaussian 16 at Wed Apr  9 02:58:49 2025.
