 Gaussian 16, Revision C.01,

 ----------------------------------------------------------------------
 #t hf aug-cc-pvdz symm=none int=(grid=ultrafine) guess=(read,tcheck) s
 table=(opt,rrhf)
 ----------------------------------------------------------------------
 -----
 title
 -----
 Symbolic Z-matrix:
 Charge = -1 Multiplicity = 1

 SCF Done:  E(RHF) =  -1238.53141646     A.U. after   16 cycles
 Normal termination of Gaussian 16 at Wed Apr  9 02:49:40 2025.
 Gaussian 16:  ES64L-G16RevC.01  3-Jul-2019

 ----------------------------------------------------------------------
 #t hf aug-cc-pvdz iop(5/13=1,5/36=2,99/5=2) pseudo=read geom=check gue
 ss=(read,tcheck) scf=(maxcycle=1)
 ----------------------------------------------------------------------
 -----
 title
 -----
 Structure from the checkpoint file:  "E2SN2_290_mol1.chk"
 Charge = -1 Multiplicity = 1

                         Standard orientation:
 ---------------------------------------------------------------------
 Center     Atomic      Atomic             Coordinates (Angstroms)
 Number     Number       Type             X           Y           Z
 ---------------------------------------------------------------------
      1          6           0        0.121953   -0.190413    0.204765
      2          1           0        0.959558    1.082538   -1.257904
      3         17           0       -2.332060   -0.464652    0.467541
      4         17           0        2.504607   -0.277238    0.051364
      5          6           0        0.095471    1.133701   -0.593716
      6          6           0        0.051955   -1.400399   -0.567736
      7          7           0        0.035517   -2.391323   -1.205253
      8          6           0        0.145394   -0.230294    1.727111
      9          1           0        1.142907   -0.034827    2.112141
     10          1           0       -0.545938    0.516542    2.104906
     11          1           0       -0.184462   -1.211273    2.062758
     12          7           0        0.226902    2.227636    0.378115
     13          1           0        0.257138    3.093310   -0.150604
     14          1           0        1.134258    2.127675    0.827212
     15          7           0       -1.033220    1.268949   -1.477982
     16          1           0       -0.897128    2.088586   -2.057690
     17          1           0       -1.892656    1.337161   -0.948899
 ---------------------------------------------------------------------

 SCF Done:  E(RHF) =  -1240.57223583     A.U. after    2 cycles

 The electronic state is 1-A.
 Alpha  occ. eigenvalues --  -99.67204 -99.65282 -15.63033 -15.62463 -15.61284
 Alpha  occ. eigenvalues --  -11.45424 -11.35131 -11.32004 -11.26704 -10.24211
 Alpha  occ. eigenvalues --  -10.22290  -9.44280  -9.43868  -9.43798  -9.42331
 Alpha  occ. eigenvalues --   -9.42022  -9.41896  -1.31987  -1.17647  -1.12821
 Alpha  occ. eigenvalues --   -1.08357  -1.03215  -1.00384  -0.87870  -0.76334
 Alpha  occ. eigenvalues --   -0.61990  -0.56512  -0.52461  -0.49683  -0.47579
 Alpha  occ. eigenvalues --   -0.45715  -0.44053  -0.39889  -0.38828  -0.36762
 Alpha  occ. eigenvalues --   -0.31441  -0.31155  -0.30520  -0.29262  -0.28941
 Alpha  occ. eigenvalues --   -0.28399  -0.26078  -0.25088  -0.23666
 Alpha virt. eigenvalues --    0.12175   0.13728   0.14707   0.15364   0.15845
 Alpha virt. eigenvalues --    0.16423   0.17103   0.17538   0.17736   0.20586
 Alpha virt. eigenvalues --    0.21102   0.22766   0.23647   0.23925   0.24592

 Mulliken charges:
               1
     1  C    3.656378
     2  H    1.476618
     3  Cl  -0.726023
     4  Cl  -0.670033
     5  C    1.699935
     6  C    1.561063
     7  N   -2.781168
     8  C   -4.667376
     9  H    1.154747
    10  H    1.256605
    11  H    1.218286
    12  N   -3.188566
    13  H    0.591415
    14  H    0.698655
    15  N   -3.330231
    16  H    0.539255
    17  H    0.510441
 Sum of Mulliken charges =  -1.00000

 Dipole moment (field-independent basis, Debye):
    X=              0.5816    Y=              5.4395    Z=              0.3421  Tot=              5.4812

 Test job not archived.
 1\1\GINC-SE462\SP\RHF\Aug-CC-pVDZ\C4H8Cl2N3(1-)\OHZDE\09-Apr-2025\0\\#
 t hf aug-cc-pvdz iop(5/13=1,5/36=2,99/5=2) pseudo=read geom=check gues
 s=(read,tcheck) scf=(maxcycle=1)\\title\\-1,1\C,0,0.64284671,-0.030569
 83,0.00183904\H,0,1.62438297,1.76342185,-0.52690203\Cl,0,-1.78879056,-
 0.36557223,-0.37412928\Cl,0,3.01372755,-0.06548443,0.29478577\C,0,0.65
 414353,1.51279552,-0.09535628\C,0,0.80884413,-0.7467893,-1.23315051\N,
 0,0.98575533,-1.3315835,-2.24079448\C,0,0.39670899,-0.76853239,1.31122
 975\H,0,1.29045439,-0.78474693,1.92965077\H,0,-0.4083523,-0.27195056,1

 Normal termination of Gaussian 16 at Wed Apr  9 02:49:48 2025.
