 Gaussian 16, Revision C.01,

 ----------------------------------------------------------------------
 #t hf aug-cc-pvdz symm=none int=(grid=ultrafine) guess=(read,tcheck) s
 table=(opt,rrhf)
 ----------------------------------------------------------------------
 -----
 title
 -----
 Symbolic Z-matrix:
 Charge = -1 Multiplicity = 1

 SCF Done:  E(RHF) =  -915.180790190     A.U. after   16 cycles
 Normal termination of Gaussian 16 at Wed Apr  9 03:02:53 2025.
 Gaussian 16:  ES64L-G16RevC.01  3-Jul-2019

 ----------------------------------------------------------------------
 #t hf aug-cc-pvdz iop(5/13=1,5/36=2,99/5=2) pseudo=read geom=check gue
 ss=(read,tcheck) scf=(maxcycle=1)
 ----------------------------------------------------------------------
 -----
 title
 -----
 Structure from the checkpoint file:  "E2SN2_87_mol1.chk"
 Charge = -1 Multiplicity = 1

                         Standard orientation:
 ---------------------------------------------------------------------
 Center     Atomic      Atomic             Coordinates (Angstroms)
 Number     Number       Type             X           Y           Z
 ---------------------------------------------------------------------
      1          6           0       -0.433604   -0.133007   -0.329436
      2          6           0        0.686260    0.338525    0.557149
      3         17           0       -0.727966   -1.969974   -0.179552
      4          9           0        0.471769    2.599848   -0.547155
      5          1           0        0.655477    1.641717    0.097921
      6          6           0       -1.702210    0.474811    0.107071
      7          7           0       -2.711751    0.952263    0.470882
      8          7           0       -0.256572    0.134393   -1.742902
      9          1           0        0.573014   -0.374435   -2.036255
     10          1           0       -0.025166    1.131811   -1.767146
     11          6           0        1.935964   -0.212046    0.115919
     12          7           0        2.978368   -0.627332   -0.249720
     13          6           0        0.456494    0.193193    2.052576
     14          1           0        0.330086   -0.852542    2.360828
     15          1           0        1.304323    0.610907    2.601958
     16          1           0       -0.435960    0.749340    2.351968
 ---------------------------------------------------------------------

 SCF Done:  E(RHF) =  -917.443611363     A.U. after    2 cycles

 The electronic state is 1-A.
 Alpha  occ. eigenvalues --  -99.76182 -29.00218 -15.65017 -15.62406 -15.61926
 Alpha  occ. eigenvalues --  -11.43447 -11.33284 -11.32649 -11.28597 -11.25700
 Alpha  occ. eigenvalues --  -10.33491  -9.53522  -9.52803  -9.52767  -1.33346
 Alpha  occ. eigenvalues --   -1.16812  -1.16733  -1.14681  -1.05059  -0.88935
 Alpha  occ. eigenvalues --   -0.81763  -0.66707  -0.58464  -0.55832  -0.52170
 Alpha  occ. eigenvalues --   -0.48350  -0.46607  -0.44067  -0.42759  -0.41400
 Alpha  occ. eigenvalues --   -0.39148  -0.37174  -0.35406  -0.33117  -0.32365
 Alpha  occ. eigenvalues --   -0.31581  -0.29032  -0.25794  -0.23336  -0.07636
 Alpha  occ. eigenvalues --   -0.07402  -0.03765
 Alpha virt. eigenvalues --    0.13601   0.14857   0.15423   0.16027   0.16919
 Alpha virt. eigenvalues --    0.18129   0.18541   0.19148   0.19881   0.22381
 Alpha virt. eigenvalues --    0.22492   0.23136   0.24306   0.24789   0.25204

 Mulliken charges:
               1
     1  C    3.283821
     2  C   -1.438887
     3  Cl  -0.235812
     4  F    0.652439
     5  H    0.974923
     6  C    1.938284
     7  N   -2.758860
     8  N   -3.602324
     9  H    0.620641
    10  H    0.513725
    11  C    2.273111
    12  N   -2.762129
    13  C   -3.980627
    14  H    1.170368
    15  H    1.246294
    16  H    1.105033
 Sum of Mulliken charges =  -1.00000

 Dipole moment (field-independent basis, Debye):
    X=             -1.0353    Y=              0.7976    Z=              0.1811  Tot=              1.3194

 Test job not archived.
 1\1\GINC-SE188\SP\RHF\Aug-CC-pVDZ\C5H6Cl1F1N3(1-)\OHZDE\09-Apr-2025\0\
 \#t hf aug-cc-pvdz iop(5/13=1,5/36=2,99/5=2) pseudo=read geom=check gu
 ess=(read,tcheck) scf=(maxcycle=1)\\title\\-1,1\C,0,-0.14673911,0.0438
 3685,-0.33836116\C,0,-0.0682734,-0.01185667,1.16270908\Cl,0,1.54150663
 ,0.06707435,-1.13387748\F,0,-2.57457653,0.29776827,1.20330165\H,0,-1.4
 333955,0.08998071,1.35301884\C,0,-0.77185113,-1.18813095,-0.84907857\N
 ,0,-1.25773055,-2.17992511,-1.24877716\N,0,-0.86372756,1.18229265,-0.8
 7741268\H,0,-0.35552012,2.01341041,-0.58733694\H,0,-1.74754139,1.17102

 Normal termination of Gaussian 16 at Wed Apr  9 03:03:01 2025.
