 Gaussian 16, Revision C.01,

 ----------------------------------------------------------------------
 #t hf aug-cc-pvdz symm=none int=(grid=ultrafine) guess=(read,tcheck) s
 table=(opt,rrhf)
 ----------------------------------------------------------------------
 -----
 title
 -----
 Symbolic Z-matrix:
 Charge = -1 Multiplicity = 1

 SCF Done:  E(RHF) =  -1183.50203670     A.U. after   15 cycles
 Normal termination of Gaussian 16 at Wed Apr  9 02:54:15 2025.
 Gaussian 16:  ES64L-G16RevC.01  3-Jul-2019

 ----------------------------------------------------------------------
 #t hf aug-cc-pvdz iop(5/13=1,5/36=2,99/5=2) pseudo=read geom=check gue
 ss=(read,tcheck) scf=(maxcycle=1)
 ----------------------------------------------------------------------
 -----
 title
 -----
 Structure from the checkpoint file:  "E2SN2_342_mol1.chk"
 Charge = -1 Multiplicity = 1

                         Standard orientation:
 ---------------------------------------------------------------------
 Center     Atomic      Atomic             Coordinates (Angstroms)
 Number     Number       Type             X           Y           Z
 ---------------------------------------------------------------------
      1          6           0       -0.060825   -0.173869   -0.295814
      2          1           0        0.805782    1.319395   -1.502726
      3         17           0       -2.492459   -0.039906   -0.125408
      4         17           0        2.331505   -0.397979   -0.144514
      5          6           0        0.091421    1.292370   -0.669870
      6          1           0       -0.869324    1.656877   -1.027686
      7          6           0       -0.101034   -1.220487   -1.390183
      8          1           0       -1.084183   -1.266615   -1.851544
      9          1           0        0.648567   -0.975076   -2.141598
     10          1           0        0.150000   -2.195854   -0.975186
     11          6           0       -0.129179   -0.568746    1.086404
     12          7           0       -0.144423   -0.945806    2.202588
     13          7           0        0.489471    2.086882    0.478022
     14          1           0        0.410854    3.069392    0.250662
     15          1           0        1.456902    1.872777    0.689255
 ---------------------------------------------------------------------

 SCF Done:  E(RHF) =  -1185.28709076     A.U. after    2 cycles

 The electronic state is 1-A.
 Alpha  occ. eigenvalues --  -99.66795 -99.65546 -15.62244 -15.61409 -11.43796
 Alpha  occ. eigenvalues --  -11.32139 -11.30731 -11.27322 -10.23782 -10.22509
 Alpha  occ. eigenvalues --   -9.43846  -9.43427  -9.43362  -9.42552  -9.42109
 Alpha  occ. eigenvalues --   -9.42093  -1.26307  -1.16278  -1.08283  -1.03023
 Alpha  occ. eigenvalues --   -1.00639  -0.88141  -0.79804  -0.58165  -0.54133
 Alpha  occ. eigenvalues --   -0.52422  -0.48625  -0.45507  -0.42696  -0.39246
 Alpha  occ. eigenvalues --   -0.38966  -0.36836  -0.31332  -0.31080  -0.29747
 Alpha  occ. eigenvalues --   -0.29084  -0.28910  -0.28490  -0.24677  -0.24065
 Alpha virt. eigenvalues --    0.12957   0.14243   0.15049   0.15494   0.15933
 Alpha virt. eigenvalues --    0.16406   0.17491   0.17955   0.20646   0.21402
 Alpha virt. eigenvalues --    0.21857   0.22245   0.23663   0.25723   0.26156

 Mulliken charges:
               1
     1  C    2.852096
     2  H    1.333751
     3  Cl  -0.685482
     4  Cl  -0.671933
     5  C   -2.372504
     6  H    1.145773
     7  C   -4.498356
     8  H    1.151504
     9  H    1.218323
    10  H    1.244187
    11  C    2.550514
    12  N   -2.848123
    13  N   -2.601252
    14  H    0.600845
    15  H    0.580658
 Sum of Mulliken charges =  -1.00000

 Dipole moment (field-independent basis, Debye):
    X=              1.3873    Y=              2.4481    Z=             -3.4156  Tot=              4.4254

 Test job not archived.
 1\1\GINC-SE113\SP\RHF\Aug-CC-pVDZ\C4H7Cl2N2(1-)\OHZDE\09-Apr-2025\0\\#
 t hf aug-cc-pvdz iop(5/13=1,5/36=2,99/5=2) pseudo=read geom=check gues
 s=(read,tcheck) scf=(maxcycle=1)\\title\\-1,1\C,0,0.51945672,-0.043716
 97,-0.0044118\H,0,1.18753616,1.83343747,-0.68810963\Cl,0,-1.89327168,-
 0.3734993,-0.1770788\Cl,0,2.87853175,0.11132178,0.45065999\C,0,0.41038
 087,1.47320357,-0.00184919\H,0,-0.56147091,1.74814224,-0.40662181\C,0,
 0.80618906,-0.76672996,-1.30429903\H,0,-0.09365313,-0.85991024,-1.9069
 2946\H,0,1.5650067,-0.21349714,-1.85646138\H,0,1.20446055,-1.75836559,

 Normal termination of Gaussian 16 at Wed Apr  9 02:54:21 2025.
