 Gaussian 16, Revision C.01,

 ----------------------------------------------------------------------
 #t hf aug-cc-pvdz symm=none int=(grid=ultrafine) guess=(read,tcheck) s
 table=(opt,rrhf)
 ----------------------------------------------------------------------
 -----
 title
 -----
 Symbolic Z-matrix:
 Charge = -1 Multiplicity = 1

 SCF Done:  E(RHF) =  -567.891691655     A.U. after   17 cycles
 Normal termination of Gaussian 16 at Wed Apr  9 02:57:53 2025.
 Gaussian 16:  ES64L-G16RevC.01  3-Jul-2019

 ----------------------------------------------------------------------
 #t hf aug-cc-pvdz iop(5/13=1,5/36=2,99/5=2) pseudo=read geom=check gue
 ss=(read,tcheck) scf=(maxcycle=1)
 ----------------------------------------------------------------------
 -----
 title
 -----
 Structure from the checkpoint file:  "E2SN2_390_mol1.chk"
 Charge = -1 Multiplicity = 1

                         Standard orientation:
 ---------------------------------------------------------------------
 Center     Atomic      Atomic             Coordinates (Angstroms)
 Number     Number       Type             X           Y           Z
 ---------------------------------------------------------------------
      1          6           0        0.737695   -0.430277   -0.013345
      2          1           0       -0.318439    0.462767   -1.664372
      3          9           0        0.815152    0.211859    1.491734
      4          1           0        0.923016   -1.165632   -1.679116
      5          6           0       -0.343422    0.520733   -0.582339
      6          7           0        0.349635   -1.740496    0.455245
      7          1           0        0.783182   -1.870458    1.360972
      8          1           0        0.652550   -2.425606   -0.217741
      9          6           0        2.074115   -0.130413   -0.469278
     10          7           0        3.185890    0.240915   -0.635254
     11          6           0       -0.251999    1.955286   -0.098091
     12          1           0       -0.444281    2.011687    0.967858
     13          1           0        0.755507    2.328775   -0.294666
     14          1           0       -0.969293    2.575472   -0.646348
     15          7           0       -1.678552   -0.054886   -0.222105
     16          8           0       -2.250239   -0.724166   -1.082017
     17          8           0       -2.126731    0.169860    0.899632
 ---------------------------------------------------------------------

 SCF Done:  E(RHF) =  -570.376634831     A.U. after    2 cycles

 The electronic state is 1-A.
 Alpha  occ. eigenvalues --  -29.03141 -20.96186 -20.95970 -15.85509 -15.61146
 Alpha  occ. eigenvalues --  -15.59995 -11.47412 -11.35260 -11.30223 -11.26781
 Alpha  occ. eigenvalues --   -1.85467  -1.55305  -1.28205  -1.13237  -1.11590
 Alpha  occ. eigenvalues --   -0.90529  -0.89919  -0.69364  -0.65856  -0.59712
 Alpha  occ. eigenvalues --   -0.56272  -0.53141  -0.50326  -0.47344  -0.42732
 Alpha  occ. eigenvalues --   -0.42694  -0.39427  -0.38850  -0.37467  -0.31878
 Alpha  occ. eigenvalues --   -0.28518  -0.24805  -0.21833  -0.19352  -0.18325
 Alpha  occ. eigenvalues --   -0.17247  -0.08596  -0.07504  -0.07153
 Alpha virt. eigenvalues --    0.13098   0.14788   0.15153   0.15754   0.15928
 Alpha virt. eigenvalues --    0.17289   0.19444   0.20078   0.22721   0.23195
 Alpha virt. eigenvalues --    0.23945   0.24628   0.25134   0.25619   0.26001

 Mulliken charges:
               1
     1  C    2.621045
     2  H    2.117983
     3  F   -0.068723
     4  H   -0.691324
     5  C   -1.340659
     6  N   -3.365679
     7  H    0.457494
     8  H    0.661310
     9  C    3.306410
    10  N   -3.160806
    11  C   -3.926891
    12  H    1.316951
    13  H    1.344691
    14  H    1.152370
    15  N    4.403083
    16  O   -2.881780
    17  O   -2.945475
 Sum of Mulliken charges =  -1.00000

 Dipole moment (field-independent basis, Debye):
    X=             -3.8599    Y=              2.9295    Z=              5.9285  Tot=              7.6569

 Test job not archived.
 1\1\GINC-SE071\SP\RHF\Aug-CC-pVDZ\C4H7F1N3O2(1-)\OHZDE\09-Apr-2025\0\\
 #t hf aug-cc-pvdz iop(5/13=1,5/36=2,99/5=2) pseudo=read geom=check gue
 ss=(read,tcheck) scf=(maxcycle=1)\\title\\-1,1\C,0,0.53062612,-0.08492
 494,0.03529274\H,0,1.60530749,1.76869576,0.25434809\F,0,-1.06633857,-0
 .27147745,0.34914318\H,0,2.35099434,-0.09405038,-0.15460054\C,0,0.5742
 7443,1.46001826,0.12601868\N,0,0.4530366,-0.71404895,-1.26279213\H,0,-
 0.27699291,-1.41356339,-1.20865577\H,0,1.35165728,-1.11244222,-1.48144
 161\C,0,1.08009071,-0.75107424,1.19207565\N,0,1.29906096,-1.30561275,2

 Normal termination of Gaussian 16 at Wed Apr  9 02:58:02 2025.
