 Gaussian 16, Revision C.01,

 ----------------------------------------------------------------------
 #t hf aug-cc-pvdz symm=none int=(grid=ultrafine) guess=(read,tcheck) s
 table=(opt,rrhf)
 ----------------------------------------------------------------------
 -----
 title
 -----
 Symbolic Z-matrix:
 Charge = -1 Multiplicity = 1

 SCF Done:  E(RHF) =  -627.816538640     A.U. after   16 cycles
 Normal termination of Gaussian 16 at Wed Apr  9 02:51:15 2025.
 Gaussian 16:  ES64L-G16RevC.01  3-Jul-2019

 ----------------------------------------------------------------------
 #t hf aug-cc-pvdz iop(5/13=1,5/36=2,99/5=2) pseudo=read geom=check gue
 ss=(read,tcheck) scf=(maxcycle=1)
 ----------------------------------------------------------------------
 -----
 title
 -----
 Structure from the checkpoint file:  "E2SN2_304_mol1.chk"
 Charge = -1 Multiplicity = 1

                         Standard orientation:
 ---------------------------------------------------------------------
 Center     Atomic      Atomic             Coordinates (Angstroms)
 Number     Number       Type             X           Y           Z
 ---------------------------------------------------------------------
      1          6           0       -0.707500   -0.296270    0.087332
      2          1           0        0.604271   -1.398370   -1.138545
      3          9           0        0.137998    0.761536    1.290651
      4          9           0       -1.616899   -1.158680   -1.112873
      5          6           0        0.484500   -0.357165   -0.855474
      6          1           0        0.306507    0.271441   -1.723695
      7          6           0       -1.653049    0.817915   -0.028048
      8          7           0       -2.451666    1.675026   -0.117763
      9          7           0       -0.865997   -1.329433    1.064746
     10          1           0       -1.768809   -1.755916    0.913516
     11          1           0       -0.800544   -0.887509    1.969643
     12          7           0        1.791165    0.069965   -0.281883
     13          8           0        2.233616    1.166322   -0.620457
     14          8           0        2.380190   -0.735214    0.433022
 ---------------------------------------------------------------------

 SCF Done:  E(RHF) =  -630.393918508     A.U. after    2 cycles

 The electronic state is 1-A.
 Alpha  occ. eigenvalues --  -29.01454 -28.98046 -20.95641 -20.95439 -15.85366
 Alpha  occ. eigenvalues --  -15.62138 -15.61849 -11.50557 -11.33280 -11.30473
 Alpha  occ. eigenvalues --   -1.84954  -1.54995  -1.29655  -1.15072  -1.08808
 Alpha  occ. eigenvalues --   -0.91773  -0.75270  -0.66160  -0.62779  -0.56187
 Alpha  occ. eigenvalues --   -0.55236  -0.50083  -0.45101  -0.44164  -0.42171
 Alpha  occ. eigenvalues --   -0.39704  -0.36078  -0.30768  -0.29085  -0.26152
 Alpha  occ. eigenvalues --   -0.22070  -0.18357  -0.17316  -0.16042  -0.07547
 Alpha  occ. eigenvalues --   -0.06786  -0.04864  -0.04111   0.00887
 Alpha virt. eigenvalues --    0.14154   0.14998   0.15809   0.17045   0.20075
 Alpha virt. eigenvalues --    0.21476   0.22693   0.23751   0.24224   0.25112
 Alpha virt. eigenvalues --    0.25973   0.27158   0.27590   0.28321   0.28846

 Mulliken charges:
               1
     1  C    3.689566
     2  H    1.466319
     3  F   -0.561578
     4  F   -0.271994
     5  C   -3.313547
     6  H    1.863682
     7  C    3.331593
     8  N   -3.327708
     9  N   -3.809169
    10  H    0.438275
    11  H    0.471006
    12  N    4.889707
    13  O   -2.909894
    14  O   -2.956258
 Sum of Mulliken charges =  -1.00000

 Dipole moment (field-independent basis, Debye):
    X=              1.8225    Y=             -2.5585    Z=              0.2948  Tot=              3.1550

 Test job not archived.
 1\1\GINC-SE402\SP\RHF\Aug-CC-pVDZ\C3H4F2N3O2(1-)\OHZDE\09-Apr-2025\0\\
 #t hf aug-cc-pvdz iop(5/13=1,5/36=2,99/5=2) pseudo=read geom=check gue
 ss=(read,tcheck) scf=(maxcycle=1)\\title\\-1,1\C,0,0.75789002,-0.08821
 328,0.0889234\H,0,1.77793333,1.53047096,0.97069085\F,0,-1.03366506,-0.
 05041567,0.3548119\F,0,2.43639822,-0.14926375,-0.34711802\C,0,0.928336
 06,1.4075226,0.30612267\H,0,1.0937377,1.90658177,-0.6447815\C,0,0.4149
 0444,-0.58111865,-1.24830822\N,0,0.17858899,-1.01412887,-2.31467295\N,
 0,0.93284096,-0.97015661,1.20223118\H,0,1.66258478,-1.62498232,0.96035

 Normal termination of Gaussian 16 at Wed Apr  9 02:51:21 2025.
