 Gaussian 16, Revision C.01,

 ----------------------------------------------------------------------
 #t hf aug-cc-pvdz symm=none int=(grid=ultrafine) guess=(read,tcheck) s
 table=(opt,rrhf)
 ----------------------------------------------------------------------
 -----
 title
 -----
 Symbolic Z-matrix:
 Charge = -1 Multiplicity = 1

 SCF Done:  E(RHF) =  -1423.67528434     A.U. after   18 cycles
 Normal termination of Gaussian 16 at Wed Apr  9 02:45:53 2025.
 Gaussian 16:  ES64L-G16RevC.01  3-Jul-2019

 ----------------------------------------------------------------------
 #t hf aug-cc-pvdz iop(5/13=1,5/36=2,99/5=2) pseudo=read geom=check gue
 ss=(read,tcheck) scf=(maxcycle=1)
 ----------------------------------------------------------------------
 -----
 title
 -----
 Structure from the checkpoint file:  "E2SN2_227_mol1.chk"
 Charge = -1 Multiplicity = 1

                         Standard orientation:
 ---------------------------------------------------------------------
 Center     Atomic      Atomic             Coordinates (Angstroms)
 Number     Number       Type             X           Y           Z
 ---------------------------------------------------------------------
      1          6           0       -0.229573   -0.061470    0.167821
      2          1           0        0.394009   -1.993709   -0.422671
      3         17           0        1.264858    1.762862    0.066271
      4         17           0       -1.905451   -1.588742    0.152331
      5          6           0        0.754280   -0.975476   -0.582875
      6          7           0       -1.207185    0.916331   -0.443441
      7          8           0       -1.285019    0.955765   -1.660030
      8          8           0       -1.868478    1.565436    0.349070
      9          6           0       -0.161873   -0.029235    1.599069
     10          7           0       -0.073491   -0.080979    2.772592
     11          6           0        2.083708   -0.958114    0.040448
     12          7           0        3.150450   -1.149904    0.494981
     13          6           0        0.872149   -0.766833   -2.093356
     14          1           0       -0.083480   -0.964693   -2.573305
     15          1           0        1.188470    0.248990   -2.318846
     16          1           0        1.618493   -1.471611   -2.469290
 ---------------------------------------------------------------------

 SCF Done:  E(RHF) =  -1426.43809415     A.U. after    2 cycles

 The electronic state is 1-A.
 Alpha  occ. eigenvalues --  -99.72551 -99.69734 -20.99412 -20.99143 -15.91303
 Alpha  occ. eigenvalues --  -15.67240 -15.65586 -11.53327 -11.41033 -11.36630
 Alpha  occ. eigenvalues --  -11.34019 -11.29973 -10.29552 -10.26786  -9.49661
 Alpha  occ. eigenvalues --   -9.49185  -9.49080  -9.46846  -9.46470  -9.46373
 Alpha  occ. eigenvalues --   -1.89936  -1.59694  -1.28062  -1.19722  -1.15011
 Alpha  occ. eigenvalues --   -1.09359  -1.07422  -1.03523  -0.89245  -0.80065
 Alpha  occ. eigenvalues --   -0.66757  -0.63048  -0.60921  -0.58334  -0.50440
 Alpha  occ. eigenvalues --   -0.48855  -0.47124  -0.46366  -0.43376  -0.41488
 Alpha  occ. eigenvalues --   -0.40354  -0.37330  -0.36096  -0.35186  -0.34583
 Alpha  occ. eigenvalues --   -0.34180  -0.32620  -0.31508  -0.30096  -0.29615
 Alpha  occ. eigenvalues --   -0.25604  -0.21058  -0.20794
 Alpha virt. eigenvalues --    0.12505   0.12998   0.14565   0.14750   0.15349
 Alpha virt. eigenvalues --    0.18644   0.19196   0.19750   0.20471   0.21718
 Alpha virt. eigenvalues --    0.22336   0.22931   0.23540   0.24296   0.24806

 Mulliken charges:
               1
     1  C    3.031147
     2  H    1.404714
     3  Cl  -0.660890
     4  Cl  -0.554534
     5  C   -0.979641
     6  N    5.143295
     7  O   -3.340608
     8  O   -3.250400
     9  C    2.105144
    10  N   -2.875705
    11  C    2.107818
    12  N   -2.761240
    13  C   -4.124612
    14  H    1.391512
    15  H    1.310502
    16  H    1.053497
 Sum of Mulliken charges =  -1.00000

 Dipole moment (field-independent basis, Debye):
    X=             -1.2245    Y=             -0.8405    Z=             -3.8451  Tot=              4.1220

 Test job not archived.
 1\1\GINC-SE024\SP\RHF\Aug-CC-pVDZ\C5H4Cl2N3O2(1-)\OHZDE\09-Apr-2025\0\
 \#t hf aug-cc-pvdz iop(5/13=1,5/36=2,99/5=2) pseudo=read geom=check gu
 ess=(read,tcheck) scf=(maxcycle=1)\\title\\-1,1\C,0,0.61970746,-0.0716
 7034,-0.00935004\H,0,1.66605668,1.74658746,0.25555419\Cl,0,-1.73723255
 ,-0.12560222,0.10791491\Cl,0,2.8491661,-0.24680861,-0.3837944\C,0,0.63
 728494,1.46642505,0.02019227\N,0,0.41635505,-0.95414843,-1.21986215\O,
 0,0.31622939,-0.41155307,-2.30764366\O,0,0.40567515,-2.15374354,-1.001
 74258\C,0,0.69163828,-0.77087974,1.23966009\N,0,0.79048696,-1.27782027

 Normal termination of Gaussian 16 at Wed Apr  9 02:46:04 2025.
