 Gaussian 16, Revision C.01,

 ----------------------------------------------------------------------
 #t hf aug-cc-pvdz symm=none int=(grid=ultrafine) guess=(read,tcheck) s
 table=(opt,rrhf)
 ----------------------------------------------------------------------
 -----
 title
 -----
 Symbolic Z-matrix:
 Charge = -1 Multiplicity = 1

 SCF Done:  E(RHF) =  -836.241623650     A.U. after   17 cycles
 Normal termination of Gaussian 16 at Wed Apr  9 02:43:09 2025.
 Gaussian 16:  ES64L-G16RevC.01  3-Jul-2019

 ----------------------------------------------------------------------
 #t hf aug-cc-pvdz iop(5/13=1,5/36=2,99/5=2) pseudo=read geom=check gue
 ss=(read,tcheck) scf=(maxcycle=1)
 ----------------------------------------------------------------------
 -----
 title
 -----
 Structure from the checkpoint file:  "E2SN2_220_mol2.chk"
 Charge = -1 Multiplicity = 1

                         Standard orientation:
 ---------------------------------------------------------------------
 Center     Atomic      Atomic             Coordinates (Angstroms)
 Number     Number       Type             X           Y           Z
 ---------------------------------------------------------------------
      1          6           0       -0.242890   -0.116843   -0.600401
      2          6           0        1.200314   -0.440738   -0.260859
      3         17           0       -1.366121   -1.474642   -0.345252
      4          1           0        1.489344   -1.261353   -0.943240
      5          1           0       -0.338418    0.183167   -1.642574
      6          7           0       -0.741451    1.075856    0.173070
      7          8           0       -0.863262    2.117445   -0.468575
      8          8           0       -0.969881    0.940655    1.368930
      9          6           0        1.450380   -0.918540    1.159015
     10          1           0        2.510240   -1.179290    1.200612
     11          1           0        0.849634   -1.794637    1.415817
     12          1           0        1.252105   -0.115575    1.869332
     13          7           0        1.987262    0.762851   -0.485733
     14          1           0        2.972878    0.365295   -0.537259
     15          1           0        1.825383    1.072242   -1.444840
     16          1           0        4.160541   -0.679951   -0.849307
 ---------------------------------------------------------------------

 SCF Done:  E(RHF) =  -838.220067841     A.U. after    2 cycles

 The electronic state is 1-A.
 Alpha  occ. eigenvalues --  -99.80507 -20.99628 -20.99425 -15.89050 -15.57168
 Alpha  occ. eigenvalues --  -11.41873 -11.31776 -11.23934 -10.37903  -9.57909
 Alpha  occ. eigenvalues --   -9.57101  -9.56998  -1.88888  -1.59000  -1.29925
 Alpha  occ. eigenvalues --   -1.20089  -1.03955  -0.95086  -0.80893  -0.70196
 Alpha  occ. eigenvalues --   -0.61876  -0.59835  -0.57311  -0.51528  -0.49724
 Alpha  occ. eigenvalues --   -0.48520  -0.44007  -0.41720  -0.40877  -0.39016
 Alpha  occ. eigenvalues --   -0.34753  -0.34058  -0.25551  -0.23100  -0.21149
 Alpha  occ. eigenvalues --   -0.20826  -0.10186
 Alpha virt. eigenvalues --    0.13003   0.13915   0.15387   0.16085   0.16370
 Alpha virt. eigenvalues --    0.17194   0.18368   0.19731   0.20509   0.22599
 Alpha virt. eigenvalues --    0.22830   0.23277   0.23910   0.24778   0.25255

 Mulliken charges:
               1
     1  C   -2.592910
     2  C    1.123220
     3  Cl  -0.020344
     4  H    1.680427
     5  H    1.909992
     6  N    4.972917
     7  O   -2.783802
     8  O   -3.009239
     9  C   -3.478945
    10  H    1.208693
    11  H    1.194650
    12  H    1.335243
    13  N   -2.736124
    14  H    0.591861
    15  H    0.587854
    16  H   -0.983492
 Sum of Mulliken charges =  -1.00000

 Dipole moment (field-independent basis, Debye):
    X=            -13.4289    Y=              1.8008    Z=              1.8100  Tot=             13.6695

 Test job not archived.
 1\1\GINC-SE112\SP\RHF\Aug-CC-pVDZ\C3H8Cl1N2O2(1-)\OHZDE\09-Apr-2025\0\
 \#t hf aug-cc-pvdz iop(5/13=1,5/36=2,99/5=2) pseudo=read geom=check gu
 ess=(read,tcheck) scf=(maxcycle=1)\\title\\-1,1\C,0,0.279732,-0.026037
 ,-0.22617\C,0,-0.818046,0.153862,-1.258427\Cl,0,1.887219,0.498749,-0.7
 83804\H,0,-0.526052,-0.479477,-2.116455\H,0,0.370137,-1.070864,0.06609
 5\N,0,-0.043995,0.689066,1.05959\O,0,-0.380302,-0.027032,2.000629\O,0,
 0.027595,1.911766,1.080135\C,0,-1.006054,1.568431,-1.77854\H,0,-1.7672
 76,1.497617,-2.558637\H,0,-0.087651,1.982057,-2.202613\H,0,-1.36954,2.

 Normal termination of Gaussian 16 at Wed Apr  9 02:43:28 2025.
