 Gaussian 16, Revision C.01,

 ----------------------------------------------------------------------
 #t hf aug-cc-pvdz symm=none int=(grid=ultrafine) guess=(read,tcheck) s
 table=(opt,rrhf)
 ----------------------------------------------------------------------
 -----
 title
 -----
 Symbolic Z-matrix:
 Charge = -1 Multiplicity = 1

 SCF Done:  E(RHF) =  -419.473444974     A.U. after   16 cycles
 Normal termination of Gaussian 16 at Wed Apr  9 02:37:00 2025.
 Gaussian 16:  ES64L-G16RevC.01  3-Jul-2019

 ----------------------------------------------------------------------
 #t hf aug-cc-pvdz iop(5/13=1,5/36=2,99/5=2) pseudo=read geom=check gue
 ss=(read,tcheck) scf=(maxcycle=1)
 ----------------------------------------------------------------------
 -----
 title
 -----
 Structure from the checkpoint file:  "E2SN2_147_mol2.chk"
 Charge = -1 Multiplicity = 1

                         Standard orientation:
 ---------------------------------------------------------------------
 Center     Atomic      Atomic             Coordinates (Angstroms)
 Number     Number       Type             X           Y           Z
 ---------------------------------------------------------------------
      1          6           0       -0.313906    0.397375    0.198767
      2          6           0        0.860480   -0.341866   -0.459916
      3          9           0       -0.332198    0.084248    1.588580
      4          1           0        0.674034   -0.251410   -1.534455
      5          7           0       -0.242169    1.775214   -0.010115
      6          1           0        0.419203    2.074256   -0.779952
      7          1           0       -1.142068    2.225415   -0.087905
      8          6           0       -1.594488   -0.192640   -0.289023
      9          7           0       -2.610037   -0.625759   -0.692552
     10          6           0        0.883254   -1.809803   -0.059157
     11          1           0        1.094561   -1.889456    1.007810
     12          1           0        1.672406   -2.329814   -0.612349
     13          1           0       -0.063981   -2.310520   -0.276048
     14          7           0        2.106773    0.305655   -0.071561
     15          1           0        2.862139   -0.291664   -0.398424
     16          1           0        2.165147    1.165974   -0.640288
     17          1           0        1.514325    2.344821   -1.900045
 ---------------------------------------------------------------------

 SCF Done:  E(RHF) =  -421.360766861     A.U. after    2 cycles

 The electronic state is 1-A.
 Alpha  occ. eigenvalues --  -29.12014 -15.65385 -15.58981 -15.58031 -11.43264
 Alpha  occ. eigenvalues --  -11.33476 -11.30615 -11.25985  -1.32421  -1.18653
 Alpha  occ. eigenvalues --   -1.16300  -1.00291  -0.91543  -0.76088  -0.66862
 Alpha  occ. eigenvalues --   -0.57642  -0.54240  -0.51355  -0.47115  -0.46457
 Alpha  occ. eigenvalues --   -0.42247  -0.40130  -0.37766  -0.34794  -0.33556
 Alpha  occ. eigenvalues --   -0.31686  -0.25856  -0.23854  -0.18808  -0.13779
 Alpha  occ. eigenvalues --   -0.12597  -0.10391
 Alpha virt. eigenvalues --    0.12863   0.14511   0.14755   0.15621   0.15843
 Alpha virt. eigenvalues --    0.16919   0.19093   0.20160   0.20522   0.21032
 Alpha virt. eigenvalues --    0.22518   0.23195   0.23462   0.24322   0.25457

 Mulliken charges:
               1
     1  C    4.017962
     2  C   -0.436941
     3  F    0.032271
     4  H    2.039180
     5  N   -3.514947
     6  H    0.727381
     7  H    0.530116
     8  C    1.303301
     9  N   -2.491797
    10  C   -3.822108
    11  H    1.215338
    12  H    1.031878
    13  H    1.136966
    14  N   -2.866687
    15  H    0.495394
    16  H    0.651872
    17  H   -1.049178
 Sum of Mulliken charges =  -1.00000

 Dipole moment (field-independent basis, Debye):
    X=             -2.0845    Y=             -7.3319    Z=              7.1621  Tot=             10.4594

 Test job not archived.
 1\1\GINC-SE252\SP\RHF\Aug-CC-pVDZ\C4H9F1N3(1-)\OHZDE\09-Apr-2025\0\\#t
  hf aug-cc-pvdz iop(5/13=1,5/36=2,99/5=2) pseudo=read geom=check guess
 =(read,tcheck) scf=(maxcycle=1)\\title\\-1,1\C,0,-0.299343,-0.08321,-1
 .448744\C,0,-0.013193,-0.235182,0.05277\F,0,-1.707579,0.018188,-1.6399
 34\H,0,1.03611,-0.541843,0.102779\N,0,0.367323,1.014059,-1.995348\H,0,
 1.148933,1.402425,-1.39723\H,0,0.65334,0.883824,-2.954402\C,0,0.035865
 ,-1.362585,-2.139237\N,0,0.329337,-2.353423,-2.699489\C,0,-0.896688,-1
 .30525,0.677555\H,0,-1.936767,-0.978744,0.645244\H,0,-0.6089,-1.455164

 Normal termination of Gaussian 16 at Wed Apr  9 02:37:07 2025.
