 Gaussian 16, Revision C.01,

 ----------------------------------------------------------------------
 #t hf aug-cc-pvdz symm=none int=(grid=ultrafine) guess=(read,tcheck) s
 table=(opt,rrhf)
 ----------------------------------------------------------------------
 -----
 title
 -----
 Symbolic Z-matrix:
 Charge = -1 Multiplicity = 1

 SCF Done:  E(RHF) =  -627.885437501     A.U. after   16 cycles
 Normal termination of Gaussian 16 at Wed Apr  9 02:57:15 2025.
 Gaussian 16:  ES64L-G16RevC.01  3-Jul-2019

 ----------------------------------------------------------------------
 #t hf aug-cc-pvdz iop(5/13=1,5/36=2,99/5=2) pseudo=read geom=check gue
 ss=(read,tcheck) scf=(maxcycle=1)
 ----------------------------------------------------------------------
 -----
 title
 -----
 Structure from the checkpoint file:  "E2SN2_376_mol2.chk"
 Charge = -1 Multiplicity = 1

                         Standard orientation:
 ---------------------------------------------------------------------
 Center     Atomic      Atomic             Coordinates (Angstroms)
 Number     Number       Type             X           Y           Z
 ---------------------------------------------------------------------
      1          6           0        0.094001   -0.257748   -0.359267
      2          6           0       -0.897618   -0.002647    0.756315
      3          9           0       -0.001877   -1.563067   -0.843584
      4          1           0       -0.795888    1.090011    0.947595
      5          1           0       -0.637443   -0.593699    1.633533
      6          7           0        0.011229    0.681016   -1.350781
      7          1           0       -0.051261    1.629962   -0.842055
      8          1           0        0.807824    0.614429   -1.971244
      9          7           0        1.541707   -0.347712    0.291412
     10          8           0        2.478370   -0.039647   -0.440747
     11          8           0        1.660648   -0.773680    1.437679
     12          6           0       -2.248662   -0.333959    0.328180
     13          7           0       -3.352258   -0.611740    0.039345
     14          9           0       -0.167728    2.594298    0.293086
 ---------------------------------------------------------------------

 SCF Done:  E(RHF) =  -630.455941318     A.U. after    2 cycles

 The electronic state is 1-A.
 Alpha  occ. eigenvalues --  -29.16448 -28.93538 -20.98337 -20.98134 -15.86206
 Alpha  occ. eigenvalues --  -15.64103 -15.59676 -11.45272 -11.34152 -11.29511
 Alpha  occ. eigenvalues --   -1.86936  -1.57443  -1.32293  -1.18046  -1.05227
 Alpha  occ. eigenvalues --   -0.95766  -0.79403  -0.66077  -0.62850  -0.56829
 Alpha  occ. eigenvalues --   -0.54887  -0.52893  -0.48816  -0.48216  -0.44183
 Alpha  occ. eigenvalues --   -0.39512  -0.34133  -0.33421  -0.29910  -0.29783
 Alpha  occ. eigenvalues --   -0.26488  -0.22010  -0.20990  -0.18424  -0.16081
 Alpha  occ. eigenvalues --   -0.15320  -0.02352  -0.01364   0.00186
 Alpha virt. eigenvalues --    0.14368   0.15541   0.17942   0.18955   0.19941
 Alpha virt. eigenvalues --    0.20515   0.22264   0.23254   0.23718   0.24780
 Alpha virt. eigenvalues --    0.25235   0.26254   0.27308   0.27697   0.28370

 Mulliken charges:
               1
     1  C    3.863929
     2  C   -2.614342
     3  F    0.508874
     4  H    1.226238
     5  H    1.569999
     6  N   -3.398956
     7  H   -0.025614
     8  H    0.413442
     9  N    4.167285
    10  O   -2.877282
    11  O   -2.975105
    12  C    2.215616
    13  N   -2.647451
    14  F   -0.426633
 Sum of Mulliken charges =  -1.00000

 Dipole moment (field-independent basis, Debye):
    X=              2.9099    Y=             -5.3716    Z=             -0.6807  Tot=              6.1470

 Test job not archived.
 1\1\GINC-SE177\SP\RHF\Aug-CC-pVDZ\C3H4F2N3O2(1-)\OHZDE\09-Apr-2025\0\\
 #t hf aug-cc-pvdz iop(5/13=1,5/36=2,99/5=2) pseudo=read geom=check gue
 ss=(read,tcheck) scf=(maxcycle=1)\\title\\-1,1\C,0,-0.020222,-0.008287
 ,0.014872\C,0,-0.576718,-0.016476,-1.393373\F,0,1.371049,0.101139,0.01
 7057\H,0,-1.678777,0.022436,-1.235926\H,0,-0.273235,-0.924651,-1.91266
 2\N,0,-0.625155,0.929827,0.805586\H,0,-1.680592,0.836329,0.604302\H,0,
 -0.391285,0.779413,1.778546\N,0,-0.146976,-1.483454,0.593788\O,0,-0.24
 0509,-1.573647,1.815023\O,0,-0.078157,-2.439374,-0.174981\C,0,-0.11409

 Normal termination of Gaussian 16 at Wed Apr  9 02:57:21 2025.
