 Gaussian 16, Revision C.01,

 ----------------------------------------------------------------------
 #t hf aug-cc-pvdz symm=none int=(grid=ultrafine) guess=(read,tcheck) s
 table=(opt,rrhf)
 ----------------------------------------------------------------------
 -----
 title
 -----
 Symbolic Z-matrix:
 Charge = -1 Multiplicity = 1

 SCF Done:  E(RHF) =  -591.806905155     A.U. after   16 cycles
 Normal termination of Gaussian 16 at Wed Apr  9 02:48:54 2025.
 Gaussian 16:  ES64L-G16RevC.01  3-Jul-2019

 ----------------------------------------------------------------------
 #t hf aug-cc-pvdz iop(5/13=1,5/36=2,99/5=2) pseudo=read geom=check gue
 ss=(read,tcheck) scf=(maxcycle=1)
 ----------------------------------------------------------------------
 -----
 title
 -----
 Structure from the checkpoint file:  "E2SN2_268_mol2.chk"
 Charge = -1 Multiplicity = 1

                         Standard orientation:
 ---------------------------------------------------------------------
 Center     Atomic      Atomic             Coordinates (Angstroms)
 Number     Number       Type             X           Y           Z
 ---------------------------------------------------------------------
      1          6           0       -0.289217    0.198163   -0.359656
      2          6           0        0.732753   -0.554881    0.517579
      3          9           0        0.206309    0.190885   -1.683501
      4          1           0        0.449979   -0.267809    1.533936
      5          6           0       -1.602383   -0.458547   -0.394439
      6          7           0       -2.529111   -1.045894   -0.826279
      7          6           0       -0.394977    1.608223    0.040106
      8          7           0       -0.362706    2.770737    0.206715
      9          6           0        2.088348   -0.114159    0.187035
     10          7           0        3.197957    0.196990   -0.041669
     11          6           0        0.587194   -2.068297    0.365660
     12          1           0        0.620498   -2.365513   -0.685083
     13          1           0        1.388635   -2.580795    0.902645
     14          1           0       -0.372036   -2.354180    0.797140
     15          9           0       -1.424126    0.081610    1.677088
 ---------------------------------------------------------------------

 SCF Done:  E(RHF) =  -594.264254537     A.U. after    2 cycles

 The electronic state is 1-A.
 Alpha  occ. eigenvalues --  -29.17071 -28.93538 -15.65970 -15.65338 -15.63106
 Alpha  occ. eigenvalues --  -11.49073 -11.38194 -11.34437 -11.34047 -11.32809
 Alpha  occ. eigenvalues --  -11.29068  -1.30163  -1.19670  -1.16877  -1.12592
 Alpha  occ. eigenvalues --   -1.02124  -0.85547  -0.72704  -0.70241  -0.61367
 Alpha  occ. eigenvalues --   -0.55280  -0.47879  -0.45802  -0.43566  -0.41994
 Alpha  occ. eigenvalues --   -0.41559  -0.41040  -0.38688  -0.34611  -0.34215
 Alpha  occ. eigenvalues --   -0.32326  -0.31602  -0.30011  -0.26512  -0.25349
 Alpha  occ. eigenvalues --   -0.17177  -0.16786  -0.02327  -0.01411  -0.00689
 Alpha virt. eigenvalues --    0.12792   0.14435   0.15742   0.16407   0.18298
 Alpha virt. eigenvalues --    0.19463   0.20248   0.20692   0.22411   0.23176
 Alpha virt. eigenvalues --    0.23496   0.23651   0.24631   0.25096   0.25308

 Mulliken charges:
               1
     1  C    0.375193
     2  C   -0.633216
     3  F   -0.048713
     4  H    1.334555
     5  C    4.283006
     6  N   -3.444689
     7  C    2.281100
     8  N   -3.024799
     9  C    1.588680
    10  N   -2.634585
    11  C   -4.036785
    12  H    1.246587
    13  H    1.155695
    14  H    1.332197
    15  F   -0.774226
 Sum of Mulliken charges =  -1.00000

 Dipole moment (field-independent basis, Debye):
    X=              3.3476    Y=             -2.7982    Z=             -1.6840  Tot=              4.6768

 Test job not archived.
 1\1\GINC-SE049\SP\RHF\Aug-CC-pVDZ\C6H4F2N3(1-)\OHZDE\09-Apr-2025\0\\#t
  hf aug-cc-pvdz iop(5/13=1,5/36=2,99/5=2) pseudo=read geom=check guess
 =(read,tcheck) scf=(maxcycle=1)\\title\\-1,1\C,0,-0.03217,-0.012726,-0
 .007729\C,0,-0.429712,-0.082625,-1.497062\F,0,1.379518,0.03244,0.04938
 8\H,0,-1.474737,-0.402136,-1.462579\C,0,-0.522823,1.202159,0.655745\N,
 0,-0.495417,2.251665,1.192469\C,0,-0.441533,-1.228641,0.708677\N,0,-0.
 581969,-2.255524,1.261875\C,0,0.413041,-1.058477,-2.188881\N,0,1.06448
 9,-1.824739,-2.796178\C,0,-0.347721,1.291925,-2.159317\H,0,0.629529,1.

 Normal termination of Gaussian 16 at Wed Apr  9 02:49:03 2025.
