 Gaussian 16, Revision C.01,

 ----------------------------------------------------------------------
 #t hf aug-cc-pvdz symm=none int=(grid=ultrafine) guess=(read,tcheck) s
 table=(opt,rrhf)
 ----------------------------------------------------------------------
 -----
 title
 -----
 Symbolic Z-matrix:
 Charge = -1 Multiplicity = 1

 SCF Done:  E(RHF) =  -852.266066504     A.U. after   16 cycles
 Normal termination of Gaussian 16 at Wed Apr  9 02:56:41 2025.
 Gaussian 16:  ES64L-G16RevC.01  3-Jul-2019

 ----------------------------------------------------------------------
 #t hf aug-cc-pvdz iop(5/13=1,5/36=2,99/5=2) pseudo=read geom=check gue
 ss=(read,tcheck) scf=(maxcycle=1)
 ----------------------------------------------------------------------
 -----
 title
 -----
 Structure from the checkpoint file:  "E2SN2_374_mol2.chk"
 Charge = -1 Multiplicity = 1

                         Standard orientation:
 ---------------------------------------------------------------------
 Center     Atomic      Atomic             Coordinates (Angstroms)
 Number     Number       Type             X           Y           Z
 ---------------------------------------------------------------------
      1          6           0        1.011610    0.204476    0.500719
      2          6           0       -0.439943   -0.159908    0.856372
      3         17           0        1.460348   -0.620959   -1.059320
      4          1           0       -0.658407    0.460502    1.729317
      5          1           0        1.576301   -0.276597    1.303166
      6          7           0        1.354886    1.589141    0.464216
      7          1           0        0.586145    2.125127    0.079733
      8          1           0        1.496495    1.862416    1.432462
      9          7           0       -0.671627   -1.515724    1.218208
     10          1           0       -0.181479   -2.132136    0.580515
     11          1           0       -0.225982   -1.566340    2.145117
     12          7           0       -1.357820    0.284622   -0.242986
     13          8           0       -1.486948    1.507446   -0.390872
     14          8           0       -1.886522   -0.557198   -0.960813
     15          1           0        0.860682   -0.292332    3.332996
 ---------------------------------------------------------------------

 SCF Done:  E(RHF) =  -854.287109950     A.U. after    2 cycles

 The electronic state is 1-A.
 Alpha  occ. eigenvalues --  -99.75825 -20.98257 -20.97124 -15.86582 -15.62606
 Alpha  occ. eigenvalues --  -15.61013 -11.39116 -11.31970 -10.33215  -9.53210
 Alpha  occ. eigenvalues --   -9.52486  -9.52389  -1.86918  -1.56962  -1.31753
 Alpha  occ. eigenvalues --   -1.21353  -1.14817  -0.99680  -0.84211  -0.69988
 Alpha  occ. eigenvalues --   -0.63388  -0.57877  -0.56467  -0.52407  -0.50283
 Alpha  occ. eigenvalues --   -0.47137  -0.46008  -0.43876  -0.39696  -0.37063
 Alpha  occ. eigenvalues --   -0.35802  -0.30793  -0.24836  -0.21089  -0.19831
 Alpha  occ. eigenvalues --   -0.18861  -0.12171
 Alpha virt. eigenvalues --    0.14619   0.15207   0.16374   0.16642   0.17298
 Alpha virt. eigenvalues --    0.18317   0.18955   0.21586   0.22856   0.23405
 Alpha virt. eigenvalues --    0.24533   0.25456   0.26075   0.26416   0.26742

 Mulliken charges:
               1
     1  C   -0.280456
     2  C    1.495073
     3  Cl  -0.078811
     4  H    1.903206
     5  H    1.858658
     6  N   -2.578856
     7  H    0.736243
     8  H    0.461469
     9  N   -2.988572
    10  H    0.535057
    11  H    0.567830
    12  N    4.170769
    13  O   -2.950521
    14  O   -2.826179
    15  H   -1.024910
 Sum of Mulliken charges =  -1.00000

 Dipole moment (field-independent basis, Debye):
    X=             -2.2538    Y=              1.3000    Z=             -8.2322  Tot=              8.6336

 Test job not archived.
 1\1\GINC-SE094\SP\RHF\Aug-CC-pVDZ\C2H7Cl1N3O2(1-)\OHZDE\09-Apr-2025\0\
 \#t hf aug-cc-pvdz iop(5/13=1,5/36=2,99/5=2) pseudo=read geom=check gu
 ess=(read,tcheck) scf=(maxcycle=1)\\title\\-1,1\C,0,-0.097511,0.0857,0
 .015704\C,0,-0.580118,0.417832,-1.406635\Cl,0,1.686267,-0.277225,-0.03
 7714\H,0,-1.617832,0.730005,-1.263926\H,0,-0.618973,-0.851308,0.226232
 \N,0,-0.398675,1.021093,1.050502\H,0,-0.32221,1.966215,0.694175\H,0,-1
 .364867,0.84266,1.309089\N,0,-0.574552,-0.660081,-2.334489\H,0,0.28728
 6,-1.18602,-2.247975\H,0,-1.356747,-1.236547,-1.993638\N,0,0.17052,1.6

 Normal termination of Gaussian 16 at Wed Apr  9 02:56:47 2025.
