 Gaussian 16, Revision C.01,

 ----------------------------------------------------------------------
 #t hf aug-cc-pvdz symm=none int=(grid=ultrafine) guess=(read,tcheck) s
 table=(opt,rrhf)
 ----------------------------------------------------------------------
 -----
 title
 -----
 Symbolic Z-matrix:
 Charge = -1 Multiplicity = 1

 SCF Done:  E(RHF) =  -426.702983522     A.U. after   13 cycles
 Normal termination of Gaussian 16 at Wed Apr  9 02:57:58 2025.
 Gaussian 16:  ES64L-G16RevC.01  3-Jul-2019

 ----------------------------------------------------------------------
 #t hf aug-cc-pvdz iop(5/13=1,5/36=2,99/5=2) pseudo=read geom=check gue
 ss=(read,tcheck) scf=(maxcycle=1)
 ----------------------------------------------------------------------
 -----
 title
 -----
 Structure from the checkpoint file:  "E2SN2_399_mol2.chk"
 Charge = -1 Multiplicity = 1

                         Standard orientation:
 ---------------------------------------------------------------------
 Center     Atomic      Atomic             Coordinates (Angstroms)
 Number     Number       Type             X           Y           Z
 ---------------------------------------------------------------------
      1          6           0       -0.725654   -0.160868   -0.025854
      2          6           0       -0.344265    1.305377   -0.264329
      3          9           0       -2.146772   -0.186045   -0.166643
      4          1           0       -0.582539    1.524737   -1.315761
      5          1           0       -1.003056    1.939089    0.343773
      6          7           0       -0.170068   -1.080710   -0.968391
      7          1           0       -0.233064   -0.666508   -1.893898
      8          1           0        0.845592   -1.151875   -0.725438
      9          6           0       -0.374533   -0.628917    1.369148
     10          1           0       -0.853502   -1.595508    1.538471
     11          1           0        0.710426   -0.749623    1.400560
     12          1           0       -0.720745    0.083709    2.124152
     13          7           0        1.053671    1.632630    0.006580
     14          1           0        1.140856    1.781846    1.005550
     15          1           0        1.634656    0.791770   -0.169020
     16          9           0        2.318203   -0.804470   -0.061080
 ---------------------------------------------------------------------

 SCF Done:  E(RHF) =  -428.519922126     A.U. after    2 cycles

 The electronic state is 1-A.
 Alpha  occ. eigenvalues --  -29.08447 -28.89973 -15.55492 -15.54857 -11.33759
 Alpha  occ. eigenvalues --  -11.27109 -11.21236  -1.26057  -1.13547  -0.96366
 Alpha  occ. eigenvalues --   -0.85000  -0.71684  -0.56581  -0.52042  -0.50502
 Alpha  occ. eigenvalues --   -0.47833  -0.42695  -0.37561  -0.37109  -0.35037
 Alpha  occ. eigenvalues --   -0.33395  -0.27511  -0.23774  -0.22023  -0.15826
 Alpha  occ. eigenvalues --   -0.09956  -0.08308   0.01277   0.01890   0.03535
 Alpha virt. eigenvalues --    0.14148   0.14854   0.15044   0.15508   0.16491
 Alpha virt. eigenvalues --    0.16782   0.18866   0.20242   0.21014   0.21752
 Alpha virt. eigenvalues --    0.24456   0.25033   0.25973   0.26500   0.26897

 Mulliken charges:
               1
     1  C    5.058873
     2  C   -2.769262
     3  F    0.002303
     4  H    1.111418
     5  H    1.360824
     6  N   -3.881492
     7  H    0.464211
     8  H    0.211679
     9  C   -4.040003
    10  H    1.079846
    11  H    1.140387
    12  H    1.112748
    13  N   -2.147758
    14  H    0.378191
    15  H    0.617079
    16  F   -0.699045
 Sum of Mulliken charges =  -1.00000

 Dipole moment (field-independent basis, Debye):
    X=             -5.9829    Y=              1.4968    Z=              0.7582  Tot=              6.2137

 Test job not archived.
 1\1\GINC-SE131\SP\RHF\Aug-CC-pVDZ\C3H9F2N2(1-)\OHZDE\09-Apr-2025\0\\#t
  hf aug-cc-pvdz iop(5/13=1,5/36=2,99/5=2) pseudo=read geom=check guess
 =(read,tcheck) scf=(maxcycle=1)\\title\\-1,1\C,0,-0.001663,-0.007077,-
 0.040882\C,0,-0.179848,0.233072,-1.545136\F,0,1.407839,0.087541,0.1697
 94\H,0,0.119877,1.274573,-1.734461\H,0,0.5356,-0.40073,-2.085333\N,0,-
 0.641165,0.959684,0.795522\H,0,-0.493812,1.879627,0.390445\H,0,-1.6649
 14,0.750453,0.733759\C,0,-0.457149,-1.386482,0.381209\H,0,-0.114622,-1
 .564311,1.402694\H,0,-1.549015,-1.381674,0.358868\H,0,-0.045979,-2.157

 Normal termination of Gaussian 16 at Wed Apr  9 02:58:03 2025.
