 Gaussian 16, Revision C.01,

 ----------------------------------------------------------------------
 #t hf aug-cc-pvdz symm=none int=(grid=ultrafine) guess=(read,tcheck) s
 table=(opt,rrhf)
 ----------------------------------------------------------------------
 -----
 title
 -----
 Symbolic Z-matrix:
 Charge = -1 Multiplicity = 1

 SCF Done:  E(RHF) =  -987.885572568     A.U. after   16 cycles
 Normal termination of Gaussian 16 at Wed Apr  9 02:43:21 2025.
 Gaussian 16:  ES64L-G16RevC.01  3-Jul-2019

 ----------------------------------------------------------------------
 #t hf aug-cc-pvdz iop(5/13=1,5/36=2,99/5=2) pseudo=read geom=check gue
 ss=(read,tcheck) scf=(maxcycle=1)
 ----------------------------------------------------------------------
 -----
 title
 -----
 Structure from the checkpoint file:  "E2SN2_219_mol1.chk"
 Charge = -1 Multiplicity = 1

                         Standard orientation:
 ---------------------------------------------------------------------
 Center     Atomic      Atomic             Coordinates (Angstroms)
 Number     Number       Type             X           Y           Z
 ---------------------------------------------------------------------
      1          6           0       -0.187835    0.050711   -0.364923
      2          1           0        0.842664    0.347715    1.478469
      3          9           0       -0.129226   -1.691086   -1.192157
      4         17           0       -0.359559    2.114379    0.124776
      5          6           0        0.968638   -0.268629    0.587799
      6          1           0       -0.063788    0.281004   -1.402640
      7          7           0       -1.559376   -0.309369    0.042664
      8          8           0       -1.727121   -0.659961    1.206330
      9          8           0       -2.432302   -0.200592   -0.808757
     10          6           0        2.191736    0.202463   -0.101629
     11          7           0        3.220473    0.497508   -0.587203
     12          7           0        1.063743   -1.664298    0.995258
     13          1           0        2.007041   -1.844223    1.316319
     14          1           0        0.855876   -2.198899    0.152994
 ---------------------------------------------------------------------

 SCF Done:  E(RHF) =  -990.368799418     A.U. after    2 cycles

 The electronic state is 1-A.
 Alpha  occ. eigenvalues --  -99.71290 -28.97533 -20.96720 -20.96483 -15.87431
 Alpha  occ. eigenvalues --  -15.65353 -15.61350 -11.45664 -11.38392 -11.32022
 Alpha  occ. eigenvalues --  -10.28359  -9.48434  -9.47911  -9.47796  -1.86580
 Alpha  occ. eigenvalues --   -1.56459  -1.28920  -1.16680  -1.13774  -1.04273
 Alpha  occ. eigenvalues --   -0.92261  -0.73804  -0.64482  -0.62213  -0.57089
 Alpha  occ. eigenvalues --   -0.55341  -0.50722  -0.48122  -0.44135  -0.41665
 Alpha  occ. eigenvalues --   -0.40189  -0.36352  -0.34212  -0.33420  -0.32117
 Alpha  occ. eigenvalues --   -0.30949  -0.25304  -0.23142  -0.18630  -0.18467
 Alpha  occ. eigenvalues --   -0.07669  -0.05140  -0.03757
 Alpha virt. eigenvalues --    0.13721   0.15450   0.16472   0.17493   0.18886
 Alpha virt. eigenvalues --    0.19952   0.21943   0.22408   0.23160   0.24895
 Alpha virt. eigenvalues --    0.25161   0.26146   0.27186   0.27474   0.28108

 Mulliken charges:
               1
     1  C   -2.040935
     2  H    1.742234
     3  F   -0.415759
     4  Cl  -0.513978
     5  C    0.970432
     6  H    1.661427
     7  N    5.490891
     8  O   -3.128994
     9  O   -3.199813
    10  C    3.103332
    11  N   -2.879973
    12  N   -2.617673
    13  H    0.621026
    14  H    0.207782
 Sum of Mulliken charges =  -1.00000

 Dipole moment (field-independent basis, Debye):
    X=              0.1661    Y=             -5.3763    Z=             -0.1952  Tot=              5.3824

 Test job not archived.
 1\1\GINC-SE195\SP\RHF\Aug-CC-pVDZ\C3H4Cl1F1N3O2(1-)\OHZDE\09-Apr-2025\
 0\\#t hf aug-cc-pvdz iop(5/13=1,5/36=2,99/5=2) pseudo=read geom=check
 guess=(read,tcheck) scf=(maxcycle=1)\\title\\-1,1\C,0,0.53586074,-0.00
 267822,-0.06620779\H,0,1.74709248,1.72718928,-0.36405029\F,0,-1.320016
 21,0.06111865,-0.58894976\Cl,0,2.44466243,-0.42025265,0.77648258\C,0,0
 .69917669,1.51849944,-0.14641771\H,0,0.04221267,-0.51137062,0.73555533
 \N,0,0.74018702,-0.80099434,-1.29007466\O,0,1.22797468,-0.22962512,-2.
 26000853\O,0,0.43325769,-1.98470012,-1.23189794\C,0,0.42751164,2.01892

 Normal termination of Gaussian 16 at Wed Apr  9 02:43:28 2025.
