 Gaussian 16, Revision C.01,

 ----------------------------------------------------------------------
 #t hf aug-cc-pvdz symm=none int=(grid=ultrafine) guess=(read,tcheck) s
 table=(opt,rrhf)
 ----------------------------------------------------------------------
 -----
 title
 -----
 Symbolic Z-matrix:
 Charge = -1 Multiplicity = 1

 SCF Done:  E(RHF) =  -627.871674611     A.U. after   16 cycles
 Normal termination of Gaussian 16 at Wed Apr  9 02:50:10 2025.
 Gaussian 16:  ES64L-G16RevC.01  3-Jul-2019

 ----------------------------------------------------------------------
 #t hf aug-cc-pvdz iop(5/13=1,5/36=2,99/5=2) pseudo=read geom=check gue
 ss=(read,tcheck) scf=(maxcycle=1)
 ----------------------------------------------------------------------
 -----
 title
 -----
 Structure from the checkpoint file:  "E2SN2_291_mol2.chk"
 Charge = -1 Multiplicity = 1

                         Standard orientation:
 ---------------------------------------------------------------------
 Center     Atomic      Atomic             Coordinates (Angstroms)
 Number     Number       Type             X           Y           Z
 ---------------------------------------------------------------------
      1          6           0       -0.620944    0.288720    0.527571
      2          6           0        0.310588   -0.816261    0.060920
      3          9           0       -0.009503    0.904739    1.655188
      4          1           0        0.386840   -1.537484    0.870353
      5          1           0       -0.151489   -1.312791   -0.805826
      6          6           0       -0.765112    1.413051   -0.437917
      7          7           0       -1.019577    2.314605   -1.147346
      8          7           0       -1.842024   -0.311513    0.866798
      9          1           0       -2.000429   -1.129145    0.171504
     10          1           0       -2.595059    0.362844    0.826654
     11          7           0        1.679423   -0.329144   -0.213123
     12          8           0        1.817257    0.552080   -1.061439
     13          8           0        2.610111   -0.857758    0.398196
     14          9           0       -1.805024   -2.123484   -0.900130
 ---------------------------------------------------------------------

 SCF Done:  E(RHF) =  -630.429255685     A.U. after    2 cycles

 The electronic state is 1-A.
 Alpha  occ. eigenvalues --  -29.14478 -28.93571 -20.98432 -20.98140 -15.87842
 Alpha  occ. eigenvalues --  -15.65442 -15.59498 -11.44877 -11.34130 -11.31290
 Alpha  occ. eigenvalues --   -1.87606  -1.57327  -1.32090  -1.16938  -1.09185
 Alpha  occ. eigenvalues --   -0.93999  -0.77402  -0.69123  -0.61605  -0.59174
 Alpha  occ. eigenvalues --   -0.54367  -0.53733  -0.50653  -0.45482  -0.44680
 Alpha  occ. eigenvalues --   -0.41149  -0.35059  -0.33244  -0.30102  -0.27011
 Alpha  occ. eigenvalues --   -0.24119  -0.21957  -0.20314  -0.19678  -0.15469
 Alpha  occ. eigenvalues --   -0.14818  -0.02348  -0.01427   0.00165
 Alpha virt. eigenvalues --    0.14851   0.15706   0.17719   0.19091   0.19917
 Alpha virt. eigenvalues --    0.20976   0.21842   0.22765   0.23725   0.24803
 Alpha virt. eigenvalues --    0.25081   0.25649   0.26728   0.27256   0.29544

 Mulliken charges:
               1
     1  C    4.046251
     2  C   -1.706665
     3  F    0.149565
     4  H    1.569704
     5  H    0.990814
     6  C    1.169594
     7  N   -2.459333
     8  N   -3.349180
     9  H    0.025691
    10  H    0.468976
    11  N    3.936217
    12  O   -2.780365
    13  O   -2.683927
    14  F   -0.377342
 Sum of Mulliken charges =  -1.00000

 Dipole moment (field-independent basis, Debye):
    X=              3.8068    Y=              2.4973    Z=              3.8054  Tot=              5.9337

 Test job not archived.
 1\1\GINC-SE149\SP\RHF\Aug-CC-pVDZ\C3H4F2N3O2(1-)\OHZDE\09-Apr-2025\0\\
 #t hf aug-cc-pvdz iop(5/13=1,5/36=2,99/5=2) pseudo=read geom=check gue
 ss=(read,tcheck) scf=(maxcycle=1)\\title\\-1,1\C,0,0.025685,0.021704,0
 .028767\C,0,-0.592812,0.332758,-1.322974\F,0,1.41766,-0.183376,-0.1838
 53\H,0,-0.447731,-0.540805,-1.953053\H,0,-1.673608,0.483895,-1.180346\
 C,0,-0.007888,1.157778,0.990682\N,0,-0.046225,1.9498,1.857904\N,0,-0.5
 97767,-1.136215,0.515515\H,0,-1.634995,-1.097679,0.199731\H,0,-0.51664
 6,-1.189372,1.522503\N,0,0.065624,1.468871,-2.002534\O,0,0.077292,2.55

 Normal termination of Gaussian 16 at Wed Apr  9 02:50:16 2025.
