 Gaussian 16, Revision C.01,

 ----------------------------------------------------------------------
 #t hf aug-cc-pvdz symm=none int=(grid=ultrafine) guess=(read,tcheck) s
 table=(opt,rrhf)
 ----------------------------------------------------------------------
 -----
 title
 -----
 Symbolic Z-matrix:
 Charge = -1 Multiplicity = 1

 SCF Done:  E(RHF) =  -463.399655041     A.U. after   15 cycles
 Normal termination of Gaussian 16 at Wed Apr  9 02:50:33 2025.
 Gaussian 16:  ES64L-G16RevC.01  3-Jul-2019

 ----------------------------------------------------------------------
 #t hf aug-cc-pvdz iop(5/13=1,5/36=2,99/5=2) pseudo=read geom=check gue
 ss=(read,tcheck) scf=(maxcycle=1)
 ----------------------------------------------------------------------
 -----
 title
 -----
 Structure from the checkpoint file:  "E2SN2_298_mol2.chk"
 Charge = -1 Multiplicity = 1

                         Standard orientation:
 ---------------------------------------------------------------------
 Center     Atomic      Atomic             Coordinates (Angstroms)
 Number     Number       Type             X           Y           Z
 ---------------------------------------------------------------------
      1          6           0       -0.473242    0.188934    0.227119
      2          6           0        0.437824    0.611517   -0.917713
      3          9           0       -0.996889    1.393900    0.823608
      4          1           0       -0.146030    1.250688   -1.588408
      5          1           0        0.740530   -0.302546   -1.431311
      6          6           0       -1.712583   -0.447270   -0.314696
      7          7           0       -2.670171   -0.986518   -0.732177
      8          7           0        0.200088   -0.586405    1.161512
      9          1           0       -0.419793   -1.183177    1.690383
     10          1           0        1.056691   -1.107950    0.713627
     11          6           0        1.696684    1.307435   -0.408186
     12          1           0        2.339282    0.533613    0.008924
     13          1           0        2.218878    1.794479   -1.238709
     14          1           0        1.454150    2.062056    0.342874
     15          9           0        2.147419   -1.616167   -0.048260
 ---------------------------------------------------------------------

 SCF Done:  E(RHF) =  -465.351588766     A.U. after    2 cycles

 The electronic state is 1-A.
 Alpha  occ. eigenvalues --  -29.10819 -28.91060 -15.64159 -15.56090 -11.40641
 Alpha  occ. eigenvalues --  -11.31389 -11.27343 -11.22055  -1.28809  -1.15552
 Alpha  occ. eigenvalues --   -1.03129  -0.91214  -0.75329  -0.64376  -0.58145
 Alpha  occ. eigenvalues --   -0.53336  -0.48068  -0.43227  -0.42127  -0.37536
 Alpha  occ. eigenvalues --   -0.35918  -0.34868  -0.32982  -0.29842  -0.27553
 Alpha  occ. eigenvalues --   -0.24538  -0.17900  -0.11935  -0.11821   0.00296
 Alpha  occ. eigenvalues --    0.00769   0.02452
 Alpha virt. eigenvalues --    0.13552   0.14861   0.15493   0.16054   0.17625
 Alpha virt. eigenvalues --    0.18544   0.19400   0.21091   0.22050   0.23044
 Alpha virt. eigenvalues --    0.24140   0.24374   0.25627   0.26810   0.26950

 Mulliken charges:
               1
     1  C    4.390231
     2  C   -3.235703
     3  F    0.046090
     4  H    1.399295
     5  H    1.233463
     6  C    0.983195
     7  N   -2.458378
     8  N   -3.536557
     9  H    0.456456
    10  H    0.033086
    11  C   -3.384191
    12  H    1.179193
    13  H    1.004181
    14  H    1.258154
    15  F   -0.368516
 Sum of Mulliken charges =  -1.00000

 Dipole moment (field-independent basis, Debye):
    X=             -2.3344    Y=              5.5742    Z=              0.6950  Tot=              6.0832

 Test job not archived.
 1\1\GINC-SE023\SP\RHF\Aug-CC-pVDZ\C4H7F2N2(1-)\OHZDE\09-Apr-2025\0\\#t
  hf aug-cc-pvdz iop(5/13=1,5/36=2,99/5=2) pseudo=read geom=check guess
 =(read,tcheck) scf=(maxcycle=1)\\title\\-1,1\C,0,0.07606,0.099027,0.03
 6216\C,0,-0.399015,0.143654,-1.41001\F,0,1.501675,-0.122192,0.011056\H
 ,0,0.185081,0.911577,-1.928066\H,0,-1.454243,0.420768,-1.384995\C,0,-0
 .010977,1.461598,0.644584\N,0,-0.116465,2.521425,1.142271\N,0,-0.57609
 6,-0.88866,0.762013\H,0,-0.584751,-0.700052,1.754206\H,0,-1.56227,-1.1
 19438,0.337064\C,0,-0.283654,-1.221028,-2.083051\H,0,-1.088044,-1.8385

 Normal termination of Gaussian 16 at Wed Apr  9 02:50:39 2025.
