 Gaussian 16, Revision C.01,

 ----------------------------------------------------------------------
 #t hf aug-cc-pvdz symm=none int=(grid=ultrafine) guess=(read,tcheck) s
 table=(opt,rrhf)
 ----------------------------------------------------------------------
 -----
 title
 -----
 Symbolic Z-matrix:
 Charge = -1 Multiplicity = 1

 SCF Done:  E(RHF) =  -823.445285935     A.U. after   16 cycles
 Normal termination of Gaussian 16 at Wed Apr  9 02:36:06 2025.
 Gaussian 16:  ES64L-G16RevC.01  3-Jul-2019

 ----------------------------------------------------------------------
 #t hf aug-cc-pvdz iop(5/13=1,5/36=2,99/5=2) pseudo=read geom=check gue
 ss=(read,tcheck) scf=(maxcycle=1)
 ----------------------------------------------------------------------
 -----
 title
 -----
 Structure from the checkpoint file:  "E2SN2_139_mol2.chk"
 Charge = -1 Multiplicity = 1

                         Standard orientation:
 ---------------------------------------------------------------------
 Center     Atomic      Atomic             Coordinates (Angstroms)
 Number     Number       Type             X           Y           Z
 ---------------------------------------------------------------------
      1          6           0       -0.091699   -0.312778   -0.183759
      2          6           0        0.154867    1.072780   -0.782502
      3         17           0       -1.928709   -0.630648   -0.235421
      4          1           0        1.248439    1.100500   -0.813262
      5          1           0       -0.226557    1.036493   -1.810292
      6          7           0        0.597824   -1.377074   -0.825577
      7          1           0        1.630879   -1.041849   -0.696768
      8          1           0        0.389018   -1.297232   -1.818659
      9          6           0        0.248433   -0.313467    1.249649
     10          7           0        0.464408   -0.279090    2.403155
     11          6           0       -0.440485    2.249976   -0.024584
     12          1           0       -1.529604    2.185324    0.036991
     13          1           0       -0.181872    3.188329   -0.524481
     14          1           0       -0.042134    2.296580    0.991907
     15          9           0        2.759728   -0.148116   -0.439905
 ---------------------------------------------------------------------

 SCF Done:  E(RHF) =  -825.310398496     A.U. after    2 cycles

 The electronic state is 1-A.
 Alpha  occ. eigenvalues --  -99.74969 -28.91006 -15.62829 -15.56876 -11.39148
 Alpha  occ. eigenvalues --  -11.31302 -11.28261 -11.24183 -10.32289  -9.52288
 Alpha  occ. eigenvalues --   -9.51580  -9.51560  -1.30209  -1.14601  -1.12702
 Alpha  occ. eigenvalues --   -1.03489  -0.86279  -0.76800  -0.61349  -0.52154
 Alpha  occ. eigenvalues --   -0.49904  -0.49547  -0.44888  -0.42328  -0.40148
 Alpha  occ. eigenvalues --   -0.39132  -0.37055  -0.35686  -0.33978  -0.29747
 Alpha  occ. eigenvalues --   -0.29560  -0.26604  -0.21226  -0.00120   0.00476
 Alpha  occ. eigenvalues --    0.02445
 Alpha virt. eigenvalues --    0.12894   0.14426   0.14545   0.15285   0.16996
 Alpha virt. eigenvalues --    0.17375   0.19417   0.20041   0.21388   0.22997
 Alpha virt. eigenvalues --    0.23441   0.24062   0.24766   0.25691   0.26202

 Mulliken charges:
               1
     1  C    3.235236
     2  C   -2.296401
     3  Cl  -0.203113
     4  H    0.999691
     5  H    1.265114
     6  N   -3.849500
     7  H    0.125717
     8  H    0.530478
     9  C    2.601570
    10  N   -2.821625
    11  C   -3.719644
    12  H    1.237686
    13  H    1.140678
    14  H    1.224970
    15  F   -0.470855
 Sum of Mulliken charges =  -1.00000

 Dipole moment (field-independent basis, Debye):
    X=             -3.6587    Y=              2.7891    Z=             -1.7294  Tot=              4.9149

 Test job not archived.
 1\1\GINC-SE073\SP\RHF\Aug-CC-pVDZ\C4H7Cl1F1N2(1-)\OHZDE\09-Apr-2025\0\
 \#t hf aug-cc-pvdz iop(5/13=1,5/36=2,99/5=2) pseudo=read geom=check gu
 ess=(read,tcheck) scf=(maxcycle=1)\\title\\-1,1\C,0,-0.000216,-0.02548
 1,-1.471356\C,0,0.015203,-0.00032,0.057757\Cl,0,-1.732885,0.386837,-2.
 02468\H,0,1.082199,-0.131293,0.262651\H,0,-0.278977,1.014561,0.352084\
 N,0,0.925333,0.853149,-2.097029\H,0,1.862466,0.473259,-1.680334\H,0,0.
 775196,1.770916,-1.683087\C,0,0.232258,-1.396355,-1.95819\N,0,0.356079
 ,-2.50411,-2.326906\C,0,-0.848156,-1.039401,0.757469\H,0,-1.905814,-0.

 Normal termination of Gaussian 16 at Wed Apr  9 02:36:12 2025.
