 Gaussian 16, Revision C.01,

 ----------------------------------------------------------------------
 #t hf aug-cc-pvdz symm=none int=(grid=ultrafine) guess=(read,tcheck) s
 table=(opt,rrhf)
 ----------------------------------------------------------------------
 -----
 title
 -----
 Symbolic Z-matrix:
 Charge = -1 Multiplicity = 1

 SCF Done:  E(RHF) =  -611.864105933     A.U. after   16 cycles
 Normal termination of Gaussian 16 at Wed Apr  9 02:44:25 2025.
 Gaussian 16:  ES64L-G16RevC.01  3-Jul-2019

 ----------------------------------------------------------------------
 #t hf aug-cc-pvdz iop(5/13=1,5/36=2,99/5=2) pseudo=read geom=check gue
 ss=(read,tcheck) scf=(maxcycle=1)
 ----------------------------------------------------------------------
 -----
 title
 -----
 Structure from the checkpoint file:  "E2SN2_231_mol2.chk"
 Charge = -1 Multiplicity = 1

                         Standard orientation:
 ---------------------------------------------------------------------
 Center     Atomic      Atomic             Coordinates (Angstroms)
 Number     Number       Type             X           Y           Z
 ---------------------------------------------------------------------
      1          6           0        0.019168   -0.437809    0.222874
      2          6           0       -0.896109    0.315796   -0.709367
      3          9           0       -0.158764   -1.819648    0.111810
      4          1           0       -0.702890    0.015233   -1.739488
      5          1           0       -0.519950    1.396927   -0.526726
      6          7           0        1.453144   -0.251731   -0.281234
      7          8           0        1.619948   -0.261824   -1.496791
      8          8           0        2.353415   -0.236356    0.549882
      9          6           0       -0.087110   -0.005424    1.653142
     10          1           0       -1.109363   -0.183186    1.994048
     11          1           0        0.611257   -0.564302    2.273842
     12          1           0        0.145415    1.062661    1.638311
     13          6           0       -2.287711    0.101263   -0.373142
     14          7           0       -3.423900   -0.048493   -0.108669
     15          9           0        0.502596    2.321504    0.099697
 ---------------------------------------------------------------------

 SCF Done:  E(RHF) =  -614.376148737     A.U. after    2 cycles

 The electronic state is 1-A.
 Alpha  occ. eigenvalues --  -29.16207 -28.91732 -20.97135 -20.96823 -15.86198
 Alpha  occ. eigenvalues --  -15.63815 -11.42993 -11.34125 -11.29447 -11.25658
 Alpha  occ. eigenvalues --   -1.86519  -1.56531  -1.24405  -1.16003  -0.95945
 Alpha  occ. eigenvalues --   -0.91595  -0.77243  -0.64367  -0.59583  -0.55971
 Alpha  occ. eigenvalues --   -0.52513  -0.50705  -0.47827  -0.44730  -0.43554
 Alpha  occ. eigenvalues --   -0.40563  -0.39256  -0.33725  -0.31286  -0.28139
 Alpha  occ. eigenvalues --   -0.26283  -0.22793  -0.19367  -0.18633  -0.15148
 Alpha  occ. eigenvalues --   -0.14875  -0.00659   0.00068   0.01837
 Alpha virt. eigenvalues --    0.13870   0.15152   0.15838   0.17369   0.18851
 Alpha virt. eigenvalues --    0.19311   0.20076   0.22378   0.23400   0.24388
 Alpha virt. eigenvalues --    0.24717   0.25490   0.25842   0.26740   0.27308

 Mulliken charges:
               1
     1  C    2.586451
     2  C   -2.522109
     3  F    0.065610
     4  H    1.548935
     5  H    0.822763
     6  N    4.780765
     7  O   -3.206218
     8  O   -3.118563
     9  C   -3.456425
    10  H    1.173433
    11  H    1.258328
    12  H    0.648594
    13  C    1.808769
    14  N   -2.621218
    15  F   -0.769115
 Sum of Mulliken charges =  -1.00000

 Dipole moment (field-independent basis, Debye):
    X=              2.1100    Y=             -5.4820    Z=              0.2434  Tot=              5.8791

 Test job not archived.
 1\1\GINC-SE398\SP\RHF\Aug-CC-pVDZ\C4H5F2N2O2(1-)\OHZDE\09-Apr-2025\0\\
 #t hf aug-cc-pvdz iop(5/13=1,5/36=2,99/5=2) pseudo=read geom=check gue
 ss=(read,tcheck) scf=(maxcycle=1)\\title\\-1,1\C,0,-0.024157,-0.008832
 ,0.002717\C,0,-0.630754,0.06311,-1.376265\F,0,1.370565,0.068407,-0.044
 791\H,0,-0.343779,0.998407,-1.857604\H,0,-1.755926,0.080626,-1.098092\
 N,0,-0.397377,1.278497,0.743345\O,0,-0.39163,2.316713,0.08945\O,0,-0.5
 48797,1.215559,1.957671\C,0,-0.459747,-1.205171,0.79199\H,0,-0.148724,
 -2.105288,0.257322\H,0,-0.011495,-1.191903,1.784071\H,0,-1.549274,-1.1

 Normal termination of Gaussian 16 at Wed Apr  9 02:44:32 2025.
