 Gaussian 16, Revision C.01,

 ----------------------------------------------------------------------
 #t hf aug-cc-pvdz symm=none int=(grid=ultrafine) guess=(read,tcheck) s
 table=(opt,rrhf)
 ----------------------------------------------------------------------
 -----
 title
 -----
 Symbolic Z-matrix:
 Charge = -1 Multiplicity = 1

 SCF Done:  E(RHF) =  -836.217406983     A.U. after   17 cycles
 Normal termination of Gaussian 16 at Wed Apr  9 02:59:21 2025.
 Gaussian 16:  ES64L-G16RevC.01  3-Jul-2019

 ----------------------------------------------------------------------
 #t hf aug-cc-pvdz iop(5/13=1,5/36=2,99/5=2) pseudo=read geom=check gue
 ss=(read,tcheck) scf=(maxcycle=1)
 ----------------------------------------------------------------------
 -----
 title
 -----
 Structure from the checkpoint file:  "E2SN2_42_mol1.chk"
 Charge = -1 Multiplicity = 1

                         Standard orientation:
 ---------------------------------------------------------------------
 Center     Atomic      Atomic             Coordinates (Angstroms)
 Number     Number       Type             X           Y           Z
 ---------------------------------------------------------------------
      1          6           0       -0.132121   -0.132016    0.478839
      2          6           0        0.251923    1.210370    0.874992
      3         17           0       -1.900855   -0.247652   -0.420696
      4          1           0        1.996182    0.430600    2.491798
      5          1           0        1.253427    0.917026    1.612420
      6          1           0       -0.432367    1.538873    1.663835
      7          7           0        0.836699   -0.639889   -0.584166
      8          8           0        1.653927   -1.485152   -0.228031
      9          8           0        0.801653   -0.114828   -1.694905
     10          7           0       -0.177796   -1.085204    1.525425
     11          1           0       -0.965780   -0.839749    2.113445
     12          1           0        0.682765   -0.906694    2.079270
     13          6           0        0.509810    2.290507   -0.151276
     14          1           0       -0.337114    2.423603   -0.833164
     15          1           0        0.694111    3.239027    0.363767
     16          1           0        1.388667    2.069726   -0.760183
 ---------------------------------------------------------------------

 SCF Done:  E(RHF) =  -838.225056163     A.U. after    2 cycles

 The electronic state is 1-A.
 Alpha  occ. eigenvalues --  -99.73685 -20.96742 -20.96017 -15.85617 -15.61354
 Alpha  occ. eigenvalues --  -11.42824 -11.27185 -11.22416 -10.30766  -9.50866
 Alpha  occ. eigenvalues --   -9.50122  -9.50102  -1.85761  -1.55812  -1.29190
 Alpha  occ. eigenvalues --   -1.11748  -1.03842  -0.94731  -0.79930  -0.65377
 Alpha  occ. eigenvalues --   -0.60369  -0.55411  -0.53268  -0.48213  -0.46281
 Alpha  occ. eigenvalues --   -0.44875  -0.41083  -0.40730  -0.37790  -0.37024
 Alpha  occ. eigenvalues --   -0.35642  -0.34504  -0.25464  -0.21706  -0.18193
 Alpha  occ. eigenvalues --   -0.17162  -0.10604
 Alpha virt. eigenvalues --    0.13484   0.14470   0.15073   0.15495   0.16820
 Alpha virt. eigenvalues --    0.17475   0.19293   0.20107   0.21386   0.22541
 Alpha virt. eigenvalues --    0.23407   0.24034   0.25547   0.26001   0.26206

 Mulliken charges:
               1
     1  C    3.179682
     2  C   -2.168995
     3  Cl  -0.219082
     4  H   -0.396868
     5  H    1.171639
     6  H    1.261264
     7  N    4.262823
     8  O   -2.666216
     9  O   -3.157696
    10  N   -3.420804
    11  H    0.546798
    12  H    0.645287
    13  C   -3.765106
    14  H    1.267583
    15  H    1.109710
    16  H    1.349982
 Sum of Mulliken charges =  -1.00000

 Dipole moment (field-independent basis, Debye):
    X=             -3.4418    Y=              0.3561    Z=             -3.9578  Tot=              5.2571

 Test job not archived.
 1\1\GINC-SE460\SP\RHF\Aug-CC-pVDZ\C3H8Cl1N2O2(1-)\OHZDE\09-Apr-2025\0\
 \#t hf aug-cc-pvdz iop(5/13=1,5/36=2,99/5=2) pseudo=read geom=check gu
 ess=(read,tcheck) scf=(maxcycle=1)\\title\\-1,1\C,0,-0.18031064,0.0693
 9614,-0.29622701\C,0,-0.16524992,-0.04493975,1.15053782\Cl,0,1.6195470
 4,0.21983729,-1.12618871\H,0,-2.57178838,0.59281056,1.40820446\H,0,-1.
 41125012,0.13073526,1.37298318\H,0,0.20187495,0.90134778,1.56065803\N,
 0,-0.73809484,-1.21677613,-0.89719614\O,0,-1.87848628,-1.16515043,-1.3
 5107465\O,0,-0.05734346,-2.2364966,-0.81113444\N,0,-0.92621895,1.15710

 Normal termination of Gaussian 16 at Wed Apr  9 02:59:28 2025.
