 Gaussian 16, Revision C.01,

 ----------------------------------------------------------------------
 #t hf aug-cc-pvdz symm=none int=(grid=ultrafine) guess=(read,tcheck) s
 table=(opt,rrhf)
 ----------------------------------------------------------------------
 -----
 title
 -----
 Symbolic Z-matrix:
 Charge = -1 Multiplicity = 1

 SCF Done:  E(RHF) =  -419.429108566     A.U. after   17 cycles
 Normal termination of Gaussian 16 at Wed Apr  9 02:37:10 2025.
 Gaussian 16:  ES64L-G16RevC.01  3-Jul-2019

 ----------------------------------------------------------------------
 #t hf aug-cc-pvdz iop(5/13=1,5/36=2,99/5=2) pseudo=read geom=check gue
 ss=(read,tcheck) scf=(maxcycle=1)
 ----------------------------------------------------------------------
 -----
 title
 -----
 Structure from the checkpoint file:  "E2SN2_147_mol1.chk"
 Charge = -1 Multiplicity = 1

                         Standard orientation:
 ---------------------------------------------------------------------
 Center     Atomic      Atomic             Coordinates (Angstroms)
 Number     Number       Type             X           Y           Z
 ---------------------------------------------------------------------
      1          6           0        0.276318   -0.417274    0.044588
      2          6           0       -0.852446    0.460291   -0.263826
      3          9           0        0.350336   -0.814777    1.469375
      4          1           0       -1.340542   -0.123803   -2.555203
      5          1           0       -0.975662    0.294178   -1.687505
      6          7           0        0.264314   -1.691538   -0.657085
      7          1           0       -0.289014   -1.548292   -1.504526
      8          1           0       -0.241100   -2.340381   -0.067340
      9          6           0        1.578865    0.248161   -0.187597
     10          7           0        2.612099    0.774137   -0.379885
     11          6           0       -0.773383    1.894309    0.201954
     12          1           0        0.165315    2.374853   -0.093327
     13          1           0       -1.595598    2.454318   -0.256190
     14          1           0       -0.879874    1.999232    1.293450
     15          7           0       -2.138677   -0.145525    0.027592
     16          1           0       -2.066192   -0.837836    0.765121
     17          1           0       -2.470633   -0.611708   -0.823931
 ---------------------------------------------------------------------

 SCF Done:  E(RHF) =  -421.343820191     A.U. after    2 cycles

 The electronic state is 1-A.
 Alpha  occ. eigenvalues --  -29.10045 -15.63241 -15.60548 -15.57660 -11.43462
 Alpha  occ. eigenvalues --  -11.31152 -11.25224 -11.21340  -1.30410  -1.16147
 Alpha  occ. eigenvalues --   -1.14885  -0.97451  -0.89175  -0.71353  -0.65574
 Alpha  occ. eigenvalues --   -0.53452  -0.52253  -0.49357  -0.46786  -0.41501
 Alpha  occ. eigenvalues --   -0.41072  -0.37550  -0.35896  -0.33226  -0.31217
 Alpha  occ. eigenvalues --   -0.30374  -0.24687  -0.22973  -0.20232  -0.12812
 Alpha  occ. eigenvalues --   -0.11906  -0.05576
 Alpha virt. eigenvalues --    0.13869   0.14699   0.15163   0.15557   0.16717
 Alpha virt. eigenvalues --    0.16925   0.18338   0.19035   0.19376   0.21885
 Alpha virt. eigenvalues --    0.23387   0.24411   0.24507   0.24968   0.25590

 Mulliken charges:
               1
     1  C    4.624980
     2  C    0.215575
     3  F   -0.028682
     4  H   -0.071629
     5  H    0.609275
     6  N   -3.360649
     7  H    0.762579
     8  H    0.346381
     9  C    1.019986
    10  N   -2.415426
    11  C   -4.354620
    12  H    1.146844
    13  H    1.113522
    14  H    1.142696
    15  N   -2.762964
    16  H    0.553832
    17  H    0.458299
 Sum of Mulliken charges =  -1.00000

 Dipole moment (field-independent basis, Debye):
    X=              0.6940    Y=             -2.1274    Z=              7.8054  Tot=              8.1199

 Test job not archived.
 1\1\GINC-SE114\SP\RHF\Aug-CC-pVDZ\C4H9F1N3(1-)\OHZDE\09-Apr-2025\0\\#t
  hf aug-cc-pvdz iop(5/13=1,5/36=2,99/5=2) pseudo=read geom=check guess
 =(read,tcheck) scf=(maxcycle=1)\\title\\-1,1\C,0,-0.18444526,0.0036373
 2,-0.32353606\C,0,-0.1515735,0.1128995,1.13465737\F,0,1.13337614,-0.29
 775435,-0.92852883\H,0,-2.36619785,-0.62570467,1.75086961\H,0,-1.53514
 041,-0.08248113,1.47701112\N,0,-1.03672128,-1.05910753,-0.83386708\H,0
 ,-1.73647702,-1.23914585,-0.11083486\H,0,-0.45496386,-1.88380609,-0.90
 917118\C,0,-0.56751877,1.28021191,-0.96925706\N,0,-0.87952736,2.291344

 Normal termination of Gaussian 16 at Wed Apr  9 02:37:17 2025.
