 Gaussian 16, Revision C.01,

 ----------------------------------------------------------------------
 #t hf aug-cc-pvdz symm=none int=(grid=ultrafine) guess=(read,tcheck) s
 table=(opt,rrhf)
 ----------------------------------------------------------------------
 -----
 title
 -----
 Symbolic Z-matrix:
 Charge = -1 Multiplicity = 1

 SCF Done:  E(RHF) =  -682.922810303     A.U. after   16 cycles
 Normal termination of Gaussian 16 at Wed Apr  9 02:59:53 2025.
 Gaussian 16:  ES64L-G16RevC.01  3-Jul-2019

 ----------------------------------------------------------------------
 #t hf aug-cc-pvdz iop(5/13=1,5/36=2,99/5=2) pseudo=read geom=check gue
 ss=(read,tcheck) scf=(maxcycle=1)
 ----------------------------------------------------------------------
 -----
 title
 -----
 Structure from the checkpoint file:  "E2SN2_409_mol2.chk"
 Charge = -1 Multiplicity = 1

                         Standard orientation:
 ---------------------------------------------------------------------
 Center     Atomic      Atomic             Coordinates (Angstroms)
 Number     Number       Type             X           Y           Z
 ---------------------------------------------------------------------
      1          6           0       -0.772942    0.192985    0.692292
      2          6           0        0.263311    0.080603   -0.459295
      3          9           0       -0.139745    0.725437    1.806068
      4          1           0       -0.349719   -0.344415   -1.282715
      5          7           0       -1.849795    1.063972    0.332333
      6          1           0       -1.498712    1.987166    0.098539
      7          1           0       -2.236023    0.605511   -0.510221
      8          7           0       -1.210957   -1.135184    0.968501
      9          1           0       -1.638809   -1.415313    0.070848
     10          1           0       -1.964335   -1.040309    1.643370
     11          7           0        1.367378   -0.867155   -0.109323
     12          8           0        2.261293   -0.451845    0.627562
     13          8           0        1.294435   -2.002583   -0.569400
     14          6           0        0.839069    1.376541   -0.779316
     15          7           0        1.257781    2.437737   -1.059114
     16          9           0       -2.047556   -0.786946   -1.598733
 ---------------------------------------------------------------------

 SCF Done:  E(RHF) =  -685.732720074     A.U. after    2 cycles

 The electronic state is 1-A.
 Alpha  occ. eigenvalues --  -29.13767 -28.93767 -20.98381 -20.97949 -15.87991
 Alpha  occ. eigenvalues --  -15.66803 -15.60358 -15.59947 -11.43922 -11.38035
 Alpha  occ. eigenvalues --  -11.33128  -1.87544  -1.57455  -1.36077  -1.20815
 Alpha  occ. eigenvalues --   -1.13783  -1.09838  -0.88542  -0.79760  -0.69568
 Alpha  occ. eigenvalues --   -0.60605  -0.59554  -0.55983  -0.52191  -0.50029
 Alpha  occ. eigenvalues --   -0.48203  -0.47867  -0.46038  -0.41070  -0.34829
 Alpha  occ. eigenvalues --   -0.34350  -0.31633  -0.28326  -0.26896  -0.23288
 Alpha  occ. eigenvalues --   -0.22440  -0.19876  -0.19280  -0.14700  -0.13120
 Alpha  occ. eigenvalues --   -0.02343  -0.02241  -0.00531
 Alpha virt. eigenvalues --    0.14426   0.15291   0.16722   0.18071   0.18516
 Alpha virt. eigenvalues --    0.19630   0.20972   0.21175   0.23393   0.23691
 Alpha virt. eigenvalues --    0.24960   0.25602   0.26164   0.26629   0.27062

 Mulliken charges:
               1
     1  C    5.673417
     2  C   -0.408292
     3  F    0.413849
     4  H    1.604204
     5  N   -3.296721
     6  H    0.570476
     7  H    0.176391
     8  N   -3.682072
     9  H    0.223801
    10  H    0.525606
    11  N    4.155431
    12  O   -2.882861
    13  O   -2.870091
    14  C    2.313756
    15  N   -2.609867
    16  F   -0.907027
 Sum of Mulliken charges =  -1.00000

 Dipole moment (field-independent basis, Debye):
    X=              2.1800    Y=              0.6552    Z=              4.1535  Tot=              4.7363

 Test job not archived.
 1\1\GINC-SE126\SP\RHF\Aug-CC-pVDZ\C3H5F2N4O2(1-)\OHZDE\09-Apr-2025\0\\
 #t hf aug-cc-pvdz iop(5/13=1,5/36=2,99/5=2) pseudo=read geom=check gue
 ss=(read,tcheck) scf=(maxcycle=1)\\title\\-1,1\C,0,-0.00953,-0.007867,
 0.000397\C,0,-0.508374,-0.048952,-1.470001\F,0,1.377762,0.010656,-0.00
 4029\H,0,-1.611885,-0.055054,-1.340798\N,0,-0.469361,1.171966,0.666992
 \H,0,-0.155154,2.003577,0.177192\H,0,-1.497084,1.082981,0.595422\N,0,-
 0.47952,-1.204267,0.616771\H,0,-1.504604,-1.102143,0.538777\H,0,-0.243
 188,-1.116406,1.600873\N,0,-0.072675,-1.303898,-2.15918\O,0,1.085677,-

 Normal termination of Gaussian 16 at Wed Apr  9 03:00:01 2025.
