 Gaussian 16, Revision C.01,

 ----------------------------------------------------------------------
 #t hf aug-cc-pvdz symm=none int=(grid=ultrafine) guess=(read,tcheck) s
 table=(opt,rrhf)
 ----------------------------------------------------------------------
 -----
 title
 -----
 Symbolic Z-matrix:
 Charge = -1 Multiplicity = 1

 SCF Done:  E(RHF) =  -987.917961310     A.U. after   17 cycles
 Normal termination of Gaussian 16 at Wed Apr  9 02:40:21 2025.
 Gaussian 16:  ES64L-G16RevC.01  3-Jul-2019

 ----------------------------------------------------------------------
 #t hf aug-cc-pvdz iop(5/13=1,5/36=2,99/5=2) pseudo=read geom=check gue
 ss=(read,tcheck) scf=(maxcycle=1)
 ----------------------------------------------------------------------
 -----
 title
 -----
 Structure from the checkpoint file:  "E2SN2_180_mol2.chk"
 Charge = -1 Multiplicity = 1

                         Standard orientation:
 ---------------------------------------------------------------------
 Center     Atomic      Atomic             Coordinates (Angstroms)
 Number     Number       Type             X           Y           Z
 ---------------------------------------------------------------------
      1          6           0       -0.696214    0.178123    0.190967
      2          6           0        0.355456   -0.354648   -0.795480
      3         17           0       -2.303478    0.122548   -0.611270
      4          1           0        0.293308    0.157184   -1.761055
      5          1           0       -0.717606   -0.599905    1.032711
      6          6           0       -0.460379    1.534619    0.646333
      7          7           0       -0.306138    2.618654    1.075679
      8          7           0        0.246163   -1.747272   -0.869277
      9          1           0        1.029693   -2.167763   -1.347375
     10          1           0        0.079933   -2.120503    0.095862
     11          7           0        1.738124    0.152731   -0.280676
     12          8           0        2.119817    1.238840   -0.722351
     13          8           0        2.365880   -0.557136    0.498120
     14          9           0       -0.483557   -2.013701    1.603810
 ---------------------------------------------------------------------

 SCF Done:  E(RHF) =  -990.390596649     A.U. after    2 cycles

 The electronic state is 1-A.
 Alpha  occ. eigenvalues --  -99.77679 -28.93314 -20.97798 -20.97300 -15.85706
 Alpha  occ. eigenvalues --  -15.65176 -15.60402 -11.40396 -11.35530 -11.31666
 Alpha  occ. eigenvalues --  -10.34997  -9.54984  -9.54239  -9.54110  -1.86177
 Alpha  occ. eigenvalues --   -1.56630  -1.30749  -1.20783  -1.16676  -1.01367
 Alpha  occ. eigenvalues --   -0.90722  -0.73600  -0.66879  -0.59864  -0.57614
 Alpha  occ. eigenvalues --   -0.51802  -0.51671  -0.50966  -0.45842  -0.44346
 Alpha  occ. eigenvalues --   -0.42529  -0.39278  -0.37070  -0.33604  -0.31985
 Alpha  occ. eigenvalues --   -0.29537  -0.25220  -0.21125  -0.19295  -0.18419
 Alpha  occ. eigenvalues --   -0.01987  -0.01671   0.00085
 Alpha virt. eigenvalues --    0.13600   0.14479   0.16401   0.17992   0.18910
 Alpha virt. eigenvalues --    0.20073   0.21326   0.21733   0.22812   0.24167
 Alpha virt. eigenvalues --    0.24806   0.25168   0.26259   0.26701   0.27335

 Mulliken charges:
               1
     1  C   -1.984010
     2  C    1.541783
     3  Cl  -0.025092
     4  H    1.891934
     5  H    1.682177
     6  C    2.232415
     7  N   -2.574572
     8  N   -2.694409
     9  H    0.485852
    10  H    0.142607
    11  N    4.171830
    12  O   -2.896554
    13  O   -2.683261
    14  F   -0.290699
 Sum of Mulliken charges =  -1.00000

 Dipole moment (field-independent basis, Debye):
    X=              1.8558    Y=             -0.2831    Z=             -2.9591  Tot=              3.5044

 Test job not archived.
 1\1\GINC-SE023\SP\RHF\Aug-CC-pVDZ\C3H4Cl1F1N3O2(1-)\OHZDE\09-Apr-2025\
 0\\#t hf aug-cc-pvdz iop(5/13=1,5/36=2,99/5=2) pseudo=read geom=check
 guess=(read,tcheck) scf=(maxcycle=1)\\title\\-1,1\C,0,-0.256237,-0.113
 278,0.024751\C,0,-0.384052,0.107445,-1.491124\Cl,0,1.164543,0.81643,0.
 613816\H,0,0.559683,-0.0985,-2.006022\H,0,-1.188014,0.388536,0.465539\
 C,0,-0.089618,-1.499042,0.418391\N,0,0.016438,-2.60589,0.801666\N,0,-0
 .904257,1.385128,-1.722873\H,0,-1.190331,1.513494,-2.682557\H,0,-1.659
 277,1.570492,-1.020013\N,0,-1.27474,-1.054166,-2.031088\O,0,-0.681773,

 Normal termination of Gaussian 16 at Wed Apr  9 02:40:28 2025.
