 Gaussian 16, Revision C.01,

 ----------------------------------------------------------------------
 #t hf aug-cc-pvdz symm=none int=(grid=ultrafine) guess=(read,tcheck) s
 table=(opt,rrhf)
 ----------------------------------------------------------------------
 -----
 title
 -----
 Symbolic Z-matrix:
 Charge = -1 Multiplicity = 1

 SCF Done:  E(RHF) =  -611.830647891     A.U. after   17 cycles
 Normal termination of Gaussian 16 at Wed Apr  9 03:01:13 2025.
 Gaussian 16:  ES64L-G16RevC.01  3-Jul-2019

 ----------------------------------------------------------------------
 #t hf aug-cc-pvdz iop(5/13=1,5/36=2,99/5=2) pseudo=read geom=check gue
 ss=(read,tcheck) scf=(maxcycle=1)
 ----------------------------------------------------------------------
 -----
 title
 -----
 Structure from the checkpoint file:  "E2SN2_59_mol2.chk"
 Charge = -1 Multiplicity = 1

                         Standard orientation:
 ---------------------------------------------------------------------
 Center     Atomic      Atomic             Coordinates (Angstroms)
 Number     Number       Type             X           Y           Z
 ---------------------------------------------------------------------
      1          6           0       -0.084837   -0.125612   -0.349184
      2          6           0       -0.898534   -1.232135    0.277040
      3          9           0       -0.093352   -0.323877   -1.745698
      4          1           0       -0.586067   -1.278055    1.331894
      5          1           0       -0.624880   -2.157472   -0.238616
      6          6           0       -0.557769    1.233921   -0.087626
      7          7           0       -1.094002    2.257330   -0.331305
      8          7           0        1.390133   -0.236671   -0.020431
      9          8           0        1.800384   -1.321144    0.380513
     10          8           0        2.090589    0.720719   -0.321901
     11          6           0       -2.390248   -0.946659    0.162023
     12          1           0       -2.645640   -0.090924    0.788287
     13          1           0       -2.971039   -1.810340    0.498950
     14          1           0       -2.678422   -0.720090   -0.867918
     15          9           0        0.081538    0.672608    1.797603
 ---------------------------------------------------------------------

 SCF Done:  E(RHF) =  -614.354890287     A.U. after    2 cycles

 The electronic state is 1-A.
 Alpha  occ. eigenvalues --  -29.15793 -28.92009 -20.96257 -20.96063 -15.86073
 Alpha  occ. eigenvalues --  -15.60359 -11.45925 -11.31706 -11.29847 -11.25463
 Alpha  occ. eigenvalues --   -1.85944  -1.56007  -1.24405  -1.11909  -1.01088
 Alpha  occ. eigenvalues --   -0.81451  -0.78672  -0.72078  -0.59545  -0.54202
 Alpha  occ. eigenvalues --   -0.51275  -0.47950  -0.46605  -0.41365  -0.40623
 Alpha  occ. eigenvalues --   -0.39193  -0.37833  -0.35561  -0.30386  -0.26874
 Alpha  occ. eigenvalues --   -0.24264  -0.22955  -0.18993  -0.17575  -0.15074
 Alpha  occ. eigenvalues --   -0.14235  -0.00439   0.00485   0.00917
 Alpha virt. eigenvalues --    0.12439   0.14339   0.14767   0.16462   0.17469
 Alpha virt. eigenvalues --    0.19997   0.22066   0.22204   0.23686   0.24546
 Alpha virt. eigenvalues --    0.25012   0.25099   0.25899   0.26389   0.27233

 Mulliken charges:
               1
     1  C    0.149819
     2  C   -2.483755
     3  F    0.022722
     4  H    0.924672
     5  H    1.401708
     6  C    4.551264
     7  N   -3.368087
     8  N    5.649847
     9  O   -3.229213
    10  O   -3.297797
    11  C   -3.857498
    12  H    1.328182
    13  H    1.056239
    14  H    1.179358
    15  F   -1.027461
 Sum of Mulliken charges =  -1.00000

 Dipole moment (field-independent basis, Debye):
    X=             -0.0818    Y=             -5.1969    Z=             -2.5582  Tot=              5.7930

 Test job not archived.
 1\1\GINC-SE058\SP\RHF\Aug-CC-pVDZ\C4H5F2N2O2(1-)\OHZDE\09-Apr-2025\0\\
 #t hf aug-cc-pvdz iop(5/13=1,5/36=2,99/5=2) pseudo=read geom=check gue
 ss=(read,tcheck) scf=(maxcycle=1)\\title\\-1,1\C,0,-0.231772,0.045026,
 -1.353197\C,0,-0.151646,-0.103939,0.146817\F,0,-1.591421,-0.033082,-1.
 720466\H,0,0.884946,-0.403434,0.366455\H,0,-0.843053,-0.90563,0.423011
 \C,0,0.306908,1.292597,-1.895229\N,0,0.262956,2.381188,-2.350563\N,0,0
 .364416,-1.141047,-2.083771\O,0,0.509238,-2.181483,-1.450002\O,0,0.517
 986,-1.017626,-3.291787\C,0,-0.501431,1.203292,0.845911\H,0,0.276492,1

 Normal termination of Gaussian 16 at Wed Apr  9 03:01:20 2025.
