 Gaussian 16, Revision C.01,

 ----------------------------------------------------------------------
 #t hf aug-cc-pvdz symm=none int=(grid=ultrafine) guess=(read,tcheck) s
 table=(opt,rrhf)
 ----------------------------------------------------------------------
 -----
 title
 -----
 Symbolic Z-matrix:
 Charge = -1 Multiplicity = 1

 SCF Done:  E(RHF) =  -403.429434248     A.U. after   16 cycles
 Normal termination of Gaussian 16 at Wed Apr  9 02:37:09 2025.
 Gaussian 16:  ES64L-G16RevC.01  3-Jul-2019

 ----------------------------------------------------------------------
 #t hf aug-cc-pvdz iop(5/13=1,5/36=2,99/5=2) pseudo=read geom=check gue
 ss=(read,tcheck) scf=(maxcycle=1)
 ----------------------------------------------------------------------
 -----
 title
 -----
 Structure from the checkpoint file:  "E2SN2_148_mol1.chk"
 Charge = -1 Multiplicity = 1

                         Standard orientation:
 ---------------------------------------------------------------------
 Center     Atomic      Atomic             Coordinates (Angstroms)
 Number     Number       Type             X           Y           Z
 ---------------------------------------------------------------------
      1          6           0        0.297540   -0.385714    0.092392
      2          6           0       -0.887354    0.397368   -0.281113
      3          9           0        0.410464   -0.661388    1.548268
      4          1           0       -1.234503    0.010909   -2.650386
      5          1           0       -0.923470    0.322150   -1.667146
      6          6           0        1.537223    0.351726   -0.208700
      7          7           0        2.537538    0.916329   -0.460100
      8          6           0       -0.933995    1.825309    0.212352
      9          1           0       -0.004065    2.366022    0.004105
     10          1           0       -1.747663    2.343151   -0.307107
     11          1           0       -1.136201    1.897850    1.291829
     12          7           0       -2.149597   -0.288498   -0.068423
     13          1           0       -2.094337   -0.971544    0.678470
     14          1           0       -2.398348   -0.765107   -0.940518
     15          6           0        0.340460   -1.754012   -0.562030
     16          1           0       -0.466604   -2.365672   -0.158461
     17          1           0        0.179653   -1.636994   -1.639631
     18          1           0        1.292531   -2.251164   -0.363320
 ---------------------------------------------------------------------

 SCF Done:  E(RHF) =  -405.290386301     A.U. after    2 cycles

 The electronic state is 1-A.
 Alpha  occ. eigenvalues --  -29.09762 -15.63688 -15.57471 -11.40891 -11.31901
 Alpha  occ. eigenvalues --  -11.27672 -11.24927 -11.21391  -1.25515  -1.16231
 Alpha  occ. eigenvalues --   -1.07149  -0.93142  -0.84112  -0.70331  -0.63756
 Alpha  occ. eigenvalues --   -0.53134  -0.51355  -0.47828  -0.43845  -0.42840
 Alpha  occ. eigenvalues --   -0.41057  -0.38724  -0.34904  -0.34791  -0.33134
 Alpha  occ. eigenvalues --   -0.31267  -0.30046  -0.22568  -0.19723  -0.12388
 Alpha  occ. eigenvalues --   -0.11224  -0.05258
 Alpha virt. eigenvalues --    0.13659   0.14493   0.14789   0.15364   0.15670
 Alpha virt. eigenvalues --    0.16501   0.17209   0.17938   0.19417   0.20170
 Alpha virt. eigenvalues --    0.21943   0.22904   0.23920   0.24512   0.24908

 Mulliken charges:
               1
     1  C    4.001224
     2  C   -0.301177
     3  F   -0.287957
     4  H   -0.010478
     5  H    0.971076
     6  C    0.818458
     7  N   -2.496312
     8  C   -4.880036
     9  H    1.194520
    10  H    1.131637
    11  H    1.222838
    12  N   -2.636981
    13  H    0.516252
    14  H    0.430683
    15  C   -4.279346
    16  H    1.217929
    17  H    1.268537
    18  H    1.119132
 Sum of Mulliken charges =  -1.00000

 Dipole moment (field-independent basis, Debye):
    X=              1.7949    Y=             -2.6759    Z=              8.8713  Tot=              9.4384

 Test job not archived.
 1\1\GINC-SE329\SP\RHF\Aug-CC-pVDZ\C5H10F1N2(1-)\OHZDE\09-Apr-2025\0\\#
 t hf aug-cc-pvdz iop(5/13=1,5/36=2,99/5=2) pseudo=read geom=check gues
 s=(read,tcheck) scf=(maxcycle=1)\\title\\-1,1\C,0,-0.16520471,0.036490
 88,-0.36342531\C,0,-0.14963299,0.09949398,1.10370977\F,0,1.17890301,-0
 .10834113,-0.98045091\H,0,-2.39383819,-0.46676744,1.829112\H,0,-1.4853
 3708,-0.01704194,1.46476963\C,0,-0.66898916,1.29409165,-0.94302017\N,0
 ,-1.08714381,2.2824493,-1.42354624\C,0,0.50159651,1.31701702,1.7187183
 4\H,0,0.13922904,2.25007913,1.27308232\H,0,0.25656811,1.33680585,2.786

 Normal termination of Gaussian 16 at Wed Apr  9 02:37:16 2025.
