 Gaussian 16, Revision C.01,

 ----------------------------------------------------------------------
 #t hf aug-cc-pvdz symm=none int=(grid=ultrafine) guess=(read,tcheck) s
 table=(opt,rrhf)
 ----------------------------------------------------------------------
 -----
 title
 -----
 Symbolic Z-matrix:
 Charge = -1 Multiplicity = 1

 SCF Done:  E(RHF) =  -627.835554414     A.U. after   17 cycles
 Normal termination of Gaussian 16 at Wed Apr  9 02:47:22 2025.
 Gaussian 16:  ES64L-G16RevC.01  3-Jul-2019

 ----------------------------------------------------------------------
 #t hf aug-cc-pvdz iop(5/13=1,5/36=2,99/5=2) pseudo=read geom=check gue
 ss=(read,tcheck) scf=(maxcycle=1)
 ----------------------------------------------------------------------
 -----
 title
 -----
 Structure from the checkpoint file:  "E2SN2_264_mol2.chk"
 Charge = -1 Multiplicity = 1

                         Standard orientation:
 ---------------------------------------------------------------------
 Center     Atomic      Atomic             Coordinates (Angstroms)
 Number     Number       Type             X           Y           Z
 ---------------------------------------------------------------------
      1          6           0        0.012272    0.094204    0.522513
      2          6           0        0.899218   -1.147248    0.722735
      3          9           0       -0.422626    0.514883    1.799763
      4          1           0        0.262841   -2.005474    0.510588
      5          1           0        1.144870   -1.152184    1.790151
      6          6           0        0.708156    1.227743   -0.082842
      7          7           0        1.339437    2.197442   -0.292361
      8          7           0       -1.318678   -0.143528   -0.164310
      9          8           0       -1.808069   -1.262096   -0.071500
     10          8           0       -1.893459    0.852932   -0.581733
     11          7           0        2.105338   -1.240128   -0.073645
     12          1           0        2.712433   -0.464197    0.169747
     13          1           0        1.746569   -1.049275   -1.020345
     14          9           0        0.327621   -0.381578   -1.742708
 ---------------------------------------------------------------------

 SCF Done:  E(RHF) =  -630.402706184     A.U. after    2 cycles

 The electronic state is 1-A.
 Alpha  occ. eigenvalues --  -29.16758 -28.92308 -20.96195 -20.95969 -15.86578
 Alpha  occ. eigenvalues --  -15.63855 -15.58570 -11.46628 -11.33539 -11.30097
 Alpha  occ. eigenvalues --   -1.86190  -1.56306  -1.27038  -1.17355  -1.11699
 Alpha  occ. eigenvalues --   -0.86756  -0.80022  -0.71038  -0.60989  -0.56341
 Alpha  occ. eigenvalues --   -0.54080  -0.50383  -0.46309  -0.42552  -0.41108
 Alpha  occ. eigenvalues --   -0.38240  -0.35947  -0.32795  -0.30251  -0.27340
 Alpha  occ. eigenvalues --   -0.24660  -0.23538  -0.19320  -0.17701  -0.15862
 Alpha  occ. eigenvalues --   -0.13651  -0.00727  -0.00642   0.00365
 Alpha virt. eigenvalues --    0.14009   0.15586   0.16035   0.18944   0.20132
 Alpha virt. eigenvalues --    0.20291   0.22049   0.23010   0.24532   0.25094
 Alpha virt. eigenvalues --    0.25360   0.26548   0.27537   0.28372   0.28954

 Mulliken charges:
               1
     1  C   -1.117872
     2  C   -0.949863
     3  F    0.087446
     4  H    1.236235
     5  H    1.148773
     6  C    4.988622
     7  N   -3.452602
     8  N    6.333446
     9  O   -3.354961
    10  O   -3.310119
    11  N   -2.457783
    12  H    0.494789
    13  H    0.429598
    14  F   -1.075709
 Sum of Mulliken charges =  -1.00000

 Dipole moment (field-independent basis, Debye):
    X=             -2.0049    Y=             -0.8214    Z=              4.0865  Tot=              4.6254

 Test job not archived.
 1\1\GINC-SE073\SP\RHF\Aug-CC-pVDZ\C3H4F2N3O2(1-)\OHZDE\09-Apr-2025\0\\
 #t hf aug-cc-pvdz iop(5/13=1,5/36=2,99/5=2) pseudo=read geom=check gue
 ss=(read,tcheck) scf=(maxcycle=1)\\title\\-1,1\C,0,-0.004326,-0.015761
 ,-0.015062\C,0,-0.313142,-0.380636,-1.477753\F,0,1.392103,-0.136629,0.
 166188\H,0,-0.659154,-1.413358,-1.460572\H,0,0.654564,-0.346836,-1.989
 757\C,0,-0.360731,1.356041,0.340964\N,0,-0.380117,2.517401,0.524262\N,
 0,-0.509865,-0.987741,1.03344\O,0,-0.666065,-2.15316,0.691811\O,0,-0.5
 26248,-0.574934,2.185338\N,0,-1.283703,0.43535,-2.177576\H,0,-0.92719,

 Normal termination of Gaussian 16 at Wed Apr  9 02:47:28 2025.
