 Gaussian 16, Revision C.01,

 ----------------------------------------------------------------------
 #t hf aug-cc-pvdz symm=none int=(grid=ultrafine) guess=(read,tcheck) s
 table=(opt,rrhf)
 ----------------------------------------------------------------------
 -----
 title
 -----
 Symbolic Z-matrix:
 Charge = -1 Multiplicity = 1

 SCF Done:  E(RHF) =  -1026.95289101     A.U. after   16 cycles
 Normal termination of Gaussian 16 at Wed Apr  9 02:58:31 2025.
 Gaussian 16:  ES64L-G16RevC.01  3-Jul-2019

 ----------------------------------------------------------------------
 #t hf aug-cc-pvdz iop(5/13=1,5/36=2,99/5=2) pseudo=read geom=check gue
 ss=(read,tcheck) scf=(maxcycle=1)
 ----------------------------------------------------------------------
 -----
 title
 -----
 Structure from the checkpoint file:  "E2SN2_379_mol2.chk"
 Charge = -1 Multiplicity = 1

                         Standard orientation:
 ---------------------------------------------------------------------
 Center     Atomic      Atomic             Coordinates (Angstroms)
 Number     Number       Type             X           Y           Z
 ---------------------------------------------------------------------
      1          6           0        0.201235   -0.181431   -0.337156
      2          6           0       -0.871808    0.364895    0.629305
      3         17           0        0.072853   -1.994871   -0.421090
      4          1           0       -0.588834    1.441427    0.639001
      5          7           0        0.209780    0.385431   -1.619092
      6          1           0       -0.654882    0.139939   -2.088172
      7          1           0        0.219845    1.437906   -1.381288
      8          7           0        1.608843    0.089635    0.254529
      9          8           0        2.558035   -0.205479   -0.455284
     10          8           0        1.686525    0.564941    1.382671
     11          6           0       -1.025635   -0.276314    2.009224
     12          1           0       -1.770174    0.284368    2.580750
     13          1           0       -0.083440   -0.247111    2.549725
     14          1           0       -1.364815   -1.310876    1.927422
     15          6           0       -2.150342    0.274440   -0.073047
     16          7           0       -3.197953    0.175054   -0.596672
     17          9           0        0.197993    2.627897   -0.458811
 ---------------------------------------------------------------------

 SCF Done:  E(RHF) =  -1029.64233189     A.U. after    2 cycles

 The electronic state is 1-A.
 Alpha  occ. eigenvalues --  -99.78053 -28.92830 -20.97312 -20.97114 -15.86682
 Alpha  occ. eigenvalues --  -15.64651 -15.59225 -11.44794 -11.36447 -11.31669
 Alpha  occ. eigenvalues --  -11.27925 -10.35465  -9.55550  -9.54770  -9.54684
 Alpha  occ. eigenvalues --   -1.86839  -1.56880  -1.33043  -1.19314  -1.16447
 Alpha  occ. eigenvalues --   -1.07260  -0.96240  -0.85936  -0.70605  -0.64828
 Alpha  occ. eigenvalues --   -0.59005  -0.57006  -0.54384  -0.51232  -0.48576
 Alpha  occ. eigenvalues --   -0.47438  -0.44832  -0.44001  -0.42361  -0.40911
 Alpha  occ. eigenvalues --   -0.39218  -0.38070  -0.32652  -0.31529  -0.28631
 Alpha  occ. eigenvalues --   -0.23963  -0.22176  -0.19017  -0.18306  -0.01713
 Alpha  occ. eigenvalues --   -0.01316   0.00532
 Alpha virt. eigenvalues --    0.13021   0.14179   0.14974   0.16015   0.16505
 Alpha virt. eigenvalues --    0.18522   0.19630   0.19645   0.20708   0.21975
 Alpha virt. eigenvalues --    0.22916   0.23608   0.24611   0.25168   0.25436

 Mulliken charges:
               1
     1  C    4.793063
     2  C    0.554599
     3  Cl  -0.112781
     4  H    0.858768
     5  N   -3.631099
     6  H    0.567162
     7  H   -0.077058
     8  N    3.576988
     9  O   -2.953577
    10  O   -2.799573
    11  C   -4.218929
    12  H    1.123364
    13  H    1.289392
    14  H    1.319477
    15  C    2.171645
    16  N   -2.794149
    17  F   -0.667291
 Sum of Mulliken charges =  -1.00000

 Dipole moment (field-independent basis, Debye):
    X=              1.0236    Y=             -2.7882    Z=              2.8636  Tot=              4.1258

 Test job not archived.
 1\1\GINC-SE229\SP\RHF\Aug-CC-pVDZ\C4H6Cl1F1N3O2(1-)\OHZDE\09-Apr-2025\
 0\\#t hf aug-cc-pvdz iop(5/13=1,5/36=2,99/5=2) pseudo=read geom=check
 guess=(read,tcheck) scf=(maxcycle=1)\\title\\-1,1\C,0,-0.021116,-0.003
 349,-0.001517\C,0,-0.526174,-0.1811,-1.449709\Cl,0,1.796667,0.084725,-
 0.001277\H,0,-1.614024,-0.316676,-1.256599\N,0,-0.580001,1.06725,0.709
 982\H,0,-0.294321,1.934304,0.268909\H,0,-1.633347,0.896266,0.550038\N,
 0,-0.356684,-1.27665,0.817645\O,0,-0.098777,-1.233688,2.010763\O,0,-0.
 841774,-2.238028,0.230198\C,0,0.112702,-1.253,-2.333936\H,0,-0.418568,

 Normal termination of Gaussian 16 at Wed Apr  9 02:58:42 2025.
