 Gaussian 16, Revision C.01,

 ----------------------------------------------------------------------
 #t hf aug-cc-pvdz symm=none int=(grid=ultrafine) guess=(read,tcheck) s
 table=(opt,rrhf)
 ----------------------------------------------------------------------
 -----
 title
 -----
 Symbolic Z-matrix:
 Charge = -1 Multiplicity = 1

 SCF Done:  E(RHF) =  -463.415879022     A.U. after   14 cycles
 Normal termination of Gaussian 16 at Wed Apr  9 02:58:14 2025.
 Gaussian 16:  ES64L-G16RevC.01  3-Jul-2019

 ----------------------------------------------------------------------
 #t hf aug-cc-pvdz iop(5/13=1,5/36=2,99/5=2) pseudo=read geom=check gue
 ss=(read,tcheck) scf=(maxcycle=1)
 ----------------------------------------------------------------------
 -----
 title
 -----
 Structure from the checkpoint file:  "E2SN2_397_mol2.chk"
 Charge = -1 Multiplicity = 1

                         Standard orientation:
 ---------------------------------------------------------------------
 Center     Atomic      Atomic             Coordinates (Angstroms)
 Number     Number       Type             X           Y           Z
 ---------------------------------------------------------------------
      1          6           0       -0.315571    0.645193   -0.043467
      2          6           0        0.448520   -0.506154   -0.693475
      3          9           0        0.368145    1.853658   -0.307469
      4          1           0        0.459666   -0.327893   -1.771945
      5          1           0       -0.185745   -1.391104   -0.477016
      6          7           0       -1.595052    0.683470   -0.689666
      7          1           0       -1.954261   -0.288220   -0.523596
      8          1           0       -2.187411    1.318225   -0.161143
      9          6           0       -0.389586    0.478747    1.462951
     10          1           0       -0.942744    1.320921    1.891026
     11          1           0       -0.936594   -0.452736    1.622124
     12          1           0        0.601868    0.440522    1.922481
     13          6           0        1.812383   -0.647004   -0.208187
     14          7           0        2.914773   -0.770718    0.178768
     15          9           0       -1.860067   -1.835177    0.081628
 ---------------------------------------------------------------------

 SCF Done:  E(RHF) =  -465.360910453     A.U. after    2 cycles

 The electronic state is 1-A.
 Alpha  occ. eigenvalues --  -29.10552 -28.90741 -15.62717 -15.56807 -11.36198
 Alpha  occ. eigenvalues --  -11.32512 -11.27918 -11.23474  -1.27800  -1.16457
 Alpha  occ. eigenvalues --   -1.01371  -0.92647  -0.78519  -0.62461  -0.54530
 Alpha  occ. eigenvalues --   -0.50546  -0.47828  -0.45679  -0.43037  -0.41104
 Alpha  occ. eigenvalues --   -0.38340  -0.36547  -0.30951  -0.29289  -0.27326
 Alpha  occ. eigenvalues --   -0.23279  -0.19485  -0.11933  -0.11038   0.00415
 Alpha  occ. eigenvalues --    0.01033   0.02428
 Alpha virt. eigenvalues --    0.13850   0.14956   0.15272   0.16559   0.17718
 Alpha virt. eigenvalues --    0.18664   0.19677   0.19931   0.20953   0.23803
 Alpha virt. eigenvalues --    0.24431   0.25242   0.26125   0.26554   0.27562

 Mulliken charges:
               1
     1  C    4.845481
     2  C   -2.856445
     3  F    0.009096
     4  H    1.414625
     5  H    1.104924
     6  N   -3.718756
     7  H    0.159874
     8  H    0.467240
     9  C   -4.185131
    10  H    1.099579
    11  H    0.919838
    12  H    1.264227
    13  C    1.816680
    14  N   -2.518151
    15  F   -0.823082
 Sum of Mulliken charges =  -1.00000

 Dipole moment (field-independent basis, Debye):
    X=              1.4472    Y=              5.2644    Z=             -0.0219  Tot=              5.4598

 Test job not archived.
 1\1\GINC-SE143\SP\RHF\Aug-CC-pVDZ\C4H7F2N2(1-)\OHZDE\09-Apr-2025\0\\#t
  hf aug-cc-pvdz iop(5/13=1,5/36=2,99/5=2) pseudo=read geom=check guess
 =(read,tcheck) scf=(maxcycle=1)\\title\\-1,1\C,0,0.000238,-0.013386,0.
 008538\C,0,-0.514,-0.164587,-1.421372\F,0,1.409728,0.086623,-0.021252\
 H,0,-0.229289,0.73603,-1.971669\H,0,-1.617056,-0.182706,-1.297991\N,0,
 -0.543881,1.221087,0.494462\H,0,-1.574525,1.07268,0.365851\H,0,-0.3677
 54,1.261978,1.494685\C,0,-0.356953,-1.22102,0.855009\H,0,0.027718,-1.0
 7547,1.86957\H,0,-1.448367,-1.25141,0.865366\H,0,0.06224,-2.146326,0.4

 Normal termination of Gaussian 16 at Wed Apr  9 02:58:20 2025.
