 Gaussian 16, Revision C.01,

 ----------------------------------------------------------------------
 #t hf aug-cc-pvdz symm=none int=(grid=ultrafine) guess=(read,tcheck) s
 table=(opt,rrhf)
 ----------------------------------------------------------------------
 -----
 title
 -----
 Symbolic Z-matrix:
 Charge = -1 Multiplicity = 1

 SCF Done:  E(RHF) =  -726.821758457     A.U. after   14 cycles
 Normal termination of Gaussian 16 at Wed Apr  9 02:38:11 2025.
 Gaussian 16:  ES64L-G16RevC.01  3-Jul-2019

 ----------------------------------------------------------------------
 #t hf aug-cc-pvdz iop(5/13=1,5/36=2,99/5=2) pseudo=read geom=check gue
 ss=(read,tcheck) scf=(maxcycle=1)
 ----------------------------------------------------------------------
 -----
 title
 -----
 Structure from the checkpoint file:  "E2SN2_160_mol2.chk"
 Charge = -1 Multiplicity = 1

                         Standard orientation:
 ---------------------------------------------------------------------
 Center     Atomic      Atomic             Coordinates (Angstroms)
 Number     Number       Type             X           Y           Z
 ---------------------------------------------------------------------
      1          6           0       -0.449492    0.365420    0.124042
      2          6           0        1.085335    0.277086    0.102799
      3         17           0       -1.159980   -1.288090   -0.318813
      4          1           0        1.353946    1.238713    0.578509
      5          7           0       -0.971558    0.758774    1.401965
      6          1           0       -0.530859    1.697473    1.587896
      7          1           0       -0.614675    0.131830    2.116658
      8          6           0       -0.947232    1.361543   -0.902690
      9          1           0       -0.502571    2.330643   -0.644989
     10          1           0       -2.031539    1.439806   -0.815732
     11          1           0       -0.679199    1.056975   -1.914812
     12          7           0        1.609385    0.169832   -1.270287
     13          1           0        1.573312    1.094252   -1.687647
     14          1           0        2.595039   -0.065736   -1.206696
     15          6           0        1.660155   -0.862083    0.926028
     16          1           0        2.736856   -0.711052    1.062414
     17          1           0        1.211530   -0.910414    1.919182
     18          1           0        1.497970   -1.815498    0.418399
     19          1           0        0.552453    3.058494    1.583817
 ---------------------------------------------------------------------

 SCF Done:  E(RHF) =  -728.446522424     A.U. after    2 cycles

 The electronic state is 1-A.
 Alpha  occ. eigenvalues --  -99.72490 -15.60920 -15.57130 -11.35830 -11.30059
 Alpha  occ. eigenvalues --  -11.26012 -11.23009 -10.29873  -9.49921  -9.49274
 Alpha  occ. eigenvalues --   -9.49097  -1.30292  -1.18429  -1.10949  -0.96338
 Alpha  occ. eigenvalues --   -0.94274  -0.79330  -0.65972  -0.55451  -0.55192
 Alpha  occ. eigenvalues --   -0.51334  -0.48610  -0.45391  -0.43406  -0.39752
 Alpha  occ. eigenvalues --   -0.38599  -0.37297  -0.36073  -0.34588  -0.32252
 Alpha  occ. eigenvalues --   -0.30439  -0.24267  -0.20749  -0.10010
 Alpha virt. eigenvalues --    0.12787   0.13974   0.14438   0.14828   0.15102
 Alpha virt. eigenvalues --    0.15804   0.16845   0.17640   0.18085   0.18886
 Alpha virt. eigenvalues --    0.20426   0.21624   0.22524   0.23584   0.24563

 Mulliken charges:
               1
     1  C    3.045099
     2  C    0.958405
     3  Cl  -0.327074
     4  H    1.735925
     5  N   -3.463290
     6  H    0.717467
     7  H    0.580134
     8  C   -3.966689
     9  H    1.297988
    10  H    1.081816
    11  H    1.173175
    12  N   -3.277795
    13  H    0.490597
    14  H    0.621799
    15  C   -4.092208
    16  H    1.076595
    17  H    1.218083
    18  H    1.222738
    19  H   -1.092765
 Sum of Mulliken charges =  -1.00000

 Dipole moment (field-independent basis, Debye):
    X=              0.9582    Y=             -8.1810    Z=             -4.7649  Tot=              9.5158

 Test job not archived.
 1\1\GINC-SE126\SP\RHF\Aug-CC-pVDZ\C4H12Cl1N2(1-)\OHZDE\09-Apr-2025\0\\
 #t hf aug-cc-pvdz iop(5/13=1,5/36=2,99/5=2) pseudo=read geom=check gue
 ss=(read,tcheck) scf=(maxcycle=1)\\title\\-1,1\C,0,-0.183246,0.053128,
 -1.453036\C,0,-0.035829,0.012046,0.076843\Cl,0,-1.948284,0.418713,-1.8
 84307\H,0,1.06547,0.000518,0.177765\N,0,0.651899,1.043516,-2.071125\H,
 0,1.630535,0.775861,-1.787269\H,0,0.470644,1.947308,-1.645077\C,0,0.16
 369,-1.288216,-2.065094\H,0,1.201656,-1.505265,-1.784373\H,0,0.105512,
 -1.201814,-3.150708\H,0,-0.513849,-2.069896,-1.720259\N,0,-0.66041,-1.

 Normal termination of Gaussian 16 at Wed Apr  9 02:38:19 2025.
