 Gaussian 16, Revision C.01,

 ----------------------------------------------------------------------
 #t hf aug-cc-pvdz symm=none int=(grid=ultrafine) guess=(read,tcheck) s
 table=(opt,rrhf)
 ----------------------------------------------------------------------
 -----
 title
 -----
 Symbolic Z-matrix:
 Charge = -1 Multiplicity = 1

 SCF Done:  E(RHF) =  -1222.54130792     A.U. after   16 cycles
 Normal termination of Gaussian 16 at Wed Apr  9 02:54:57 2025.
 Gaussian 16:  ES64L-G16RevC.01  3-Jul-2019

 ----------------------------------------------------------------------
 #t hf aug-cc-pvdz iop(5/13=1,5/36=2,99/5=2) pseudo=read geom=check gue
 ss=(read,tcheck) scf=(maxcycle=1)
 ----------------------------------------------------------------------
 -----
 title
 -----
 Structure from the checkpoint file:  "E2SN2_341_mol1.chk"
 Charge = -1 Multiplicity = 1

                         Standard orientation:
 ---------------------------------------------------------------------
 Center     Atomic      Atomic             Coordinates (Angstroms)
 Number     Number       Type             X           Y           Z
 ---------------------------------------------------------------------
      1          6           0        0.141559   -0.112547   -0.332718
      2          1           0        0.757982    1.808504    0.216103
      3         17           0       -2.173488   -0.861222   -0.264628
      4         17           0        2.561143    0.173858   -0.162540
      5          6           0       -0.163720    1.237063    0.324094
      6          6           0        0.242237   -0.182678   -1.838488
      7          1           0       -0.746782   -0.123947   -2.283963
      8          1           0        0.836507    0.660480   -2.184868
      9          1           0        0.736158   -1.107399   -2.134146
     10          6           0        0.379280   -1.276939    0.479768
     11          7           0        0.563789   -2.224703    1.156062
     12          6           0       -0.456842    1.104345    1.814720
     13          1           0       -1.349880    0.499345    1.977467
     14          1           0        0.386615    0.644604    2.335653
     15          1           0       -0.618629    2.101889    2.236599
     16          7           0       -1.160895    1.961350   -0.462438
     17          1           0       -1.204413    2.911018   -0.111188
     18          1           0       -2.063029    1.518701   -0.329420
 ---------------------------------------------------------------------

 SCF Done:  E(RHF) =  -1224.53630167     A.U. after    2 cycles

 The electronic state is 1-A.
 Alpha  occ. eigenvalues --  -99.66661 -99.65873 -15.62613 -15.61481 -11.45262
 Alpha  occ. eigenvalues --  -11.34019 -11.32783 -11.27498 -11.25785 -10.23676
 Alpha  occ. eigenvalues --  -10.22840  -9.43742  -9.43427  -9.43308  -9.42921
 Alpha  occ. eigenvalues --   -9.42504  -9.42439  -1.27864  -1.16894  -1.08146
 Alpha  occ. eigenvalues --   -1.03449  -1.01218  -0.96515  -0.84515  -0.76250
 Alpha  occ. eigenvalues --   -0.59845  -0.52965  -0.50835  -0.48579  -0.46926
 Alpha  occ. eigenvalues --   -0.44718  -0.42611  -0.39949  -0.38277  -0.37955
 Alpha  occ. eigenvalues --   -0.35703  -0.31466  -0.31034  -0.30018  -0.29512
 Alpha  occ. eigenvalues --   -0.29100  -0.28304  -0.24492  -0.23549
 Alpha virt. eigenvalues --    0.12401   0.13715   0.14665   0.15011   0.15626
 Alpha virt. eigenvalues --    0.16142   0.16543   0.16977   0.17774   0.18028
 Alpha virt. eigenvalues --    0.20500   0.21388   0.22764   0.23435   0.23828

 Mulliken charges:
               1
     1  C    3.993421
     2  H    1.511506
     3  Cl  -0.737491
     4  Cl  -0.696828
     5  C   -0.053429
     6  C   -4.914206
     7  H    1.218185
     8  H    1.253764
     9  H    1.221631
    10  C    1.584387
    11  N   -2.757305
    12  C   -4.021397
    13  H    1.228492
    14  H    1.304311
    15  H    1.083402
    16  N   -3.339766
    17  H    0.558279
    18  H    0.563044
 Sum of Mulliken charges =  -1.00000

 Dipole moment (field-independent basis, Debye):
    X=             -2.1165    Y=              4.4759    Z=             -0.4037  Tot=              4.9675

 Test job not archived.
 1\1\GINC-SE188\SP\RHF\Aug-CC-pVDZ\C5H9Cl2N2(1-)\OHZDE\09-Apr-2025\0\\#
 t hf aug-cc-pvdz iop(5/13=1,5/36=2,99/5=2) pseudo=read geom=check gues
 s=(read,tcheck) scf=(maxcycle=1)\\title\\-1,1\C,0,0.60619829,-0.031621
 4,-0.04714754\H,0,1.5636516,1.8114099,-0.28826252\Cl,0,-1.81182211,-0.
 29987698,0.0290644\Cl,0,3.02330997,-0.08347946,0.29962984\C,0,0.542824
 09,1.49858147,-0.06964943\C,0,0.76427913,-0.77255908,-1.35421201\H,0,-
 0.17055335,-0.76151138,-1.9074032\H,0,1.5300496,-0.27310866,-1.9442934
 8\H,0,1.07892955,-1.79775033,-1.16327133\C,0,0.56850228,-0.74041733,1.

 Normal termination of Gaussian 16 at Wed Apr  9 02:55:06 2025.
