 Gaussian 16, Revision C.01,

 ----------------------------------------------------------------------
 #t hf aug-cc-pvdz symm=none int=(grid=ultrafine) guess=(read,tcheck) s
 table=(opt,rrhf)
 ----------------------------------------------------------------------
 -----
 title
 -----
 Symbolic Z-matrix:
 Charge = -1 Multiplicity = 1

 SCF Done:  E(RHF) =  -627.824925506     A.U. after   16 cycles
 Normal termination of Gaussian 16 at Wed Apr  9 02:46:14 2025.
 Gaussian 16:  ES64L-G16RevC.01  3-Jul-2019

 ----------------------------------------------------------------------
 #t hf aug-cc-pvdz iop(5/13=1,5/36=2,99/5=2) pseudo=read geom=check gue
 ss=(read,tcheck) scf=(maxcycle=1)
 ----------------------------------------------------------------------
 -----
 title
 -----
 Structure from the checkpoint file:  "E2SN2_249_mol1.chk"
 Charge = -1 Multiplicity = 1

                         Standard orientation:
 ---------------------------------------------------------------------
 Center     Atomic      Atomic             Coordinates (Angstroms)
 Number     Number       Type             X           Y           Z
 ---------------------------------------------------------------------
      1          6           0        0.716898    0.357993    0.351739
      2          1           0       -0.367222    0.815243   -1.434531
      3          9           0        0.208720   -0.955529    1.366734
      4          9           0        1.303677    1.788060   -0.631056
      5          6           0       -0.349574    0.038108   -0.674528
      6          1           0        0.513333    1.072206    1.125704
      7          6           0        2.048817   -0.186236    0.194647
      8          7           0        3.124624   -0.650516    0.118007
      9          7           0       -1.715122    0.206027    0.038654
     10          8           0       -2.574332   -0.650470   -0.162981
     11          8           0       -1.892438    1.228915    0.690974
     12          7           0       -0.183633   -1.252172   -1.228117
     13          1           0       -0.969810   -1.489934   -1.815853
     14          1           0       -0.131648   -1.900418   -0.451325
 ---------------------------------------------------------------------

 SCF Done:  E(RHF) =  -630.394676058     A.U. after    2 cycles

 The electronic state is 1-A.
 Alpha  occ. eigenvalues --  -29.01462 -28.97118 -20.97386 -20.97184 -15.85909
 Alpha  occ. eigenvalues --  -15.63108 -15.62091 -11.47066 -11.36554 -11.30916
 Alpha  occ. eigenvalues --   -1.86379  -1.56588  -1.29296  -1.16880  -1.05567
 Alpha  occ. eigenvalues --   -0.94881  -0.73739  -0.66070  -0.63400  -0.58169
 Alpha  occ. eigenvalues --   -0.52890  -0.51976  -0.49565  -0.44121  -0.42792
 Alpha  occ. eigenvalues --   -0.38574  -0.35173  -0.32272  -0.29197  -0.28527
 Alpha  occ. eigenvalues --   -0.22349  -0.19769  -0.18206  -0.15527  -0.07999
 Alpha  occ. eigenvalues --   -0.07416  -0.03501  -0.03122   0.02253
 Alpha virt. eigenvalues --    0.13547   0.15510   0.16394   0.17281   0.20229
 Alpha virt. eigenvalues --    0.21886   0.23305   0.23886   0.24226   0.25405
 Alpha virt. eigenvalues --    0.25855   0.26345   0.27114   0.27395   0.28350

 Mulliken charges:
               1
     1  C    0.230483
     2  H    1.695074
     3  F   -0.518630
     4  F   -0.619812
     5  C    0.062049
     6  H    1.726365
     7  C    2.369348
     8  N   -2.931127
     9  N    5.012407
    10  O   -2.936405
    11  O   -3.190032
    12  N   -2.864352
    13  H    0.647338
    14  H    0.317293
 Sum of Mulliken charges =  -1.00000

 Dipole moment (field-independent basis, Debye):
    X=             -5.2508    Y=             -1.0438    Z=             -0.0443  Tot=              5.3538

 Test job not archived.
 1\1\GINC-SE127\SP\RHF\Aug-CC-pVDZ\C3H4F2N3O2(1-)\OHZDE\09-Apr-2025\0\\
 #t hf aug-cc-pvdz iop(5/13=1,5/36=2,99/5=2) pseudo=read geom=check gue
 ss=(read,tcheck) scf=(maxcycle=1)\\title\\-1,1\C,0,0.54656163,-0.02288
 816,-0.03880866\H,0,1.76018907,1.73202921,0.1112885\F,0,-1.18346441,0.
 11555532,-0.0793584\F,0,2.35943861,-0.27289266,0.04030603\C,0,0.712989
 ,1.48217493,-0.03970881\H,0,0.5106463,-0.55366206,0.89261469\C,0,0.587
 96211,-0.74921135,-1.29005231\N,0,0.57111825,-1.35931798,-2.29318574\N
 ,0,0.03243539,2.00382404,1.25113367\O,0,-0.66933238,3.00972709,1.16076

 Normal termination of Gaussian 16 at Wed Apr  9 02:46:20 2025.
