 Gaussian 16, Revision C.01,

 ----------------------------------------------------------------------
 #t hf aug-cc-pvdz symm=none int=(grid=ultrafine) guess=(read,tcheck) s
 table=(opt,rrhf)
 ----------------------------------------------------------------------
 -----
 title
 -----
 Symbolic Z-matrix:
 Charge = -1 Multiplicity = 1

 SCF Done:  E(RHF) =  -951.202982580     A.U. after   16 cycles
 Normal termination of Gaussian 16 at Wed Apr  9 02:41:51 2025.
 Gaussian 16:  ES64L-G16RevC.01  3-Jul-2019

 ----------------------------------------------------------------------
 #t hf aug-cc-pvdz iop(5/13=1,5/36=2,99/5=2) pseudo=read geom=check gue
 ss=(read,tcheck) scf=(maxcycle=1)
 ----------------------------------------------------------------------
 -----
 title
 -----
 Structure from the checkpoint file:  "E2SN2_205_mol1.chk"
 Charge = -1 Multiplicity = 1

                         Standard orientation:
 ---------------------------------------------------------------------
 Center     Atomic      Atomic             Coordinates (Angstroms)
 Number     Number       Type             X           Y           Z
 ---------------------------------------------------------------------
      1          6           0       -0.944876   -0.095259   -0.308595
      2          1           0       -0.040169   -1.688753    0.681545
      3         17           0       -0.170777    1.950535   -0.539036
      4          9           0       -1.678098   -1.934819   -0.433113
      5          6           0        0.173035   -0.624719    0.591418
      6          1           0       -0.875082   -0.242757   -1.371491
      7          7           0       -2.151036    0.259869    0.377724
      8          1           0       -2.745087   -0.541365    0.188621
      9          1           0       -2.530302    1.102994   -0.028944
     10          7           0        0.301931   -0.021767    1.885121
     11          1           0       -0.637205   -0.048351    2.270989
     12          1           0        0.513084    0.960625    1.738384
     13          7           0        1.480257   -0.553329   -0.146237
     14          8           0        2.443332   -0.016968    0.391644
     15          8           0        1.498398   -1.078240   -1.257977
 ---------------------------------------------------------------------

 SCF Done:  E(RHF) =  -953.551160242     A.U. after    2 cycles

 The electronic state is 1-A.
 Alpha  occ. eigenvalues --  -99.67742 -28.94454 -20.96150 -20.95522 -15.85329
 Alpha  occ. eigenvalues --  -15.61340 -15.61265 -11.43069 -11.32530 -10.24833
 Alpha  occ. eigenvalues --   -9.44931  -9.44464  -9.44360  -1.85454  -1.55300
 Alpha  occ. eigenvalues --   -1.29168  -1.19907  -1.06149  -0.99843  -0.83177
 Alpha  occ. eigenvalues --   -0.69368  -0.60961  -0.59061  -0.56487  -0.52291
 Alpha  occ. eigenvalues --   -0.49917  -0.46982  -0.43363  -0.42034  -0.34220
 Alpha  occ. eigenvalues --   -0.32492  -0.31918  -0.30337  -0.27105  -0.25409
 Alpha  occ. eigenvalues --   -0.21469  -0.17797  -0.17295  -0.04399  -0.02512
 Alpha  occ. eigenvalues --   -0.01881
 Alpha virt. eigenvalues --    0.14064   0.15274   0.16344   0.16394   0.16958
 Alpha virt. eigenvalues --    0.17880   0.21209   0.23153   0.23749   0.24855
 Alpha virt. eigenvalues --    0.26444   0.26747   0.27229   0.27356   0.28259

 Mulliken charges:
               1
     1  C    1.082164
     2  H    1.566794
     3  Cl  -0.648578
     4  F   -0.682333
     5  C    1.360693
     6  H    1.704058
     7  N   -2.953451
     8  H    0.451164
     9  H    0.587935
    10  N   -2.823696
    11  H    0.570213
    12  H    0.509640
    13  N    4.228284
    14  O   -2.874015
    15  O   -3.078871
 Sum of Mulliken charges =  -1.00000

 Dipole moment (field-independent basis, Debye):
    X=             -1.1031    Y=             -2.5729    Z=              1.1352  Tot=              3.0208

 Test job not archived.
 1\1\GINC-SE247\SP\RHF\Aug-CC-pVDZ\C2H6Cl1F1N3O2(1-)\OHZDE\09-Apr-2025\
 0\\#t hf aug-cc-pvdz iop(5/13=1,5/36=2,99/5=2) pseudo=read geom=check
 guess=(read,tcheck) scf=(maxcycle=1)\\title\\-1,1\C,0,0.58663392,0.005
 51496,0.0867335\H,0,1.79011872,1.67679427,-0.22398564\Cl,0,-1.60672397
 ,-0.05482853,0.23887486\F,0,2.52753601,-0.17754857,-0.28270552\C,0,0.7
 3125466,1.5246123,-0.02052665\H,0,0.54158022,-0.58072806,-0.81363516\N
 ,0,0.85813609,-0.53337369,1.38590872\H,0,1.79731251,-0.90092737,1.2697
 8594\H,0,0.19702595,-1.27019374,1.58618783\N,0,0.31681292,2.29537976,1

 Normal termination of Gaussian 16 at Wed Apr  9 02:41:58 2025.
