 Gaussian 16, Revision C.01,

 ----------------------------------------------------------------------
 #t hf aug-cc-pvdz symm=none int=(grid=ultrafine) guess=(read,tcheck) s
 table=(opt,rrhf)
 ----------------------------------------------------------------------
 -----
 title
 -----
 Symbolic Z-matrix:
 Charge = -1 Multiplicity = 1

 SCF Done:  E(RHF) =  -583.909879458     A.U. after   16 cycles
 Normal termination of Gaussian 16 at Wed Apr  9 02:46:28 2025.
 Gaussian 16:  ES64L-G16RevC.01  3-Jul-2019

 ----------------------------------------------------------------------
 #t hf aug-cc-pvdz iop(5/13=1,5/36=2,99/5=2) pseudo=read geom=check gue
 ss=(read,tcheck) scf=(maxcycle=1)
 ----------------------------------------------------------------------
 -----
 title
 -----
 Structure from the checkpoint file:  "E2SN2_247_mol1.chk"
 Charge = -1 Multiplicity = 1

                         Standard orientation:
 ---------------------------------------------------------------------
 Center     Atomic      Atomic             Coordinates (Angstroms)
 Number     Number       Type             X           Y           Z
 ---------------------------------------------------------------------
      1          6           0        0.352901    0.378272    0.141278
      2          1           0       -0.725194   -0.225789   -1.589064
      3          9           0        0.106089   -0.619299    1.355839
      4          1           0        0.823395    1.338785   -1.324692
      5          6           0       -0.975209    0.239084   -0.635854
      6          7           0        1.520320   -0.405990   -0.374103
      7          8           0        1.290192   -1.353424   -1.124779
      8          8           0        2.627615   -0.130418    0.087482
      9          7           0        0.581888    1.533729    0.941339
     10          1           0        1.204391    2.151873    0.447151
     11          1           0        1.003357    1.218826    1.806451
     12          7           0       -1.653286    1.504482   -0.899149
     13          1           0       -0.952531    2.025478   -1.427122
     14          1           0       -1.718600    1.979410   -0.002261
     15          6           0       -1.954943   -0.644130    0.031562
     16          7           0       -2.801574   -1.329866    0.469549
 ---------------------------------------------------------------------

 SCF Done:  E(RHF) =  -586.452498837     A.U. after    2 cycles

 The electronic state is 1-A.
 Alpha  occ. eigenvalues --  -29.05924 -20.94524 -20.94332 -15.85067 -15.62601
 Alpha  occ. eigenvalues --  -15.62342 -15.61306 -11.49235 -11.36427 -11.29698
 Alpha  occ. eigenvalues --   -1.84383  -1.54382  -1.31359  -1.21712  -1.14239
 Alpha  occ. eigenvalues --   -1.02272  -0.89067  -0.72732  -0.67543  -0.60049
 Alpha  occ. eigenvalues --   -0.56901  -0.52935  -0.50712  -0.48443  -0.44267
 Alpha  occ. eigenvalues --   -0.42600  -0.41043  -0.36525  -0.30508  -0.30400
 Alpha  occ. eigenvalues --   -0.29570  -0.28469  -0.22646  -0.20994  -0.18057
 Alpha  occ. eigenvalues --   -0.16177  -0.10619  -0.09458  -0.08483
 Alpha virt. eigenvalues --    0.13746   0.14809   0.15624   0.15889   0.17135
 Alpha virt. eigenvalues --    0.17959   0.20166   0.22381   0.23092   0.23951
 Alpha virt. eigenvalues --    0.24947   0.26126   0.26610   0.27155   0.27584

 Mulliken charges:
               1
     1  C    4.007700
     2  H    1.828589
     3  F    0.187185
     4  H   -0.778718
     5  C   -0.756156
     6  N    4.740914
     7  O   -3.204548
     8  O   -3.214179
     9  N   -2.954754
    10  H    0.558219
    11  H    0.399706
    12  N   -2.401417
    13  H    0.636443
    14  H    0.624296
    15  C    1.759947
    16  N   -2.433228
 Sum of Mulliken charges =  -1.00000

 Dipole moment (field-independent basis, Debye):
    X=              0.9718    Y=             -0.8863    Z=              4.1787  Tot=              4.3808

 Test job not archived.
 1\1\GINC-SE097\SP\RHF\Aug-CC-pVDZ\C3H6F1N4O2(1-)\OHZDE\09-Apr-2025\0\\
 #t hf aug-cc-pvdz iop(5/13=1,5/36=2,99/5=2) pseudo=read geom=check gue
 ss=(read,tcheck) scf=(maxcycle=1)\\title\\-1,1\C,0,0.45474687,-0.00624
 038,-0.08218898\H,0,1.4239341,1.69782717,-0.90565224\F,0,-0.94692884,-
 0.27271954,-0.78611812\H,0,2.16106914,0.16102883,0.51237226\C,0,0.5814
 1844,1.52586212,-0.23645983\N,0,1.20439709,-0.84695003,-1.0695004\O,0,
 1.56623011,-0.31621755,-2.11902617\O,0,1.30010813,-2.04903945,-0.82267
 377\N,0,0.09529156,-0.55871234,1.18002262\H,0,0.92252664,-0.92795964,1

 Normal termination of Gaussian 16 at Wed Apr  9 02:46:35 2025.
