 Gaussian 16, Revision C.01,

 ----------------------------------------------------------------------
 #t hf aug-cc-pvdz symm=none int=(grid=ultrafine) guess=(read,tcheck) s
 table=(opt,rrhf)
 ----------------------------------------------------------------------
 -----
 title
 -----
 Symbolic Z-matrix:
 Charge = -1 Multiplicity = 1

 SCF Done:  E(RHF) =  -502.378466731     A.U. after   15 cycles
 Normal termination of Gaussian 16 at Wed Apr  9 02:52:38 2025.
 Gaussian 16:  ES64L-G16RevC.01  3-Jul-2019

 ----------------------------------------------------------------------
 #t hf aug-cc-pvdz iop(5/13=1,5/36=2,99/5=2) pseudo=read geom=check gue
 ss=(read,tcheck) scf=(maxcycle=1)
 ----------------------------------------------------------------------
 -----
 title
 -----
 Structure from the checkpoint file:  "E2SN2_315_mol1.chk"
 Charge = -1 Multiplicity = 1

                         Standard orientation:
 ---------------------------------------------------------------------
 Center     Atomic      Atomic             Coordinates (Angstroms)
 Number     Number       Type             X           Y           Z
 ---------------------------------------------------------------------
      1          6           0        0.263789   -0.376815    0.099562
      2          1           0       -1.076763    0.192347    1.583984
      3          9           0       -0.194365   -0.509187   -1.652986
      4          9           0        0.991544   -0.139304    1.739979
      5          6           0       -1.042651    0.309427    0.499405
      6          6           0        1.407198    0.398505   -0.388132
      7          7           0        2.341290    0.995140   -0.779719
      8          7           0        0.352918   -1.806152    0.225199
      9          1           0        1.107858   -1.986760    0.871704
     10          1           0        0.556826   -2.161603   -0.698315
     11          6           0       -2.278697   -0.363227   -0.087616
     12          1           0       -2.374546   -0.146961   -1.149402
     13          1           0       -2.206522   -1.444748    0.036883
     14          1           0       -3.169852   -0.006336    0.444644
     15          6           0       -0.999757    1.795032    0.169237
     16          1           0       -0.164961    2.278878    0.681350
     17          1           0       -0.876177    1.926823   -0.908190
     18          1           0       -1.929220    2.284334    0.481314
 ---------------------------------------------------------------------

 SCF Done:  E(RHF) =  -504.549848151     A.U. after    2 cycles

 The electronic state is 1-A.
 Alpha  occ. eigenvalues --  -28.96557 -28.96394 -15.59794 -15.59592 -11.47345
 Alpha  occ. eigenvalues --  -11.29419 -11.28622 -11.24824 -11.21957  -1.27088
 Alpha  occ. eigenvalues --   -1.12855  -1.08425  -0.88990  -0.86491  -0.72081
 Alpha  occ. eigenvalues --   -0.63630  -0.55597  -0.50935  -0.47891  -0.42411
 Alpha  occ. eigenvalues --   -0.40728  -0.40645  -0.37606  -0.36349  -0.35982
 Alpha  occ. eigenvalues --   -0.31338  -0.30322  -0.26960  -0.25494  -0.23633
 Alpha  occ. eigenvalues --   -0.12746  -0.04322  -0.03088  -0.02697  -0.02333
 Alpha  occ. eigenvalues --    0.02903
 Alpha virt. eigenvalues --    0.13320   0.13929   0.14654   0.15817   0.15928
 Alpha virt. eigenvalues --    0.16547   0.16668   0.17461   0.17928   0.20514
 Alpha virt. eigenvalues --    0.23540   0.24671   0.25020   0.25306   0.25459

 Mulliken charges:
               1
     1  C    5.417500
     2  H    1.501711
     3  F   -0.486115
     4  F   -0.621588
     5  C   -2.449219
     6  C    3.105963
     7  N   -3.354611
     8  N   -4.013726
     9  H    0.461253
    10  H    0.461518
    11  C   -4.221141
    12  H    1.260772
    13  H    1.306733
    14  H    1.093826
    15  C   -4.248210
    16  H    1.292613
    17  H    1.375424
    18  H    1.117297
 Sum of Mulliken charges =  -1.00000

 Dipole moment (field-independent basis, Debye):
    X=             -3.5308    Y=             -1.0320    Z=              0.7084  Tot=              3.7461

 Test job not archived.
 1\1\GINC-SE188\SP\RHF\Aug-CC-pVDZ\C5H9F2N2(1-)\OHZDE\09-Apr-2025\0\\#t
  hf aug-cc-pvdz iop(5/13=1,5/36=2,99/5=2) pseudo=read geom=check guess
 =(read,tcheck) scf=(maxcycle=1)\\title\\-1,1\C,0,0.66912896,-0.0367866
 8,0.06006037\H,0,1.68163486,1.77534964,0.18467398\F,0,-1.11292727,-0.2
 0068405,0.37032822\F,0,2.39975912,-0.08741738,-0.4684867\C,0,0.6358297
 5,1.49175709,0.0540992\C,0,0.39948977,-0.80417136,-1.15844978\N,0,0.19
 021331,-1.44542259,-2.1211752\N,0,0.98553158,-0.71011335,1.29020344\H,
 0,1.82037951,-1.24983991,1.11063228\H,0,0.19482737,-1.3019449,1.503097

 Normal termination of Gaussian 16 at Wed Apr  9 02:52:47 2025.
