 Gaussian 16, Revision C.01,

 ----------------------------------------------------------------------
 #t hf aug-cc-pvdz symm=none int=(grid=ultrafine) guess=(read,tcheck) s
 table=(opt,rrhf)
 ----------------------------------------------------------------------
 -----
 title
 -----
 Symbolic Z-matrix:
 Charge = -1 Multiplicity = 1

 SCF Done:  E(RHF) =  -1010.92432000     A.U. after   17 cycles
 Normal termination of Gaussian 16 at Wed Apr  9 02:50:43 2025.
 Gaussian 16:  ES64L-G16RevC.01  3-Jul-2019

 ----------------------------------------------------------------------
 #t hf aug-cc-pvdz iop(5/13=1,5/36=2,99/5=2) pseudo=read geom=check gue
 ss=(read,tcheck) scf=(maxcycle=1)
 ----------------------------------------------------------------------
 -----
 title
 -----
 Structure from the checkpoint file:  "E2SN2_281_mol1.chk"
 Charge = -1 Multiplicity = 1

                         Standard orientation:
 ---------------------------------------------------------------------
 Center     Atomic      Atomic             Coordinates (Angstroms)
 Number     Number       Type             X           Y           Z
 ---------------------------------------------------------------------
      1          6           0       -0.699850    0.006036    0.411417
      2          1           0        0.402295   -1.755665    0.646925
      3         17           0        0.140089    1.915725   -0.405703
      4          9           0       -1.641642   -1.643388    0.856905
      5          6           0        0.411800   -0.933980   -0.066300
      6          6           0       -1.865732    0.170617   -0.428597
      7          7           0       -2.810019    0.338985   -1.109770
      8          6           0       -0.760733    0.493207    1.841368
      9          1           0       -1.035207   -0.351532    2.468765
     10          1           0        0.199456    0.902481    2.143621
     11          1           0       -1.515132    1.275972    1.919532
     12          7           0        1.798119   -0.355101    0.093757
     13          8           0        2.512157   -0.225528   -0.895850
     14          8           0        2.159459   -0.129154    1.248331
     15          6           0        0.191441   -1.436799   -1.472106
     16          1           0       -0.763261   -1.960803   -1.473896
     17          1           0        0.166531   -0.607673   -2.179479
     18          1           0        0.987396   -2.123816   -1.763118
 ---------------------------------------------------------------------

 SCF Done:  E(RHF) =  -1013.56919823     A.U. after    2 cycles

 The electronic state is 1-A.
 Alpha  occ. eigenvalues --  -99.68475 -28.97120 -20.97691 -20.97050 -15.86920
 Alpha  occ. eigenvalues --  -15.62489 -11.47679 -11.37927 -11.32828 -11.28276
 Alpha  occ. eigenvalues --  -11.26860 -10.25558  -9.45654  -9.45279  -9.45134
 Alpha  occ. eigenvalues --   -1.86890  -1.56778  -1.24009  -1.14130  -1.07289
 Alpha  occ. eigenvalues --   -1.01760  -0.91068  -0.85285  -0.72263  -0.62285
 Alpha  occ. eigenvalues --   -0.59910  -0.54015  -0.52675  -0.49809  -0.48613
 Alpha  occ. eigenvalues --   -0.45434  -0.43787  -0.41458  -0.40282  -0.38541
 Alpha  occ. eigenvalues --   -0.37142  -0.33068  -0.32644  -0.31845  -0.29719
 Alpha  occ. eigenvalues --   -0.27168  -0.23151  -0.19265  -0.19079  -0.07099
 Alpha  occ. eigenvalues --   -0.04287  -0.03581
 Alpha virt. eigenvalues --    0.13263   0.14452   0.15099   0.15412   0.16194
 Alpha virt. eigenvalues --    0.16746   0.17280   0.20013   0.20696   0.21398
 Alpha virt. eigenvalues --    0.22869   0.23212   0.23857   0.24644   0.25677

 Mulliken charges:
               1
     1  C    5.137235
     2  H    1.915352
     3  Cl  -0.831282
     4  F   -0.508583
     5  C   -3.017177
     6  C    1.991221
     7  N   -3.107244
     8  C   -4.981846
     9  H    1.142344
    10  H    1.283121
    11  H    1.221674
    12  N    4.482658
    13  O   -2.857786
    14  O   -3.093964
    15  C   -3.306327
    16  H    1.195522
    17  H    1.206359
    18  H    1.128724
 Sum of Mulliken charges =  -1.00000

 Dipole moment (field-independent basis, Debye):
    X=              1.4309    Y=             -5.8766    Z=              2.6355  Tot=              6.5975

 Test job not archived.
 1\1\GINC-SE131\SP\RHF\Aug-CC-pVDZ\C5H7Cl1F1N2O2(1-)\OHZDE\09-Apr-2025\
 0\\#t hf aug-cc-pvdz iop(5/13=1,5/36=2,99/5=2) pseudo=read geom=check
 guess=(read,tcheck) scf=(maxcycle=1)\\title\\-1,1\C,0,0.43805986,-0.07
 050166,0.0841161\H,0,1.65822177,1.59362666,0.42420437\Cl,0,-1.77487731
 ,-0.10037074,0.43356469\F,0,2.28489322,-0.11097755,-0.54325754\C,0,0.6
 3182879,1.44936096,0.09306826\C,0,0.23630817,-0.72778881,-1.18838583\N
 ,0,0.04395378,-1.27794205,-2.21032188\C,0,0.77104384,-0.91537008,1.292
 88412\H,0,1.85305891,-0.9294462,1.40054699\H,0,0.2999958,-0.50639444,2

 Normal termination of Gaussian 16 at Wed Apr  9 02:50:54 2025.
