 Gaussian 16, Revision C.01,

 ----------------------------------------------------------------------
 #t hf aug-cc-pvdz symm=none int=(grid=ultrafine) guess=(read,tcheck) s
 table=(opt,rrhf)
 ----------------------------------------------------------------------
 -----
 title
 -----
 Symbolic Z-matrix:
 Charge = -1 Multiplicity = 1

 SCF Done:  E(RHF) =  -876.131168635     A.U. after   16 cycles
 Normal termination of Gaussian 16 at Wed Apr  9 02:41:05 2025.
 Gaussian 16:  ES64L-G16RevC.01  3-Jul-2019

 ----------------------------------------------------------------------
 #t hf aug-cc-pvdz iop(5/13=1,5/36=2,99/5=2) pseudo=read geom=check gue
 ss=(read,tcheck) scf=(maxcycle=1)
 ----------------------------------------------------------------------
 -----
 title
 -----
 Structure from the checkpoint file:  "E2SN2_201_mol1.chk"
 Charge = -1 Multiplicity = 1

                         Standard orientation:
 ---------------------------------------------------------------------
 Center     Atomic      Atomic             Coordinates (Angstroms)
 Number     Number       Type             X           Y           Z
 ---------------------------------------------------------------------
      1          6           0       -0.562903   -0.348029    0.483133
      2          1           0       -0.115633    0.508762   -1.440105
      3          9           0        1.047755   -0.658811    1.577847
      4         17           0       -2.409470    0.327573   -0.413819
      5          6           0        0.407725    0.307615   -0.500121
      6          1           0       -0.812464    0.185540    1.382598
      7          7           0       -0.735856   -1.746845    0.307989
      8          1           0       -1.659364   -2.010044    0.623728
      9          1           0       -0.023097   -2.139394    0.916256
     10          6           0        1.548464   -0.559897   -0.823452
     11          7           0        2.434396   -1.198268   -1.253683
     12          6           0        0.880533    1.587319    0.032243
     13          7           0        1.229866    2.644206    0.402981
 ---------------------------------------------------------------------

 SCF Done:  E(RHF) =  -878.171644646     A.U. after    2 cycles

 The electronic state is 1-A.
 Alpha  occ. eigenvalues --  -99.69432 -28.95446 -15.65285 -15.64095 -15.62640
 Alpha  occ. eigenvalues --  -11.44243 -11.39039 -11.34305 -11.31959 -10.26504
 Alpha  occ. eigenvalues --   -9.46582  -9.46030  -9.45932  -1.29897  -1.20176
 Alpha  occ. eigenvalues --   -1.16709  -1.08167  -1.04881  -0.81388  -0.67177
 Alpha  occ. eigenvalues --   -0.63259  -0.57828  -0.52949  -0.48693  -0.42295
 Alpha  occ. eigenvalues --   -0.40116  -0.38083  -0.35668  -0.34222  -0.33411
 Alpha  occ. eigenvalues --   -0.31712  -0.31201  -0.30651  -0.29160  -0.27020
 Alpha  occ. eigenvalues --   -0.05416  -0.03704  -0.03269
 Alpha virt. eigenvalues --    0.14020   0.14843   0.16008   0.17603   0.19692
 Alpha virt. eigenvalues --    0.19702   0.20559   0.22154   0.23462   0.23473
 Alpha virt. eigenvalues --    0.24277   0.24970   0.25701   0.26888   0.27306

 Mulliken charges:
               1
     1  C    0.726643
     2  H    1.608997
     3  F   -0.413454
     4  Cl  -0.561279
     5  C   -2.846881
     6  H    1.694512
     7  N   -3.067075
     8  H    0.600418
     9  H    0.547834
    10  C    3.509671
    11  N   -3.050785
    12  C    3.104719
    13  N   -2.853322
 Sum of Mulliken charges =  -1.00000

 Dipole moment (field-independent basis, Debye):
    X=              1.4923    Y=             -2.1153    Z=              2.6854  Tot=              3.7300

 Test job not archived.
 1\1\GINC-SE069\SP\RHF\Aug-CC-pVDZ\C4H4Cl1F1N3(1-)\OHZDE\09-Apr-2025\0\
 \#t hf aug-cc-pvdz iop(5/13=1,5/36=2,99/5=2) pseudo=read geom=check gu
 ess=(read,tcheck) scf=(maxcycle=1)\\title\\-1,1\C,0,0.79215005,-0.0726
 2128,0.03539835\H,0,1.64514683,1.89538758,0.21518617\F,0,-1.17812601,-
 0.06543079,0.12004595\Cl,0,2.88320178,-0.17900577,-0.50028126\C,0,0.65
 555663,1.45012254,0.0724086\H,0,0.53952848,-0.58325267,-0.87644204\N,0
 ,0.86265784,-0.69669454,1.30930373\H,0,1.39418827,-1.55298541,1.231374
 08\H,0,-0.1117391,-0.89657898,1.51595627\C,0,-0.18462394,1.91006918,1.

 Normal termination of Gaussian 16 at Wed Apr  9 02:41:11 2025.
