 Gaussian 16, Revision C.01,

 ----------------------------------------------------------------------
 #t hf aug-cc-pvdz symm=none int=(grid=ultrafine) guess=(read,tcheck) s
 table=(opt,rrhf)
 ----------------------------------------------------------------------
 -----
 title
 -----
 Symbolic Z-matrix:
 Charge = -1 Multiplicity = 1

 SCF Done:  E(RHF) =  -1175.36269175     A.U. after   18 cycles
 Normal termination of Gaussian 16 at Wed Apr  9 02:51:40 2025.
 Gaussian 16:  ES64L-G16RevC.01  3-Jul-2019

 ----------------------------------------------------------------------
 #t hf aug-cc-pvdz iop(5/13=1,5/36=2,99/5=2) pseudo=read geom=check gue
 ss=(read,tcheck) scf=(maxcycle=1)
 ----------------------------------------------------------------------
 -----
 title
 -----
 Structure from the checkpoint file:  "E2SN2_280_mol1.chk"
 Charge = -1 Multiplicity = 1

                         Standard orientation:
 ---------------------------------------------------------------------
 Center     Atomic      Atomic             Coordinates (Angstroms)
 Number     Number       Type             X           Y           Z
 ---------------------------------------------------------------------
      1          6           0       -0.907319    0.014854    0.461623
      2          1           0        0.846937   -0.439865    1.550155
      3         17           0       -0.947290    1.782640   -0.941610
      4          9           0       -0.872966   -1.628058    1.401716
      5          6           0        0.596190   -0.207441    0.522545
      6          6           0       -1.792185   -0.689073   -0.436191
      7          7           0       -2.615107   -1.221449   -1.086844
      8          6           0       -1.525722    0.789826    1.607234
      9          1           0       -1.686590    0.098374    2.431955
     10          1           0       -0.858497    1.598583    1.903256
     11          1           0       -2.467763    1.227955    1.284158
     12          7           0        1.493072    0.960949    0.167402
     13          8           0        2.146947    0.919709   -0.865246
     14          8           0        1.539946    1.835807    1.025114
     15          7           0        1.079068   -1.358568   -0.291100
     16          8           0        2.025571   -1.976399    0.192025
     17          8           0        0.562728   -1.560733   -1.381278
 ---------------------------------------------------------------------

 SCF Done:  E(RHF) =  -1178.62900374     A.U. after    2 cycles

 The electronic state is 1-A.
 Alpha  occ. eigenvalues --  -99.69534 -29.00662 -21.00916 -21.00333 -21.00277
 Alpha  occ. eigenvalues --  -20.99645 -15.90890 -15.90170 -15.63713 -11.52332
 Alpha  occ. eigenvalues --  -11.43888 -11.33875 -11.29712 -10.26629  -9.46719
 Alpha  occ. eigenvalues --   -9.46357  -9.46178  -1.91480  -1.88099  -1.60419
 Alpha  occ. eigenvalues --   -1.59619  -1.26606  -1.16897  -1.09867  -1.04535
 Alpha  occ. eigenvalues --   -0.91321  -0.86916  -0.75871  -0.65897  -0.65437
 Alpha  occ. eigenvalues --   -0.62364  -0.56172  -0.55143  -0.52538  -0.50863
 Alpha  occ. eigenvalues --   -0.48660  -0.47547  -0.45224  -0.43648  -0.39312
 Alpha  occ. eigenvalues --   -0.35557  -0.34519  -0.33499  -0.32234  -0.29183
 Alpha  occ. eigenvalues --   -0.27077  -0.24823  -0.23198  -0.22059  -0.20939
 Alpha  occ. eigenvalues --   -0.19846  -0.10008  -0.07519  -0.06664
 Alpha virt. eigenvalues --    0.13667   0.14692   0.15174   0.15609   0.19258
 Alpha virt. eigenvalues --    0.20093   0.20647   0.21089   0.22349   0.23192
 Alpha virt. eigenvalues --    0.23848   0.24112   0.24607   0.25181   0.25974

 Mulliken charges:
               1
     1  C    5.009188
     2  H    2.182764
     3  Cl  -0.770128
     4  F   -0.398351
     5  C   -3.093884
     6  C    1.536946
     7  N   -2.927449
     8  C   -4.338253
     9  H    1.198695
    10  H    1.241531
    11  H    1.162928
    12  N    5.096749
    13  O   -3.000969
    14  O   -3.076856
    15  N    5.415286
    16  O   -2.945635
    17  O   -3.292562
 Sum of Mulliken charges =  -1.00000

 Dipole moment (field-independent basis, Debye):
    X=              2.9802    Y=             -3.2114    Z=              5.3013  Tot=              6.8774

 Test job not archived.
 1\1\GINC-SE108\SP\RHF\Aug-CC-pVDZ\C4H4Cl1F1N3O4(1-)\OHZDE\09-Apr-2025\
 0\\#t hf aug-cc-pvdz iop(5/13=1,5/36=2,99/5=2) pseudo=read geom=check
 guess=(read,tcheck) scf=(maxcycle=1)\\title\\-1,1\C,0,0.45982502,-0.10
 11158,0.04763407\H,0,1.56107534,1.59392476,0.66664365\Cl,0,-1.73120298
 ,-0.28149957,0.56006365\F,0,2.20862192,0.09740681,-0.64979901\C,0,0.61
 227974,1.40656618,0.17924103\C,0,0.20092967,-0.78097979,-1.19949409\N,
 0,0.03078975,-1.44900327,-2.15278994\C,0,0.90280858,-0.93405601,1.2331
 312\H,0,1.98144311,-1.06264339,1.16861155\H,0,0.62674471,-0.42877872,2

 Normal termination of Gaussian 16 at Wed Apr  9 02:51:52 2025.
