 Gaussian 16, Revision C.01,

 ----------------------------------------------------------------------
 #t hf aug-cc-pvdz symm=none int=(grid=ultrafine) guess=(read,tcheck) s
 table=(opt,rrhf)
 ----------------------------------------------------------------------
 -----
 title
 -----
 Symbolic Z-matrix:
 Charge = -1 Multiplicity = 1

 SCF Done:  E(RHF) =  -591.181211002     A.U. after   16 cycles
 Normal termination of Gaussian 16 at Wed Apr  9 02:57:18 2025.
 Gaussian 16:  ES64L-G16RevC.01  3-Jul-2019

 ----------------------------------------------------------------------
 #t hf aug-cc-pvdz iop(5/13=1,5/36=2,99/5=2) pseudo=read geom=check gue
 ss=(read,tcheck) scf=(maxcycle=1)
 ----------------------------------------------------------------------
 -----
 title
 -----
 Structure from the checkpoint file:  "E2SN2_377_mol2.chk"
 Charge = -1 Multiplicity = 1

                         Standard orientation:
 ---------------------------------------------------------------------
 Center     Atomic      Atomic             Coordinates (Angstroms)
 Number     Number       Type             X           Y           Z
 ---------------------------------------------------------------------
      1          6           0       -0.167541   -0.172398    0.359462
      2          6           0        0.668051   -0.922636   -0.668124
      3          9           0       -0.700968   -1.108573    1.289725
      4          1           0        0.092485   -1.796233   -0.981982
      5          1           0        0.802946   -0.254913   -1.520793
      6          7           0        0.482217    0.852275    0.969676
      7          1           0       -0.141612    1.547870    1.348306
      8          1           0        1.330643    1.206091    0.406474
      9          7           0       -1.523828    0.268097   -0.310447
     10          8           0       -2.059119   -0.512515   -1.095127
     11          8           0       -1.996717    1.356546    0.015505
     12          7           0        1.994769   -1.288266   -0.198286
     13          1           0        2.504987   -0.394802   -0.187926
     14          1           0        1.916157   -1.619500    0.756823
     15          9           0        2.508292    1.364650   -0.462898
 ---------------------------------------------------------------------

 SCF Done:  E(RHF) =  -593.622449127     A.U. after    2 cycles

 The electronic state is 1-A.
 Alpha  occ. eigenvalues --  -29.13396 -28.92441 -20.97537 -20.97285 -15.85368
 Alpha  occ. eigenvalues --  -15.57875 -15.57383 -11.42379 -11.26843  -1.86197
 Alpha  occ. eigenvalues --   -1.56558  -1.30294  -1.16489  -1.01080  -0.83841
 Alpha  occ. eigenvalues --   -0.76346  -0.61842  -0.60349  -0.56588  -0.54612
 Alpha  occ. eigenvalues --   -0.49736  -0.47498  -0.41963  -0.39100  -0.38224
 Alpha  occ. eigenvalues --   -0.31026  -0.29955  -0.27497  -0.22040  -0.20341
 Alpha  occ. eigenvalues --   -0.19703  -0.16666  -0.12994  -0.12789  -0.01154
 Alpha  occ. eigenvalues --   -0.00411   0.00985
 Alpha virt. eigenvalues --    0.14923   0.15693   0.15863   0.17107   0.18930
 Alpha virt. eigenvalues --    0.20313   0.21164   0.22316   0.24176   0.24960
 Alpha virt. eigenvalues --    0.26281   0.26667   0.27454   0.27979   0.30448

 Mulliken charges:
               1
     1  C    3.944146
     2  C   -1.527007
     3  F    0.360414
     4  H    1.352865
     5  H    1.312152
     6  N   -3.377051
     7  H    0.453098
     8  H    0.044770
     9  N    3.857290
    10  O   -2.974234
    11  O   -2.805679
    12  N   -2.247946
    13  H    0.463156
    14  H    0.515870
    15  F   -0.371844
 Sum of Mulliken charges =  -1.00000

 Dipole moment (field-independent basis, Debye):
    X=             -5.1218    Y=             -3.1009    Z=              2.3959  Tot=              6.4490

 Test job not archived.
 1\1\GINC-SE112\SP\RHF\Aug-CC-pVDZ\C2H6F2N3O2(1-)\OHZDE\09-Apr-2025\0\\
 #t hf aug-cc-pvdz iop(5/13=1,5/36=2,99/5=2) pseudo=read geom=check gue
 ss=(read,tcheck) scf=(maxcycle=1)\\title\\-1,1\C,0,-0.097068,-0.04046,
 0.043669\C,0,-0.67874,-0.275553,-1.343195\F,0,1.241581,0.424176,-0.092
 313\H,0,0.071752,-0.815419,-1.924798\H,0,-1.560203,-0.906841,-1.218325
 \N,0,-0.848095,0.766629,0.836806\H,0,-0.674963,0.628395,1.820317\H,0,-
 1.877346,0.825159,0.521488\N,0,0.220857,-1.43436,0.705708\O,0,0.670711
 ,-2.324503,-0.013242\O,0,0.037211,-1.54825,1.917275\N,0,-1.114729,0.93

 Normal termination of Gaussian 16 at Wed Apr  9 02:57:24 2025.
