 Gaussian 16, Revision C.01,

 ----------------------------------------------------------------------
 #t hf aug-cc-pvdz symm=none int=(grid=ultrafine) guess=(read,tcheck) s
 table=(opt,rrhf)
 ----------------------------------------------------------------------
 -----
 title
 -----
 Symbolic Z-matrix:
 Charge = -1 Multiplicity = 1

 SCF Done:  E(RHF) =  -860.135949373     A.U. after   16 cycles
 Normal termination of Gaussian 16 at Wed Apr  9 02:53:20 2025.
 Gaussian 16:  ES64L-G16RevC.01  3-Jul-2019

 ----------------------------------------------------------------------
 #t hf aug-cc-pvdz iop(5/13=1,5/36=2,99/5=2) pseudo=read geom=check gue
 ss=(read,tcheck) scf=(maxcycle=1)
 ----------------------------------------------------------------------
 -----
 title
 -----
 Structure from the checkpoint file:  "E2SN2_324_mol2.chk"
 Charge = -1 Multiplicity = 1

                         Standard orientation:
 ---------------------------------------------------------------------
 Center     Atomic      Atomic             Coordinates (Angstroms)
 Number     Number       Type             X           Y           Z
 ---------------------------------------------------------------------
      1          6           0       -0.724475   -0.396418    0.340893
      2          6           0        0.344369    0.262949   -0.552874
      3         17           0       -2.353661    0.173225   -0.255559
      4          1           0       -0.061271    0.335701   -1.573294
      5          1           0       -0.591870   -0.018861    1.346361
      6          6           0       -0.656088   -1.903781    0.327999
      7          1           0       -0.679601   -2.308510   -0.687717
      8          1           0        0.287099   -2.144018    0.819125
      9          1           0       -1.488864   -2.325044    0.895545
     10          6           0        1.590510   -0.512467   -0.644659
     11          7           0        2.479130   -1.125913   -1.114721
     12          6           0        0.615911    1.629771   -0.100583
     13          7           0        0.757597    2.766251    0.155822
     14          9           0        1.429811   -0.271865    1.559124
 ---------------------------------------------------------------------

 SCF Done:  E(RHF) =  -862.125618910     A.U. after    2 cycles

 The electronic state is 1-A.
 Alpha  occ. eigenvalues --  -99.76382 -28.90300 -15.63529 -15.61251 -11.41380
 Alpha  occ. eigenvalues --  -11.34681 -11.32756 -11.30831 -11.26374 -10.33717
 Alpha  occ. eigenvalues --   -9.53747  -9.53035  -9.52886  -1.27149  -1.17872
 Alpha  occ. eigenvalues --   -1.14876  -1.06114  -0.96200  -0.77185  -0.64446
 Alpha  occ. eigenvalues --   -0.62213  -0.53715  -0.50162  -0.45394  -0.42249
 Alpha  occ. eigenvalues --   -0.41610  -0.39333  -0.37974  -0.37314  -0.35912
 Alpha  occ. eigenvalues --   -0.34241  -0.31034  -0.29837  -0.28387  -0.24404
 Alpha  occ. eigenvalues --    0.00219   0.00890   0.01087
 Alpha virt. eigenvalues --    0.13158   0.14177   0.15121   0.16681   0.17329
 Alpha virt. eigenvalues --    0.18039   0.19731   0.20547   0.22215   0.23401
 Alpha virt. eigenvalues --    0.24094   0.24364   0.24726   0.25405   0.25633

 Mulliken charges:
               1
     1  C   -1.260658
     2  C   -2.796597
     3  Cl  -0.281019
     4  H    1.480108
     5  H    1.625458
     6  C   -3.815348
     7  H    1.251846
     8  H    1.225932
     9  H    1.138290
    10  C    4.170078
    11  N   -3.274679
    12  C    3.183373
    13  N   -2.905524
    14  F   -0.741259
 Sum of Mulliken charges =  -1.00000

 Dipole moment (field-independent basis, Debye):
    X=             -3.6063    Y=             -1.8310    Z=              0.6998  Tot=              4.1046

 Test job not archived.
 1\1\GINC-SE123\SP\RHF\Aug-CC-pVDZ\C5H5Cl1F1N2(1-)\OHZDE\09-Apr-2025\0\
 \#t hf aug-cc-pvdz iop(5/13=1,5/36=2,99/5=2) pseudo=read geom=check gu
 ess=(read,tcheck) scf=(maxcycle=1)\\title\\-1,1\C,0,-0.133487,0.014656
 ,0.068964\C,0,-0.602655,-0.222112,-1.380116\Cl,0,1.610239,-0.5187,0.16
 6153\H,0,0.247071,-0.024187,-2.050851\H,0,-0.712379,-0.634361,0.712983
 \C,0,-0.269917,1.452589,0.505681\H,0,0.216953,2.142209,-0.189602\H,0,-
 1.344632,1.632238,0.540823\H,0,0.162666,1.588745,1.499371\C,0,-1.69149
 3,0.674124,-1.796956\N,0,-2.27666,1.493617,-2.407636\C,0,-0.982723,-1.

 Normal termination of Gaussian 16 at Wed Apr  9 02:53:26 2025.
