 Gaussian 16, Revision C.01,

 ----------------------------------------------------------------------
 #t hf aug-cc-pvdz symm=none int=(grid=ultrafine) guess=(read,tcheck) s
 table=(opt,rrhf)
 ----------------------------------------------------------------------
 -----
 title
 -----
 Symbolic Z-matrix:
 Charge = -1 Multiplicity = 1

 SCF Done:  E(RHF) =  -888.909636432     A.U. after   17 cycles
 Normal termination of Gaussian 16 at Wed Apr  9 03:00:21 2025.
 Gaussian 16:  ES64L-G16RevC.01  3-Jul-2019

 ----------------------------------------------------------------------
 #t hf aug-cc-pvdz iop(5/13=1,5/36=2,99/5=2) pseudo=read geom=check gue
 ss=(read,tcheck) scf=(maxcycle=1)
 ----------------------------------------------------------------------
 -----
 title
 -----
 Structure from the checkpoint file:  "E2SN2_50_mol1.chk"
 Charge = -1 Multiplicity = 1

                         Standard orientation:
 ---------------------------------------------------------------------
 Center     Atomic      Atomic             Coordinates (Angstroms)
 Number     Number       Type             X           Y           Z
 ---------------------------------------------------------------------
      1          6           0       -0.080265   -0.003256   -0.008707
      2          6           0       -0.912091   -0.307203    1.174746
      3         17           0        0.030975   -1.378799   -1.262150
      4          1           0       -1.607881    1.314646    2.928848
      5          1           0       -0.880390    0.574126    1.997006
      6          1           0       -0.521833   -1.204410    1.665890
      7          6           0       -0.531253    1.168059   -0.747295
      8          7           0       -0.890668    2.102400   -1.362516
      9          7           0       -2.315775   -0.303354    0.838550
     10          1           0       -2.744467    0.272816    1.576274
     11          1           0       -2.704688   -1.235568    0.878033
     12          7           0        1.360029    0.205016    0.453886
     13          8           0        1.882104   -0.738645    1.033507
     14          8           0        1.867801    1.306637    0.265068
 ---------------------------------------------------------------------

 SCF Done:  E(RHF) =  -891.079538340     A.U. after    2 cycles

 The electronic state is 1-A.
 Alpha  occ. eigenvalues --  -99.80151 -21.00620 -21.00192 -15.90181 -15.66950
 Alpha  occ. eigenvalues --  -15.60232 -11.46587 -11.35311 -11.28228 -10.37366
 Alpha  occ. eigenvalues --   -9.57401  -9.56613  -9.56592  -1.89879  -1.59858
 Alpha  occ. eigenvalues --   -1.30509  -1.19345  -1.18234  -1.07203  -0.85153
 Alpha  occ. eigenvalues --   -0.79844  -0.64524  -0.61775  -0.58061  -0.53441
 Alpha  occ. eigenvalues --   -0.50683  -0.49788  -0.44692  -0.42540  -0.42510
 Alpha  occ. eigenvalues --   -0.39526  -0.36519  -0.34280  -0.32994  -0.27259
 Alpha  occ. eigenvalues --   -0.23384  -0.21579  -0.21376  -0.11463
 Alpha virt. eigenvalues --    0.13608   0.14515   0.15256   0.17609   0.18247
 Alpha virt. eigenvalues --    0.19531   0.20867   0.21745   0.21901   0.22631
 Alpha virt. eigenvalues --    0.23749   0.24481   0.24916   0.25341   0.26150

 Mulliken charges:
               1
     1  C   -0.053442
     2  C   -1.349735
     3  Cl  -0.014548
     4  H   -0.786443
     5  H    1.515856
     6  H    1.490612
     7  C    3.674388
     8  N   -2.883262
     9  N   -2.388328
    10  H    0.580550
    11  H    0.560119
    12  N    4.485834
    13  O   -3.123990
    14  O   -2.707612
 Sum of Mulliken charges =  -1.00000

 Dipole moment (field-independent basis, Debye):
    X=              4.4448    Y=             -5.5011    Z=             -6.0116  Tot=              9.2822

 Test job not archived.
 1\1\GINC-SE228\SP\RHF\Aug-CC-pVDZ\C3H5Cl1N3O2(1-)\OHZDE\09-Apr-2025\0\
 \#t hf aug-cc-pvdz iop(5/13=1,5/36=2,99/5=2) pseudo=read geom=check gu
 ess=(read,tcheck) scf=(maxcycle=1)\\title\\-1,1\C,0,-0.16855102,-0.046
 51186,-0.48901786\C,0,-0.23677954,0.01985856,0.98604747\Cl,0,1.5570007
 ,-0.03472247,-1.19466936\H,0,-2.28015006,-0.29264902,2.37110003\H,0,-1
 .36987045,0.10126005,1.3901979\H,0,0.28060244,0.92192527,1.32823748\C,
 0,-0.81428607,-1.22735519,-1.04536089\N,0,-1.31852853,-2.18196959,-1.5
 0917128\N,0,0.16614822,-1.23146921,1.58203475\H,0,-0.57340388,-1.42569

 Normal termination of Gaussian 16 at Wed Apr  9 03:00:27 2025.
