 Gaussian 16, Revision C.01,

 ----------------------------------------------------------------------
 #t hf aug-cc-pvdz symm=none int=(grid=ultrafine) guess=(read,tcheck) s
 table=(opt,rrhf)
 ----------------------------------------------------------------------
 -----
 title
 -----
 Symbolic Z-matrix:
 Charge = -1 Multiplicity = 1

 SCF Done:  E(RHF) =  -836.251219198     A.U. after   16 cycles
 Normal termination of Gaussian 16 at Wed Apr  9 02:33:05 2025.
 Gaussian 16:  ES64L-G16RevC.01  3-Jul-2019

 ----------------------------------------------------------------------
 #t hf aug-cc-pvdz iop(5/13=1,5/36=2,99/5=2) pseudo=read geom=check gue
 ss=(read,tcheck) scf=(maxcycle=1)
 ----------------------------------------------------------------------
 -----
 title
 -----
 Structure from the checkpoint file:  "E2SN2_102_mol2.chk"
 Charge = -1 Multiplicity = 1

                         Standard orientation:
 ---------------------------------------------------------------------
 Center     Atomic      Atomic             Coordinates (Angstroms)
 Number     Number       Type             X           Y           Z
 ---------------------------------------------------------------------
      1          6           0       -0.010142   -0.314820    0.171229
      2          6           0        1.164895   -0.587796   -0.749638
      3         17           0       -1.443628   -1.270529   -0.362022
      4          1           0        1.407291   -1.651784   -0.654153
      5          1           0        0.855154   -0.374427   -1.774817
      6          6           0        0.293205   -0.608690    1.615243
      7          1           0        1.104591    0.045586    1.929180
      8          1           0       -0.582607   -0.457903    2.245339
      9          1           0        0.652243   -1.636716    1.682713
     10          7           0       -0.434525    1.143180   -0.000416
     11          8           0       -0.517579    1.571205   -1.146711
     12          8           0       -0.687721    1.793214    1.010480
     13          7           0        2.274331    0.226973   -0.291944
     14          1           0        2.741015    0.632477   -1.094805
     15          1           0        2.938174   -0.477589    0.138093
     16          1           0        3.501823   -1.919236    0.598182
 ---------------------------------------------------------------------

 SCF Done:  E(RHF) =  -838.234010620     A.U. after    2 cycles

 The electronic state is 1-A.
 Alpha  occ. eigenvalues --  -99.78840 -20.98727 -20.98329 -15.87789 -15.57185
 Alpha  occ. eigenvalues --  -11.40701 -11.30864 -11.26325 -10.36234  -9.56297
 Alpha  occ. eigenvalues --   -9.55435  -9.55421  -1.88050  -1.57952  -1.29238
 Alpha  occ. eigenvalues --   -1.18027  -1.05523  -0.91924  -0.85042  -0.66874
 Alpha  occ. eigenvalues --   -0.61016  -0.59492  -0.54375  -0.52402  -0.48377
 Alpha  occ. eigenvalues --   -0.47178  -0.43719  -0.42519  -0.41644  -0.39202
 Alpha  occ. eigenvalues --   -0.36126  -0.34467  -0.25205  -0.22063  -0.20407
 Alpha  occ. eigenvalues --   -0.19869  -0.10525
 Alpha virt. eigenvalues --    0.13669   0.14590   0.15313   0.15829   0.16881
 Alpha virt. eigenvalues --    0.17130   0.17949   0.20048   0.20921   0.21664
 Alpha virt. eigenvalues --    0.23219   0.24357   0.24939   0.25594   0.26119

 Mulliken charges:
               1
     1  C    0.718811
     2  C   -1.293097
     3  Cl  -0.227483
     4  H    1.408993
     5  H    1.409972
     6  C   -3.182889
     7  H    1.358600
     8  H    1.193538
     9  H    1.189328
    10  N    4.359419
    11  O   -3.130700
    12  O   -2.813529
    13  N   -2.186911
    14  H    0.555220
    15  H    0.662849
    16  H   -1.022121
 Sum of Mulliken charges =  -1.00000

 Dipole moment (field-independent basis, Debye):
    X=            -10.1985    Y=              5.9464    Z=             -1.9411  Tot=             11.9640

 Test job not archived.
 1\1\GINC-SE336\SP\RHF\Aug-CC-pVDZ\C3H8Cl1N2O2(1-)\OHZDE\09-Apr-2025\0\
 \#t hf aug-cc-pvdz iop(5/13=1,5/36=2,99/5=2) pseudo=read geom=check gu
 ess=(read,tcheck) scf=(maxcycle=1)\\title\\-1,1\C,0,-0.488061,0.026968
 ,-1.508184\C,0,-0.075679,0.190256,-0.056805\Cl,0,-0.39459,1.616029,-2.
 355985\H,0,0.969243,0.51901,-0.05491\H,0,-0.702315,0.96269,0.393895\C,
 0,0.336337,-0.994934,-2.242785\H,0,0.189282,-1.958412,-1.75795\H,0,0.0
 56923,-1.051533,-3.294227\H,0,1.38749,-0.725145,-2.130583\N,0,-1.96907
 9,-0.346923,-1.554212\O,0,-2.72951,0.286435,-0.829851\O,0,-2.315241,-1

 Normal termination of Gaussian 16 at Wed Apr  9 02:33:11 2025.
