 Gaussian 16, Revision C.01,

 ----------------------------------------------------------------------
 #t hf aug-cc-pvdz symm=none int=(grid=ultrafine) guess=(read,tcheck) s
 table=(opt,rrhf)
 ----------------------------------------------------------------------
 -----
 title
 -----
 Symbolic Z-matrix:
 Charge = -1 Multiplicity = 1

 SCF Done:  E(RHF) =  -899.246378057     A.U. after   15 cycles
 Normal termination of Gaussian 16 at Wed Apr  9 02:54:46 2025.
 Gaussian 16:  ES64L-G16RevC.01  3-Jul-2019

 ----------------------------------------------------------------------
 #t hf aug-cc-pvdz iop(5/13=1,5/36=2,99/5=2) pseudo=read geom=check gue
 ss=(read,tcheck) scf=(maxcycle=1)
 ----------------------------------------------------------------------
 -----
 title
 -----
 Structure from the checkpoint file:  "E2SN2_336_mol2.chk"
 Charge = -1 Multiplicity = 1

                         Standard orientation:
 ---------------------------------------------------------------------
 Center     Atomic      Atomic             Coordinates (Angstroms)
 Number     Number       Type             X           Y           Z
 ---------------------------------------------------------------------
      1          6           0        0.614261    0.650828   -0.431477
      2          6           0        0.419908   -0.532591    0.525307
      3          9           0        1.986798    0.952249   -0.499537
      4          1           0       -0.649238   -0.810778    0.448988
      5          6           0        0.103553    0.358490   -1.825106
      6          1           0        0.257886    1.228186   -2.467045
      7          1           0       -0.958894    0.109956   -1.761309
      8          1           0        0.655284   -0.491238   -2.232545
      9          6           0       -0.026062    1.861498    0.118221
     10          7           0       -0.460435    2.867762    0.539082
     11          6           0        0.770271   -0.198660    1.976395
     12          1           0        1.786504    0.194319    2.056287
     13          1           0        0.689270   -1.096126    2.592096
     14          1           0        0.064372    0.539389    2.360762
     15          6           0        1.233467   -1.649768    0.047695
     16          7           0        1.900703   -2.550295   -0.304399
     17         17           0       -2.852979   -0.788529   -0.035906
 ---------------------------------------------------------------------

 SCF Done:  E(RHF) =  -901.430559933     A.U. after    2 cycles

 The electronic state is 1-A.
 Alpha  occ. eigenvalues --  -99.61747 -29.17188 -15.67305 -15.65794 -11.45667
 Alpha  occ. eigenvalues --  -11.37546 -11.35306 -11.33319 -11.29884 -11.28831
 Alpha  occ. eigenvalues --  -10.18404  -9.38460  -9.38113  -9.38002  -1.29685
 Alpha  occ. eigenvalues --   -1.19961  -1.15328  -1.04177  -0.97482  -0.89102
 Alpha  occ. eigenvalues --   -0.85448  -0.70797  -0.61223  -0.55612  -0.54512
 Alpha  occ. eigenvalues --   -0.48552  -0.46690  -0.45728  -0.43648  -0.42218
 Alpha  occ. eigenvalues --   -0.40425  -0.39248  -0.35162  -0.34824  -0.32840
 Alpha  occ. eigenvalues --   -0.31093  -0.27311  -0.25580  -0.25378  -0.24281
 Alpha  occ. eigenvalues --   -0.17274  -0.16701
 Alpha virt. eigenvalues --    0.12732   0.13578   0.14347   0.14886   0.16010
 Alpha virt. eigenvalues --    0.17239   0.17720   0.18755   0.19736   0.20747
 Alpha virt. eigenvalues --    0.21072   0.22703   0.23549   0.24202   0.24788

 Mulliken charges:
               1
     1  C    4.301928
     2  C   -3.372324
     3  F   -0.101306
     4  H    2.114148
     5  C   -4.399682
     6  H    1.121586
     7  H    1.130558
     8  H    1.223026
     9  C    0.782063
    10  N   -2.542673
    11  C   -4.079279
    12  H    1.301962
    13  H    1.213924
    14  H    1.258662
    15  C    2.689930
    16  N   -2.734080
    17  Cl  -0.908442
 Sum of Mulliken charges =  -1.00000

 Dipole moment (field-independent basis, Debye):
    X=             10.8285    Y=              3.1388    Z=             -0.0848  Tot=             11.2746

 Test job not archived.
 1\1\GINC-SE128\SP\RHF\Aug-CC-pVDZ\C6H7Cl1F1N2(1-)\OHZDE\09-Apr-2025\0\
 \#t hf aug-cc-pvdz iop(5/13=1,5/36=2,99/5=2) pseudo=read geom=check gu
 ess=(read,tcheck) scf=(maxcycle=1)\\title\\-1,1\C,0,0.037954,-0.000161
 ,0.017165\C,0,-0.539861,0.099047,-1.400571\F,0,1.440956,0.065281,-0.06
 4373\H,0,-1.637873,0.169651,-1.275393\C,0,-0.455887,1.106728,0.922374\
 H,0,-0.023683,0.992222,1.918549\H,0,-1.546887,1.058594,0.967496\H,0,-0
 .14799,2.06789,0.50546\C,0,-0.259549,-1.323977,0.597602\N,0,-0.411199,
 -2.382761,1.081699\C,0,-0.190757,-1.10325,-2.279507\H,0,0.889235,-1.26

 Normal termination of Gaussian 16 at Wed Apr  9 02:54:55 2025.
