 Gaussian 16, Revision C.01,

 ----------------------------------------------------------------------
 #t hf aug-cc-pvdz symm=none int=(grid=ultrafine) guess=(read,tcheck) s
 table=(opt,rrhf)
 ----------------------------------------------------------------------
 -----
 title
 -----
 Symbolic Z-matrix:
 Charge = -1 Multiplicity = 1

 SCF Done:  E(RHF) =  -555.091326442     A.U. after   16 cycles
 Normal termination of Gaussian 16 at Wed Apr  9 02:58:16 2025.
 Gaussian 16:  ES64L-G16RevC.01  3-Jul-2019

 ----------------------------------------------------------------------
 #t hf aug-cc-pvdz iop(5/13=1,5/36=2,99/5=2) pseudo=read geom=check gue
 ss=(read,tcheck) scf=(maxcycle=1)
 ----------------------------------------------------------------------
 -----
 title
 -----
 Structure from the checkpoint file:  "E2SN2_392_mol1.chk"
 Charge = -1 Multiplicity = 1

                         Standard orientation:
 ---------------------------------------------------------------------
 Center     Atomic      Atomic             Coordinates (Angstroms)
 Number     Number       Type             X           Y           Z
 ---------------------------------------------------------------------
      1          6           0       -0.439825   -0.397438    0.104517
      2          1           0        0.739035    0.355670    1.673426
      3          9           0        0.210728   -0.411567   -1.569902
      4          9           0       -1.261949   -0.254427    1.675262
      5          6           0        0.726454    0.465724    0.587754
      6          7           0       -0.314123   -1.817034    0.229114
      7          1           0       -0.330401   -2.200899   -0.704766
      8          1           0       -1.089606   -2.140075    0.789240
      9          6           0       -1.630934    0.226398   -0.476996
     10          7           0       -2.602714    0.699001   -0.938993
     11          6           0        0.541687    1.936387    0.223792
     12          1           0        0.478213    2.031494   -0.860080
     13          1           0       -0.382303    2.301605    0.675542
     14          1           0        1.378978    2.534221    0.593227
     15          6           0        2.014861   -0.029407    0.092030
     16          7           0        3.115926   -0.324546   -0.190323
 ---------------------------------------------------------------------

 SCF Done:  E(RHF) =  -557.438475133     A.U. after    2 cycles

 The electronic state is 1-A.
 Alpha  occ. eigenvalues --  -28.99484 -28.98541 -15.61990 -15.61887 -15.61731
 Alpha  occ. eigenvalues --  -11.50966 -11.35401 -11.31497 -11.30430 -11.26724
 Alpha  occ. eigenvalues --   -1.30200  -1.17347  -1.14977  -1.07735  -0.90767
 Alpha  occ. eigenvalues --   -0.82923  -0.68526  -0.60306  -0.56341  -0.53343
 Alpha  occ. eigenvalues --   -0.45212  -0.43832  -0.41387  -0.40727  -0.39706
 Alpha  occ. eigenvalues --   -0.36702  -0.36447  -0.31837  -0.28652  -0.28407
 Alpha  occ. eigenvalues --   -0.27083  -0.25527  -0.15285  -0.06775  -0.05388
 Alpha  occ. eigenvalues --   -0.05275  -0.04824   0.01147
 Alpha virt. eigenvalues --    0.13276   0.14613   0.15609   0.15678   0.16300
 Alpha virt. eigenvalues --    0.17515   0.19177   0.19771   0.21688   0.23696
 Alpha virt. eigenvalues --    0.24094   0.24706   0.24948   0.25620   0.26223

 Mulliken charges:
               1
     1  C    5.148723
     2  H    1.516573
     3  F   -0.347580
     4  F   -0.543024
     5  C   -3.212133
     6  N   -4.125540
     7  H    0.501912
     8  H    0.460353
     9  C    3.302418
    10  N   -3.369643
    11  C   -4.000398
    12  H    1.360149
    13  H    1.323156
    14  H    1.156912
    15  C    2.720650
    16  N   -2.892527
 Sum of Mulliken charges =  -1.00000

 Dipole moment (field-independent basis, Debye):
    X=              0.4309    Y=              0.1024    Z=              1.1892  Tot=              1.2690

 Test job not archived.
 1\1\GINC-SE029\SP\RHF\Aug-CC-pVDZ\C5H6F2N3(1-)\OHZDE\09-Apr-2025\0\\#t
  hf aug-cc-pvdz iop(5/13=1,5/36=2,99/5=2) pseudo=read geom=check guess
 =(read,tcheck) scf=(maxcycle=1)\\title\\-1,1\C,0,0.61121557,-0.0683308
 7,-0.03742752\H,0,1.60062677,1.76324815,-0.32853683\F,0,-1.17633436,-0
 .14931909,-0.19618364\F,0,2.34969542,-0.07257376,0.3384074\C,0,0.58116
 142,1.45996011,-0.08427966\N,0,0.81203263,-0.76857558,-1.26864916\H,0,
 -0.01987885,-1.31470582,-1.44015863\H,0,1.63257138,-1.34612848,-1.1563
 1588\C,0,0.42405654,-0.77357021,1.23287894\N,0,0.28625366,-1.3662063,2

 Normal termination of Gaussian 16 at Wed Apr  9 02:58:23 2025.
