 Gaussian 16, Revision C.01,

 ----------------------------------------------------------------------
 #t hf aug-cc-pvdz symm=none int=(grid=ultrafine) guess=(read,tcheck) s
 table=(opt,rrhf)
 ----------------------------------------------------------------------
 -----
 title
 -----
 Symbolic Z-matrix:
 Charge = -1 Multiplicity = 1

 SCF Done:  E(RHF) =  -876.152913086     A.U. after   16 cycles
 Normal termination of Gaussian 16 at Wed Apr  9 02:47:05 2025.
 Gaussian 16:  ES64L-G16RevC.01  3-Jul-2019

 ----------------------------------------------------------------------
 #t hf aug-cc-pvdz iop(5/13=1,5/36=2,99/5=2) pseudo=read geom=check gue
 ss=(read,tcheck) scf=(maxcycle=1)
 ----------------------------------------------------------------------
 -----
 title
 -----
 Structure from the checkpoint file:  "E2SN2_261_mol2.chk"
 Charge = -1 Multiplicity = 1

                         Standard orientation:
 ---------------------------------------------------------------------
 Center     Atomic      Atomic             Coordinates (Angstroms)
 Number     Number       Type             X           Y           Z
 ---------------------------------------------------------------------
      1          6           0       -0.547787    0.114202    0.207171
      2          6           0        0.512841   -0.326803   -0.831713
      3         17           0       -0.702791    1.903917    0.303604
      4          1           0        0.206807    0.014385   -1.829412
      5          1           0       -0.158475   -0.335604    1.169391
      6          6           0       -1.834110   -0.449953   -0.165000
      7          7           0       -2.860618   -0.924518   -0.487618
      8          7           0        0.712282   -1.763416   -0.817686
      9          1           0       -0.139623   -2.204844   -1.148159
     10          1           0        0.827202   -1.970352    0.200698
     11          6           0        1.792289    0.337123   -0.531825
     12          7           0        2.816806    0.883446   -0.362595
     13          9           0        0.776982   -1.476241    1.783300
 ---------------------------------------------------------------------

 SCF Done:  E(RHF) =  -878.184506102     A.U. after    2 cycles

 The electronic state is 1-A.
 Alpha  occ. eigenvalues --  -99.78187 -28.92895 -15.65987 -15.63737 -15.59915
 Alpha  occ. eigenvalues --  -11.39156 -11.36075 -11.33240 -11.30426 -10.35518
 Alpha  occ. eigenvalues --   -9.55476  -9.54760  -9.54608  -1.31418  -1.20825
 Alpha  occ. eigenvalues --   -1.17579  -1.15218  -0.98258  -0.86166  -0.66666
 Alpha  occ. eigenvalues --   -0.58580  -0.55676  -0.52563  -0.48982  -0.45927
 Alpha  occ. eigenvalues --   -0.43296  -0.39748  -0.39277  -0.38315  -0.34174
 Alpha  occ. eigenvalues --   -0.33521  -0.30990  -0.29960  -0.28267  -0.22888
 Alpha  occ. eigenvalues --   -0.01974  -0.01542   0.00378
 Alpha virt. eigenvalues --    0.13882   0.15341   0.16435   0.17691   0.18597
 Alpha virt. eigenvalues --    0.19273   0.20162   0.21628   0.22206   0.23405
 Alpha virt. eigenvalues --    0.23949   0.24216   0.24595   0.25648   0.26282

 Mulliken charges:
               1
     1  C   -2.443950
     2  C    1.133730
     3  Cl  -0.102909
     4  H    1.804030
     5  H    1.279517
     6  C    2.659986
     7  N   -2.543121
     8  N   -2.879075
     9  H    0.547561
    10  H    0.275643
    11  C    2.522944
    12  N   -2.705346
    13  F   -0.549010
 Sum of Mulliken charges =  -1.00000

 Dipole moment (field-independent basis, Debye):
    X=             -1.4824    Y=              0.8755    Z=             -2.0591  Tot=              2.6840

 Test job not archived.
 1\1\GINC-SE362\SP\RHF\Aug-CC-pVDZ\C4H4Cl1F1N3(1-)\OHZDE\09-Apr-2025\0\
 \#t hf aug-cc-pvdz iop(5/13=1,5/36=2,99/5=2) pseudo=read geom=check gu
 ess=(read,tcheck) scf=(maxcycle=1)\\title\\-1,1\C,0,-0.129099,0.12082,
 0.006222\C,0,-0.401913,0.221628,-1.514997\Cl,0,1.28736,-0.924914,0.375
 668\H,0,0.463724,0.682414,-2.008777\H,0,-1.096067,-0.308758,0.406461\C
 ,0,0.12101,1.453394,0.528811\N,0,0.31377,2.544005,0.924316\N,0,-1.6125
 4,0.97012,-1.794236\H,0,-1.459852,1.934417,-1.51741\H,0,-2.306639,0.53
 7285,-1.143072\C,0,-0.536684,-1.133183,-2.075392\N,0,-0.599256,-2.1931

 Normal termination of Gaussian 16 at Wed Apr  9 02:47:10 2025.
