 Gaussian 16, Revision C.01,

 ----------------------------------------------------------------------
 #t hf aug-cc-pvdz symm=none int=(grid=ultrafine) guess=(read,tcheck) s
 table=(opt,rrhf)
 ----------------------------------------------------------------------
 -----
 title
 -----
 Symbolic Z-matrix:
 Charge = -1 Multiplicity = 1

 SCF Done:  E(RHF) =  -627.864122128     A.U. after   16 cycles
 Normal termination of Gaussian 16 at Wed Apr  9 02:56:24 2025.
 Gaussian 16:  ES64L-G16RevC.01  3-Jul-2019

 ----------------------------------------------------------------------
 #t hf aug-cc-pvdz iop(5/13=1,5/36=2,99/5=2) pseudo=read geom=check gue
 ss=(read,tcheck) scf=(maxcycle=1)
 ----------------------------------------------------------------------
 -----
 title
 -----
 Structure from the checkpoint file:  "E2SN2_368_mol2.chk"
 Charge = -1 Multiplicity = 1

                         Standard orientation:
 ---------------------------------------------------------------------
 Center     Atomic      Atomic             Coordinates (Angstroms)
 Number     Number       Type             X           Y           Z
 ---------------------------------------------------------------------
      1          6           0       -0.591280   -0.742447    0.802468
      2          6           0        0.161466   -0.204855   -0.415306
      3          9           0        0.201173   -0.662538    1.950231
      4          1           0       -0.640846   -0.288462   -1.222709
      5          1           0       -0.736789   -1.815720    0.617708
      6          7           0       -1.782300    0.013922    0.971778
      7          1           0       -2.222232   -0.049369    0.028682
      8          1           0       -2.373604   -0.473644    1.635662
      9          6           0        1.365377   -0.971831   -0.678771
     10          7           0        2.301561   -1.636868   -0.926668
     11          7           0        0.525383    1.229162   -0.195232
     12          8           0       -0.260350    2.075507   -0.608865
     13          8           0        1.576925    1.469134    0.401287
     14          9           0       -2.143952   -0.610647   -1.572255
 ---------------------------------------------------------------------

 SCF Done:  E(RHF) =  -630.416496797     A.U. after    2 cycles

 The electronic state is 1-A.
 Alpha  occ. eigenvalues --  -29.13692 -28.93472 -20.97601 -20.97082 -15.87118
 Alpha  occ. eigenvalues --  -15.65843 -15.59583 -11.41162 -11.36358 -11.31901
 Alpha  occ. eigenvalues --   -1.86729  -1.56590  -1.29549  -1.19319  -1.08886
 Alpha  occ. eigenvalues --   -0.91847  -0.78559  -0.67805  -0.61942  -0.58019
 Alpha  occ. eigenvalues --   -0.53695  -0.50924  -0.49453  -0.46913  -0.45794
 Alpha  occ. eigenvalues --   -0.39971  -0.34726  -0.33361  -0.29288  -0.27075
 Alpha  occ. eigenvalues --   -0.24821  -0.22318  -0.18826  -0.18472  -0.14574
 Alpha  occ. eigenvalues --   -0.12937  -0.02223  -0.01305   0.00155
 Alpha virt. eigenvalues --    0.13814   0.15538   0.17299   0.18432   0.19964
 Alpha virt. eigenvalues --    0.21534   0.22362   0.23309   0.23881   0.24745
 Alpha virt. eigenvalues --    0.25395   0.26616   0.27253   0.27601   0.28285

 Mulliken charges:
               1
     1  C    0.544033
     2  C   -1.106721
     3  F    0.344613
     4  H    1.531664
     5  H    1.687834
     6  N   -2.588111
     7  H    0.247915
     8  H    0.513998
     9  C    2.533839
    10  N   -2.652172
    11  N    4.271191
    12  O   -2.862226
    13  O   -2.899511
    14  F   -0.566346
 Sum of Mulliken charges =  -1.00000

 Dipole moment (field-independent basis, Debye):
    X=              1.3505    Y=              0.9954    Z=              4.8364  Tot=              5.1192

 Test job not archived.
 1\1\GINC-SE113\SP\RHF\Aug-CC-pVDZ\C3H4F2N3O2(1-)\OHZDE\09-Apr-2025\0\\
 #t hf aug-cc-pvdz iop(5/13=1,5/36=2,99/5=2) pseudo=read geom=check gue
 ss=(read,tcheck) scf=(maxcycle=1)\\title\\-1,1\C,0,0.01568,0.00185,0.0
 02237\C,0,-0.586125,-0.006456,-1.403596\F,0,1.409236,0.081856,-0.05543
 1\H,0,-1.701939,-0.011473,-1.163744\H,0,-0.206369,-0.984928,0.431409\N
 ,0,-0.512844,1.110426,0.717087\H,0,-1.540772,0.980827,0.600709\H,0,-0.
 282885,0.991881,1.697479\C,0,-0.128663,-1.149698,-2.172227\N,0,0.19206
 8,-2.111612,-2.765541\N,0,-0.217707,1.253061,-2.121341\O,0,-1.007447,2

 Normal termination of Gaussian 16 at Wed Apr  9 02:56:30 2025.
