 Gaussian 16, Revision C.01,

 ----------------------------------------------------------------------
 #t hf aug-cc-pvdz symm=none int=(grid=ultrafine) guess=(read,tcheck) s
 table=(opt,rrhf)
 ----------------------------------------------------------------------
 -----
 title
 -----
 Symbolic Z-matrix:
 Charge = -1 Multiplicity = 1

 SCF Done:  E(RHF) =  -852.230981107     A.U. after   16 cycles
 Normal termination of Gaussian 16 at Wed Apr  9 02:56:45 2025.
 Gaussian 16:  ES64L-G16RevC.01  3-Jul-2019

 ----------------------------------------------------------------------
 #t hf aug-cc-pvdz iop(5/13=1,5/36=2,99/5=2) pseudo=read geom=check gue
 ss=(read,tcheck) scf=(maxcycle=1)
 ----------------------------------------------------------------------
 -----
 title
 -----
 Structure from the checkpoint file:  "E2SN2_374_mol1.chk"
 Charge = -1 Multiplicity = 1

                         Standard orientation:
 ---------------------------------------------------------------------
 Center     Atomic      Atomic             Coordinates (Angstroms)
 Number     Number       Type             X           Y           Z
 ---------------------------------------------------------------------
      1          6           0       -1.000525    0.780371   -0.081097
      2          1           0        0.630587    1.430256    1.110834
      3         17           0       -1.220629   -1.175354   -0.823162
      4          1           0       -0.923419    2.784254    0.153873
      5          6           0        0.501500    0.915857    0.156700
      6          1           0       -1.341499    1.202021   -1.010953
      7          7           0       -1.838569    0.676778    1.084404
      8          1           0       -2.599055    0.042965    0.880014
      9          1           0       -2.184669    1.605407    1.273871
     10          7           0        1.104427    1.527477   -0.995740
     11          1           0        2.099952    1.634648   -0.846013
     12          1           0        0.663867    2.444911   -1.021833
     13          7           0        1.213714   -0.402433    0.439003
     14          8           0        2.079656   -0.799355   -0.337800
     15          8           0        0.925603   -0.944841    1.501134
 ---------------------------------------------------------------------

 SCF Done:  E(RHF) =  -854.279566254     A.U. after    2 cycles

 The electronic state is 1-A.
 Alpha  occ. eigenvalues --  -99.68752 -20.95497 -20.95078 -15.84546 -15.60977
 Alpha  occ. eigenvalues --  -15.60680 -11.40772 -11.32189 -10.25844  -9.45886
 Alpha  occ. eigenvalues --   -9.45437  -9.45222  -1.84770  -1.54735  -1.28047
 Alpha  occ. eigenvalues --   -1.19157  -1.06812  -0.97592  -0.82968  -0.67222
 Alpha  occ. eigenvalues --   -0.58624  -0.56868  -0.54793  -0.52944  -0.48614
 Alpha  occ. eigenvalues --   -0.45698  -0.43596  -0.39060  -0.34805  -0.32367
 Alpha  occ. eigenvalues --   -0.31896  -0.25248  -0.25045  -0.21076  -0.17414
 Alpha  occ. eigenvalues --   -0.16759  -0.14517
 Alpha virt. eigenvalues --    0.14038   0.14736   0.15691   0.16425   0.16794
 Alpha virt. eigenvalues --    0.17499   0.19032   0.21066   0.23458   0.24180
 Alpha virt. eigenvalues --    0.25669   0.26332   0.26607   0.27338   0.27534

 Mulliken charges:
               1
     1  C   -0.024418
     2  H    2.026060
     3  Cl  -0.504895
     4  H   -0.970688
     5  C    1.099549
     6  H    1.901978
     7  N   -2.726156
     8  H    0.552248
     9  H    0.687703
    10  N   -2.839246
    11  H    0.534877
    12  H    0.686197
    13  N    4.462226
    14  O   -2.821428
    15  O   -3.064005
 Sum of Mulliken charges =  -1.00000

 Dipole moment (field-independent basis, Debye):
    X=              2.0835    Y=             -1.4688    Z=              0.8923  Tot=              2.7009

 Test job not archived.
 1\1\GINC-SE049\SP\RHF\Aug-CC-pVDZ\C2H7Cl1N3O2(1-)\OHZDE\09-Apr-2025\0\
 \#t hf aug-cc-pvdz iop(5/13=1,5/36=2,99/5=2) pseudo=read geom=check gu
 ess=(read,tcheck) scf=(maxcycle=1)\\title\\-1,1\C,0,0.30070267,-0.0478
 6202,-0.07743832\H,0,1.58417166,1.52064091,-0.70678882\Cl,0,-1.7575886
 7,-0.13673032,-0.50111771\H,0,2.1196294,-0.09608083,0.79771002\C,0,0.6
 3239357,1.43899827,-0.17849421\H,0,0.13793591,-0.39800493,0.92734583\N
 ,0,0.78670963,-0.89761881,-1.13249845\H,0,0.09755337,-1.61482211,-1.31
 281888\H,0,1.64979562,-1.30240015,-0.8019388\N,0,0.56732993,2.02315133

 Normal termination of Gaussian 16 at Wed Apr  9 02:56:52 2025.
