 Gaussian 16, Revision C.01,

 ----------------------------------------------------------------------
 #t hf aug-cc-pvdz symm=none int=(grid=ultrafine) guess=(read,tcheck) s
 table=(opt,rrhf)
 ----------------------------------------------------------------------
 -----
 title
 -----
 Symbolic Z-matrix:
 Charge = -1 Multiplicity = 1

 SCF Done:  E(RHF) =  -931.164890643     A.U. after   15 cycles
 Normal termination of Gaussian 16 at Wed Apr  9 02:59:36 2025.
 Gaussian 16:  ES64L-G16RevC.01  3-Jul-2019

 ----------------------------------------------------------------------
 #t hf aug-cc-pvdz iop(5/13=1,5/36=2,99/5=2) pseudo=read geom=check gue
 ss=(read,tcheck) scf=(maxcycle=1)
 ----------------------------------------------------------------------
 -----
 title
 -----
 Structure from the checkpoint file:  "E2SN2_417_mol1.chk"
 Charge = -1 Multiplicity = 1

                         Standard orientation:
 ---------------------------------------------------------------------
 Center     Atomic      Atomic             Coordinates (Angstroms)
 Number     Number       Type             X           Y           Z
 ---------------------------------------------------------------------
      1          6           0        0.865547   -0.009793    0.002026
      2          1           0       -0.053615    1.103645   -1.515763
      3         17           0       -0.320404   -1.152998    1.565203
      4          9           0        1.868374    0.966151   -1.328505
      5          6           0       -0.421497    0.499725   -0.680112
      6          7           0        1.428903   -1.204389   -0.545154
      7          1           0        1.612003   -1.876193    0.184606
      8          1           0        2.266085   -0.912631   -1.030657
      9          7           0        1.443442    0.858920    0.978846
     10          1           0        2.273157    1.240454    0.545457
     11          1           0        1.641372    0.353310    1.828878
     12          6           0       -1.225600    1.377306    0.171344
     13          7           0       -1.904991    2.138650    0.751591
     14          6           0       -1.248402   -0.567743   -1.244651
     15          7           0       -1.957039   -1.336031   -1.779006
 ---------------------------------------------------------------------

 SCF Done:  E(RHF) =  -933.471666046     A.U. after    2 cycles

 The electronic state is 1-A.
 Alpha  occ. eigenvalues --  -99.67100 -28.98042 -15.64371 -15.64355 -15.62431
 Alpha  occ. eigenvalues --  -15.62374 -11.51119 -11.39701 -11.33934 -11.31562
 Alpha  occ. eigenvalues --  -10.24262  -9.44344  -9.43869  -9.43775  -1.33983
 Alpha  occ. eigenvalues --   -1.20596  -1.16201  -1.16077  -1.06292  -1.04044
 Alpha  occ. eigenvalues --   -0.77349  -0.66235  -0.66144  -0.57102  -0.54124
 Alpha  occ. eigenvalues --   -0.52015  -0.50425  -0.41927  -0.39334  -0.37274
 Alpha  occ. eigenvalues --   -0.34279  -0.33280  -0.32732  -0.32328  -0.30901
 Alpha  occ. eigenvalues --   -0.29855  -0.29531  -0.27686  -0.23090  -0.08496
 Alpha  occ. eigenvalues --   -0.05843  -0.05327
 Alpha virt. eigenvalues --    0.13508   0.14317   0.15240   0.16085   0.16877
 Alpha virt. eigenvalues --    0.19726   0.20472   0.21051   0.22212   0.23336
 Alpha virt. eigenvalues --    0.24115   0.24190   0.25196   0.25856   0.26869

 Mulliken charges:
               1
     1  C    6.541334
     2  H    1.286145
     3  Cl  -0.745830
     4  F   -0.639100
     5  C   -1.399960
     6  N   -3.875582
     7  H    0.586507
     8  H    0.543695
     9  N   -3.880504
    10  H    0.538364
    11  H    0.592295
    12  C    2.550582
    13  N   -2.824714
    14  C    2.548212
    15  N   -2.821445
 Sum of Mulliken charges =  -1.00000

 Dipole moment (field-independent basis, Debye):
    X=              5.7035    Y=              1.7757    Z=             -2.4962  Tot=              6.4741

 Test job not archived.
 1\1\GINC-SE366\SP\RHF\Aug-CC-pVDZ\C4H5Cl1F1N4(1-)\OHZDE\09-Apr-2025\0\
 \#t hf aug-cc-pvdz iop(5/13=1,5/36=2,99/5=2) pseudo=read geom=check gu
 ess=(read,tcheck) scf=(maxcycle=1)\\title\\-1,1\C,0,0.57749468,-0.1335
 8004,-0.00129999\H,0,1.69890426,1.63571721,-0.01904412\Cl,0,-1.6932680
 5,-0.13839197,0.02178438\F,0,2.50830487,-0.12294186,-0.01863664\C,0,0.
 62813642,1.40876857,-0.00117213\N,0,0.63524277,-0.75810819,-1.28600474
 \H,0,-0.10930279,-1.43112884,-1.38645545\H,0,1.55387149,-1.17576156,-1
 .34428378\N,0,0.65857625,-0.76362412,1.27904027\H,0,1.5836496,-1.16865

 Normal termination of Gaussian 16 at Wed Apr  9 02:59:43 2025.
