 Gaussian 16, Revision C.01,

 ----------------------------------------------------------------------
 #t hf aug-cc-pvdz symm=none int=(grid=ultrafine) guess=(read,tcheck) s
 table=(opt,rrhf)
 ----------------------------------------------------------------------
 -----
 title
 -----
 Symbolic Z-matrix:
 Charge = -1 Multiplicity = 1

 SCF Done:  E(RHF) =  -784.427773345     A.U. after   15 cycles
 Normal termination of Gaussian 16 at Wed Apr  9 02:38:35 2025.
 Gaussian 16:  ES64L-G16RevC.01  3-Jul-2019

 ----------------------------------------------------------------------
 #t hf aug-cc-pvdz iop(5/13=1,5/36=2,99/5=2) pseudo=read geom=check gue
 ss=(read,tcheck) scf=(maxcycle=1)
 ----------------------------------------------------------------------
 -----
 title
 -----
 Structure from the checkpoint file:  "E2SN2_16_mol2.chk"
 Charge = -1 Multiplicity = 1

                         Standard orientation:
 ---------------------------------------------------------------------
 Center     Atomic      Atomic             Coordinates (Angstroms)
 Number     Number       Type             X           Y           Z
 ---------------------------------------------------------------------
      1          6           0        0.127269   -0.551166   -0.310945
      2          6           0        0.206142    0.752196    0.468479
      3         17           0       -1.492880   -1.384147    0.043116
      4          1           0        1.229984    1.096902    0.287794
      5          1           0        0.036839   -0.336078   -1.382269
      6          1           0        0.105237    0.524244    1.532599
      7          7           0        1.213465   -1.370332    0.076234
      8          1           0        1.345846   -2.100068   -0.614169
      9          1           0        2.051719   -0.710227    0.063351
     10          6           0       -0.794070    1.730321    0.071331
     11          7           0       -1.580844    2.539221   -0.254819
     12          9           0        2.882772    0.587267   -0.082598
 ---------------------------------------------------------------------

 SCF Done:  E(RHF) =  -786.077942976     A.U. after    2 cycles

 The electronic state is 1-A.
 Alpha  occ. eigenvalues --  -99.73916 -28.91685 -15.63193 -15.57457 -11.35504
 Alpha  occ. eigenvalues --  -11.32452 -11.27134 -10.31251  -9.51178  -9.50476
 Alpha  occ. eigenvalues --   -9.50409  -1.27794  -1.16752  -1.11890  -0.98864
 Alpha  occ. eigenvalues --   -0.76066  -0.61350  -0.57119  -0.50485  -0.47255
 Alpha  occ. eigenvalues --   -0.43577  -0.42418  -0.38139  -0.35990  -0.34856
 Alpha  occ. eigenvalues --   -0.31511  -0.29273  -0.26204  -0.22817  -0.00735
 Alpha  occ. eigenvalues --    0.00067   0.01567
 Alpha virt. eigenvalues --    0.14471   0.15587   0.16242   0.17687   0.18839
 Alpha virt. eigenvalues --    0.19764   0.20866   0.22921   0.23836   0.24669
 Alpha virt. eigenvalues --    0.25713   0.26218   0.27122   0.27916   0.28360

 Mulliken charges:
               1
     1  C   -0.884842
     2  C   -1.948245
     3  Cl  -0.069535
     4  H    1.304865
     5  H    1.840085
     6  H    1.372587
     7  N   -2.546836
     8  H    0.453046
     9  H    0.260347
    10  C    2.200532
    11  N   -2.602963
    12  F   -0.379041
 Sum of Mulliken charges =  -1.00000

 Dipole moment (field-independent basis, Debye):
    X=             -1.8607    Y=             -2.1183    Z=             -0.2218  Tot=              2.8282

 Test job not archived.
 1\1\GINC-SE273\SP\RHF\Aug-CC-pVDZ\C3H5Cl1F1N2(1-)\OHZDE\09-Apr-2025\0\
 \#t hf aug-cc-pvdz iop(5/13=1,5/36=2,99/5=2) pseudo=read geom=check gu
 ess=(read,tcheck) scf=(maxcycle=1)\\title\\-1,1\C,0,-0.067128,-0.06100
 4,-1.488679\C,0,0.026706,0.04951,0.025077\Cl,0,-1.801229,-0.517079,-1.
 967209\H,0,1.096734,0.199234,0.204926\H,0,0.032967,0.933825,-1.938649\
 H,0,-0.261566,-0.911068,0.459456\N,0,0.853395,-1.043048,-1.923406\H,0,
 1.013686,-0.935401,-2.918099\H,0,1.748318,-0.811602,-1.390375\C,0,-0.7
 91065,1.114494,0.583592\N,0,-1.428034,1.985827,1.047009\F,0,2.723972,-

 Normal termination of Gaussian 16 at Wed Apr  9 02:38:41 2025.
