 Gaussian 16, Revision C.01,

 ----------------------------------------------------------------------
 #t hf aug-cc-pvdz symm=none int=(grid=ultrafine) guess=(read,tcheck) s
 table=(opt,rrhf)
 ----------------------------------------------------------------------
 -----
 title
 -----
 Symbolic Z-matrix:
 Charge = -1 Multiplicity = 1

 SCF Done:  E(RHF) =  -836.245143954     A.U. after   16 cycles
 Normal termination of Gaussian 16 at Wed Apr  9 02:49:16 2025.
 Gaussian 16:  ES64L-G16RevC.01  3-Jul-2019

 ----------------------------------------------------------------------
 #t hf aug-cc-pvdz iop(5/13=1,5/36=2,99/5=2) pseudo=read geom=check gue
 ss=(read,tcheck) scf=(maxcycle=1)
 ----------------------------------------------------------------------
 -----
 title
 -----
 Structure from the checkpoint file:  "E2SN2_27_mol2.chk"
 Charge = -1 Multiplicity = 1

                         Standard orientation:
 ---------------------------------------------------------------------
 Center     Atomic      Atomic             Coordinates (Angstroms)
 Number     Number       Type             X           Y           Z
 ---------------------------------------------------------------------
      1          6           0       -0.194015   -0.143524   -0.572758
      2          6           0        1.262715   -0.358807   -0.201234
      3         17           0       -1.249035   -1.561218   -0.287273
      4          1           0        1.619573   -1.136084   -0.895983
      5          1           0       -0.261148    0.108710   -1.627475
      6          7           0       -0.807582    1.026335    0.144132
      7          8           0       -1.246711    1.936536   -0.553881
      8          8           0       -0.834709    0.998397    1.371902
      9          6           0        1.534861   -0.801480    1.227615
     10          1           0        2.590656   -1.078824    1.288099
     11          1           0        1.340301    0.005956    1.935884
     12          1           0        0.932665   -1.664996    1.520257
     13          7           0        1.918219    0.882582   -0.576792
     14          1           0        2.547371    0.583676   -1.375273
     15          1           0        2.516215    1.188931    0.183182
     16          1           0        3.203494   -0.485675   -2.382337
 ---------------------------------------------------------------------

 SCF Done:  E(RHF) =  -838.221634577     A.U. after    2 cycles

 The electronic state is 1-A.
 Alpha  occ. eigenvalues --  -99.79486 -20.99080 -20.98501 -15.88265 -15.57088
 Alpha  occ. eigenvalues --  -11.40547 -11.31460 -11.25547 -10.36864  -9.56868
 Alpha  occ. eigenvalues --   -9.56079  -9.55994  -1.88136  -1.58141  -1.28910
 Alpha  occ. eigenvalues --   -1.19589  -1.03117  -0.95670  -0.81029  -0.69471
 Alpha  occ. eigenvalues --   -0.60946  -0.59470  -0.56183  -0.51779  -0.48376
 Alpha  occ. eigenvalues --   -0.48063  -0.44597  -0.42159  -0.41902  -0.38615
 Alpha  occ. eigenvalues --   -0.34832  -0.33981  -0.25504  -0.22050  -0.20582
 Alpha  occ. eigenvalues --   -0.19770  -0.10600
 Alpha virt. eigenvalues --    0.13459   0.14332   0.14775   0.15693   0.15886
 Alpha virt. eigenvalues --    0.17211   0.17988   0.20014   0.21529   0.22259
 Alpha virt. eigenvalues --    0.22785   0.23409   0.24982   0.25791   0.25908

 Mulliken charges:
               1
     1  C   -2.201033
     2  C    0.853670
     3  Cl  -0.001023
     4  H    1.839112
     5  H    2.004544
     6  N    5.063424
     7  O   -2.793990
     8  O   -3.037362
     9  C   -3.936944
    10  H    1.122342
    11  H    1.320965
    12  H    1.224490
    13  N   -2.580877
    14  H    0.605384
    15  H    0.533388
    16  H   -1.016091
 Sum of Mulliken charges =  -1.00000

 Dipole moment (field-independent basis, Debye):
    X=             -8.9797    Y=              1.2601    Z=              8.2785  Tot=             12.2783

 Test job not archived.
 1\1\GINC-SE060\SP\RHF\Aug-CC-pVDZ\C3H8Cl1N2O2(1-)\OHZDE\09-Apr-2025\0\
 \#t hf aug-cc-pvdz iop(5/13=1,5/36=2,99/5=2) pseudo=read geom=check gu
 ess=(read,tcheck) scf=(maxcycle=1)\\title\\-1,1\C,0,-0.478001,-0.12700
 2,-1.479649\C,0,0.033735,-0.147764,-0.049917\Cl,0,-0.36474,-1.697992,-
 2.330288\H,0,1.111843,-0.357468,-0.138742\H,0,0.091532,0.598936,-2.053
 412\N,0,-1.904398,0.336468,-1.577394\O,0,-2.116573,1.340171,-2.252734\
 O,0,-2.761899,-0.31304,-0.984295\C,0,-0.600626,-1.172031,0.877497\H,0,
 -0.016069,-1.182351,1.80133\H,0,-1.632205,-0.90563,1.114827\H,0,-0.596

 Normal termination of Gaussian 16 at Wed Apr  9 02:49:24 2025.
