 Gaussian 16, Revision C.01,

 ----------------------------------------------------------------------
 #t hf aug-cc-pvdz symm=none int=(grid=ultrafine) guess=(read,tcheck) s
 table=(opt,rrhf)
 ----------------------------------------------------------------------
 -----
 title
 -----
 Symbolic Z-matrix:
 Charge = -1 Multiplicity = 1

 SCF Done:  E(RHF) =  -567.932148139     A.U. after   18 cycles
 Normal termination of Gaussian 16 at Wed Apr  9 02:57:48 2025.
 Gaussian 16:  ES64L-G16RevC.01  3-Jul-2019

 ----------------------------------------------------------------------
 #t hf aug-cc-pvdz iop(5/13=1,5/36=2,99/5=2) pseudo=read geom=check gue
 ss=(read,tcheck) scf=(maxcycle=1)
 ----------------------------------------------------------------------
 -----
 title
 -----
 Structure from the checkpoint file:  "E2SN2_390_mol2.chk"
 Charge = -1 Multiplicity = 1

                         Standard orientation:
 ---------------------------------------------------------------------
 Center     Atomic      Atomic             Coordinates (Angstroms)
 Number     Number       Type             X           Y           Z
 ---------------------------------------------------------------------
      1          6           0        0.711575   -0.448919    0.189234
      2          6           0       -0.320796    0.335036   -0.638649
      3          9           0        0.451121   -0.207147    1.569002
      4          1           0       -0.288338   -0.119959   -1.643894
      5          7           0        0.628809   -1.799815   -0.128381
      6          1           0        1.453987   -2.294923    0.193971
      7          1           0        0.570215   -1.882179   -1.239535
      8          6           0        2.065025    0.157898    0.000391
      9          7           0        3.154526    0.571923   -0.156186
     10          6           0       -0.106803    1.833286   -0.644473
     11          1           0        0.790981    2.064564   -1.220205
     12          1           0       -0.955776    2.333328   -1.114646
     13          1           0        0.001878    2.219168    0.369210
     14          7           0       -1.672016    0.017493   -0.074026
     15          8           0       -2.233412   -0.999748   -0.469748
     16          8           0       -2.146622    0.807311    0.746887
     17          1           0        0.533989   -1.707190   -2.611906
 ---------------------------------------------------------------------

 SCF Done:  E(RHF) =  -570.387778477     A.U. after    2 cycles

 The electronic state is 1-A.
 Alpha  occ. eigenvalues --  -29.14564 -20.97565 -20.96903 -15.86680 -15.66482
 Alpha  occ. eigenvalues --  -15.58958 -11.46950 -11.36094 -11.33583 -11.29166
 Alpha  occ. eigenvalues --   -1.86613  -1.56497  -1.32598  -1.17864  -1.12162
 Alpha  occ. eigenvalues --   -0.94820  -0.92028  -0.74082  -0.68110  -0.60788
 Alpha  occ. eigenvalues --   -0.57437  -0.55058  -0.51357  -0.49484  -0.47628
 Alpha  occ. eigenvalues --   -0.44616  -0.42876  -0.41218  -0.38470  -0.35218
 Alpha  occ. eigenvalues --   -0.33562  -0.26890  -0.24140  -0.23060  -0.19270
 Alpha  occ. eigenvalues --   -0.18459  -0.16111  -0.13914  -0.10776
 Alpha virt. eigenvalues --    0.12967   0.14626   0.15205   0.15272   0.17469
 Alpha virt. eigenvalues --    0.18407   0.19981   0.20741   0.21723   0.22244
 Alpha virt. eigenvalues --    0.22885   0.23577   0.24300   0.24804   0.25752

 Mulliken charges:
               1
     1  C    3.757726
     2  C   -2.433804
     3  F    0.107270
     4  H    2.326468
     5  N   -3.450067
     6  H    0.513329
     7  H    0.577891
     8  C    2.033355
     9  N   -2.640844
    10  C   -3.112881
    11  H    1.146593
    12  H    1.162935
    13  H    1.204880
    14  N    4.651266
    15  O   -3.018862
    16  O   -2.901204
    17  H   -0.924051
 Sum of Mulliken charges =  -1.00000

 Dipole moment (field-independent basis, Debye):
    X=             -2.7438    Y=              5.1304    Z=              9.0085  Tot=             10.7239

 Test job not archived.
 1\1\GINC-SE460\SP\RHF\Aug-CC-pVDZ\C4H7F1N3O2(1-)\OHZDE\09-Apr-2025\0\\
 #t hf aug-cc-pvdz iop(5/13=1,5/36=2,99/5=2) pseudo=read geom=check gue
 ss=(read,tcheck) scf=(maxcycle=1)\\title\\-1,1\C,0,0.003461,0.020558,0
 .017007\C,0,-0.501487,0.087708,-1.434297\F,0,1.402022,0.292717,0.01420
 8\H,0,-1.597627,0.189791,-1.352765\N,0,-0.703518,0.930476,0.794747\H,0
 ,-0.583313,0.727637,1.781848\H,0,-1.78379,0.828742,0.534859\C,0,-0.053
 802,-1.393785,0.498744\N,0,-0.126742,-2.483115,0.935763\C,0,-0.063844,
 -1.073491,-2.300706\H,0,-0.582506,-1.977396,-1.976794\H,0,-0.32224,-0.

 Normal termination of Gaussian 16 at Wed Apr  9 02:57:57 2025.
