 Gaussian 16, Revision C.01,

 ----------------------------------------------------------------------
 #t hf aug-cc-pvdz symm=none int=(grid=ultrafine) guess=(read,tcheck) s
 table=(opt,rrhf)
 ----------------------------------------------------------------------
 -----
 title
 -----
 Symbolic Z-matrix:
 Charge = -1 Multiplicity = 1

 SCF Done:  E(RHF) =  -862.453708890     A.U. after   16 cycles
 Normal termination of Gaussian 16 at Wed Apr  9 02:52:58 2025.
 Gaussian 16:  ES64L-G16RevC.01  3-Jul-2019

 ----------------------------------------------------------------------
 #t hf aug-cc-pvdz iop(5/13=1,5/36=2,99/5=2) pseudo=read geom=check gue
 ss=(read,tcheck) scf=(maxcycle=1)
 ----------------------------------------------------------------------
 -----
 title
 -----
 Structure from the checkpoint file:  "E2SN2_316_mol1.chk"
 Charge = -1 Multiplicity = 1

                         Standard orientation:
 ---------------------------------------------------------------------
 Center     Atomic      Atomic             Coordinates (Angstroms)
 Number     Number       Type             X           Y           Z
 ---------------------------------------------------------------------
      1          6           0        0.093909    0.086666   -0.365176
      2          1           0       -0.346919   -1.770469    0.531379
      3          9           0       -1.376733    1.409380   -0.669947
      4         17           0        1.990852   -1.047024    0.084324
      5          6           0       -0.861806   -0.814839    0.420139
      6          6           0        0.669577    1.271738    0.254483
      7          7           0        1.182975    2.212314    0.741635
      8          7           0        0.181152   -0.095697   -1.780712
      9          1           0        1.124738    0.108966   -2.082028
     10          1           0       -0.464041    0.605407   -2.134793
     11          6           0       -2.157926   -1.102587   -0.334269
     12          1           0       -2.776630   -0.210990   -0.379007
     13          1           0       -1.936704   -1.427975   -1.352204
     14          1           0       -2.690186   -1.912635    0.178730
     15          6           0       -1.129428   -0.240532    1.803974
     16          1           0       -0.201555   -0.119098    2.368618
     17          1           0       -1.609965    0.732815    1.696178
     18          1           0       -1.787474   -0.910025    2.367775
 ---------------------------------------------------------------------

 SCF Done:  E(RHF) =  -864.535969886     A.U. after    2 cycles

 The electronic state is 1-A.
 Alpha  occ. eigenvalues --  -99.67111 -28.95005 -15.61598 -15.61128 -11.46580
 Alpha  occ. eigenvalues --  -11.31231 -11.30024 -11.25768 -11.23138 -10.24159
 Alpha  occ. eigenvalues --   -9.44260  -9.43766  -9.43670  -1.28674  -1.14019
 Alpha  occ. eigenvalues --   -1.09553  -1.04494  -0.88974  -0.86732  -0.72858
 Alpha  occ. eigenvalues --   -0.60260  -0.56618  -0.51739  -0.49286  -0.42687
 Alpha  occ. eigenvalues --   -0.41670  -0.41264  -0.38470  -0.37618  -0.36462
 Alpha  occ. eigenvalues --   -0.32774  -0.31588  -0.30501  -0.28616  -0.27882
 Alpha  occ. eigenvalues --   -0.25810  -0.24977  -0.05723  -0.02653  -0.02010
 Alpha virt. eigenvalues --    0.13118   0.13853   0.14505   0.15544   0.15723
 Alpha virt. eigenvalues --    0.16329   0.16765   0.17269   0.18160   0.20748
 Alpha virt. eigenvalues --    0.21868   0.23500   0.24102   0.24810   0.25494

 Mulliken charges:
               1
     1  C    3.903618
     2  H    1.568855
     3  F   -0.575696
     4  Cl  -0.668497
     5  C   -2.084685
     6  C    3.297124
     7  N   -3.267054
     8  N   -3.909444
     9  H    0.634609
    10  H    0.604587
    11  C   -4.045828
    12  H    1.272787
    13  H    1.304133
    14  H    1.164235
    15  C   -4.047747
    16  H    1.320563
    17  H    1.367201
    18  H    1.161239
 Sum of Mulliken charges =  -1.00000

 Dipole moment (field-independent basis, Debye):
    X=             -6.6046    Y=              0.2821    Z=             -1.5431  Tot=              6.7884

 Test job not archived.
 1\1\GINC-SE116\SP\RHF\Aug-CC-pVDZ\C5H9Cl1F1N2(1-)\OHZDE\09-Apr-2025\0\
 \#t hf aug-cc-pvdz iop(5/13=1,5/36=2,99/5=2) pseudo=read geom=check gu
 ess=(read,tcheck) scf=(maxcycle=1)\\title\\-1,1\C,0,0.77984515,-0.0177
 1309,0.04710492\H,0,1.67744577,1.88709255,0.16163807\F,0,-1.20355808,-
 0.18815428,0.25279472\Cl,0,2.96549623,-0.13715356,-0.49544269\C,0,0.66
 127973,1.50830191,0.04065548\C,0,0.45445142,-0.78975985,-1.14362139\N,
 0,0.23886345,-1.43705153,-2.10284728\N,0,0.93583558,-0.67563518,1.3070
 3226\H,0,1.51027713,-1.49845768,1.18048628\H,0,-0.0177486,-0.94107423,

 Normal termination of Gaussian 16 at Wed Apr  9 02:53:07 2025.
