 Gaussian 16, Revision C.01,

 ----------------------------------------------------------------------
 #t hf aug-cc-pvdz symm=none int=(grid=ultrafine) guess=(read,tcheck) s
 table=(opt,rrhf)
 ----------------------------------------------------------------------
 -----
 title
 -----
 Symbolic Z-matrix:
 Charge = -1 Multiplicity = 1

 SCF Done:  E(RHF) =  -777.166559324     A.U. after   17 cycles
 Normal termination of Gaussian 16 at Wed Apr  9 02:46:58 2025.
 Gaussian 16:  ES64L-G16RevC.01  3-Jul-2019

 ----------------------------------------------------------------------
 #t hf aug-cc-pvdz iop(5/13=1,5/36=2,99/5=2) pseudo=read geom=check gue
 ss=(read,tcheck) scf=(maxcycle=1)
 ----------------------------------------------------------------------
 -----
 title
 -----
 Structure from the checkpoint file:  "E2SN2_260_mol1.chk"
 Charge = -1 Multiplicity = 1

                         Standard orientation:
 ---------------------------------------------------------------------
 Center     Atomic      Atomic             Coordinates (Angstroms)
 Number     Number       Type             X           Y           Z
 ---------------------------------------------------------------------
      1          6           0        0.605509   -0.411323   -0.466676
      2          1           0       -0.554767   -1.553636    0.903640
      3         17           0        0.592486    1.546965   -0.700314
      4          1           0        0.806305   -2.535585   -0.507504
      5          6           0       -0.763125   -0.829902    0.109031
      6          1           0        0.740276   -0.711229   -1.492907
      7          6           0        1.738809   -0.693325    0.389303
      8          7           0        2.650952   -0.672882    1.137276
      9          7           0       -1.547393   -1.399058   -0.988110
     10          1           0       -2.441275   -1.709993   -0.618178
     11          1           0       -0.995971   -2.228495   -1.229493
     12          6           0       -1.535928    0.258509    0.730563
     13          7           0       -2.231904    1.000053    1.318898
 ---------------------------------------------------------------------

 SCF Done:  E(RHF) =  -778.902013636     A.U. after    2 cycles

 The electronic state is 1-A.
 Alpha  occ. eigenvalues --  -99.73884 -15.64663 -15.62658 -15.62224 -11.42355
 Alpha  occ. eigenvalues --  -11.36399 -11.32250 -11.30876 -10.30990  -9.50917
 Alpha  occ. eigenvalues --   -9.50442  -9.50284  -1.30057  -1.17838  -1.16125
 Alpha  occ. eigenvalues --   -1.12827  -0.98455  -0.85511  -0.63376  -0.61466
 Alpha  occ. eigenvalues --   -0.52949  -0.49036  -0.48854  -0.44792  -0.39763
 Alpha  occ. eigenvalues --   -0.38305  -0.36553  -0.35425  -0.31983  -0.31612
 Alpha  occ. eigenvalues --   -0.29722  -0.28544  -0.26481  -0.15032
 Alpha virt. eigenvalues --    0.13652   0.15052   0.16218   0.16489   0.17824
 Alpha virt. eigenvalues --    0.19136   0.20210   0.20415   0.23106   0.23532
 Alpha virt. eigenvalues --    0.23742   0.24089   0.24953   0.25597   0.26173

 Mulliken charges:
               1
     1  C   -1.861607
     2  H    1.942694
     3  Cl  -0.251967
     4  H   -0.866246
     5  C   -0.411299
     6  H    1.752389
     7  C    2.664598
     8  N   -2.675478
     9  N   -2.648567
    10  H    0.628687
    11  H    0.696744
    12  C    2.633475
    13  N   -2.603422
 Sum of Mulliken charges =  -1.00000

 Dipole moment (field-independent basis, Debye):
    X=             -3.5133    Y=              1.2601    Z=             -0.8534  Tot=              3.8288

 Test job not archived.
 1\1\GINC-SE247\SP\RHF\Aug-CC-pVDZ\C4H5Cl1N3(1-)\OHZDE\09-Apr-2025\0\\#
 t hf aug-cc-pvdz iop(5/13=1,5/36=2,99/5=2) pseudo=read geom=check gues
 s=(read,tcheck) scf=(maxcycle=1)\\title\\-1,1\C,0,0.23658281,-0.048491
 25,-0.10931924\H,0,1.48829379,1.58304729,-0.65721047\Cl,0,-1.63161118,
 -0.35828393,-0.66025426\H,0,2.20381322,0.02906225,0.71436906\C,0,0.508
 089,1.46828912,-0.1832523\H,0,0.18684218,-0.41867305,0.90149613\C,0,1.
 04365272,-0.85624908,-0.9996894\N,0,1.4880633,-1.522809,-1.86576253\N,
 0,0.47232738,1.98964504,1.18409723\H,0,0.68178805,2.98357018,1.1559026

 Normal termination of Gaussian 16 at Wed Apr  9 02:47:03 2025.
