 Gaussian 16, Revision C.01,

 ----------------------------------------------------------------------
 #t hf aug-cc-pvdz symm=none int=(grid=ultrafine) guess=(read,tcheck) s
 table=(opt,rrhf)
 ----------------------------------------------------------------------
 -----
 title
 -----
 Symbolic Z-matrix:
 Charge = -1 Multiplicity = 1

 SCF Done:  E(RHF) =  -823.421418528     A.U. after   16 cycles
 Normal termination of Gaussian 16 at Wed Apr  9 02:51:05 2025.
 Gaussian 16:  ES64L-G16RevC.01  3-Jul-2019

 ----------------------------------------------------------------------
 #t hf aug-cc-pvdz iop(5/13=1,5/36=2,99/5=2) pseudo=read geom=check gue
 ss=(read,tcheck) scf=(maxcycle=1)
 ----------------------------------------------------------------------
 -----
 title
 -----
 Structure from the checkpoint file:  "E2SN2_299_mol1.chk"
 Charge = -1 Multiplicity = 1

                         Standard orientation:
 ---------------------------------------------------------------------
 Center     Atomic      Atomic             Coordinates (Angstroms)
 Number     Number       Type             X           Y           Z
 ---------------------------------------------------------------------
      1          6           0        0.114386   -0.222471   -0.376341
      2          1           0       -0.338297    1.678512   -1.210721
      3          9           0        2.044572   -0.697332   -0.435055
      4         17           0       -2.064876    0.180217    0.023974
      5          6           0        0.501829    1.201434   -0.705566
      6          1           0        1.329528    1.110848   -1.407940
      7          6           0        0.272202   -0.750921    0.970473
      8          7           0        0.351388   -1.197106    2.056568
      9          7           0       -0.114374   -1.105459   -1.477397
     10          1           0       -0.829722   -1.774804   -1.226624
     11          1           0        0.784948   -1.565418   -1.583778
     12          6           0        0.936396    1.991779    0.516115
     13          1           0        0.133032    2.043301    1.254715
     14          1           0        1.803444    1.505264    0.964352
     15          1           0        1.210842    3.013622    0.235655
 ---------------------------------------------------------------------

 SCF Done:  E(RHF) =  -825.296295852     A.U. after    2 cycles

 The electronic state is 1-A.
 Alpha  occ. eigenvalues --  -99.67025 -28.94913 -15.61572 -15.61245 -11.45217
 Alpha  occ. eigenvalues --  -11.31012 -11.28553 -11.23475 -10.24063  -9.44141
 Alpha  occ. eigenvalues --   -9.43613  -9.43556  -1.28174  -1.14000  -1.06505
 Alpha  occ. eigenvalues --   -1.03327  -0.86845  -0.77058  -0.59953  -0.56061
 Alpha  occ. eigenvalues --   -0.50452  -0.49779  -0.41082  -0.39607  -0.37954
 Alpha  occ. eigenvalues --   -0.37314  -0.35678  -0.31843  -0.30795  -0.29763
 Alpha  occ. eigenvalues --   -0.28709  -0.25997  -0.24838  -0.05114  -0.02608
 Alpha  occ. eigenvalues --   -0.01962
 Alpha virt. eigenvalues --    0.13227   0.14836   0.15490   0.16097   0.16596
 Alpha virt. eigenvalues --    0.17265   0.17929   0.20461   0.21436   0.23730
 Alpha virt. eigenvalues --    0.24171   0.25094   0.25447   0.25867   0.26586

 Mulliken charges:
               1
     1  C    4.827864
     2  H    1.256023
     3  F   -0.494823
     4  Cl  -0.711989
     5  C   -4.412064
     6  H    1.261104
     7  C    3.436704
     8  N   -3.284296
     9  N   -4.045355
    10  H    0.612261
    11  H    0.575608
    12  C   -3.759058
    13  H    1.350225
    14  H    1.311339
    15  H    1.076458
 Sum of Mulliken charges =  -1.00000

 Dipole moment (field-independent basis, Debye):
    X=              4.8584    Y=              0.9175    Z=             -2.8225  Tot=              5.6932

 Test job not archived.
 1\1\GINC-SE044\SP\RHF\Aug-CC-pVDZ\C4H7Cl1F1N2(1-)\OHZDE\09-Apr-2025\0\
 \#t hf aug-cc-pvdz iop(5/13=1,5/36=2,99/5=2) pseudo=read geom=check gu
 ess=(read,tcheck) scf=(maxcycle=1)\\title\\-1,1\C,0,0.72413781,-0.0323
 3162,0.02922078\H,0,1.51321932,1.90618131,0.39578425\F,0,-1.24804132,-
 0.16219674,0.24876881\Cl,0,2.90911141,-0.08764005,-0.51338984\C,0,0.57
 968166,1.47268997,0.03635387\H,0,-0.20543779,1.67490233,0.76389545\C,0
 ,0.40180896,-0.81160617,-1.15691127\N,0,0.1862498,-1.46711368,-2.11022
 038\N,0,0.88600936,-0.67622707,1.29552193\H,0,1.47367022,-1.49157364,1

 Normal termination of Gaussian 16 at Wed Apr  9 02:51:11 2025.
