 Gaussian 16, Revision C.01,

 ----------------------------------------------------------------------
 #t hf aug-cc-pvdz symm=none int=(grid=ultrafine) guess=(read,tcheck) s
 table=(opt,rrhf)
 ----------------------------------------------------------------------
 -----
 title
 -----
 Symbolic Z-matrix:
 Charge = -1 Multiplicity = 1

 SCF Done:  E(RHF) =  -777.187962709     A.U. after   16 cycles
 Normal termination of Gaussian 16 at Wed Apr  9 02:56:56 2025.
 Gaussian 16:  ES64L-G16RevC.01  3-Jul-2019

 ----------------------------------------------------------------------
 #t hf aug-cc-pvdz iop(5/13=1,5/36=2,99/5=2) pseudo=read geom=check gue
 ss=(read,tcheck) scf=(maxcycle=1)
 ----------------------------------------------------------------------
 -----
 title
 -----
 Structure from the checkpoint file:  "E2SN2_384_mol2.chk"
 Charge = -1 Multiplicity = 1

                         Standard orientation:
 ---------------------------------------------------------------------
 Center     Atomic      Atomic             Coordinates (Angstroms)
 Number     Number       Type             X           Y           Z
 ---------------------------------------------------------------------
      1          6           0        0.390382   -0.147453    0.214209
      2          6           0       -0.602517   -0.830761   -0.744290
      3         17           0        0.220936    1.677583    0.032906
      4          1           0       -0.455927   -1.910051   -0.502661
      5          1           0       -0.378309   -0.615615   -1.792720
      6          7           0        0.259750   -0.537753    1.572085
      7          1           0       -0.683570   -0.297501    1.871524
      8          1           0        0.283147   -1.618690    1.512810
      9          6           0        1.750758   -0.455273   -0.261713
     10          7           0        2.830086   -0.658992   -0.677212
     11          6           0       -1.978103   -0.466905   -0.443534
     12          7           0       -3.092668   -0.179154   -0.209672
     13          1           0        0.135461   -3.043414    0.967216
 ---------------------------------------------------------------------

 SCF Done:  E(RHF) =  -778.913316859     A.U. after    2 cycles

 The electronic state is 1-A.
 Alpha  occ. eigenvalues --  -99.78114 -15.66040 -15.65690 -15.60520 -11.43026
 Alpha  occ. eigenvalues --  -11.35943 -11.33808 -11.31285 -10.35464  -9.55445
 Alpha  occ. eigenvalues --   -9.54713  -9.54603  -1.34242  -1.19340  -1.17489
 Alpha  occ. eigenvalues --   -1.15830  -1.02326  -0.86241  -0.64243  -0.59116
 Alpha  occ. eigenvalues --   -0.57200  -0.52298  -0.49260  -0.46107  -0.42163
 Alpha  occ. eigenvalues --   -0.40856  -0.38883  -0.37805  -0.34203  -0.32618
 Alpha  occ. eigenvalues --   -0.32214  -0.31494  -0.25937  -0.12703
 Alpha virt. eigenvalues --    0.13644   0.15789   0.16213   0.17597   0.18323
 Alpha virt. eigenvalues --    0.18805   0.19703   0.20697   0.21841   0.22441
 Alpha virt. eigenvalues --    0.22818   0.24069   0.24277   0.25007   0.25254

 Mulliken charges:
               1
     1  C    2.836476
     2  C   -2.852355
     3  Cl  -0.172674
     4  H    1.608772
     5  H    1.340561
     6  N   -3.285131
     7  H    0.620604
     8  H    0.736784
     9  C    1.989654
    10  N   -2.579034
    11  C    2.291717
    12  N   -2.522453
    13  H   -1.012921
 Sum of Mulliken charges =  -1.00000

 Dipole moment (field-independent basis, Debye):
    X=             -0.7356    Y=              7.4711    Z=             -2.9311  Tot=              8.0592

 Test job not archived.
 1\1\GINC-SE367\SP\RHF\Aug-CC-pVDZ\C4H5Cl1N3(1-)\OHZDE\09-Apr-2025\0\\#
 t hf aug-cc-pvdz iop(5/13=1,5/36=2,99/5=2) pseudo=read geom=check gues
 s=(read,tcheck) scf=(maxcycle=1)\\title\\-1,1\C,0,0.000058,-0.024587,0
 .014146\C,0,-0.50739,-0.146936,-1.434649\Cl,0,1.834372,0.138614,-0.017
 429\H,0,-1.613765,-0.174482,-1.293525\H,0,-0.138397,-1.05147,-1.926\N,
 0,-0.591426,1.029692,0.757025\H,0,-0.380716,1.901495,0.274533\H,0,-1.6
 50679,0.860409,0.609337\C,0,-0.258852,-1.310614,0.685695\N,0,-0.418434
 ,-2.354954,1.198507\C,0,-0.165902,1.024918,-2.225362\N,0,0.10532,1.966

 Normal termination of Gaussian 16 at Wed Apr  9 02:57:00 2025.
