 Gaussian 16, Revision C.01,

 ----------------------------------------------------------------------
 #t hf aug-cc-pvdz symm=none int=(grid=ultrafine) guess=(read,tcheck) s
 table=(opt,rrhf)
 ----------------------------------------------------------------------
 -----
 title
 -----
 Symbolic Z-matrix:
 Charge = -1 Multiplicity = 1

 SCF Done:  E(RHF) =  -419.428349351     A.U. after   16 cycles
 Normal termination of Gaussian 16 at Wed Apr  9 02:34:05 2025.
 Gaussian 16:  ES64L-G16RevC.01  3-Jul-2019

 ----------------------------------------------------------------------
 #t hf aug-cc-pvdz iop(5/13=1,5/36=2,99/5=2) pseudo=read geom=check gue
 ss=(read,tcheck) scf=(maxcycle=1)
 ----------------------------------------------------------------------
 -----
 title
 -----
 Structure from the checkpoint file:  "E2SN2_116_mol1.chk"
 Charge = -1 Multiplicity = 1

                         Standard orientation:
 ---------------------------------------------------------------------
 Center     Atomic      Atomic             Coordinates (Angstroms)
 Number     Number       Type             X           Y           Z
 ---------------------------------------------------------------------
      1          6           0       -0.241634   -0.446124    0.083028
      2          6           0        0.817040    0.500967   -0.278687
      3          9           0       -0.288378   -0.769290    1.512843
      4          1           0        0.737384    0.131067   -2.718530
      5          1           0        0.710701    0.424956   -1.713160
      6          7           0       -0.173082   -1.732854   -0.580858
      7          1           0        0.653538   -2.189068   -0.208145
      8          1           0        0.037199   -1.517648   -1.561268
      9          6           0        2.213418   -0.053690   -0.112476
     10          1           0        2.463252   -0.730024   -0.944958
     11          1           0        2.910823    0.786135   -0.155909
     12          1           0        2.387595   -0.588702    0.834173
     13          7           0        0.658995    1.852409    0.245397
     14          1           0        0.301469    1.839389    1.197839
     15          1           0       -0.015412    2.357041   -0.320083
     16          6           0       -1.572061    0.160433   -0.175117
     17          7           0       -2.613302    0.657723   -0.396830
 ---------------------------------------------------------------------

 SCF Done:  E(RHF) =  -421.339706731     A.U. after    2 cycles

 The electronic state is 1-A.
 Alpha  occ. eigenvalues --  -29.10303 -15.63292 -15.60831 -15.58597 -11.42646
 Alpha  occ. eigenvalues --  -11.31078 -11.25835 -11.21196  -1.30584  -1.16445
 Alpha  occ. eigenvalues --   -1.15263  -0.95913  -0.91710  -0.71046  -0.65735
 Alpha  occ. eigenvalues --   -0.52468  -0.51948  -0.49859  -0.46710  -0.44194
 Alpha  occ. eigenvalues --   -0.40628  -0.37384  -0.35303  -0.33528  -0.30907
 Alpha  occ. eigenvalues --   -0.29887  -0.27743  -0.23032  -0.19146  -0.12647
 Alpha  occ. eigenvalues --   -0.12283  -0.05342
 Alpha virt. eigenvalues --    0.13928   0.14780   0.14944   0.15766   0.16167
 Alpha virt. eigenvalues --    0.17025   0.18235   0.19197   0.19657   0.22470
 Alpha virt. eigenvalues --    0.22920   0.23386   0.24347   0.25097   0.26204

 Mulliken charges:
               1
     1  C    5.232970
     2  C    0.476465
     3  F   -0.061761
     4  H    0.040053
     5  H    0.289522
     6  N   -3.529805
     7  H    0.449480
     8  H    0.633275
     9  C   -3.853323
    10  H    1.186492
    11  H    1.107190
    12  H    1.151052
    13  N   -3.084081
    14  H    0.533138
    15  H    0.407913
    16  C    0.441846
    17  N   -2.420427
 Sum of Mulliken charges =  -1.00000

 Dipole moment (field-independent basis, Debye):
    X=              0.5296    Y=             -1.8693    Z=              8.5857  Tot=              8.8028

 Test job not archived.
 1\1\GINC-SE222\SP\RHF\Aug-CC-pVDZ\C4H9F1N3(1-)\OHZDE\09-Apr-2025\0\\#t
  hf aug-cc-pvdz iop(5/13=1,5/36=2,99/5=2) pseudo=read geom=check guess
 =(read,tcheck) scf=(maxcycle=1)\\title\\-1,1\C,0,-0.13283932,-0.006775
 42,-0.29691028\C,0,-0.14565584,-0.00653313,1.16884761\F,0,1.20884572,-
 0.10779093,-0.8805812\H,0,-2.47124129,0.77217031,1.45393822\H,0,-1.534
 80333,0.30725606,1.38472362\N,0,-0.71575868,1.16486619,-0.92027015\H,0
 ,-0.08596236,1.93115014,-0.70460307\H,0,-1.57748504,1.34710968,-0.3949
 5853\C,0,0.47653997,1.22656724,1.78324084\H,0,-0.2171053,2.08005355,1.

 Normal termination of Gaussian 16 at Wed Apr  9 02:34:11 2025.
