 Gaussian 16, Revision C.01,

 ----------------------------------------------------------------------
 #t hf aug-cc-pvdz symm=none int=(grid=ultrafine) guess=(read,tcheck) s
 table=(opt,rrhf)
 ----------------------------------------------------------------------
 -----
 title
 -----
 Symbolic Z-matrix:
 Charge = -1 Multiplicity = 1

 SCF Done:  E(RHF) =  -987.891697157     A.U. after   17 cycles
 Normal termination of Gaussian 16 at Wed Apr  9 02:36:57 2025.
 Gaussian 16:  ES64L-G16RevC.01  3-Jul-2019

 ----------------------------------------------------------------------
 #t hf aug-cc-pvdz iop(5/13=1,5/36=2,99/5=2) pseudo=read geom=check gue
 ss=(read,tcheck) scf=(maxcycle=1)
 ----------------------------------------------------------------------
 -----
 title
 -----
 Structure from the checkpoint file:  "E2SN2_142_mol2.chk"
 Charge = -1 Multiplicity = 1

                         Standard orientation:
 ---------------------------------------------------------------------
 Center     Atomic      Atomic             Coordinates (Angstroms)
 Number     Number       Type             X           Y           Z
 ---------------------------------------------------------------------
      1          6           0        0.538091   -0.292530   -0.361087
      2          6           0       -0.594902   -0.466576    0.647148
      3         17           0        1.962410   -1.080720    0.423741
      4          1           0       -0.356229    0.255090    1.428903
      5          1           0       -0.649502   -1.497089    0.997300
      6          7           0        0.375175   -0.938062   -1.654760
      7          1           0        0.058611   -1.889287   -1.496501
      8          1           0       -0.350533   -0.433015   -2.151721
      9          6           0        0.884187    1.114994   -0.618367
     10          7           0        1.196985    2.135928   -1.108845
     11          7           0       -1.905517   -0.149979    0.071948
     12          8           0       -2.894668   -0.653258    0.609853
     13          8           0       -1.966229    0.632622   -0.883054
     14          9           0        0.465900    1.403456    1.893272
 ---------------------------------------------------------------------

 SCF Done:  E(RHF) =  -990.361530488     A.U. after    2 cycles

 The electronic state is 1-A.
 Alpha  occ. eigenvalues --  -99.77483 -28.90573 -20.97879 -20.97679 -15.87519
 Alpha  occ. eigenvalues --  -15.65254 -15.62627 -11.42881 -11.32517 -11.30107
 Alpha  occ. eigenvalues --  -10.34872  -9.54901  -9.54076  -9.53988  -1.87261
 Alpha  occ. eigenvalues --   -1.56993  -1.33984  -1.16472  -1.14712  -1.09037
 Alpha  occ. eigenvalues --   -0.89425  -0.75104  -0.65624  -0.61607  -0.57117
 Alpha  occ. eigenvalues --   -0.55815  -0.52557  -0.48165  -0.47109  -0.45486
 Alpha  occ. eigenvalues --   -0.41061  -0.38336  -0.36580  -0.32049  -0.30536
 Alpha  occ. eigenvalues --   -0.29588  -0.24360  -0.23089  -0.19998  -0.19490
 Alpha  occ. eigenvalues --    0.00167   0.00738   0.02672
 Alpha virt. eigenvalues --    0.12688   0.14436   0.15466   0.16804   0.19882
 Alpha virt. eigenvalues --    0.20654   0.21720   0.22495   0.23471   0.23723
 Alpha virt. eigenvalues --    0.24793   0.24924   0.25396   0.26263   0.27522

 Mulliken charges:
               1
     1  C    1.597885
     2  C   -0.726469
     3  Cl  -0.152191
     4  H    0.681553
     5  H    1.516753
     6  N   -3.140532
     7  H    0.537605
     8  H    0.689739
     9  C    3.330215
    10  N   -3.183343
    11  N    3.885007
    12  O   -2.804853
    13  O   -2.753579
    14  F   -0.477790
 Sum of Mulliken charges =  -1.00000

 Dipole moment (field-independent basis, Debye):
    X=             -1.4284    Y=             -4.4216    Z=             -2.3846  Tot=              5.2228

 Test job not archived.
 1\1\GINC-SE123\SP\RHF\Aug-CC-pVDZ\C3H4Cl1F1N3O2(1-)\OHZDE\09-Apr-2025\
 0\\#t hf aug-cc-pvdz iop(5/13=1,5/36=2,99/5=2) pseudo=read geom=check
 guess=(read,tcheck) scf=(maxcycle=1)\\title\\-1,1\C,0,-0.448807,-0.005
 377,-1.354504\C,0,-0.035304,-0.042626,0.114554\Cl,0,-0.034322,-1.64966
 2,-1.979333\H,0,1.053024,0.012202,0.076564\H,0,-0.41688,-0.93852,0.603
 755\N,0,-1.861817,0.195115,-1.637433\H,0,-2.39613,-0.424916,-1.037301\
 H,0,-2.082793,1.15412,-1.39213\C,0,0.298059,0.982853,-2.149923\N,0,0.6
 22818,1.80958,-2.919191\N,0,-0.557227,1.100724,0.868972\O,0,-0.672134,

 Normal termination of Gaussian 16 at Wed Apr  9 02:37:04 2025.
