 Gaussian 16, Revision C.01,

 ----------------------------------------------------------------------
 #t hf aug-cc-pvdz symm=none int=(grid=ultrafine) guess=(read,tcheck) s
 table=(opt,rrhf)
 ----------------------------------------------------------------------
 -----
 title
 -----
 Symbolic Z-matrix:
 Charge = -1 Multiplicity = 1

 SCF Done:  E(RHF) =  -974.213678319     A.U. after   16 cycles
 Normal termination of Gaussian 16 at Wed Apr  9 03:02:30 2025.
 Gaussian 16:  ES64L-G16RevC.01  3-Jul-2019

 ----------------------------------------------------------------------
 #t hf aug-cc-pvdz iop(5/13=1,5/36=2,99/5=2) pseudo=read geom=check gue
 ss=(read,tcheck) scf=(maxcycle=1)
 ----------------------------------------------------------------------
 -----
 title
 -----
 Structure from the checkpoint file:  "E2SN2_78_mol1.chk"
 Charge = -1 Multiplicity = 1

                         Standard orientation:
 ---------------------------------------------------------------------
 Center     Atomic      Atomic             Coordinates (Angstroms)
 Number     Number       Type             X           Y           Z
 ---------------------------------------------------------------------
      1          6           0       -0.294941   -0.041883   -0.374455
      2          6           0        0.906704   -0.480445    0.320342
      3         17           0       -1.809584   -1.261519   -0.238080
      4          9           0        2.909082    0.921925   -0.227678
      5          1           0        1.886816    0.462259    0.071419
      6          6           0       -0.118870    0.164653   -1.859439
      7          1           0       -1.015009    0.597356   -2.304980
      8          1           0        0.737633    0.822065   -2.013131
      9          1           0        0.097920   -0.805680   -2.297432
     10          7           0        1.516265   -1.585030   -0.421094
     11          1           0        1.340514   -2.464793    0.056618
     12          1           0        2.515242   -1.415105   -0.440810
     13          6           0        0.824064   -0.743383    1.808876
     14          1           0        0.174097   -1.605446    2.030620
     15          1           0        1.833563   -0.971681    2.166309
     16          1           0        0.450563    0.105184    2.383144
     17          7           0       -0.832995    1.229177    0.266750
     18          8           0       -0.650078    2.278790   -0.351374
     19          8           0       -1.365521    1.161418    1.370523
 ---------------------------------------------------------------------

 SCF Done:  E(RHF) =  -976.743560447     A.U. after    2 cycles

 The electronic state is 1-A.
 Alpha  occ. eigenvalues --  -99.73246 -28.97556 -20.96559 -20.96330 -15.85884
 Alpha  occ. eigenvalues --  -15.58329 -11.41329 -11.27996 -11.25531 -11.21872
 Alpha  occ. eigenvalues --  -10.30405  -9.50524  -9.49868  -9.49790  -1.85983
 Alpha  occ. eigenvalues --   -1.55784  -1.24963  -1.14982  -1.04701  -0.93374
 Alpha  occ. eigenvalues --   -0.89093  -0.76614  -0.65462  -0.60356  -0.56053
 Alpha  occ. eigenvalues --   -0.52917  -0.50294  -0.47409  -0.45879  -0.43683
 Alpha  occ. eigenvalues --   -0.42111  -0.41935  -0.39923  -0.37139  -0.36885
 Alpha  occ. eigenvalues --   -0.35191  -0.31922  -0.22774  -0.22110  -0.20862
 Alpha  occ. eigenvalues --   -0.17964  -0.17576  -0.05015  -0.04725  -0.01431
 Alpha virt. eigenvalues --    0.13897   0.14290   0.14853   0.15112   0.16047
 Alpha virt. eigenvalues --    0.16597   0.17156   0.17484   0.18359   0.21145
 Alpha virt. eigenvalues --    0.21315   0.23224   0.24739   0.25410   0.25928

 Mulliken charges:
               1
     1  C    2.535098
     2  C    1.407017
     3  Cl  -0.423948
     4  F    0.578521
     5  H    0.800092
     6  C   -4.531156
     7  H    1.260580
     8  H    1.257840
     9  H    1.257354
    10  N   -3.015414
    11  H    0.605107
    12  H    0.386440
    13  C   -4.709207
    14  H    1.142675
    15  H    1.155195
    16  H    1.337790
    17  N    3.693198
    18  O   -2.689937
    19  O   -3.047243
 Sum of Mulliken charges =  -1.00000

 Dipole moment (field-independent basis, Debye):
    X=              1.2213    Y=              0.7250    Z=             -0.1449  Tot=              1.4277

 Test job not archived.
 1\1\GINC-SE457\SP\RHF\Aug-CC-pVDZ\C4H9Cl1F1N2O2(1-)\OHZDE\09-Apr-2025\
 0\\#t hf aug-cc-pvdz iop(5/13=1,5/36=2,99/5=2) pseudo=read geom=check
 guess=(read,tcheck) scf=(maxcycle=1)\\title\\-1,1\C,0,-0.17807042,0.01
 044301,-0.40368622\C,0,-0.24735031,-0.02843642,1.04983369\Cl,0,1.62808
 184,-0.00599808,-1.1370331\F,0,-2.55712103,0.39785615,1.92145055\H,0,-
 1.58375994,0.04961327,1.39507126\C,0,-0.81989204,1.22562807,-1.0283668
 5\H,0,-0.83641445,1.14612506,-2.11566204\H,0,-1.83442552,1.31405783,-0
 .63809777\H,0,-0.24445522,2.09230849,-0.71512701\N,0,0.16123743,1.2700

 Normal termination of Gaussian 16 at Wed Apr  9 03:02:41 2025.
