 Gaussian 16, Revision C.01,

 ----------------------------------------------------------------------
 #t hf aug-cc-pvdz symm=none int=(grid=ultrafine) guess=(read,tcheck) s
 table=(opt,rrhf)
 ----------------------------------------------------------------------
 -----
 title
 -----
 Symbolic Z-matrix:
 Charge = -1 Multiplicity = 1

 SCF Done:  E(RHF) =  -931.167154551     A.U. after   16 cycles
 Normal termination of Gaussian 16 at Wed Apr  9 02:59:38 2025.
 Gaussian 16:  ES64L-G16RevC.01  3-Jul-2019

 ----------------------------------------------------------------------
 #t hf aug-cc-pvdz iop(5/13=1,5/36=2,99/5=2) pseudo=read geom=check gue
 ss=(read,tcheck) scf=(maxcycle=1)
 ----------------------------------------------------------------------
 -----
 title
 -----
 Structure from the checkpoint file:  "E2SN2_416_mol1.chk"
 Charge = -1 Multiplicity = 1

                         Standard orientation:
 ---------------------------------------------------------------------
 Center     Atomic      Atomic             Coordinates (Angstroms)
 Number     Number       Type             X           Y           Z
 ---------------------------------------------------------------------
      1          6           0        0.518656   -0.006332    0.471449
      2          1           0       -0.037138    0.009564   -1.618041
      3          9           0       -1.071281   -0.016084    1.654175
      4         17           0        2.313446    0.005871   -0.903680
      5          6           0       -0.543520    0.005658   -0.648828
      6          7           0        0.849838   -1.288361    0.994772
      7          1           0        0.255752   -1.396183    1.809037
      8          1           0        1.832559   -1.330943    1.220414
      9          7           0        0.853181    1.263319    1.021469
     10          1           0        1.834783    1.295925    1.253634
     11          1           0        0.254855    1.357217    1.834443
     12          6           0       -1.382716    1.206848   -0.597887
     13          7           0       -2.057702    2.162798   -0.685740
     14          6           0       -1.393601   -1.188500   -0.613957
     15          7           0       -2.076856   -2.137281   -0.714666
 ---------------------------------------------------------------------

 SCF Done:  E(RHF) =  -933.471006888     A.U. after    2 cycles

 The electronic state is 1-A.
 Alpha  occ. eigenvalues --  -99.68071 -28.96787 -15.64265 -15.64227 -15.62678
 Alpha  occ. eigenvalues --  -15.62606 -11.50660 -11.39953 -11.34053 -11.31652
 Alpha  occ. eigenvalues --  -10.25170  -9.45277  -9.44757  -9.44644  -1.34376
 Alpha  occ. eigenvalues --   -1.20744  -1.16686  -1.16130  -1.06309  -1.04746
 Alpha  occ. eigenvalues --   -0.77126  -0.66472  -0.66064  -0.57966  -0.54255
 Alpha  occ. eigenvalues --   -0.51199  -0.50519  -0.42353  -0.39366  -0.37756
 Alpha  occ. eigenvalues --   -0.35660  -0.33435  -0.33171  -0.32133  -0.30722
 Alpha  occ. eigenvalues --   -0.30599  -0.29511  -0.28085  -0.23368  -0.07534
 Alpha  occ. eigenvalues --   -0.04654  -0.04601
 Alpha virt. eigenvalues --    0.13425   0.14499   0.14839   0.16842   0.17205
 Alpha virt. eigenvalues --    0.19659   0.20362   0.20678   0.21630   0.23474
 Alpha virt. eigenvalues --    0.23572   0.23872   0.24909   0.24948   0.26925

 Mulliken charges:
               1
     1  C    6.096332
     2  H    1.634512
     3  F   -0.508168
     4  Cl  -0.719569
     5  C   -3.794463
     6  N   -3.742469
     7  H    0.590416
     8  H    0.650700
     9  N   -3.740173
    10  H    0.653449
    11  H    0.587376
    12  C    3.665299
    13  N   -3.019077
    14  C    3.666733
    15  N   -3.020896
 Sum of Mulliken charges =  -1.00000

 Dipole moment (field-independent basis, Debye):
    X=             -0.6431    Y=             -0.0533    Z=              4.9804  Tot=              5.0220

 Test job not archived.
 1\1\GINC-SE362\SP\RHF\Aug-CC-pVDZ\C4H5Cl1F1N4(1-)\OHZDE\09-Apr-2025\0\
 \#t hf aug-cc-pvdz iop(5/13=1,5/36=2,99/5=2) pseudo=read geom=check gu
 ess=(read,tcheck) scf=(maxcycle=1)\\title\\-1,1\C,0,0.78756641,-0.1092
 5879,0.0003822\H,0,1.6425899,1.87649697,-0.02857144\F,0,-1.19320597,-0
 .05563511,0.02275668\Cl,0,3.04830369,-0.13832839,-0.0245772\C,0,0.6454
 6367,1.42797993,-0.0089704\N,0,0.70304184,-0.74501573,-1.27076476\H,0,
 -0.26896281,-1.01915285,-1.35821405\H,0,1.33518535,-1.53062576,-1.3117
 5788\N,0,0.73161134,-0.72871511,1.28084538\H,0,1.36009371,-1.51759848,

 Normal termination of Gaussian 16 at Wed Apr  9 02:59:44 2025.
