 Gaussian 16, Revision C.01,

 ----------------------------------------------------------------------
 #t hf aug-cc-pvdz symm=none int=(grid=ultrafine) guess=(read,tcheck) s
 table=(opt,rrhf)
 ----------------------------------------------------------------------
 -----
 title
 -----
 Symbolic Z-matrix:
 Charge = -1 Multiplicity = 1

 SCF Done:  E(RHF) =  -816.217211987     A.U. after   17 cycles
 Normal termination of Gaussian 16 at Wed Apr  9 03:02:36 2025.
 Gaussian 16:  ES64L-G16RevC.01  3-Jul-2019

 ----------------------------------------------------------------------
 #t hf aug-cc-pvdz iop(5/13=1,5/36=2,99/5=2) pseudo=read geom=check gue
 ss=(read,tcheck) scf=(maxcycle=1)
 ----------------------------------------------------------------------
 -----
 title
 -----
 Structure from the checkpoint file:  "E2SN2_89_mol1.chk"
 Charge = -1 Multiplicity = 1

                         Standard orientation:
 ---------------------------------------------------------------------
 Center     Atomic      Atomic             Coordinates (Angstroms)
 Number     Number       Type             X           Y           Z
 ---------------------------------------------------------------------
      1          6           0       -0.570359   -0.158865   -0.276529
      2          6           0        0.922119   -0.278474   -0.526835
      3         17           0       -1.001727   -0.547976    1.484329
      4          1           0        0.580301   -0.563015   -3.019151
      5          1           0        0.923218   -0.168646   -1.738507
      6          6           0       -1.006682    1.232537   -0.476837
      7          7           0       -1.354355    2.341007   -0.652122
      8          7           0       -1.357017   -1.015513   -1.127709
      9          1           0       -1.211908   -1.970837   -0.816254
     10          1           0       -0.891597   -0.937602   -2.057598
     11          6           0        1.466441   -1.686958   -0.342184
     12          1           0        1.108978   -2.303850   -1.172878
     13          1           0        2.557012   -1.665298   -0.403071
     14          1           0        1.178334   -2.132513    0.614147
     15          6           0        1.703437    0.725905    0.148571
     16          7           0        2.382125    1.539146    0.665917
 ---------------------------------------------------------------------

 SCF Done:  E(RHF) =  -818.157311329     A.U. after    2 cycles

 The electronic state is 1-A.
 Alpha  occ. eigenvalues --  -99.77634 -15.65506 -15.63472 -15.62559 -11.44329
 Alpha  occ. eigenvalues --  -11.35015 -11.33049 -11.30672 -11.27062 -10.34959
 Alpha  occ. eigenvalues --   -9.54976  -9.54271  -9.54200  -1.34464  -1.18082
 Alpha  occ. eigenvalues --   -1.17056  -1.15759  -1.06083  -0.91523  -0.79668
 Alpha  occ. eigenvalues --   -0.63992  -0.62424  -0.54627  -0.51498  -0.47526
 Alpha  occ. eigenvalues --   -0.45860  -0.43607  -0.41757  -0.40817  -0.38379
 Alpha  occ. eigenvalues --   -0.38104  -0.36715  -0.32142  -0.31824  -0.31537
 Alpha  occ. eigenvalues --   -0.30055  -0.25449  -0.12818
 Alpha virt. eigenvalues --    0.13197   0.14210   0.14612   0.15712   0.16721
 Alpha virt. eigenvalues --    0.17567   0.18718   0.19048   0.19846   0.20521
 Alpha virt. eigenvalues --    0.22339   0.22482   0.22940   0.23659   0.25196

 Mulliken charges:
               1
     1  C    2.858592
     2  C   -0.352267
     3  Cl  -0.193894
     4  H   -0.711130
     5  H    1.553587
     6  C    1.968800
     7  N   -2.625202
     8  N   -3.340102
     9  H    0.560254
    10  H    0.674358
    11  C   -4.052765
    12  H    1.359542
    13  H    1.131504
    14  H    1.187313
    15  C    1.673237
    16  N   -2.691826
 Sum of Mulliken charges =  -1.00000

 Dipole moment (field-independent basis, Debye):
    X=             -1.3398    Y=             -3.4597    Z=              5.7368  Tot=              6.8320

 Test job not archived.
 1\1\GINC-SE284\SP\RHF\Aug-CC-pVDZ\C5H7Cl1N3(1-)\OHZDE\09-Apr-2025\0\\#
 t hf aug-cc-pvdz iop(5/13=1,5/36=2,99/5=2) pseudo=read geom=check gues
 s=(read,tcheck) scf=(maxcycle=1)\\title\\-1,1\C,0,-0.15198498,0.004122
 84,-0.39468601\C,0,-0.07632294,-0.04402367,1.12070411\Cl,0,1.53335426,
 0.11076785,-1.16043058\H,0,-2.4674653,0.75174299,1.36285338\H,0,-1.259
 55666,0.07798757,1.37621114\C,0,-0.72674641,-1.24819097,-0.91223903\N,
 0,-1.19968603,-2.2428773,-1.321182\N,0,-0.93577183,1.10887702,-0.88700
 764\H,0,-0.40462738,1.95775488,-0.71968403\H,0,-1.75231475,1.14282534,

 Normal termination of Gaussian 16 at Wed Apr  9 03:02:44 2025.
