 Gaussian 16, Revision C.01,

 ----------------------------------------------------------------------
 #t hf aug-cc-pvdz symm=none int=(grid=ultrafine) guess=(read,tcheck) s
 table=(opt,rrhf)
 ----------------------------------------------------------------------
 -----
 title
 -----
 Symbolic Z-matrix:
 Charge = -1 Multiplicity = 1

 SCF Done:  E(RHF) =  -1191.39782306     A.U. after   17 cycles
 Normal termination of Gaussian 16 at Wed Apr  9 02:52:51 2025.
 Gaussian 16:  ES64L-G16RevC.01  3-Jul-2019

 ----------------------------------------------------------------------
 #t hf aug-cc-pvdz iop(5/13=1,5/36=2,99/5=2) pseudo=read geom=check gue
 ss=(read,tcheck) scf=(maxcycle=1)
 ----------------------------------------------------------------------
 -----
 title
 -----
 Structure from the checkpoint file:  "E2SN2_306_mol2.chk"
 Charge = -1 Multiplicity = 1

                         Standard orientation:
 ---------------------------------------------------------------------
 Center     Atomic      Atomic             Coordinates (Angstroms)
 Number     Number       Type             X           Y           Z
 ---------------------------------------------------------------------
      1          6           0        0.856554   -0.529244   -0.071282
      2          6           0       -0.430166    0.185848    0.388278
      3         17           0        0.845174   -0.828546   -1.857699
      4          1           0       -0.280880    0.199106    1.542936
      5          6           0        1.984496    0.385304    0.178841
      6          7           0        2.920889    1.075487    0.340217
      7          7           0        1.111883   -1.751918    0.635580
      8          1           0        0.382058   -2.403057    0.369215
      9          1           0        0.943993   -1.477605    1.630135
     10          7           0       -1.688914   -0.559263    0.134797
     11          8           0       -2.720558    0.047876    0.408357
     12          8           0       -1.640142   -1.726872   -0.248722
     13          7           0       -0.582086    1.531176   -0.220837
     14          8           0       -1.184136    1.624553   -1.290460
     15          8           0       -0.050226    2.461720    0.384009
     16          9           0        0.283294   -0.423467    2.756645
 ---------------------------------------------------------------------

 SCF Done:  E(RHF) =  -1194.68966137     A.U. after    2 cycles

 The electronic state is 1-A.
 Alpha  occ. eigenvalues --  -99.79503 -28.96447 -21.00633 -21.00426 -21.00401
 Alpha  occ. eigenvalues --  -21.00064 -15.90790 -15.90228 -15.66827 -15.62606
 Alpha  occ. eigenvalues --  -11.48603 -11.40410 -11.33994 -10.36907  -9.56948
 Alpha  occ. eigenvalues --   -9.56199  -9.56092  -1.91602  -1.88137  -1.60359
 Alpha  occ. eigenvalues --   -1.59335  -1.35530  -1.18442  -1.17941  -1.16752
 Alpha  occ. eigenvalues --   -0.93527  -0.89470  -0.74520  -0.69104  -0.63923
 Alpha  occ. eigenvalues --   -0.63808  -0.58878  -0.56906  -0.52065  -0.51485
 Alpha  occ. eigenvalues --   -0.50926  -0.49598  -0.48164  -0.44202  -0.40760
 Alpha  occ. eigenvalues --   -0.39864  -0.36197  -0.33749  -0.33322  -0.28408
 Alpha  occ. eigenvalues --   -0.25495  -0.24871  -0.23752  -0.21974  -0.20857
 Alpha  occ. eigenvalues --   -0.19314  -0.05265  -0.04598  -0.02322
 Alpha virt. eigenvalues --    0.14581   0.15364   0.17674   0.18004   0.18907
 Alpha virt. eigenvalues --    0.20469   0.21360   0.21753   0.22577   0.23202
 Alpha virt. eigenvalues --    0.24191   0.24289   0.24938   0.25497   0.26284

 Mulliken charges:
               1
     1  C    2.999159
     2  C    1.513609
     3  Cl  -0.136900
     4  H    1.140003
     5  C    2.449782
     6  N   -2.873578
     7  N   -3.338966
     8  H    0.658068
     9  H    0.347397
    10  N    4.045058
    11  O   -2.962897
    12  O   -3.024446
    13  N    4.362955
    14  O   -3.066799
    15  O   -2.931838
    16  F   -0.180606
 Sum of Mulliken charges =  -1.00000

 Dipole moment (field-independent basis, Debye):
    X=             -2.1284    Y=             -0.7542    Z=             -2.3101  Tot=              3.2304

 Test job not archived.
 1\1\GINC-SE423\SP\RHF\Aug-CC-pVDZ\C3H3Cl1F1N4O4(1-)\OHZDE\09-Apr-2025\
 0\\#t hf aug-cc-pvdz iop(5/13=1,5/36=2,99/5=2) pseudo=read geom=check
 guess=(read,tcheck) scf=(maxcycle=1)\\title\\-1,1\C,0,0.039686,-0.0460
 31,-0.002857\C,0,-0.655468,0.134488,-1.367545\Cl,0,1.824067,-0.290007,
 -0.196389\H,0,-1.774054,0.177019,-1.047149\C,0,-0.117978,1.214225,0.74
 421\N,0,-0.197717,2.197279,1.381763\N,0,-0.523386,-1.103436,0.787474\H
 ,0,-0.31353,-1.971822,0.308472\H,0,-1.550419,-0.931738,0.696388\N,0,-0
 .526793,-1.016432,-2.29637\O,0,-0.993228,-0.838242,-3.418167\O,0,-0.04

 Normal termination of Gaussian 16 at Wed Apr  9 02:53:02 2025.
