 Gaussian 16, Revision C.01,

 ----------------------------------------------------------------------
 #t hf aug-cc-pvdz symm=none int=(grid=ultrafine) guess=(read,tcheck) s
 table=(opt,rrhf)
 ----------------------------------------------------------------------
 -----
 title
 -----
 Symbolic Z-matrix:
 Charge = -1 Multiplicity = 1

 SCF Done:  E(RHF) =  -536.079924823     A.U. after   16 cycles
 Normal termination of Gaussian 16 at Wed Apr  9 02:40:47 2025.
 Gaussian 16:  ES64L-G16RevC.01  3-Jul-2019

 ----------------------------------------------------------------------
 #t hf aug-cc-pvdz iop(5/13=1,5/36=2,99/5=2) pseudo=read geom=check gue
 ss=(read,tcheck) scf=(maxcycle=1)
 ----------------------------------------------------------------------
 -----
 title
 -----
 Structure from the checkpoint file:  "E2SN2_195_mol1.chk"
 Charge = -1 Multiplicity = 1

                         Standard orientation:
 ---------------------------------------------------------------------
 Center     Atomic      Atomic             Coordinates (Angstroms)
 Number     Number       Type             X           Y           Z
 ---------------------------------------------------------------------
      1          6           0       -1.038102    0.104901   -0.345232
      2          1           0       -0.217184   -1.272923    1.025244
      3          9           0        0.118041    1.403498   -0.889503
      4          9           0       -2.210314   -1.166731   -0.063016
      5          6           0        0.047345   -0.875884    0.049633
      6          1           0       -1.368674    0.133749   -1.370310
      7          1           0        0.122671   -1.668210   -0.689876
      8          7           0       -1.571707    0.952342    0.679727
      9          1           0       -2.566939    0.784233    0.706835
     10          1           0       -1.360650    1.896328    0.392342
     11          7           0        1.416693   -0.305384    0.190529
     12          8           0        2.231078   -0.538237   -0.702577
     13          8           0        1.675280    0.299876    1.226357
 ---------------------------------------------------------------------

 SCF Done:  E(RHF) =  -538.266529552     A.U. after    2 cycles

 The electronic state is 1-A.
 Alpha  occ. eigenvalues --  -28.97562 -28.94405 -20.93608 -20.93436 -15.83258
 Alpha  occ. eigenvalues --  -15.58326 -11.40454 -11.28531  -1.82946  -1.52910
 Alpha  occ. eigenvalues --   -1.23174  -1.05565  -0.84445  -0.69667  -0.60389
 Alpha  occ. eigenvalues --   -0.56547  -0.52586  -0.52050  -0.46146  -0.40214
 Alpha  occ. eigenvalues --   -0.37873  -0.37524  -0.31747  -0.23955  -0.19886
 Alpha  occ. eigenvalues --   -0.16464  -0.15286  -0.12790  -0.04568  -0.04110
 Alpha  occ. eigenvalues --   -0.01584  -0.00989   0.05223
 Alpha virt. eigenvalues --    0.14805   0.15681   0.16109   0.16347   0.17639
 Alpha virt. eigenvalues --    0.23098   0.24458   0.25256   0.26610   0.27501
 Alpha virt. eigenvalues --    0.28221   0.28708   0.29321   0.30359   0.31100

 Mulliken charges:
               1
     1  C    1.358519
     2  H    1.542715
     3  F   -0.718056
     4  F   -0.412849
     5  C   -2.802987
     6  H    1.522354
     7  H    1.651267
     8  N   -3.224907
     9  H    0.522889
    10  H    0.513712
    11  N    4.899155
    12  O   -2.898764
    13  O   -2.953048
 Sum of Mulliken charges =  -1.00000

 Dipole moment (field-independent basis, Debye):
    X=              0.0117    Y=             -0.1318    Z=              0.1691  Tot=              0.2147

 Test job not archived.
 1\1\GINC-SE127\SP\RHF\Aug-CC-pVDZ\C2H5F2N2O2(1-)\OHZDE\09-Apr-2025\0\\
 #t hf aug-cc-pvdz iop(5/13=1,5/36=2,99/5=2) pseudo=read geom=check gue
 ss=(read,tcheck) scf=(maxcycle=1)\\title\\-1,1\C,0,0.66948276,-0.05034
 722,0.06188545\H,0,1.78594366,1.51547943,0.92918887\F,0,-1.11462192,0.
 00687528,0.42650388\F,0,2.31764844,-0.14896375,-0.52513969\C,0,0.89843
 31,1.42690799,0.30958217\H,0,0.34055689,-0.37205739,-0.91238553\H,0,1.
 02453108,1.94939915,-0.63457427\N,0,0.90500972,-0.95034906,1.15181803\
 H,0,1.59442839,-1.61646004,0.83483051\H,0,0.01749429,-1.39262179,1.338

 Normal termination of Gaussian 16 at Wed Apr  9 02:40:52 2025.
