 Gaussian 16, Revision C.01,

 ----------------------------------------------------------------------
 #t hf aug-cc-pvdz symm=none int=(grid=ultrafine) guess=(read,tcheck) s
 table=(opt,rrhf)
 ----------------------------------------------------------------------
 -----
 title
 -----
 Symbolic Z-matrix:
 Charge = -1 Multiplicity = 1

 SCF Done:  E(RHF) =  -611.800334901     A.U. after   16 cycles
 Normal termination of Gaussian 16 at Wed Apr  9 02:43:07 2025.
 Gaussian 16:  ES64L-G16RevC.01  3-Jul-2019

 ----------------------------------------------------------------------
 #t hf aug-cc-pvdz iop(5/13=1,5/36=2,99/5=2) pseudo=read geom=check gue
 ss=(read,tcheck) scf=(maxcycle=1)
 ----------------------------------------------------------------------
 -----
 title
 -----
 Structure from the checkpoint file:  "E2SN2_224_mol1.chk"
 Charge = -1 Multiplicity = 1

                         Standard orientation:
 ---------------------------------------------------------------------
 Center     Atomic      Atomic             Coordinates (Angstroms)
 Number     Number       Type             X           Y           Z
 ---------------------------------------------------------------------
      1          6           0        0.150034   -0.278597    0.038043
      2          1           0       -0.794830   -1.790101    1.169075
      3          9           0        0.034452   -0.269886   -1.705432
      4          9           0        0.309402   -0.018034    1.770158
      5          6           0       -0.917947   -1.349490    0.180478
      6          1           0       -0.672575   -2.098085   -0.574761
      7          7           0       -0.047818    1.209792   -0.039909
      8          8           0       -1.186308    1.646123    0.062206
      9          8           0        0.956483    1.888086   -0.202418
     10          6           0        1.528413   -0.730668   -0.026120
     11          7           0        2.614679   -1.174441   -0.074543
     12          6           0       -2.360429   -0.908918   -0.027133
     13          1           0       -2.683272   -0.219659    0.750645
     14          1           0       -2.469690   -0.420764   -0.993848
     15          1           0       -3.004172   -1.795208   -0.002381
 ---------------------------------------------------------------------

 SCF Done:  E(RHF) =  -614.337714654     A.U. after    2 cycles

 The electronic state is 1-A.
 Alpha  occ. eigenvalues --  -29.00816 -29.00305 -20.95465 -20.95213 -15.86418
 Alpha  occ. eigenvalues --  -15.63215 -11.51989 -11.32856 -11.30984 -11.24958
 Alpha  occ. eigenvalues --   -1.85828  -1.55685  -1.22898  -1.12831  -1.00894
 Alpha  occ. eigenvalues --   -0.84292  -0.74919  -0.68552  -0.60583  -0.53866
 Alpha  occ. eigenvalues --   -0.51593  -0.46264  -0.44850  -0.43200  -0.38556
 Alpha  occ. eigenvalues --   -0.37642  -0.37302  -0.35753  -0.30572  -0.29692
 Alpha  occ. eigenvalues --   -0.23293  -0.18684  -0.17494  -0.16466  -0.06609
 Alpha  occ. eigenvalues --   -0.06310  -0.05671  -0.04812   0.00756
 Alpha virt. eigenvalues --    0.12539   0.14996   0.15736   0.15889   0.16234
 Alpha virt. eigenvalues --    0.19813   0.21763   0.22492   0.23787   0.24743
 Alpha virt. eigenvalues --    0.24918   0.25439   0.26118   0.27731   0.28098

 Mulliken charges:
               1
     1  C    2.792593
     2  H    1.074728
     3  F   -0.366244
     4  F   -0.514655
     5  C   -3.400894
     6  H    1.296103
     7  N    5.509286
     8  O   -3.426249
     9  O   -3.385387
    10  C    2.675407
    11  N   -3.187565
    12  C   -3.689608
    13  H    1.405713
    14  H    1.273299
    15  H    0.943472
 Sum of Mulliken charges =  -1.00000

 Dipole moment (field-independent basis, Debye):
    X=             -4.0157    Y=             -0.0884    Z=             -0.0306  Tot=              4.0167

 Test job not archived.
 1\1\GINC-SE368\SP\RHF\Aug-CC-pVDZ\C4H5F2N2O2(1-)\OHZDE\09-Apr-2025\0\\
 #t hf aug-cc-pvdz iop(5/13=1,5/36=2,99/5=2) pseudo=read geom=check gue
 ss=(read,tcheck) scf=(maxcycle=1)\\title\\-1,1\C,0,0.57988376,-0.05056
 992,-0.02607625\H,0,1.64468895,1.74465864,0.29013486\F,0,-1.16457755,-
 0.07774968,0.07013074\F,0,2.30903515,-0.24270699,-0.28421202\C,0,0.634
 18986,1.46745318,-0.00763943\H,0,-0.06200367,1.76743069,0.77741833\N,0
 ,0.42945325,-0.94876458,-1.22238019\O,0,0.38474453,-0.43097516,-2.3300
 1996\O,0,0.36111623,-2.14932391,-1.00079306\C,0,0.69047914,-0.7269167,

 Normal termination of Gaussian 16 at Wed Apr  9 02:43:13 2025.
