 Gaussian 16, Revision C.01,

 ----------------------------------------------------------------------
 #t hf aug-cc-pvdz symm=none int=(grid=ultrafine) guess=(read,tcheck) s
 table=(opt,rrhf)
 ----------------------------------------------------------------------
 -----
 title
 -----
 Symbolic Z-matrix:
 Charge = -1 Multiplicity = 1

 SCF Done:  E(RHF) =  -839.520916653     A.U. after   14 cycles
 Normal termination of Gaussian 16 at Wed Apr  9 02:42:02 2025.
 Gaussian 16:  ES64L-G16RevC.01  3-Jul-2019

 ----------------------------------------------------------------------
 #t hf aug-cc-pvdz iop(5/13=1,5/36=2,99/5=2) pseudo=read geom=check gue
 ss=(read,tcheck) scf=(maxcycle=1)
 ----------------------------------------------------------------------
 -----
 title
 -----
 Structure from the checkpoint file:  "E2SN2_207_mol2.chk"
 Charge = -1 Multiplicity = 1

                         Standard orientation:
 ---------------------------------------------------------------------
 Center     Atomic      Atomic             Coordinates (Angstroms)
 Number     Number       Type             X           Y           Z
 ---------------------------------------------------------------------
      1          6           0        0.678311    1.022238   -0.424415
      2          6           0        0.552865   -0.459911   -0.058311
      3          9           0        1.693324    1.552608    0.418410
      4          1           0       -0.190904   -0.904520   -0.728944
      5          1           0        1.095974    1.138190   -1.432528
      6          7           0       -0.530970    1.710679   -0.211730
      7          1           0       -1.339112    1.091955   -0.125906
      8          1           0       -0.706335    2.407425   -0.918367
      9          7           0        0.108141   -0.703549    1.303816
     10          1           0       -0.908920   -0.715415    1.283555
     11          1           0        0.418055    0.062898    1.888849
     12          6           0        1.850464   -1.118377   -0.302642
     13          7           0        2.881165   -1.634675   -0.524065
     14         17           0       -2.900404   -0.548523   -0.176253
 ---------------------------------------------------------------------

 SCF Done:  E(RHF) =  -841.412821840     A.U. after    2 cycles

 The electronic state is 1-A.
 Alpha  occ. eigenvalues --  -99.62688 -29.12764 -15.64632 -15.61470 -15.61237
 Alpha  occ. eigenvalues --  -11.40284 -11.35204 -11.30546 -10.19391  -9.39428
 Alpha  occ. eigenvalues --   -9.39099  -9.38994  -1.32110  -1.20596  -1.16087
 Alpha  occ. eigenvalues --   -0.99019  -0.98034  -0.84631  -0.64254  -0.61763
 Alpha  occ. eigenvalues --   -0.55934  -0.51693  -0.49573  -0.45348  -0.43643
 Alpha  occ. eigenvalues --   -0.39282  -0.31915  -0.31703  -0.27964  -0.27613
 Alpha  occ. eigenvalues --   -0.26777  -0.26543  -0.25353  -0.20204  -0.13962
 Alpha  occ. eigenvalues --   -0.13461
 Alpha virt. eigenvalues --    0.13183   0.14706   0.15494   0.16532   0.18094
 Alpha virt. eigenvalues --    0.18493   0.19396   0.21099   0.22076   0.23290
 Alpha virt. eigenvalues --    0.24030   0.24474   0.25481   0.26279   0.27734

 Mulliken charges:
               1
     1  C    0.017098
     2  C   -1.296866
     3  F    0.316702
     4  H    1.832671
     5  H    1.885022
     6  N   -2.595503
     7  H    0.595011
     8  H    0.486250
     9  N   -2.377391
    10  H    0.508558
    11  H    0.590040
    12  C    2.509820
    13  N   -2.492558
    14  Cl  -0.978855
 Sum of Mulliken charges =  -1.00000

 Dipole moment (field-independent basis, Debye):
    X=              6.8914    Y=              4.8505    Z=              0.8832  Tot=              8.4734

 Test job not archived.
 1\1\GINC-SE054\SP\RHF\Aug-CC-pVDZ\C3H6Cl1F1N3(1-)\OHZDE\09-Apr-2025\0\
 \#t hf aug-cc-pvdz iop(5/13=1,5/36=2,99/5=2) pseudo=read geom=check gu
 ess=(read,tcheck) scf=(maxcycle=1)\\title\\-1,1\C,0,0.124011,-0.001603
 ,0.006456\C,0,-0.518005,0.064403,-1.382786\F,0,1.448867,-0.477892,-0.1
 93049\H,0,-1.526372,0.475776,-1.262014\H,0,0.272809,1.006866,0.412692\
 N,0,-0.577458,-0.875547,0.858342\H,0,-1.518431,-1.094898,0.527084\H,0,
 -0.618154,-0.537784,1.806922\N,0,-0.652201,-1.224474,-2.041055\H,0,-1.
 544641,-1.613866,-1.746287\H,0,0.094063,-1.830962,-1.723228\C,0,0.2645

 Normal termination of Gaussian 16 at Wed Apr  9 02:42:08 2025.
