 Gaussian 16, Revision C.01,

 ----------------------------------------------------------------------
 #t hf aug-cc-pvdz symm=none int=(grid=ultrafine) guess=(read,tcheck) s
 table=(opt,rrhf)
 ----------------------------------------------------------------------
 -----
 title
 -----
 Symbolic Z-matrix:
 Charge = -1 Multiplicity = 1

 SCF Done:  E(RHF) =  -403.466901165     A.U. after   16 cycles
 Normal termination of Gaussian 16 at Wed Apr  9 02:49:20 2025.
 Gaussian 16:  ES64L-G16RevC.01  3-Jul-2019

 ----------------------------------------------------------------------
 #t hf aug-cc-pvdz iop(5/13=1,5/36=2,99/5=2) pseudo=read geom=check gue
 ss=(read,tcheck) scf=(maxcycle=1)
 ----------------------------------------------------------------------
 -----
 title
 -----
 Structure from the checkpoint file:  "E2SN2_285_mol2.chk"
 Charge = -1 Multiplicity = 1

                         Standard orientation:
 ---------------------------------------------------------------------
 Center     Atomic      Atomic             Coordinates (Angstroms)
 Number     Number       Type             X           Y           Z
 ---------------------------------------------------------------------
      1          6           0        0.334914   -0.445067    0.048656
      2          6           0       -0.811730    0.379201   -0.587675
      3          9           0        0.520986   -1.608893   -0.736451
      4          1           0       -0.562157    0.407782   -1.659548
      5          6           0        1.591450    0.319667   -0.090147
      6          7           0        2.591907    0.917958   -0.234680
      7          6           0        0.098699   -0.852661    1.484453
      8          1           0       -0.293712   -0.001974    2.067299
      9          1           0        1.016959   -1.244819    1.929454
     10          1           0       -0.659126   -1.638692    1.493981
     11          7           0       -0.934526    1.730044   -0.087114
     12          1           0       -0.060318    2.234813   -0.187461
     13          1           0       -1.187660    1.723310    0.924299
     14          6           0       -2.145066   -0.333806   -0.401162
     15          1           0       -2.081308   -1.389398   -0.679017
     16          1           0       -2.464306   -0.236131    0.638674
     17          1           0       -2.891483    0.158090   -1.028499
     18          1           0       -1.517026    1.527046    2.656676
 ---------------------------------------------------------------------

 SCF Done:  E(RHF) =  -405.303480462     A.U. after    2 cycles

 The electronic state is 1-A.
 Alpha  occ. eigenvalues --  -29.15106 -15.66103 -15.57737 -11.42413 -11.34557
 Alpha  occ. eigenvalues --  -11.32112 -11.27001 -11.24781  -1.28642  -1.18418
 Alpha  occ. eigenvalues --   -1.10071  -0.95401  -0.87892  -0.73945  -0.66342
 Alpha  occ. eigenvalues --   -0.58678  -0.53822  -0.48689  -0.45618  -0.44396
 Alpha  occ. eigenvalues --   -0.43023  -0.40075  -0.38743  -0.36711  -0.34892
 Alpha  occ. eigenvalues --   -0.33174  -0.31822  -0.27320  -0.22522  -0.15564
 Alpha  occ. eigenvalues --   -0.13261  -0.09791
 Alpha virt. eigenvalues --    0.13169   0.13807   0.13962   0.14717   0.15512
 Alpha virt. eigenvalues --    0.16883   0.17464   0.19156   0.19599   0.21674
 Alpha virt. eigenvalues --    0.21982   0.22521   0.22700   0.23748   0.24902

 Mulliken charges:
               1
     1  C    3.558851
     2  C   -0.784362
     3  F   -0.166005
     4  H    1.573853
     5  C    0.422263
     6  N   -2.415888
     7  C   -4.438050
     8  H    1.462834
     9  H    1.060996
    10  H    1.319183
    11  N   -2.929350
    12  H    0.538349
    13  H    0.804553
    14  C   -3.583745
    15  H    1.170047
    16  H    1.505178
    17  H    0.988483
    18  H   -1.087189
 Sum of Mulliken charges =  -1.00000

 Dipole moment (field-independent basis, Debye):
    X=              3.2481    Y=             -8.5346    Z=             -9.5083  Tot=             13.1832

 Test job not archived.
 1\1\GINC-SE402\SP\RHF\Aug-CC-pVDZ\C5H10F1N2(1-)\OHZDE\09-Apr-2025\0\\#
 t hf aug-cc-pvdz iop(5/13=1,5/36=2,99/5=2) pseudo=read geom=check gues
 s=(read,tcheck) scf=(maxcycle=1)\\title\\-1,1\C,0,0.067227,0.046413,-0
 .005054\C,0,-0.356511,0.075022,-1.494602\F,0,1.455562,-0.228113,0.0465
 94\H,0,0.402339,0.707978,-1.979916\C,0,-0.078038,1.409072,0.547239\N,0
 ,-0.163422,2.501717,0.96984\C,0,-0.66671,-0.96769,0.841336\H,0,-1.7484
 2,-0.939441,0.625769\H,0,-0.472104,-0.796009,1.903254\H,0,-0.301266,-1
 .961266,0.57396\N,0,-1.670068,0.627734,-1.738516\H,0,-1.749446,1.56031

 Normal termination of Gaussian 16 at Wed Apr  9 02:49:27 2025.
