 Gaussian 16, Revision C.01,

 ----------------------------------------------------------------------
 #t hf aug-cc-pvdz symm=none int=(grid=ultrafine) guess=(read,tcheck) s
 table=(opt,rrhf)
 ----------------------------------------------------------------------
 -----
 title
 -----
 Symbolic Z-matrix:
 Charge = -1 Multiplicity = 1

 SCF Done:  E(RHF) =  -987.936785970     A.U. after   17 cycles
 Normal termination of Gaussian 16 at Wed Apr  9 02:47:31 2025.
 Gaussian 16:  ES64L-G16RevC.01  3-Jul-2019

 ----------------------------------------------------------------------
 #t hf aug-cc-pvdz iop(5/13=1,5/36=2,99/5=2) pseudo=read geom=check gue
 ss=(read,tcheck) scf=(maxcycle=1)
 ----------------------------------------------------------------------
 -----
 title
 -----
 Structure from the checkpoint file:  "E2SN2_265_mol2.chk"
 Charge = -1 Multiplicity = 1

                         Standard orientation:
 ---------------------------------------------------------------------
 Center     Atomic      Atomic             Coordinates (Angstroms)
 Number     Number       Type             X           Y           Z
 ---------------------------------------------------------------------
      1          6           0        0.582569    0.503409   -0.009049
      2          6           0       -0.168139    0.917897   -1.276256
      3          9           0        1.681100    1.355129    0.149342
      4          1           0        0.588616    1.368140   -1.925965
      5          1           0       -0.557530    0.022009   -1.746538
      6          6           0       -0.172434    0.599429    1.242906
      7          7           0       -0.583203    0.941857    2.290245
      8          7           0        1.244146   -0.858613   -0.132215
      9          8           0        1.506970   -1.450817    0.906556
     10          8           0        1.581117   -1.188100   -1.264200
     11          7           0       -1.270127    1.831762   -1.059210
     12          1           0       -1.003440    2.579709   -0.430163
     13          1           0       -2.009987    1.290086   -0.620051
     14         17           0       -2.002350   -1.286719   -0.070444
 ---------------------------------------------------------------------

 SCF Done:  E(RHF) =  -990.405529744     A.U. after    2 cycles

 The electronic state is 1-A.
 Alpha  occ. eigenvalues --  -99.61849 -29.19702 -20.99931 -20.99609 -15.89424
 Alpha  occ. eigenvalues --  -15.66186 -15.62376 -11.48972 -11.35269 -11.31564
 Alpha  occ. eigenvalues --  -10.18612  -9.38686  -9.38330  -9.38300  -1.89221
 Alpha  occ. eigenvalues --   -1.59396  -1.29616  -1.19495  -1.13856  -0.98143
 Alpha  occ. eigenvalues --   -0.88048  -0.83402  -0.72627  -0.62982  -0.58721
 Alpha  occ. eigenvalues --   -0.55916  -0.52349  -0.49033  -0.44541  -0.42758
 Alpha  occ. eigenvalues --   -0.40444  -0.36221  -0.34605  -0.32219  -0.27138
 Alpha  occ. eigenvalues --   -0.26457  -0.26193  -0.25744  -0.24803  -0.21739
 Alpha  occ. eigenvalues --   -0.20874  -0.18148  -0.16504
 Alpha virt. eigenvalues --    0.13454   0.14478   0.17151   0.17716   0.19392
 Alpha virt. eigenvalues --    0.19993   0.21617   0.22286   0.22582   0.24265
 Alpha virt. eigenvalues --    0.24565   0.25082   0.26050   0.26866   0.27558

 Mulliken charges:
               1
     1  C    1.496011
     2  C   -1.703245
     3  F    0.081164
     4  H    1.023059
     5  H    1.393604
     6  C    3.346573
     7  N   -2.969534
     8  N    4.493136
     9  O   -3.071160
    10  O   -3.077284
    11  N   -2.139152
    12  H    0.578717
    13  H    0.492335
    14  Cl  -0.944223
 Sum of Mulliken charges =  -1.00000

 Dipole moment (field-independent basis, Debye):
    X=              8.0451    Y=              5.5462    Z=             -1.3061  Tot=              9.8585

 Test job not archived.
 1\1\GINC-SE462\SP\RHF\Aug-CC-pVDZ\C3H4Cl1F1N3O2(1-)\OHZDE\09-Apr-2025\
 0\\#t hf aug-cc-pvdz iop(5/13=1,5/36=2,99/5=2) pseudo=read geom=check
 guess=(read,tcheck) scf=(maxcycle=1)\\title\\-1,1\C,0,-0.002734,-0.035
 38,0.003491\C,0,-0.387503,0.094851,-1.471693\F,0,1.392229,-0.097786,0.
 089919\H,0,0.422157,-0.390499,-2.025233\H,0,-1.309263,-0.453486,-1.630
 096\C,0,-0.400406,1.077352,0.869704\N,0,-0.394897,2.038303,1.547532\N,
 0,-0.424294,-1.363022,0.609802\O,0,-0.538633,-1.412661,1.827706\O,0,-0
 .482883,-2.310055,-0.166856\N,0,-0.583399,1.45375,-1.931751\H,0,0.1616

 Normal termination of Gaussian 16 at Wed Apr  9 02:47:38 2025.
