 Gaussian 16, Revision C.01,

 ----------------------------------------------------------------------
 #t hf aug-cc-pvdz symm=none int=(grid=ultrafine) guess=(read,tcheck) s
 table=(opt,rrhf)
 ----------------------------------------------------------------------
 -----
 title
 -----
 Symbolic Z-matrix:
 Charge = -1 Multiplicity = 1

 SCF Done:  E(RHF) =  -502.436589549     A.U. after   15 cycles
 Normal termination of Gaussian 16 at Wed Apr  9 02:52:46 2025.
 Gaussian 16:  ES64L-G16RevC.01  3-Jul-2019

 ----------------------------------------------------------------------
 #t hf aug-cc-pvdz iop(5/13=1,5/36=2,99/5=2) pseudo=read geom=check gue
 ss=(read,tcheck) scf=(maxcycle=1)
 ----------------------------------------------------------------------
 -----
 title
 -----
 Structure from the checkpoint file:  "E2SN2_315_mol2.chk"
 Charge = -1 Multiplicity = 1

                         Standard orientation:
 ---------------------------------------------------------------------
 Center     Atomic      Atomic             Coordinates (Angstroms)
 Number     Number       Type             X           Y           Z
 ---------------------------------------------------------------------
      1          6           0       -0.390476   -0.249031    0.411534
      2          6           0        0.375002    0.778964   -0.426547
      3          9           0       -0.989737    0.456883    1.520361
      4          1           0        0.755635    0.215590   -1.283872
      5          6           0       -1.595586   -0.733676   -0.328165
      6          7           0       -2.519269   -1.164792   -0.914291
      7          7           0        0.437615   -1.271206    0.855766
      8          1           0        1.301899   -1.415125    0.189520
      9          1           0       -0.072950   -2.121242    1.050269
     10          6           0        1.598894    1.266388    0.349065
     11          1           0        2.036411    2.131774   -0.161916
     12          1           0        2.327750    0.457662    0.355698
     13          1           0        1.326691    1.561163    1.365699
     14          6           0       -0.526874    1.929072   -0.861442
     15          1           0       -0.885526    2.483799    0.009081
     16          1           0       -1.396631    1.581978   -1.427047
     17          1           0        0.034120    2.618345   -1.499852
     18          9           0        2.365115   -1.391578   -0.748647
 ---------------------------------------------------------------------

 SCF Done:  E(RHF) =  -504.594929632     A.U. after    2 cycles

 The electronic state is 1-A.
 Alpha  occ. eigenvalues --  -29.10833 -28.91205 -15.64194 -15.56132 -11.42042
 Alpha  occ. eigenvalues --  -11.31876 -11.28543 -11.26030 -11.22381  -1.29521
 Alpha  occ. eigenvalues --   -1.15706  -1.07838  -0.91806  -0.87780  -0.73032
 Alpha  occ. eigenvalues --   -0.64796  -0.56450  -0.53439  -0.50033  -0.46928
 Alpha  occ. eigenvalues --   -0.42424  -0.42087  -0.39792  -0.36438  -0.34600
 Alpha  occ. eigenvalues --   -0.33012  -0.31547  -0.29836  -0.27710  -0.24151
 Alpha  occ. eigenvalues --   -0.17879  -0.11985  -0.11862   0.00145   0.00640
 Alpha  occ. eigenvalues --    0.02418
 Alpha virt. eigenvalues --    0.13253   0.14239   0.14761   0.15196   0.15864
 Alpha virt. eigenvalues --    0.16088   0.17816   0.18869   0.19652   0.20603
 Alpha virt. eigenvalues --    0.23158   0.23256   0.23763   0.24181   0.25025

 Mulliken charges:
               1
     1  C    5.384273
     2  C   -1.740717
     3  F   -0.039693
     4  H    1.611481
     5  C    0.611370
     6  N   -2.387554
     7  N   -3.957059
     8  H   -0.054072
     9  H    0.466991
    10  C   -3.857480
    11  H    1.131923
    12  H    1.139119
    13  H    1.229399
    14  C   -3.672998
    15  H    1.253669
    16  H    1.157920
    17  H    1.144791
    18  F   -0.421364
 Sum of Mulliken charges =  -1.00000

 Dipole moment (field-independent basis, Debye):
    X=             -3.0728    Y=              5.2390    Z=              2.8437  Tot=              6.7064

 Test job not archived.
 1\1\GINC-SE229\SP\RHF\Aug-CC-pVDZ\C5H9F2N2(1-)\OHZDE\09-Apr-2025\0\\#t
  hf aug-cc-pvdz iop(5/13=1,5/36=2,99/5=2) pseudo=read geom=check guess
 =(read,tcheck) scf=(maxcycle=1)\\title\\-1,1\C,0,0.059191,0.126934,0.0
 35961\C,0,-0.453634,0.239505,-1.402597\F,0,1.497901,0.01178,-0.025516\
 H,0,-1.53326,0.388674,-1.30547\C,0,-0.112023,1.425995,0.7553\N,0,-0.28
 5155,2.423563,1.353195\N,0,-0.503093,-0.954883,0.700361\H,0,-1.48641,-
 1.223042,0.284717\H,0,-0.504785,-0.830369,1.703138\C,0,-0.264122,-1.09
 5823,-2.122355\H,0,-0.450872,-0.964566,-3.194415\H,0,-0.998056,-1.7928

 Normal termination of Gaussian 16 at Wed Apr  9 02:52:55 2025.
