 Gaussian 16, Revision C.01,

 ----------------------------------------------------------------------
 #t hf aug-cc-pvdz symm=none int=(grid=ultrafine) guess=(read,tcheck) s
 table=(opt,rrhf)
 ----------------------------------------------------------------------
 -----
 title
 -----
 Symbolic Z-matrix:
 Charge = -1 Multiplicity = 1

 SCF Done:  E(RHF) =  -502.430247073     A.U. after   15 cycles
 Normal termination of Gaussian 16 at Wed Apr  9 02:49:40 2025.
 Gaussian 16:  ES64L-G16RevC.01  3-Jul-2019

 ----------------------------------------------------------------------
 #t hf aug-cc-pvdz iop(5/13=1,5/36=2,99/5=2) pseudo=read geom=check gue
 ss=(read,tcheck) scf=(maxcycle=1)
 ----------------------------------------------------------------------
 -----
 title
 -----
 Structure from the checkpoint file:  "E2SN2_286_mol2.chk"
 Charge = -1 Multiplicity = 1

                         Standard orientation:
 ---------------------------------------------------------------------
 Center     Atomic      Atomic             Coordinates (Angstroms)
 Number     Number       Type             X           Y           Z
 ---------------------------------------------------------------------
      1          6           0       -0.692211    0.349346    0.244503
      2          6           0        0.294944    0.443211   -0.946669
      3          9           0       -1.426830    1.560407    0.298718
      4          1           0       -0.310110    0.854957   -1.769452
      5          6           0       -1.695563   -0.692684   -0.060750
      6          7           0       -2.506434   -1.503022   -0.317476
      7          6           0       -0.039482    0.099820    1.585416
      8          1           0        0.386906    1.048163    1.920626
      9          1           0        0.805307   -0.606551    1.470921
     10          1           0       -0.776766   -0.231156    2.321563
     11          7           0        0.872436   -0.824508   -1.343138
     12          1           0        1.508444   -1.128555   -0.570103
     13          1           0        0.149019   -1.518251   -1.494848
     14          6           0        1.439807    1.390934   -0.606951
     15          1           0        1.081808    2.323144   -0.161068
     16          1           0        2.107602    0.852065    0.071625
     17          1           0        1.986377    1.622594   -1.524550
     18          9           0        2.388432   -1.167902    0.819758
 ---------------------------------------------------------------------

 SCF Done:  E(RHF) =  -504.579505102     A.U. after    2 cycles

 The electronic state is 1-A.
 Alpha  occ. eigenvalues --  -29.13866 -28.89862 -15.65191 -15.55804 -11.41410
 Alpha  occ. eigenvalues --  -11.33532 -11.30654 -11.24974 -11.22754  -1.27238
 Alpha  occ. eigenvalues --   -1.17380  -1.08860  -0.93534  -0.86492  -0.72399
 Alpha  occ. eigenvalues --   -0.65056  -0.57617  -0.52962  -0.49441  -0.44573
 Alpha  occ. eigenvalues --   -0.43265  -0.41822  -0.39333  -0.37583  -0.35862
 Alpha  occ. eigenvalues --   -0.33949  -0.31996  -0.30802  -0.27320  -0.25673
 Alpha  occ. eigenvalues --   -0.20475  -0.14034  -0.12053   0.01074   0.02071
 Alpha  occ. eigenvalues --    0.03275
 Alpha virt. eigenvalues --    0.13756   0.14290   0.14404   0.15181   0.15903
 Alpha virt. eigenvalues --    0.17010   0.18009   0.19097   0.20069   0.21359
 Alpha virt. eigenvalues --    0.22141   0.22969   0.23945   0.24916   0.25264

 Mulliken charges:
               1
     1  C    3.297540
     2  C    0.597811
     3  F   -0.156140
     4  H    1.601433
     5  C    0.340874
     6  N   -2.407333
     7  C   -4.229791
     8  H    1.198265
     9  H    1.086207
    10  H    1.043248
    11  N   -3.215189
    12  H    0.241976
    13  H    0.492343
    14  C   -3.722864
    15  H    1.206094
    16  H    1.342081
    17  H    0.925311
    18  F   -0.641865
 Sum of Mulliken charges =  -1.00000

 Dipole moment (field-independent basis, Debye):
    X=             -4.3101    Y=              5.7871    Z=             -0.2866  Tot=              7.2214

 Test job not archived.
 1\1\GINC-SE364\SP\RHF\Aug-CC-pVDZ\C5H9F2N2(1-)\OHZDE\09-Apr-2025\0\\#t
  hf aug-cc-pvdz iop(5/13=1,5/36=2,99/5=2) pseudo=read geom=check guess
 =(read,tcheck) scf=(maxcycle=1)\\title\\-1,1\C,0,0.080509,-0.001228,-0
 .027049\C,0,-0.464655,-0.079198,-1.475805\F,0,1.402096,-0.513741,-0.03
 011\H,0,0.360972,0.300334,-2.097812\C,0,0.22402,1.423049,0.342494\N,0,
 0.361405,2.555332,0.623791\C,0,-0.743425,-0.748593,0.997131\H,0,-0.509
 666,-1.810382,0.889947\H,0,-1.821677,-0.63553,0.772794\H,0,-0.482425,-
 0.434202,2.011075\N,0,-1.659456,0.706511,-1.705824\H,0,-2.434229,0.253

 Normal termination of Gaussian 16 at Wed Apr  9 02:49:48 2025.
