 Gaussian 16, Revision C.01,

 ----------------------------------------------------------------------
 #t hf aug-cc-pvdz symm=none int=(grid=ultrafine) guess=(read,tcheck) s
 table=(opt,rrhf)
 ----------------------------------------------------------------------
 -----
 title
 -----
 Symbolic Z-matrix:
 Charge = -1 Multiplicity = 1

 SCF Done:  E(RHF) =  -1384.70701636     A.U. after   17 cycles
 Normal termination of Gaussian 16 at Wed Apr  9 02:41:07 2025.
 Gaussian 16:  ES64L-G16RevC.01  3-Jul-2019

 ----------------------------------------------------------------------
 #t hf aug-cc-pvdz iop(5/13=1,5/36=2,99/5=2) pseudo=read geom=check gue
 ss=(read,tcheck) scf=(maxcycle=1)
 ----------------------------------------------------------------------
 -----
 title
 -----
 Structure from the checkpoint file:  "E2SN2_176_mol2.chk"
 Charge = -1 Multiplicity = 1

                         Standard orientation:
 ---------------------------------------------------------------------
 Center     Atomic      Atomic             Coordinates (Angstroms)
 Number     Number       Type             X           Y           Z
 ---------------------------------------------------------------------
      1          6           0        0.115389    0.707970    0.572476
      2          6           0       -0.068732   -0.601023   -0.184914
      3         17           0       -1.322174    1.104182    1.568833
      4          1           0        0.910224   -0.788208   -0.675403
      5          1           0        0.957768    0.528479    1.244086
      6          6           0        0.454992    1.843538   -0.279138
      7          7           0        0.718178    2.806718   -0.896451
      8          7           0       -1.144722   -0.557629   -1.239960
      9          8           0       -1.549965    0.540822   -1.603528
     10          8           0       -1.490795   -1.641205   -1.699432
     11          6           0       -0.353539   -1.707508    0.718281
     12          7           0       -0.586604   -2.588686    1.458272
     13         17           0        3.008142   -0.517000   -0.060496
 ---------------------------------------------------------------------

 SCF Done:  E(RHF) =  -1387.21344752     A.U. after    2 cycles

 The electronic state is 1-A.
 Alpha  occ. eigenvalues --  -99.81734 -99.63842 -21.02184 -21.01801 -15.92003
 Alpha  occ. eigenvalues --  -15.68968 -15.67452 -11.46751 -11.42118 -11.36693
 Alpha  occ. eigenvalues --  -11.35098 -10.39097 -10.20572  -9.59046  -9.58328
 Alpha  occ. eigenvalues --   -9.58189  -9.40645  -9.40229  -9.40129  -1.91645
 Alpha  occ. eigenvalues --   -1.61557  -1.32545  -1.22521  -1.19250  -1.14090
 Alpha  occ. eigenvalues --   -1.00106  -0.97856  -0.82964  -0.68983  -0.66282
 Alpha  occ. eigenvalues --   -0.64012  -0.59051  -0.56014  -0.52152  -0.50683
 Alpha  occ. eigenvalues --   -0.45135  -0.43797  -0.42736  -0.40821  -0.36776
 Alpha  occ. eigenvalues --   -0.36452  -0.34555  -0.33807  -0.28407  -0.27976
 Alpha  occ. eigenvalues --   -0.27553  -0.25975  -0.23425  -0.23278
 Alpha virt. eigenvalues --    0.13891   0.14963   0.16527   0.18374   0.18989
 Alpha virt. eigenvalues --    0.20291   0.20488   0.21100   0.22221   0.22493
 Alpha virt. eigenvalues --    0.22913   0.23264   0.23421   0.24232   0.25353

 Mulliken charges:
               1
     1  C   -1.139864
     2  C   -0.660665
     3  Cl  -0.045993
     4  H    1.703935
     5  H    1.548758
     6  C    2.104083
     7  N   -2.527209
     8  N    3.928505
     9  O   -2.696845
    10  O   -2.848194
    11  C    3.275087
    12  N   -2.743587
    13  Cl  -0.898009
 Sum of Mulliken charges =  -1.00000

 Dipole moment (field-independent basis, Debye):
    X=             -8.4036    Y=              1.4308    Z=              0.0344  Tot=              8.5246

 Test job not archived.
 1\1\GINC-SE116\SP\RHF\Aug-CC-pVDZ\C4H2Cl2N3O2(1-)\OHZDE\09-Apr-2025\0\
 \#t hf aug-cc-pvdz iop(5/13=1,5/36=2,99/5=2) pseudo=read geom=check gu
 ess=(read,tcheck) scf=(maxcycle=1)\\title\\-1,1\C,0,-0.072712,-0.05028
 5,0.026736\C,0,-0.60554,-0.013934,-1.40007\Cl,0,1.693005,0.258708,0.08
 2099\H,0,-1.707062,-0.113956,-1.297031\H,0,-0.579628,0.771311,0.537515
 \C,0,-0.381704,-1.283062,0.744284\N,0,-0.57943,-2.247634,1.383473\N,0,
 -0.092894,-1.126379,-2.278944\O,0,0.430559,-2.093255,-1.736592\O,0,-0.
 298139,-0.998958,-3.481714\C,0,-0.314377,1.257085,-2.048853\N,0,-0.068

 Normal termination of Gaussian 16 at Wed Apr  9 02:41:15 2025.
