 Gaussian 16, Revision C.01,

 ----------------------------------------------------------------------
 #t hf aug-cc-pvdz symm=none int=(grid=ultrafine) guess=(read,tcheck) s
 table=(opt,rrhf)
 ----------------------------------------------------------------------
 -----
 title
 -----
 Symbolic Z-matrix:
 Charge = -1 Multiplicity = 1

 SCF Done:  E(RHF) =  -518.446186400     A.U. after   15 cycles
 Normal termination of Gaussian 16 at Wed Apr  9 02:52:25 2025.
 Gaussian 16:  ES64L-G16RevC.01  3-Jul-2019

 ----------------------------------------------------------------------
 #t hf aug-cc-pvdz iop(5/13=1,5/36=2,99/5=2) pseudo=read geom=check gue
 ss=(read,tcheck) scf=(maxcycle=1)
 ----------------------------------------------------------------------
 -----
 title
 -----
 Structure from the checkpoint file:  "E2SN2_318_mol2.chk"
 Charge = -1 Multiplicity = 1

                         Standard orientation:
 ---------------------------------------------------------------------
 Center     Atomic      Atomic             Coordinates (Angstroms)
 Number     Number       Type             X           Y           Z
 ---------------------------------------------------------------------
      1          6           0        0.608574   -0.400233    0.084758
      2          6           0       -0.252272    0.292139   -0.994493
      3          9           0        1.071811   -1.630947   -0.553980
      4          1           0        0.384415    0.327189   -1.889057
      5          6           0        1.882098    0.329809    0.303453
      6          7           0        2.872354    0.937557    0.481749
      7          7           0       -0.072188   -0.649968    1.252801
      8          1           0        0.467480   -0.663205    2.099762
      9          1           0       -1.099271   -0.373602    1.315571
     10          6           0       -0.644446    1.699066   -0.562723
     11          1           0        0.221619    2.293327   -0.257863
     12          1           0       -1.357059    1.602342    0.258974
     13          1           0       -1.137305    2.199109   -1.400475
     14          7           0       -1.460685   -0.458231   -1.299791
     15          1           0       -2.074319   -0.364047   -0.476035
     16          1           0       -1.208326   -1.436406   -1.390834
     17          9           0       -2.531513    0.084846    1.188499
 ---------------------------------------------------------------------

 SCF Done:  E(RHF) =  -520.647281711     A.U. after    2 cycles

 The electronic state is 1-A.
 Alpha  occ. eigenvalues --  -29.10691 -28.92200 -15.65208 -15.58175 -15.56847
 Alpha  occ. eigenvalues --  -11.42767 -11.33058 -11.29921 -11.23332  -1.31477
 Alpha  occ. eigenvalues --   -1.18140  -1.16203  -0.97960  -0.91752  -0.73423
 Alpha  occ. eigenvalues --   -0.64538  -0.60996  -0.55971  -0.52626  -0.46512
 Alpha  occ. eigenvalues --   -0.44109  -0.41531  -0.38478  -0.36175  -0.34469
 Alpha  occ. eigenvalues --   -0.33383  -0.32777  -0.28553  -0.26377  -0.22611
 Alpha  occ. eigenvalues --   -0.16064  -0.12108  -0.11292  -0.00692  -0.00449
 Alpha  occ. eigenvalues --    0.00983
 Alpha virt. eigenvalues --    0.13970   0.14809   0.15380   0.15558   0.16099
 Alpha virt. eigenvalues --    0.17915   0.18449   0.20557   0.21008   0.21249
 Alpha virt. eigenvalues --    0.23563   0.23608   0.24836   0.25047   0.25667

 Mulliken charges:
               1
     1  C    4.047070
     2  C    0.563802
     3  F    0.014024
     4  H    1.755718
     5  C    1.277757
     6  N   -2.480601
     7  N   -4.054403
     8  H    0.571940
     9  H    0.191730
    10  C   -3.903536
    11  H    1.267815
    12  H    1.158634
    13  H    0.992642
    14  N   -2.919393
    15  H    0.456622
    16  H    0.499145
    17  F   -0.438966
 Sum of Mulliken charges =  -1.00000

 Dipole moment (field-independent basis, Debye):
    X=              3.0327    Y=             -2.3628    Z=             -2.5472  Tot=              4.6117

 Test job not archived.
 1\1\GINC-SE368\SP\RHF\Aug-CC-pVDZ\C4H8F2N3(1-)\OHZDE\09-Apr-2025\0\\#t
  hf aug-cc-pvdz iop(5/13=1,5/36=2,99/5=2) pseudo=read geom=check guess
 =(read,tcheck) scf=(maxcycle=1)\\title\\-1,1\C,0,-0.002153,0.013328,0.
 035579\C,0,-0.344878,-0.1239,-1.464063\F,0,1.114184,-0.908379,0.239239
 \H,0,0.608663,0.021709,-1.989802\C,0,0.627794,1.326067,0.322868\N,0,1.
 099616,2.381673,0.534607\N,0,-1.060066,-0.265908,0.868032\H,0,-1.07815
 2,0.206074,1.75441\H,0,-1.988791,-0.557718,0.43498\C,0,-1.357494,0.929
 796,-1.893017\H,0,-1.044287,1.940086,-1.614861\H,0,-2.311049,0.676729,

 Normal termination of Gaussian 16 at Wed Apr  9 02:52:31 2025.
