 Gaussian 16, Revision C.01,

 ----------------------------------------------------------------------
 #t hf aug-cc-pvdz symm=none int=(grid=ultrafine) guess=(read,tcheck) s
 table=(opt,rrhf)
 ----------------------------------------------------------------------
 -----
 title
 -----
 Symbolic Z-matrix:
 Charge = -1 Multiplicity = 1

 SCF Done:  E(RHF) =  -888.944439361     A.U. after   17 cycles
 Normal termination of Gaussian 16 at Wed Apr  9 02:34:03 2025.
 Gaussian 16:  ES64L-G16RevC.01  3-Jul-2019

 ----------------------------------------------------------------------
 #t hf aug-cc-pvdz iop(5/13=1,5/36=2,99/5=2) pseudo=read geom=check gue
 ss=(read,tcheck) scf=(maxcycle=1)
 ----------------------------------------------------------------------
 -----
 title
 -----
 Structure from the checkpoint file:  "E2SN2_118_mol1.chk"
 Charge = -1 Multiplicity = 1

                         Standard orientation:
 ---------------------------------------------------------------------
 Center     Atomic      Atomic             Coordinates (Angstroms)
 Number     Number       Type             X           Y           Z
 ---------------------------------------------------------------------
      1          6           0        0.679970   -0.156800    0.266608
      2          6           0       -0.477176   -0.877857   -0.385470
      3         17           0        0.640582    1.702490   -0.146668
      4          1           0       -0.421913   -2.750197    1.372909
      5          1           0       -0.531563   -1.893885    0.244433
      6          1           0       -0.338141   -1.025911   -1.452501
      7          7           0        0.701538   -0.361861    1.650475
      8          1           0        1.631512   -0.286804    2.039247
      9          1           0        0.270212   -1.295608    1.845239
     10          7           0       -1.778609   -0.256180   -0.200715
     11          8           0       -2.059819    0.198291    0.908575
     12          8           0       -2.563170   -0.303401   -1.158801
     13          6           0        1.912374   -0.585343   -0.422461
     14          7           0        2.904628   -0.971822   -0.922077
 ---------------------------------------------------------------------

 SCF Done:  E(RHF) =  -891.109583472     A.U. after    2 cycles

 The electronic state is 1-A.
 Alpha  occ. eigenvalues --  -99.76710 -20.96202 -20.95818 -15.86018 -15.67114
 Alpha  occ. eigenvalues --  -15.62461 -11.44786 -11.35009 -11.31238 -10.33940
 Alpha  occ. eigenvalues --   -9.53933  -9.53298  -9.53143  -1.85388  -1.55197
 Alpha  occ. eigenvalues --   -1.33319  -1.18388  -1.15438  -1.07658  -0.89929
 Alpha  occ. eigenvalues --   -0.72417  -0.64890  -0.60755  -0.57293  -0.53371
 Alpha  occ. eigenvalues --   -0.50148  -0.49056  -0.43946  -0.43359  -0.41236
 Alpha  occ. eigenvalues --   -0.38669  -0.38176  -0.34267  -0.32934  -0.26410
 Alpha  occ. eigenvalues --   -0.22527  -0.18417  -0.17439  -0.13593
 Alpha virt. eigenvalues --    0.13966   0.15442   0.16490   0.17610   0.18672
 Alpha virt. eigenvalues --    0.19729   0.20858   0.20919   0.22459   0.22665
 Alpha virt. eigenvalues --    0.23872   0.23883   0.25386   0.25733   0.26386

 Mulliken charges:
               1
     1  C    2.155796
     2  C   -1.737664
     3  Cl  -0.163823
     4  H   -0.670689
     5  H    1.308797
     6  H    1.383106
     7  N   -3.164289
     8  H    0.662976
     9  H    0.628026
    10  N    4.325692
    11  O   -2.791023
    12  O   -2.802396
    13  C    2.654894
    14  N   -2.789403
 Sum of Mulliken charges =  -1.00000

 Dipole moment (field-independent basis, Debye):
    X=              1.0669    Y=              5.4824    Z=             -1.6198  Tot=              5.8154

 Test job not archived.
 1\1\GINC-SE398\SP\RHF\Aug-CC-pVDZ\C3H5Cl1N3O2(1-)\OHZDE\09-Apr-2025\0\
 \#t hf aug-cc-pvdz iop(5/13=1,5/36=2,99/5=2) pseudo=read geom=check gu
 ess=(read,tcheck) scf=(maxcycle=1)\\title\\-1,1\C,0,-0.25820868,-0.098
 35082,-0.33837612\C,0,-0.14984029,-0.02164534,1.16711013\Cl,0,1.459998
 8,-0.31470103,-1.1322682\H,0,-2.56194431,-0.8506003,1.47564716\H,0,-1.
 26894354,-0.26297286,1.51556127\H,0,0.22582276,0.93537877,1.5175213\N,
 0,-1.12807799,-1.11733937,-0.74160582\H,0,-1.55321853,-0.93162618,-1.6
 3960146\H,0,-1.84409249,-1.24718197,0.01093744\N,0,0.66281921,-1.05772

 Normal termination of Gaussian 16 at Wed Apr  9 02:34:09 2025.
