 Gaussian 16, Revision C.01,

 ----------------------------------------------------------------------
 #t hf aug-cc-pvdz symm=none int=(grid=ultrafine) guess=(read,tcheck) s
 table=(opt,rrhf)
 ----------------------------------------------------------------------
 -----
 title
 -----
 Symbolic Z-matrix:
 Charge = -1 Multiplicity = 1

 SCF Done:  E(RHF) =  -555.143979751     A.U. after   15 cycles
 Normal termination of Gaussian 16 at Wed Apr  9 02:58:19 2025.
 Gaussian 16:  ES64L-G16RevC.01  3-Jul-2019

 ----------------------------------------------------------------------
 #t hf aug-cc-pvdz iop(5/13=1,5/36=2,99/5=2) pseudo=read geom=check gue
 ss=(read,tcheck) scf=(maxcycle=1)
 ----------------------------------------------------------------------
 -----
 title
 -----
 Structure from the checkpoint file:  "E2SN2_392_mol2.chk"
 Charge = -1 Multiplicity = 1

                         Standard orientation:
 ---------------------------------------------------------------------
 Center     Atomic      Atomic             Coordinates (Angstroms)
 Number     Number       Type             X           Y           Z
 ---------------------------------------------------------------------
      1          6           0        0.355873   -0.197441   -0.552963
      2          6           0       -0.633578    0.014791    0.596863
      3          9           0       -0.015301   -1.339805   -1.289386
      4          1           0       -0.313286    1.006942    0.991765
      5          7           0        0.357622    0.945945   -1.380484
      6          1           0        0.540539    1.735326   -0.686457
      7          1           0        1.125575    0.883689   -2.040473
      8          6           0        1.698671   -0.550117   -0.002153
      9          7           0        2.775959   -0.838132    0.368039
     10          6           0       -0.575838   -1.086449    1.655477
     11          1           0        0.388877   -1.063184    2.165646
     12          1           0       -1.359119   -0.931315    2.400592
     13          1           0       -0.716401   -2.072791    1.205597
     14          6           0       -1.980975    0.107862    0.041150
     15          7           0       -3.097610    0.140458   -0.322874
     16          9           0        0.781646    2.336645    0.720532
 ---------------------------------------------------------------------

 SCF Done:  E(RHF) =  -557.471444435     A.U. after    2 cycles

 The electronic state is 1-A.
 Alpha  occ. eigenvalues --  -29.14617 -28.92645 -15.65214 -15.63433 -15.59228
 Alpha  occ. eigenvalues --  -11.44542 -11.34685 -11.33136 -11.30644 -11.27778
 Alpha  occ. eigenvalues --   -1.32810  -1.18024  -1.16728  -1.07552  -0.93894
 Alpha  occ. eigenvalues --   -0.84352  -0.70043  -0.61183  -0.54472  -0.54155
 Alpha  occ. eigenvalues --   -0.51134  -0.45999  -0.42854  -0.42333  -0.39799
 Alpha  occ. eigenvalues --   -0.37628  -0.35548  -0.33203  -0.31705  -0.29750
 Alpha  occ. eigenvalues --   -0.28330  -0.25359  -0.22392  -0.15288  -0.14879
 Alpha  occ. eigenvalues --   -0.01580  -0.00548   0.00955
 Alpha virt. eigenvalues --    0.13262   0.14683   0.15115   0.15485   0.17944
 Alpha virt. eigenvalues --    0.18614   0.19502   0.19658   0.21433   0.22571
 Alpha virt. eigenvalues --    0.23354   0.23694   0.24938   0.25499   0.25812

 Mulliken charges:
               1
     1  C    5.257387
     2  C   -2.134496
     3  F    0.022955
     4  H    1.393967
     5  N   -3.719208
     6  H    0.111819
     7  H    0.504502
     8  C    1.780048
     9  N   -2.706056
    10  C   -3.681832
    11  H    1.208559
    12  H    1.157690
    13  H    1.202635
    14  C    1.888543
    15  N   -2.666331
    16  F   -0.620183
 Sum of Mulliken charges =  -1.00000

 Dipole moment (field-independent basis, Debye):
    X=             -0.6647    Y=             -5.3531    Z=             -1.2081  Tot=              5.5279

 Test job not archived.
 1\1\GINC-SE044\SP\RHF\Aug-CC-pVDZ\C5H6F2N3(1-)\OHZDE\09-Apr-2025\0\\#t
  hf aug-cc-pvdz iop(5/13=1,5/36=2,99/5=2) pseudo=read geom=check guess
 =(read,tcheck) scf=(maxcycle=1)\\title\\-1,1\C,0,0.010669,-0.023017,0.
 008982\C,0,-0.513871,-0.012497,-1.430081\F,0,1.418365,0.034906,-0.0020
 23\H,0,-1.61285,0.085732,-1.270415\N,0,-0.524748,1.081355,0.705989\H,0
 ,-1.573497,0.973736,0.542288\H,0,-0.319862,0.987687,1.695161\C,0,-0.28
 6093,-1.342577,0.642678\N,0,-0.48387,-2.36075,1.194722\C,0,-0.143683,-
 1.269071,-2.217933\H,0,-0.644676,-2.139062,-1.789436\H,0,-0.465118,-1.

 Normal termination of Gaussian 16 at Wed Apr  9 02:58:27 2025.
