 Gaussian 16, Revision C.01,

 ----------------------------------------------------------------------
 #t hf aug-cc-pvdz symm=none int=(grid=ultrafine) guess=(read,tcheck) s
 table=(opt,rrhf)
 ----------------------------------------------------------------------
 -----
 title
 -----
 Symbolic Z-matrix:
 Charge = -1 Multiplicity = 1

 SCF Done:  E(RHF) =  -492.157440052     A.U. after   17 cycles
 Normal termination of Gaussian 16 at Wed Apr  9 02:32:50 2025.
 Gaussian 16:  ES64L-G16RevC.01  3-Jul-2019

 ----------------------------------------------------------------------
 #t hf aug-cc-pvdz iop(5/13=1,5/36=2,99/5=2) pseudo=read geom=check gue
 ss=(read,tcheck) scf=(maxcycle=1)
 ----------------------------------------------------------------------
 -----
 title
 -----
 Structure from the checkpoint file:  "E2SN2_103_mol1.chk"
 Charge = -1 Multiplicity = 1

                         Standard orientation:
 ---------------------------------------------------------------------
 Center     Atomic      Atomic             Coordinates (Angstroms)
 Number     Number       Type             X           Y           Z
 ---------------------------------------------------------------------
      1          6           0       -0.032345    0.461950   -0.496695
      2          6           0        1.074679   -0.359728   -0.039502
      3          9           0       -0.113699    1.794457    0.022540
      4          1           0        1.759433   -2.220425   -1.379725
      5          1           0        1.248776   -1.495763   -0.861024
      6          7           0       -1.356257   -0.170073   -0.147461
      7          8           0       -1.970373    0.236819    0.830911
      8          8           0       -1.724837   -1.077274   -0.891158
      9          7           0        0.914710   -0.885168    1.295233
     10          1           0        1.420321   -0.301769    1.956507
     11          1           0        1.371700   -1.795674    1.307102
     12          7           0        2.365365    0.238457   -0.327154
     13          1           0        2.295930    1.207038   -0.612005
     14          1           0        2.806904   -0.307719   -1.075784
     15          1           0       -0.038816    0.591998   -1.583101
 ---------------------------------------------------------------------

 SCF Done:  E(RHF) =  -494.294176309     A.U. after    2 cycles

 The electronic state is 1-A.
 Alpha  occ. eigenvalues --  -29.12167 -20.95807 -20.95441 -15.84973 -15.58146
 Alpha  occ. eigenvalues --  -15.57531 -11.39856 -11.23290  -1.85057  -1.55049
 Alpha  occ. eigenvalues --   -1.26159  -1.08871  -1.08390  -0.79061  -0.72292
 Alpha  occ. eigenvalues --   -0.60311  -0.57638  -0.55091  -0.51421  -0.46777
 Alpha  occ. eigenvalues --   -0.44783  -0.42372  -0.39171  -0.36496  -0.27827
 Alpha  occ. eigenvalues --   -0.23541  -0.21557  -0.20250  -0.18750  -0.17228
 Alpha  occ. eigenvalues --   -0.12212  -0.11883  -0.05533
 Alpha virt. eigenvalues --    0.14156   0.14977   0.15325   0.16874   0.17275
 Alpha virt. eigenvalues --    0.19364   0.21874   0.22491   0.23381   0.24755
 Alpha virt. eigenvalues --    0.26015   0.26261   0.27328   0.28079   0.29142

 Mulliken charges:
               1
     1  C   -0.336516
     2  C    1.636016
     3  F    0.248540
     4  H    0.168557
     5  H    0.570932
     6  N    4.127623
     7  O   -2.744727
     8  O   -2.892243
     9  N   -2.818099
    10  H    0.456365
    11  H    0.473103
    12  N   -2.703152
    13  H    0.588706
    14  H    0.484687
    15  H    1.740206
 Sum of Mulliken charges =  -1.00000

 Dipole moment (field-independent basis, Debye):
    X=             -3.3313    Y=              8.0188    Z=              3.2562  Tot=              9.2737

 Test job not archived.
 1\1\GINC-SE292\SP\RHF\Aug-CC-pVDZ\C2H7F1N3O2(1-)\OHZDE\09-Apr-2025\0\\
 #t hf aug-cc-pvdz iop(5/13=1,5/36=2,99/5=2) pseudo=read geom=check gue
 ss=(read,tcheck) scf=(maxcycle=1)\\title\\-1,1\C,0,-0.01909245,0.00873
 915,-0.35798211\C,0,-0.19315553,0.15201843,1.0768892\F,0,1.32126321,-0
 .13949113,-0.84096367\H,0,-2.31636339,-0.3879974,2.04003741\H,0,-1.537
 26026,-0.05775397,1.45789043\N,0,-0.56362115,1.20825012,-1.09202827\O,
 0,0.21323527,2.07228396,-1.47913374\O,0,-1.78361984,1.22971275,-1.2439
 8891\N,0,0.14056867,1.45928784,1.58959745\H,0,1.08244804,1.4477845,1.9

 Normal termination of Gaussian 16 at Wed Apr  9 02:32:55 2025.
