 Gaussian 16, Revision C.01,

 ----------------------------------------------------------------------
 #t hf aug-cc-pvdz symm=none int=(grid=ultrafine) guess=(read,tcheck) s
 table=(opt,rrhf)
 ----------------------------------------------------------------------
 -----
 title
 -----
 Symbolic Z-matrix:
 Charge = -1 Multiplicity = 1

 SCF Done:  E(RHF) =  -583.892167192     A.U. after   18 cycles
 Normal termination of Gaussian 16 at Wed Apr  9 02:59:18 2025.
 Gaussian 16:  ES64L-G16RevC.01  3-Jul-2019

 ----------------------------------------------------------------------
 #t hf aug-cc-pvdz iop(5/13=1,5/36=2,99/5=2) pseudo=read geom=check gue
 ss=(read,tcheck) scf=(maxcycle=1)
 ----------------------------------------------------------------------
 -----
 title
 -----
 Structure from the checkpoint file:  "E2SN2_408_mol1.chk"
 Charge = -1 Multiplicity = 1

                         Standard orientation:
 ---------------------------------------------------------------------
 Center     Atomic      Atomic             Coordinates (Angstroms)
 Number     Number       Type             X           Y           Z
 ---------------------------------------------------------------------
      1          6           0       -1.153497    0.181321   -0.093073
      2          1           0        0.261093    0.009646   -1.686686
      3          9           0       -1.013855   -1.063375    0.905417
      4          1           0       -1.180745    1.570785   -1.278997
      5          6           0        0.279819    0.243285   -0.627427
      6          7           0       -1.502393    1.127952    0.942229
      7          1           0       -1.995038    0.625332    1.669635
      8          1           0       -2.056482    1.869207    0.548121
      9          7           0       -2.104003   -0.479207   -0.969239
     10          1           0       -2.690194    0.217436   -1.397462
     11          1           0       -2.642280   -1.120352   -0.398701
     12          7           0        1.193387   -0.878394   -0.034963
     13          8           0        1.764371   -0.678761    1.031147
     14          8           0        1.270774   -1.909787   -0.699985
     15          6           0        0.964522    1.503930   -0.363206
     16          7           0        1.641884    2.449004   -0.188273
 ---------------------------------------------------------------------

 SCF Done:  E(RHF) =  -586.433446463     A.U. after    2 cycles

 The electronic state is 1-A.
 Alpha  occ. eigenvalues --  -29.04231 -20.95666 -20.95494 -15.84432 -15.62377
 Alpha  occ. eigenvalues --  -15.60871 -15.60618 -11.49963 -11.37338 -11.30788
 Alpha  occ. eigenvalues --   -1.84546  -1.55003  -1.31588  -1.16985  -1.13417
 Alpha  occ. eigenvalues --   -1.06528  -0.82248  -0.77410  -0.63388  -0.60849
 Alpha  occ. eigenvalues --   -0.56358  -0.53782  -0.51777  -0.47870  -0.46341
 Alpha  occ. eigenvalues --   -0.43482  -0.38666  -0.37766  -0.31940  -0.29806
 Alpha  occ. eigenvalues --   -0.29001  -0.24493  -0.21444  -0.18735  -0.18521
 Alpha  occ. eigenvalues --   -0.17129  -0.09425  -0.08494  -0.07623
 Alpha virt. eigenvalues --    0.13339   0.14020   0.15431   0.15789   0.17041
 Alpha virt. eigenvalues --    0.18553   0.20741   0.22170   0.24019   0.24929
 Alpha virt. eigenvalues --    0.25271   0.25475   0.26654   0.26903   0.27742

 Mulliken charges:
               1
     1  C    4.051197
     2  H    2.078115
     3  F    0.081145
     4  H   -0.742871
     5  C   -2.081992
     6  N   -3.192441
     7  H    0.395210
     8  H    0.610841
     9  N   -3.145552
    10  H    0.590392
    11  H    0.368492
    12  N    4.792976
    13  O   -2.983280
    14  O   -2.834247
    15  C    3.864769
    16  N   -2.852755
 Sum of Mulliken charges =  -1.00000

 Dipole moment (field-independent basis, Debye):
    X=             -1.7298    Y=             -5.7030    Z=              3.6891  Tot=              7.0090

 Test job not archived.
 1\1\GINC-SE106\SP\RHF\Aug-CC-pVDZ\C3H6F1N4O2(1-)\OHZDE\09-Apr-2025\0\\
 #t hf aug-cc-pvdz iop(5/13=1,5/36=2,99/5=2) pseudo=read geom=check gue
 ss=(read,tcheck) scf=(maxcycle=1)\\title\\-1,1\C,0,0.47978405,-0.15006
 554,0.11513584\H,0,1.58271323,1.50989772,0.88857457\F,0,-0.96242041,-0
 .22551968,0.80803152\H,0,2.1313078,0.07303409,-0.63350545\C,0,0.738512
 38,1.3548412,0.22506181\N,0,0.02360774,-0.63895196,-1.16649682\H,0,-0.
 75389441,-1.26554314,-1.00120861\H,0,0.78400692,-1.09205328,-1.6442890
 7\N,0,1.13655278,-0.95823912,1.1265395\H,0,1.91362371,-1.43861318,0.70

 Normal termination of Gaussian 16 at Wed Apr  9 02:59:25 2025.
