 Gaussian 16, Revision C.01,

 ----------------------------------------------------------------------
 #t hf aug-cc-pvdz symm=none int=(grid=ultrafine) guess=(read,tcheck) s
 table=(opt,rrhf)
 ----------------------------------------------------------------------
 -----
 title
 -----
 Symbolic Z-matrix:
 Charge = -1 Multiplicity = 1

 SCF Done:  E(RHF) =  -852.267932824     A.U. after   16 cycles
 Normal termination of Gaussian 16 at Wed Apr  9 02:41:33 2025.
 Gaussian 16:  ES64L-G16RevC.01  3-Jul-2019

 ----------------------------------------------------------------------
 #t hf aug-cc-pvdz iop(5/13=1,5/36=2,99/5=2) pseudo=read geom=check gue
 ss=(read,tcheck) scf=(maxcycle=1)
 ----------------------------------------------------------------------
 -----
 title
 -----
 Structure from the checkpoint file:  "E2SN2_204_mol2.chk"
 Charge = -1 Multiplicity = 1

                         Standard orientation:
 ---------------------------------------------------------------------
 Center     Atomic      Atomic             Coordinates (Angstroms)
 Number     Number       Type             X           Y           Z
 ---------------------------------------------------------------------
      1          6           0       -0.890708   -0.007537    0.631328
      2          6           0        0.267779    0.847539    0.087629
      3         17           0       -1.055357   -1.505636   -0.376578
      4          1           0        0.378445    1.660264    0.817733
      5          1           0       -0.627680   -0.369297    1.626387
      6          7           0       -2.136776    0.709724    0.648217
      7          1           0       -2.524887    0.683268   -0.289473
      8          1           0       -1.904442    1.720480    0.781995
      9          7           0        0.106047    1.445838   -1.179408
     10          1           0       -0.416472    2.313929   -0.978292
     11          1           0       -0.405139    0.848169   -1.816162
     12          7           0        1.530869    0.026544    0.186584
     13          8           0        2.106396   -0.325801   -0.837483
     14          8           0        1.877413   -0.284544    1.330433
     15          1           0       -1.192643    3.307015    0.414531
 ---------------------------------------------------------------------

 SCF Done:  E(RHF) =  -854.295122497     A.U. after    2 cycles

 The electronic state is 1-A.
 Alpha  occ. eigenvalues --  -99.76900 -20.97662 -20.96791 -15.86077 -15.60581
 Alpha  occ. eigenvalues --  -15.60368 -11.39628 -11.32309 -10.34316  -9.54309
 Alpha  occ. eigenvalues --   -9.53614  -9.53484  -1.86414  -1.56430  -1.31861
 Alpha  occ. eigenvalues --   -1.20963  -1.14176  -0.99913  -0.83118  -0.70466
 Alpha  occ. eigenvalues --   -0.61777  -0.58612  -0.57125  -0.51801  -0.50911
 Alpha  occ. eigenvalues --   -0.46640  -0.44958  -0.43636  -0.38995  -0.38149
 Alpha  occ. eigenvalues --   -0.36986  -0.27070  -0.26359  -0.20791  -0.19387
 Alpha  occ. eigenvalues --   -0.18477  -0.12634
 Alpha virt. eigenvalues --    0.14778   0.14971   0.15957   0.16514   0.17476
 Alpha virt. eigenvalues --    0.18646   0.20014   0.21374   0.22897   0.23702
 Alpha virt. eigenvalues --    0.24214   0.24924   0.25691   0.26151   0.26735

 Mulliken charges:
               1
     1  C   -0.799489
     2  C    1.319200
     3  Cl   0.015328
     4  H    2.040442
     5  H    1.914630
     6  N   -2.499558
     7  H    0.534258
     8  H    0.854962
     9  N   -2.756593
    10  H    0.585123
    11  H    0.533497
    12  N    4.113511
    13  O   -2.772317
    14  O   -2.971299
    15  H   -1.111696
 Sum of Mulliken charges =  -1.00000

 Dipole moment (field-independent basis, Debye):
    X=              2.1502    Y=             -8.2716    Z=             -1.5631  Tot=              8.6883

 Test job not archived.
 1\1\GINC-SE143\SP\RHF\Aug-CC-pVDZ\C2H7Cl1N3O2(1-)\OHZDE\09-Apr-2025\0\
 \#t hf aug-cc-pvdz iop(5/13=1,5/36=2,99/5=2) pseudo=read geom=check gu
 ess=(read,tcheck) scf=(maxcycle=1)\\title\\-1,1\C,0,0.05977,0.096436,0
 .014319\C,0,-0.57051,0.209569,-1.385254\Cl,0,1.817813,-0.315091,-0.150
 648\H,0,-1.588548,0.577899,-1.201534\H,0,0.047383,1.078569,0.489142\N,
 0,-0.598103,-0.88741,0.830827\H,0,-0.239935,-1.800475,0.568874\H,0,-1.
 595642,-0.923891,0.519237\N,0,-0.686527,-0.968551,-2.152113\H,0,-1.561
 685,-1.399673,-1.81257\H,0,0.103897,-1.585773,-2.017047\N,0,0.143879,1

 Normal termination of Gaussian 16 at Wed Apr  9 02:41:39 2025.
