 Gaussian 16, Revision C.01,

 ----------------------------------------------------------------------
 #t hf aug-cc-pvdz symm=none int=(grid=ultrafine) guess=(read,tcheck) s
 table=(opt,rrhf)
 ----------------------------------------------------------------------
 -----
 title
 -----
 Symbolic Z-matrix:
 Charge = -1 Multiplicity = 1

 SCF Done:  E(RHF) =  -823.507455941     A.U. after   14 cycles
 Normal termination of Gaussian 16 at Wed Apr  9 02:47:13 2025.
 Gaussian 16:  ES64L-G16RevC.01  3-Jul-2019

 ----------------------------------------------------------------------
 #t hf aug-cc-pvdz iop(5/13=1,5/36=2,99/5=2) pseudo=read geom=check gue
 ss=(read,tcheck) scf=(maxcycle=1)
 ----------------------------------------------------------------------
 -----
 title
 -----
 Structure from the checkpoint file:  "E2SN2_259_mol2.chk"
 Charge = -1 Multiplicity = 1

                         Standard orientation:
 ---------------------------------------------------------------------
 Center     Atomic      Atomic             Coordinates (Angstroms)
 Number     Number       Type             X           Y           Z
 ---------------------------------------------------------------------
      1          6           0       -0.751463   -0.241161    0.426250
      2          6           0       -0.463772    1.170682   -0.096698
      3          9           0       -1.059957   -0.155374    1.791321
      4          1           0       -1.361610    1.771127    0.105729
      5          1           0        0.149875   -0.854855    0.315214
      6          6           0       -1.907512   -0.859001   -0.239575
      7          7           0       -2.842825   -1.319099   -0.780617
      8          6           0       -0.178461    1.134273   -1.590958
      9          1           0        0.684461    0.489475   -1.774983
     10          1           0        0.065388    2.145089   -1.923818
     11          1           0       -1.034318    0.767757   -2.163398
     12          7           0        0.662793    1.777758    0.598146
     13          1           0        1.483413    1.203636    0.396378
     14          1           0        0.502547    1.701195    1.596842
     15         17           0        2.595137   -0.956731   -0.140628
 ---------------------------------------------------------------------

 SCF Done:  E(RHF) =  -825.352753602     A.U. after    2 cycles

 The electronic state is 1-A.
 Alpha  occ. eigenvalues --  -99.61465 -29.15595 -15.66685 -15.60091 -11.40511
 Alpha  occ. eigenvalues --  -11.34139 -11.31628 -11.25669 -10.18112  -9.38158
 Alpha  occ. eigenvalues --   -9.37829  -9.37752  -1.28165  -1.19423  -1.06920
 Alpha  occ. eigenvalues --   -0.97152  -0.95526  -0.75588  -0.65393  -0.61914
 Alpha  occ. eigenvalues --   -0.54287  -0.51547  -0.45946  -0.42915  -0.41397
 Alpha  occ. eigenvalues --   -0.37294  -0.36315  -0.34523  -0.33807  -0.28156
 Alpha  occ. eigenvalues --   -0.25528  -0.25185  -0.24684  -0.23221  -0.15721
 Alpha  occ. eigenvalues --   -0.14261
 Alpha virt. eigenvalues --    0.13253   0.13993   0.14995   0.15388   0.17354
 Alpha virt. eigenvalues --    0.17661   0.18140   0.20094   0.20895   0.23327
 Alpha virt. eigenvalues --    0.23939   0.24558   0.24664   0.25277   0.25671

 Mulliken charges:
               1
     1  C    0.087141
     2  C   -0.024543
     3  F    0.087348
     4  H    1.732092
     5  H    1.468635
     6  C    1.068316
     7  N   -2.342593
     8  C   -3.725006
     9  H    1.139445
    10  H    1.072377
    11  H    1.276329
    12  N   -2.980935
    13  H    0.549272
    14  H    0.586422
    15  Cl  -0.994299
 Sum of Mulliken charges =  -1.00000

 Dipole moment (field-independent basis, Debye):
    X=             -6.6765    Y=              4.1091    Z=              3.1892  Tot=              8.4635

 Test job not archived.
 1\1\GINC-SE113\SP\RHF\Aug-CC-pVDZ\C4H7Cl1F1N2(1-)\OHZDE\09-Apr-2025\0\
 \#t hf aug-cc-pvdz iop(5/13=1,5/36=2,99/5=2) pseudo=read geom=check gu
 ess=(read,tcheck) scf=(maxcycle=1)\\title\\-1,1\C,0,-0.366085,0.128548
 ,0.0621\C,0,-0.430137,-0.076516,-1.455592\F,0,0.417244,-0.89385,0.6162
 16\H,0,0.606998,-0.070326,-1.818825\H,0,-1.377508,0.05028,0.477138\C,0
 ,0.267406,1.403957,0.427502\N,0,0.789784,2.423378,0.686596\C,0,-1.2252
 5,1.044604,-2.108604\H,0,-2.236494,1.054483,-1.694416\H,0,-1.290301,0.
 84706,-3.180403\H,0,-0.760047,2.021479,-1.954285\N,0,-1.029821,-1.3591

 Normal termination of Gaussian 16 at Wed Apr  9 02:47:19 2025.
