 Gaussian 16, Revision C.01,

 ----------------------------------------------------------------------
 #t hf aug-cc-pvdz symm=none int=(grid=ultrafine) guess=(read,tcheck) s
 table=(opt,rrhf)
 ----------------------------------------------------------------------
 -----
 title
 -----
 Symbolic Z-matrix:
 Charge = -1 Multiplicity = 1

 SCF Done:  E(RHF) =  -825.752730435     A.U. after   15 cycles
 Normal termination of Gaussian 16 at Wed Apr  9 02:38:25 2025.
 Gaussian 16:  ES64L-G16RevC.01  3-Jul-2019

 ----------------------------------------------------------------------
 #t hf aug-cc-pvdz iop(5/13=1,5/36=2,99/5=2) pseudo=read geom=check gue
 ss=(read,tcheck) scf=(maxcycle=1)
 ----------------------------------------------------------------------
 -----
 title
 -----
 Structure from the checkpoint file:  "E2SN2_159_mol1.chk"
 Charge = -1 Multiplicity = 1

                         Standard orientation:
 ---------------------------------------------------------------------
 Center     Atomic      Atomic             Coordinates (Angstroms)
 Number     Number       Type             X           Y           Z
 ---------------------------------------------------------------------
      1          6           0       -0.169204   -0.505283    0.042447
      2          6           0        0.619374    0.682064    0.159169
      3         17           0       -2.213021    0.075008   -0.228421
      4          9           0        2.752601   -0.710426   -0.074542
      5          1           0        1.848731   -0.051701    0.151731
      6          7           0        0.030950   -1.322733   -1.136548
      7          1           0        1.039173   -1.482563   -1.153091
      8          1           0       -0.205901   -0.771662   -1.952477
      9          6           0       -0.274383   -1.368523    1.273102
     10          1           0       -0.991079   -2.168560    1.092167
     11          1           0        0.720211   -1.798259    1.439789
     12          1           0       -0.554863   -0.778678    2.141604
     13          7           0        0.360772    1.408956    1.393548
     14          1           0       -0.515576    1.922159    1.284834
     15          1           0        1.097625    2.090182    1.536179
     16          6           0        0.722944    1.555127   -1.077507
     17          1           0       -0.257298    1.978813   -1.346320
     18          1           0        1.413202    2.383881   -0.883905
     19          1           0        1.119284    1.011226   -1.938756
 ---------------------------------------------------------------------

 SCF Done:  E(RHF) =  -827.715889876     A.U. after    2 cycles

 The electronic state is 1-A.
 Alpha  occ. eigenvalues --  -99.66606 -28.99162 -15.59065 -15.58039 -11.36237
 Alpha  occ. eigenvalues --  -11.26044 -11.23934 -11.20272 -10.23637  -9.43752
 Alpha  occ. eigenvalues --   -9.43193  -9.43139  -1.27086  -1.15536  -1.04731
 Alpha  occ. eigenvalues --   -0.95073  -0.92601  -0.78151  -0.64224  -0.57618
 Alpha  occ. eigenvalues --   -0.51015  -0.49916  -0.46581  -0.45663  -0.42690
 Alpha  occ. eigenvalues --   -0.41461  -0.38780  -0.34860  -0.33187  -0.32864
 Alpha  occ. eigenvalues --   -0.29883  -0.29333  -0.24270  -0.21350  -0.19496
 Alpha  occ. eigenvalues --   -0.06407  -0.06285  -0.01360
 Alpha virt. eigenvalues --    0.13648   0.14653   0.14997   0.15485   0.15711
 Alpha virt. eigenvalues --    0.16012   0.16480   0.17232   0.18020   0.18946
 Alpha virt. eigenvalues --    0.19445   0.22341   0.22703   0.25061   0.26134

 Mulliken charges:
               1
     1  C    4.031299
     2  C    1.226072
     3  Cl  -0.743899
     4  F    0.774471
     5  H    0.850192
     6  N   -3.632008
     7  H    0.550363
     8  H    0.506609
     9  C   -4.857743
    10  H    1.183430
    11  H    1.159675
    12  H    1.266504
    13  N   -3.850163
    14  H    0.472883
    15  H    0.605301
    16  C   -4.187849
    17  H    1.222727
    18  H    1.062247
    19  H    1.359890
 Sum of Mulliken charges =  -1.00000

 Dipole moment (field-independent basis, Debye):
    X=              3.6169    Y=              0.3505    Z=             -0.0256  Tot=              3.6339

 Test job not archived.
 1\1\GINC-SE227\SP\RHF\Aug-CC-pVDZ\C4H11Cl1F1N2(1-)\OHZDE\09-Apr-2025\0
 \\#t hf aug-cc-pvdz iop(5/13=1,5/36=2,99/5=2) pseudo=read geom=check g
 uess=(read,tcheck) scf=(maxcycle=1)\\title\\-1,1\C,0,-0.29936666,0.051
 73653,-0.27377985\C,0,-0.26299919,0.09036677,1.15536572\Cl,0,1.7181838
 6,0.02456696,-0.99214245\F,0,-2.77190379,-0.40316723,1.23364876\H,0,-1
 .6819045,-0.06687874,1.26383616\N,0,-0.8156767,-1.15166421,-0.89310706
 \H,0,-1.72275283,-1.2859823,-0.44421272\H,0,-0.22329694,-1.92859322,-0
 .62667508\C,0,-0.83698724,1.27643893,-0.96791685\H,0,-0.70114642,1.170

 Normal termination of Gaussian 16 at Wed Apr  9 02:38:34 2025.
