 Gaussian 16, Revision C.01,

 ----------------------------------------------------------------------
 #t hf aug-cc-pvdz symm=none int=(grid=ultrafine) guess=(read,tcheck) s
 table=(opt,rrhf)
 ----------------------------------------------------------------------
 -----
 title
 -----
 Symbolic Z-matrix:
 Charge = -1 Multiplicity = 1

 SCF Done:  E(RHF) =  -740.497872843     A.U. after   16 cycles
 Normal termination of Gaussian 16 at Wed Apr  9 02:55:55 2025.
 Gaussian 16:  ES64L-G16RevC.01  3-Jul-2019

 ----------------------------------------------------------------------
 #t hf aug-cc-pvdz iop(5/13=1,5/36=2,99/5=2) pseudo=read geom=check gue
 ss=(read,tcheck) scf=(maxcycle=1)
 ----------------------------------------------------------------------
 -----
 title
 -----
 Structure from the checkpoint file:  "E2SN2_369_mol2.chk"
 Charge = -1 Multiplicity = 1

                         Standard orientation:
 ---------------------------------------------------------------------
 Center     Atomic      Atomic             Coordinates (Angstroms)
 Number     Number       Type             X           Y           Z
 ---------------------------------------------------------------------
      1          6           0        0.476231   -0.730538   -0.000215
      2          6           0       -0.720784   -0.034813   -0.686402
      3         17           0        1.963726    0.332473   -0.321638
      4          1           0       -0.419139    0.285194   -1.689669
      5          1           0        0.668188   -1.649629   -0.558188
      6          7           0        0.334967   -1.048426    1.357811
      7          1           0       -0.082630   -0.279715    1.871538
      8          1           0       -0.299732   -1.893490    1.418660
      9          6           0       -1.073376    1.188668    0.056768
     10          7           0       -1.346253    2.156912    0.662271
     11          7           0       -1.881162   -0.909975   -0.783100
     12          1           0       -1.886270   -1.576388    0.013995
     13          1           0       -1.751113   -1.498520   -1.598938
     14          1           0       -1.457938   -2.968982    1.130668
 ---------------------------------------------------------------------

 SCF Done:  E(RHF) =  -742.088479966     A.U. after    2 cycles

 The electronic state is 1-A.
 Alpha  occ. eigenvalues --  -99.75304 -15.64738 -15.60844 -15.58918 -11.38856
 Alpha  occ. eigenvalues --  -11.34914 -11.30796 -10.32614  -9.52583  -9.51866
 Alpha  occ. eigenvalues --   -9.51788  -1.31931  -1.20128  -1.16020  -1.13235
 Alpha  occ. eigenvalues --   -0.93235  -0.78874  -0.61154  -0.57034  -0.55102
 Alpha  occ. eigenvalues --   -0.50216  -0.46477  -0.45072  -0.40323  -0.39035
 Alpha  occ. eigenvalues --   -0.37489  -0.35726  -0.31828  -0.31391  -0.26554
 Alpha  occ. eigenvalues --   -0.22333  -0.12095
 Alpha virt. eigenvalues --    0.13208   0.15118   0.15404   0.17043   0.17432
 Alpha virt. eigenvalues --    0.18718   0.19792   0.20456   0.21577   0.21826
 Alpha virt. eigenvalues --    0.23074   0.23437   0.25011   0.25063   0.25415

 Mulliken charges:
               1
     1  C   -1.209939
     2  C    0.263436
     3  Cl  -0.083984
     4  H    1.652305
     5  H    1.879618
     6  N   -2.389422
     7  H    0.577437
     8  H    0.749224
     9  C    2.591471
    10  N   -2.501640
    11  N   -2.761055
    12  H    0.833545
    13  H    0.475526
    14  H   -1.076522
 Sum of Mulliken charges =  -1.00000

 Dipole moment (field-independent basis, Debye):
    X=              3.6175    Y=              5.6856    Z=             -5.0742  Tot=              8.4357

 Test job not archived.
 1\1\GINC-SE344\SP\RHF\Aug-CC-pVDZ\C3H7Cl1N3(1-)\OHZDE\09-Apr-2025\0\\#
 t hf aug-cc-pvdz iop(5/13=1,5/36=2,99/5=2) pseudo=read geom=check gues
 s=(read,tcheck) scf=(maxcycle=1)\\title\\-1,1\C,0,-0.034249,-0.007681,
 -0.057381\C,0,-0.27786,-0.064833,-1.582215\Cl,0,1.803887,0.08837,0.183
 402\H,0,0.422481,-0.779487,-2.028007\H,0,-0.314249,-0.984552,0.342909\
 N,0,-0.715694,0.98576,0.659521\H,0,-0.681724,1.875549,0.173372\H,0,-1.
 723879,0.674955,0.746947\C,0,0.024122,1.248433,-2.180269\N,0,0.262733,
 2.301545,-2.641366\N,0,-1.643427,-0.456101,-1.904508\H,0,-2.287301,-0.

 Normal termination of Gaussian 16 at Wed Apr  9 02:56:00 2025.
