 Gaussian 16, Revision C.01,

 ----------------------------------------------------------------------
 #t hf aug-cc-pvdz symm=none int=(grid=ultrafine) guess=(read,tcheck) s
 table=(opt,rrhf)
 ----------------------------------------------------------------------
 -----
 title
 -----
 Symbolic Z-matrix:
 Charge = -1 Multiplicity = 1

 SCF Done:  E(RHF) =  -366.722753758     A.U. after   15 cycles
 Normal termination of Gaussian 16 at Wed Apr  9 02:45:09 2025.
 Gaussian 16:  ES64L-G16RevC.01  3-Jul-2019

 ----------------------------------------------------------------------
 #t hf aug-cc-pvdz iop(5/13=1,5/36=2,99/5=2) pseudo=read geom=check gue
 ss=(read,tcheck) scf=(maxcycle=1)
 ----------------------------------------------------------------------
 -----
 title
 -----
 Structure from the checkpoint file:  "E2SN2_23_mol1.chk"
 Charge = -1 Multiplicity = 1

                         Standard orientation:
 ---------------------------------------------------------------------
 Center     Atomic      Atomic             Coordinates (Angstroms)
 Number     Number       Type             X           Y           Z
 ---------------------------------------------------------------------
      1          6           0       -0.599965   -0.001541   -0.085371
      2          6           0        0.858499    0.017159   -0.265345
      3          9           0       -0.963931   -0.140516    1.387979
      4          1           0        1.479105   -1.124425   -2.330574
      5          1           0        1.159644   -0.485216   -1.634117
      6          7           0       -1.205204   -1.140767   -0.724778
      7          1           0       -1.929932   -1.506960   -0.119482
      8          1           0       -0.494027   -1.849892   -0.856177
      9          7           0        1.521157   -1.101859    0.385385
     10          1           0        1.729583   -1.820153   -0.318521
     11          1           0        0.937398   -1.501334    1.110981
     12          6           0        1.559064    1.318965    0.045898
     13          1           0        1.485840    1.622257    1.106641
     14          1           0        2.624298    1.193041   -0.175912
     15          1           0        1.193513    2.151502   -0.568004
     16          6           0       -1.339939    1.262959   -0.467766
     17          1           0       -1.137153    1.498044   -1.514749
     18          1           0       -2.415210    1.102495   -0.345219
     19          1           0       -1.035299    2.098407    0.164583
 ---------------------------------------------------------------------

 SCF Done:  E(RHF) =  -368.462512776     A.U. after    2 cycles

 The electronic state is 1-A.
 Alpha  occ. eigenvalues --  -29.04722 -15.58237 -15.54852 -11.36264 -11.25266
 Alpha  occ. eigenvalues --  -11.23115 -11.17940  -1.26379  -1.12845  -0.98053
 Alpha  occ. eigenvalues --   -0.88943  -0.77865  -0.65698  -0.54828  -0.52619
 Alpha  occ. eigenvalues --   -0.48578  -0.46149  -0.41775  -0.39347  -0.38560
 Alpha  occ. eigenvalues --   -0.37478  -0.33764  -0.31696  -0.29068  -0.24832
 Alpha  occ. eigenvalues --   -0.19126  -0.15962  -0.08501  -0.06919  -0.02452
 Alpha virt. eigenvalues --    0.13866   0.14419   0.14713   0.15305   0.15595
 Alpha virt. eigenvalues --    0.15844   0.16297   0.17432   0.18737   0.19464
 Alpha virt. eigenvalues --    0.19546   0.21624   0.23464   0.24666   0.25554

 Mulliken charges:
               1
     1  C    5.413984
     2  C   -0.391159
     3  F   -0.258288
     4  H    0.160640
     5  H    0.217353
     6  N   -3.815305
     7  H    0.379892
     8  H    0.673824
     9  N   -2.773003
    10  H    0.407846
    11  H    0.578760
    12  C   -4.244886
    13  H    1.115214
    14  H    1.099341
    15  H    1.268036
    16  C   -4.327919
    17  H    1.144805
    18  H    1.127639
    19  H    1.223226
 Sum of Mulliken charges =  -1.00000

 Dipole moment (field-independent basis, Debye):
    X=             -5.2308    Y=              2.1086    Z=              7.0473  Tot=              9.0262

 Test job not archived.
 1\1\GINC-SE023\SP\RHF\Aug-CC-pVDZ\C4H12F1N2(1-)\OHZDE\09-Apr-2025\0\\#
 t hf aug-cc-pvdz iop(5/13=1,5/36=2,99/5=2) pseudo=read geom=check gues
 s=(read,tcheck) scf=(maxcycle=1)\\title\\-1,1\C,0,-0.15573843,0.041351
 09,-0.31991294\C,0,-0.20407159,-0.13616694,1.13817063\F,0,1.2177954,0.
 53138698,-0.76242436\H,0,-2.40588246,0.46670957,1.99962547\H,0,-1.6182
 7438,0.02535129,1.57468724\N,0,-1.07262948,1.05711089,-0.76772455\H,0,
 -0.62288366,1.60602408,-1.49031315\H,0,-1.29227075,1.65897687,0.016757
 17\N,0,0.24573273,1.04063793,1.86451231\H,0,-0.57538914,1.5663232,2.18

 Normal termination of Gaussian 16 at Wed Apr  9 02:45:16 2025.
