 Gaussian 16, Revision C.01,

 ----------------------------------------------------------------------
 #t hf aug-cc-pvdz symm=none int=(grid=ultrafine) guess=(read,tcheck) s
 table=(opt,rrhf)
 ----------------------------------------------------------------------
 -----
 title
 -----
 Symbolic Z-matrix:
 Charge = -1 Multiplicity = 1

 SCF Done:  E(RHF) =  -419.471567222     A.U. after   15 cycles
 Normal termination of Gaussian 16 at Wed Apr  9 02:49:09 2025.
 Gaussian 16:  ES64L-G16RevC.01  3-Jul-2019

 ----------------------------------------------------------------------
 #t hf aug-cc-pvdz iop(5/13=1,5/36=2,99/5=2) pseudo=read geom=check gue
 ss=(read,tcheck) scf=(maxcycle=1)
 ----------------------------------------------------------------------
 -----
 title
 -----
 Structure from the checkpoint file:  "E2SN2_287_mol2.chk"
 Charge = -1 Multiplicity = 1

                         Standard orientation:
 ---------------------------------------------------------------------
 Center     Atomic      Atomic             Coordinates (Angstroms)
 Number     Number       Type             X           Y           Z
 ---------------------------------------------------------------------
      1          6           0        0.348705   -0.457302   -0.006278
      2          6           0       -0.831273    0.374169   -0.577501
      3          9           0        0.638040   -1.491069   -0.914986
      4          1           0       -0.622248    0.422632   -1.656531
      5          6           0        1.563482    0.385265    0.017613
      6          7           0        2.535655    1.044521    0.013675
      7          6           0        0.074080   -1.063577    1.350464
      8          1           0       -0.644751   -1.868653    1.197283
      9          1           0        0.990845   -1.464873    1.789610
     10          1           0       -0.403349   -0.328526    2.010191
     11          7           0       -0.954063    1.719102   -0.044662
     12          1           0       -0.066982    2.210075   -0.028269
     13          1           0       -1.337515    1.642457    0.911019
     14          7           0       -2.049974   -0.384445   -0.359408
     15          1           0       -2.327926   -0.179579    0.612247
     16          1           0       -2.763142    0.055010   -0.932958
     17          1           0       -2.218579    0.845508    2.359267
 ---------------------------------------------------------------------

 SCF Done:  E(RHF) =  -421.356015582     A.U. after    2 cycles

 The electronic state is 1-A.
 Alpha  occ. eigenvalues --  -29.14733 -15.66268 -15.58961 -15.58459 -11.42409
 Alpha  occ. eigenvalues --  -11.35066 -11.32152 -11.25778  -1.31755  -1.20224
 Alpha  occ. eigenvalues --   -1.10759  -1.09216  -0.88663  -0.76656  -0.66365
 Alpha  occ. eigenvalues --   -0.60393  -0.53780  -0.49517  -0.46120  -0.45074
 Alpha  occ. eigenvalues --   -0.43632  -0.40670  -0.38558  -0.37344  -0.33665
 Alpha  occ. eigenvalues --   -0.32258  -0.27345  -0.24324  -0.22138  -0.15028
 Alpha  occ. eigenvalues --   -0.13161  -0.10636
 Alpha virt. eigenvalues --    0.13582   0.14353   0.15175   0.15479   0.16391
 Alpha virt. eigenvalues --    0.18029   0.18850   0.19637   0.21261   0.21572
 Alpha virt. eigenvalues --    0.22515   0.22857   0.23278   0.24434   0.25644

 Mulliken charges:
               1
     1  C    3.074816
     2  C    0.602203
     3  F   -0.087950
     4  H    1.436416
     5  C    0.951532
     6  N   -2.482759
     7  C   -4.281639
     8  H    1.297094
     9  H    1.104402
    10  H    1.435061
    11  N   -2.669923
    12  H    0.545544
    13  H    0.682850
    14  N   -2.615470
    15  H    0.729266
    16  H    0.464732
    17  H   -1.186173
 Sum of Mulliken charges =  -1.00000

 Dipole moment (field-independent basis, Debye):
    X=              5.4372    Y=             -5.1597    Z=             -8.3879  Tot=             11.2491

 Test job not archived.
 1\1\GINC-SE457\SP\RHF\Aug-CC-pVDZ\C4H9F1N3(1-)\OHZDE\09-Apr-2025\0\\#t
  hf aug-cc-pvdz iop(5/13=1,5/36=2,99/5=2) pseudo=read geom=check guess
 =(read,tcheck) scf=(maxcycle=1)\\title\\-1,1\C,0,0.074569,0.039895,-0.
 010566\C,0,-0.450728,-0.061486,-1.467883\F,0,1.442234,-0.288172,-0.012
 823\H,0,0.371038,0.348083,-2.073936\C,0,0.018297,1.452132,0.423707\N,0
 ,-0.001388,2.576808,0.762042\C,0,-0.641908,-0.863919,0.965916\H,0,-0.3
 28634,-1.883569,0.74119\H,0,-0.374598,-0.613286,1.995515\H,0,-1.72634,
 -0.819022,0.806321\N,0,-1.670213,0.678704,-1.737722\H,0,-1.637332,1.62

 Normal termination of Gaussian 16 at Wed Apr  9 02:49:16 2025.
