 Gaussian 16, Revision C.01,

 ----------------------------------------------------------------------
 #t hf aug-cc-pvdz symm=none int=(grid=ultrafine) guess=(read,tcheck) s
 table=(opt,rrhf)
 ----------------------------------------------------------------------
 -----
 title
 -----
 Symbolic Z-matrix:
 Charge = -1 Multiplicity = 1

 SCF Done:  E(RHF) =  -1295.32950065     A.U. after   16 cycles
 Normal termination of Gaussian 16 at Wed Apr  9 02:33:38 2025.
 Gaussian 16:  ES64L-G16RevC.01  3-Jul-2019

 ----------------------------------------------------------------------
 #t hf aug-cc-pvdz iop(5/13=1,5/36=2,99/5=2) pseudo=read geom=check gue
 ss=(read,tcheck) scf=(maxcycle=1)
 ----------------------------------------------------------------------
 -----
 title
 -----
 Structure from the checkpoint file:  "E2SN2_106_mol2.chk"
 Charge = -1 Multiplicity = 1

                         Standard orientation:
 ---------------------------------------------------------------------
 Center     Atomic      Atomic             Coordinates (Angstroms)
 Number     Number       Type             X           Y           Z
 ---------------------------------------------------------------------
      1          6           0        0.586551    0.251390    0.085545
      2          6           0       -0.314034   -0.242888   -1.033539
      3         17           0        1.356224    1.797819   -0.409976
      4          1           0       -1.100545    0.507783   -1.170794
      5          1           0        0.282719   -0.317516   -1.943713
      6          6           0       -0.129653    0.425441    1.396612
      7          1           0        0.533243    0.838963    2.155520
      8          1           0       -0.501343   -0.545733    1.720215
      9          1           0       -0.994234    1.070155    1.236191
     10          7           0        1.746311   -0.735407    0.231509
     11          8           0        2.091957   -1.053604    1.365357
     12          8           0        2.275163   -1.132477   -0.801339
     13          7           0       -0.849820   -1.535013   -0.629318
     14          1           0       -0.895718   -2.147909   -1.431969
     15          1           0       -1.805652   -1.364264   -0.310383
     16         17           0       -3.567286    0.127855    0.135019
 ---------------------------------------------------------------------

 SCF Done:  E(RHF) =  -1297.53289113     A.U. after    2 cycles

 The electronic state is 1-A.
 Alpha  occ. eigenvalues --  -99.79410 -99.61179 -20.99310 -20.98855 -15.88338
 Alpha  occ. eigenvalues --  -15.60255 -11.41429 -11.31885 -11.26830 -10.36820
 Alpha  occ. eigenvalues --  -10.17827  -9.56880  -9.56015  -9.56001  -9.37789
 Alpha  occ. eigenvalues --   -9.37504  -9.37443  -1.88627  -1.58561  -1.30190
 Alpha  occ. eigenvalues --   -1.19760  -1.06449  -0.96830  -0.92302  -0.86737
 Alpha  occ. eigenvalues --   -0.67720  -0.61781  -0.60491  -0.55506  -0.53299
 Alpha  occ. eigenvalues --   -0.49329  -0.48206  -0.44579  -0.43420  -0.42349
 Alpha  occ. eigenvalues --   -0.40232  -0.37938  -0.35412  -0.26581  -0.25162
 Alpha  occ. eigenvalues --   -0.24944  -0.24805  -0.23124  -0.20893  -0.20461
 Alpha virt. eigenvalues --    0.13375   0.14310   0.14880   0.15451   0.16925
 Alpha virt. eigenvalues --    0.17511   0.18067   0.19163   0.20428   0.22042
 Alpha virt. eigenvalues --    0.23039   0.23923   0.24798   0.25316   0.25704

 Mulliken charges:
               1
     1  C    0.626505
     2  C   -0.961487
     3  Cl  -0.238419
     4  H    1.328405
     5  H    1.473100
     6  C   -3.172924
     7  H    1.268370
     8  H    1.332686
     9  H    1.115678
    10  N    4.452872
    11  O   -2.837315
    12  O   -3.143612
    13  N   -2.324534
    14  H    0.562490
    15  H    0.517780
    16  Cl  -0.999594
 Sum of Mulliken charges =  -1.00000

 Dipole moment (field-independent basis, Debye):
    X=              9.9594    Y=             -0.9751    Z=             -0.8395  Tot=             10.0421

 Test job not archived.
 1\1\GINC-SE339\SP\RHF\Aug-CC-pVDZ\C3H7Cl2N2O2(1-)\OHZDE\09-Apr-2025\0\
 \#t hf aug-cc-pvdz iop(5/13=1,5/36=2,99/5=2) pseudo=read geom=check gu
 ess=(read,tcheck) scf=(maxcycle=1)\\title\\-1,1\C,0,-0.498589,0.009553
 ,-1.482875\C,0,-0.119218,0.196407,-0.023808\Cl,0,-0.442776,1.598836,-2
 .319801\H,0,0.913119,0.563538,-0.002808\H,0,-0.782864,0.947088,0.40764
 6\C,0,0.368182,-0.98646,-2.203157\H,0,0.105661,-1.046238,-3.258563\H,0
 ,0.239211,-1.96107,-1.734592\H,0,1.411091,-0.696027,-2.073233\N,0,-1.9
 67659,-0.413123,-1.540279\O,0,-2.278848,-1.308493,-2.319898\O,0,-2.750

 Normal termination of Gaussian 16 at Wed Apr  9 02:33:46 2025.
