 Gaussian 16, Revision C.01,

 ----------------------------------------------------------------------
 #t hf aug-cc-pvdz symm=none int=(grid=ultrafine) guess=(read,tcheck) s
 table=(opt,rrhf)
 ----------------------------------------------------------------------
 -----
 title
 -----
 Symbolic Z-matrix:
 Charge = -1 Multiplicity = 1

 SCF Done:  E(RHF) =  -500.062152435     A.U. after   17 cycles
 Normal termination of Gaussian 16 at Wed Apr  9 02:48:16 2025.
 Gaussian 16:  ES64L-G16RevC.01  3-Jul-2019

 ----------------------------------------------------------------------
 #t hf aug-cc-pvdz iop(5/13=1,5/36=2,99/5=2) pseudo=read geom=check gue
 ss=(read,tcheck) scf=(maxcycle=1)
 ----------------------------------------------------------------------
 -----
 title
 -----
 Structure from the checkpoint file:  "E2SN2_269_mol2.chk"
 Charge = -1 Multiplicity = 1

                         Standard orientation:
 ---------------------------------------------------------------------
 Center     Atomic      Atomic             Coordinates (Angstroms)
 Number     Number       Type             X           Y           Z
 ---------------------------------------------------------------------
      1          6           0        0.159861   -0.257304    0.294353
      2          6           0       -0.638610   -1.088201   -0.707662
      3          9           0        0.048443   -0.920406    1.551207
      4          1           0       -0.370114   -2.134193   -0.516948
      5          1           0       -0.300655   -0.778256   -1.691734
      6          6           0        1.593000   -0.259227   -0.034024
      7          7           0        2.747876   -0.439291   -0.155433
      8          6           0       -0.357425    1.104952    0.489005
      9          7           0       -0.902130    1.993952    1.042310
     10          6           0       -2.137046   -0.870247   -0.556117
     11          1           0       -2.456552   -1.006856    0.480132
     12          1           0       -2.692832   -1.573636   -1.183571
     13          1           0       -2.388794    0.144826   -0.866540
     14          9           0        0.348229    1.218811   -1.478185
 ---------------------------------------------------------------------

 SCF Done:  E(RHF) =  -502.143466287     A.U. after    2 cycles

 The electronic state is 1-A.
 Alpha  occ. eigenvalues --  -29.14301 -28.91666 -15.63083 -15.60212 -11.44861
 Alpha  occ. eigenvalues --  -11.32558 -11.31248 -11.30048 -11.25090  -1.25521
 Alpha  occ. eigenvalues --   -1.14765  -1.10399  -0.97863  -0.78706  -0.68749
 Alpha  occ. eigenvalues --   -0.67144  -0.52527  -0.49200  -0.42948  -0.40130
 Alpha  occ. eigenvalues --   -0.39834  -0.39102  -0.37984  -0.36275  -0.31937
 Alpha  occ. eigenvalues --   -0.29783  -0.28363  -0.24281  -0.23210  -0.14802
 Alpha  occ. eigenvalues --   -0.14054  -0.00284   0.00614   0.01327
 Alpha virt. eigenvalues --    0.12425   0.14264   0.14793   0.16418   0.17295
 Alpha virt. eigenvalues --    0.19753   0.20788   0.21836   0.23193   0.23925
 Alpha virt. eigenvalues --    0.24464   0.25117   0.25418   0.26226   0.26319

 Mulliken charges:
               1
     1  C    0.424935
     2  C   -2.716258
     3  F   -0.106949
     4  H    1.318805
     5  H    1.197767
     6  C    2.464375
     7  N   -3.038513
     8  C    3.768578
     9  N   -3.305020
    10  C   -3.934201
    11  H    1.247274
    12  H    1.044347
    13  H    1.385753
    14  F   -0.750893
 Sum of Mulliken charges =  -1.00000

 Dipole moment (field-independent basis, Debye):
    X=             -2.8625    Y=             -5.4188    Z=              0.7495  Tot=              6.1741

 Test job not archived.
 1\1\GINC-SE126\SP\RHF\Aug-CC-pVDZ\C5H5F2N2(1-)\OHZDE\09-Apr-2025\0\\#t
  hf aug-cc-pvdz iop(5/13=1,5/36=2,99/5=2) pseudo=read geom=check guess
 =(read,tcheck) scf=(maxcycle=1)\\title\\-1,1\C,0,-0.044162,-0.003295,-
 0.014965\C,0,-0.373176,-0.087087,-1.503826\F,0,1.374218,-0.094854,0.09
 2808\H,0,0.344602,0.568941,-2.010761\H,0,-1.383911,0.294767,-1.610032\
 C,0,-0.403923,1.311065,0.53708\N,0,-0.476366,2.416879,0.928011\C,0,-0.
 599734,-1.105453,0.783662\N,0,-0.594613,-2.102703,1.415039\C,0,-0.2755
 43,-1.513451,-2.025107\H,0,0.682197,-1.969183,-1.761288\H,0,-0.377475,

 Normal termination of Gaussian 16 at Wed Apr  9 02:48:22 2025.
