 Gaussian 16, Revision C.01,

 ----------------------------------------------------------------------
 #t hf aug-cc-pvdz symm=none int=(grid=ultrafine) guess=(read,tcheck) s
 table=(opt,rrhf)
 ----------------------------------------------------------------------
 -----
 title
 -----
 Symbolic Z-matrix:
 Charge = -1 Multiplicity = 1

 SCF Done:  E(RHF) =  -417.141357035     A.U. after   16 cycles
 Normal termination of Gaussian 16 at Wed Apr  9 02:37:45 2025.
 Gaussian 16:  ES64L-G16RevC.01  3-Jul-2019

 ----------------------------------------------------------------------
 #t hf aug-cc-pvdz iop(5/13=1,5/36=2,99/5=2) pseudo=read geom=check gue
 ss=(read,tcheck) scf=(maxcycle=1)
 ----------------------------------------------------------------------
 -----
 title
 -----
 Structure from the checkpoint file:  "E2SN2_164_mol2.chk"
 Charge = -1 Multiplicity = 1

                         Standard orientation:
 ---------------------------------------------------------------------
 Center     Atomic      Atomic             Coordinates (Angstroms)
 Number     Number       Type             X           Y           Z
 ---------------------------------------------------------------------
      1          6           0        0.628936   -0.290037    0.161387
      2          6           0       -0.581435   -0.922605   -0.516351
      3          9           0        0.397416   -0.313138    1.564944
      4          1           0       -0.622034   -1.955293   -0.161787
      5          1           0       -0.357469   -0.973306   -1.597126
      6          7           0        1.756661   -1.035890   -0.188626
      7          1           0        1.683198   -1.308225   -1.255401
      8          1           0        2.606375   -0.502405   -0.040395
      9          6           0        0.716259    1.166892   -0.144404
     10          7           0        0.845878    2.307228   -0.397992
     11          6           0       -1.835826   -0.246540   -0.219848
     12          7           0       -2.862185    0.279680    0.001039
     13          1           0        1.363112   -1.545916   -2.615441
 ---------------------------------------------------------------------

 SCF Done:  E(RHF) =  -418.952892089     A.U. after    2 cycles

 The electronic state is 1-A.
 Alpha  occ. eigenvalues --  -29.14570 -15.66191 -15.65492 -15.59711 -11.44168
 Alpha  occ. eigenvalues --  -11.35486 -11.33265 -11.30835  -1.32754  -1.19241
 Alpha  occ. eigenvalues --   -1.17336  -1.03828  -0.90481  -0.68811  -0.65172
 Alpha  occ. eigenvalues --   -0.54564  -0.51839  -0.48866  -0.46548  -0.42237
 Alpha  occ. eigenvalues --   -0.39863  -0.35014  -0.34116  -0.32076  -0.31770
 Alpha  occ. eigenvalues --   -0.26717  -0.23593  -0.16013  -0.15293  -0.11349
 Alpha virt. eigenvalues --    0.14337   0.15148   0.17529   0.18652   0.19145
 Alpha virt. eigenvalues --    0.20057   0.20730   0.20957   0.22533   0.23158
 Alpha virt. eigenvalues --    0.24122   0.24389   0.25152   0.25789   0.25986

 Mulliken charges:
               1
     1  C    3.522767
     2  C   -3.300425
     3  F    0.152979
     4  H    1.478622
     5  H    1.537896
     6  N   -3.387861
     7  H    0.601280
     8  H    0.521666
     9  C    1.427640
    10  N   -2.467182
    11  C    2.327007
    12  N   -2.519780
    13  H   -0.894609
 Sum of Mulliken charges =  -1.00000

 Dipole moment (field-independent basis, Debye):
    X=             -2.0602    Y=              1.4251    Z=              9.5859  Tot=              9.9078

 Test job not archived.
 1\1\GINC-SE338\SP\RHF\Aug-CC-pVDZ\C4H5F1N3(1-)\OHZDE\09-Apr-2025\0\\#t
  hf aug-cc-pvdz iop(5/13=1,5/36=2,99/5=2) pseudo=read geom=check guess
 =(read,tcheck) scf=(maxcycle=1)\\title\\-1,1\C,0,0.011474,-0.042142,0.
 027984\C,0,-0.563288,-0.263334,-1.366718\F,0,1.411024,0.171763,-0.1120
 57\H,0,-0.380575,0.660998,-1.919922\H,0,-1.659318,-0.347858,-1.255453\
 N,0,-0.627567,1.067442,0.585674\H,0,-1.699803,1.023931,0.328789\H,0,-0
 .52851,1.075442,1.594989\C,0,-0.061595,-1.288344,0.843715\N,0,-0.14222
 7,-2.2364,1.53376\C,0,0.031982,-1.389212,-2.071365\N,0,0.493476,-2.292

 Normal termination of Gaussian 16 at Wed Apr  9 02:37:49 2025.
