 Gaussian 16, Revision C.01,

 ----------------------------------------------------------------------
 #t hf aug-cc-pvdz symm=none int=(grid=ultrafine) guess=(read,tcheck) s
 table=(opt,rrhf)
 ----------------------------------------------------------------------
 -----
 title
 -----
 Symbolic Z-matrix:
 Charge = -1 Multiplicity = 1

 SCF Done:  E(RHF) =  -492.164719681     A.U. after   17 cycles
 Normal termination of Gaussian 16 at Wed Apr  9 02:36:26 2025.
 Gaussian 16:  ES64L-G16RevC.01  3-Jul-2019

 ----------------------------------------------------------------------
 #t hf aug-cc-pvdz iop(5/13=1,5/36=2,99/5=2) pseudo=read geom=check gue
 ss=(read,tcheck) scf=(maxcycle=1)
 ----------------------------------------------------------------------
 -----
 title
 -----
 Structure from the checkpoint file:  "E2SN2_140_mol1.chk"
 Charge = -1 Multiplicity = 1

                         Standard orientation:
 ---------------------------------------------------------------------
 Center     Atomic      Atomic             Coordinates (Angstroms)
 Number     Number       Type             X           Y           Z
 ---------------------------------------------------------------------
      1          6           0        0.147968   -0.100851    0.281165
      2          6           0        0.993826   -0.037926   -0.911501
      3          9           0        0.139768   -1.351329    0.972954
      4          1           0        1.391491    2.339966   -1.035735
      5          1           0        1.032823    1.386269   -1.156814
      6          1           0        0.636024   -0.673963   -1.723849
      7          7           0        0.396242    0.875015    1.299597
      8          1           0        0.648125    1.740495    0.819469
      9          1           0        1.219739    0.560928    1.797305
     10          7           0        2.414411   -0.154807   -0.660239
     11          1           0        2.623253   -0.728525    0.148825
     12          1           0        2.786890    0.786608   -0.500122
     13          7           0       -1.293518    0.065192   -0.192698
     14          8           0       -1.830414   -0.919269   -0.699773
     15          8           0       -1.802956    1.179900   -0.106511
 ---------------------------------------------------------------------

 SCF Done:  E(RHF) =  -494.316733320     A.U. after    2 cycles

 The electronic state is 1-A.
 Alpha  occ. eigenvalues --  -29.11699 -20.95494 -20.95166 -15.84084 -15.60776
 Alpha  occ. eigenvalues --  -15.58213 -11.41677 -11.20376  -1.84583  -1.54698
 Alpha  occ. eigenvalues --   -1.29507  -1.15107  -1.01129  -0.79562  -0.75109
 Alpha  occ. eigenvalues --   -0.60734  -0.55133  -0.54319  -0.50644  -0.48867
 Alpha  occ. eigenvalues --   -0.44526  -0.43248  -0.37856  -0.37170  -0.26607
 Alpha  occ. eigenvalues --   -0.26086  -0.22468  -0.20781  -0.18216  -0.17198
 Alpha  occ. eigenvalues --   -0.12468  -0.11224  -0.06459
 Alpha virt. eigenvalues --    0.14049   0.15273   0.16021   0.17230   0.17874
 Alpha virt. eigenvalues --    0.19499   0.20887   0.21362   0.23316   0.25185
 Alpha virt. eigenvalues --    0.25568   0.26588   0.27569   0.28293   0.29252

 Mulliken charges:
               1
     1  C    4.310054
     2  C   -1.584494
     3  F    0.356750
     4  H   -0.278795
     5  H    0.602066
     6  H    1.352728
     7  N   -3.358511
     8  H    0.703784
     9  H    0.444721
    10  N   -2.236616
    11  H    0.554343
    12  H    0.513582
    13  N    3.114046
    14  O   -2.812147
    15  O   -2.681508
 Sum of Mulliken charges =  -1.00000

 Dipole moment (field-independent basis, Debye):
    X=             -1.9896    Y=             -6.3068    Z=              4.6380  Tot=              8.0775

 Test job not archived.
 1\1\GINC-SE059\SP\RHF\Aug-CC-pVDZ\C2H7F1N3O2(1-)\OHZDE\09-Apr-2025\0\\
 #t hf aug-cc-pvdz iop(5/13=1,5/36=2,99/5=2) pseudo=read geom=check gue
 ss=(read,tcheck) scf=(maxcycle=1)\\title\\-1,1\C,0,-0.09752505,0.01441
 917,-0.35793035\C,0,-0.12371327,0.153072,1.09877027\F,0,1.19916477,-0.
 08619854,-0.95021919\H,0,-2.33383402,-0.69342591,1.57495513\H,0,-1.518
 21564,-0.10120207,1.38291721\H,0,0.29065592,1.10194767,1.44577047\N,0,
 -0.83598839,-1.07915881,-0.91463274\H,0,-1.67545589,-1.18574434,-0.342
 8312\H,0,-0.27024045,-1.90567974,-0.76867762\N,0,0.35926687,-0.9981073

 Normal termination of Gaussian 16 at Wed Apr  9 02:36:32 2025.
