 Gaussian 16, Revision C.01,

 ----------------------------------------------------------------------
 #t hf aug-cc-pvdz symm=none int=(grid=ultrafine) guess=(read,tcheck) s
 table=(opt,rrhf)
 ----------------------------------------------------------------------
 -----
 title
 -----
 Symbolic Z-matrix:
 Charge = -1 Multiplicity = 1

 SCF Done:  E(RHF) =  -516.086052485     A.U. after   15 cycles
 Normal termination of Gaussian 16 at Wed Apr  9 02:41:00 2025.
 Gaussian 16:  ES64L-G16RevC.01  3-Jul-2019

 ----------------------------------------------------------------------
 #t hf aug-cc-pvdz iop(5/13=1,5/36=2,99/5=2) pseudo=read geom=check gue
 ss=(read,tcheck) scf=(maxcycle=1)
 ----------------------------------------------------------------------
 -----
 title
 -----
 Structure from the checkpoint file:  "E2SN2_200_mol2.chk"
 Charge = -1 Multiplicity = 1

                         Standard orientation:
 ---------------------------------------------------------------------
 Center     Atomic      Atomic             Coordinates (Angstroms)
 Number     Number       Type             X           Y           Z
 ---------------------------------------------------------------------
      1          6           0       -0.940623   -0.936192   -0.089646
      2          6           0        0.060728    0.033331   -0.759313
      3          9           0       -2.214384   -0.506572   -0.583637
      4          1           0       -0.201616    0.019533   -1.825308
      5          1           0       -0.813957   -1.922446   -0.557250
      6          7           0       -0.875161   -0.923823    1.294256
      7          1           0       -0.916448   -1.849464    1.689351
      8          1           0       -0.027201   -0.357931    1.613083
      9          6           0        1.431852   -0.478842   -0.655893
     10          7           0        2.445712   -1.035612   -0.864216
     11          6           0       -0.105650    1.422943   -0.320878
     12          7           0       -0.368738    2.562187   -0.212704
     13          9           0        1.199794    0.466972    1.529543
 ---------------------------------------------------------------------

 SCF Done:  E(RHF) =  -518.211220987     A.U. after    2 cycles

 The electronic state is 1-A.
 Alpha  occ. eigenvalues --  -29.11724 -28.91959 -15.62868 -15.62256 -15.57724
 Alpha  occ. eigenvalues --  -11.41652 -11.37005 -11.32488 -11.30685  -1.29019
 Alpha  occ. eigenvalues --   -1.18086  -1.15070  -1.03814  -0.88003  -0.67256
 Alpha  occ. eigenvalues --   -0.61426  -0.57613  -0.54407  -0.51114  -0.44686
 Alpha  occ. eigenvalues --   -0.40328  -0.38182  -0.32967  -0.32181  -0.30677
 Alpha  occ. eigenvalues --   -0.29574  -0.26809  -0.25367  -0.18662  -0.13093
 Alpha  occ. eigenvalues --   -0.12743  -0.01154   0.00109   0.01001
 Alpha virt. eigenvalues --    0.13163   0.14261   0.14727   0.19481   0.19854
 Alpha virt. eigenvalues --    0.20700   0.21707   0.22422   0.23587   0.24051
 Alpha virt. eigenvalues --    0.24786   0.25366   0.26251   0.26405   0.27259

 Mulliken charges:
               1
     1  C   -0.254117
     2  C   -2.807984
     3  F    0.307533
     4  H    1.402971
     5  H    1.668840
     6  N   -2.792920
     7  H    0.498608
     8  H    0.240499
     9  C    3.793252
    10  N   -3.096061
    11  C    3.476071
    12  N   -3.034587
    13  F   -0.402105
 Sum of Mulliken charges =  -1.00000

 Dipole moment (field-independent basis, Debye):
    X=             -4.3325    Y=             -2.1856    Z=             -1.6805  Tot=              5.1353

 Test job not archived.
 1\1\GINC-SE343\SP\RHF\Aug-CC-pVDZ\C4H4F2N3(1-)\OHZDE\09-Apr-2025\0\\#t
  hf aug-cc-pvdz iop(5/13=1,5/36=2,99/5=2) pseudo=read geom=check guess
 =(read,tcheck) scf=(maxcycle=1)\\title\\-1,1\C,0,0.238336,-0.36707,-0.
 138609\C,0,-0.268826,0.144964,-1.506725\F,0,1.019666,-1.51963,-0.47357
 \H,0,0.626549,0.194356,-2.140148\H,0,0.991725,0.344921,0.225902\N,0,-0
 .78259,-0.657119,0.752011\H,0,-0.586393,-0.325884,1.682821\H,0,-1.7149
 93,-0.312709,0.360952\C,0,-0.78152,1.515146,-1.393837\N,0,-0.870923,2.
 68682,-1.371658\C,0,-1.180061,-0.794287,-2.168831\N,0,-1.684966,-1.608

 Normal termination of Gaussian 16 at Wed Apr  9 02:41:05 2025.
