 Gaussian 16, Revision C.01,

 ----------------------------------------------------------------------
 #t hf aug-cc-pvdz symm=none int=(grid=ultrafine) guess=(read,tcheck) s
 table=(opt,rrhf)
 ----------------------------------------------------------------------
 -----
 title
 -----
 Symbolic Z-matrix:
 Charge = -1 Multiplicity = 1

 SCF Done:  E(RHF) =  -1238.60559402     A.U. after   15 cycles
 Normal termination of Gaussian 16 at Wed Apr  9 02:50:56 2025.
 Gaussian 16:  ES64L-G16RevC.01  3-Jul-2019

 ----------------------------------------------------------------------
 #t hf aug-cc-pvdz iop(5/13=1,5/36=2,99/5=2) pseudo=read geom=check gue
 ss=(read,tcheck) scf=(maxcycle=1)
 ----------------------------------------------------------------------
 -----
 title
 -----
 Structure from the checkpoint file:  "E2SN2_290_mol2.chk"
 Charge = -1 Multiplicity = 1

                         Standard orientation:
 ---------------------------------------------------------------------
 Center     Atomic      Atomic             Coordinates (Angstroms)
 Number     Number       Type             X           Y           Z
 ---------------------------------------------------------------------
      1          6           0       -0.929176    0.022000   -0.213008
      2          6           0       -0.130080   -0.174888    1.117593
      3         17           0       -2.289630   -1.173917   -0.252765
      4          1           0       -0.894995   -0.284453    1.896852
      5          6           0       -1.564159    1.342153   -0.189977
      6          7           0       -2.056699    2.408867   -0.153934
      7          6           0       -0.083937   -0.149643   -1.462577
      8          1           0       -0.669767    0.086198   -2.353081
      9          1           0        0.256229   -1.182818   -1.514500
     10          1           0        0.801930    0.485696   -1.411922
     11          7           0        0.724992    0.943209    1.462452
     12          1           0        1.567842    0.933221    0.888115
     13          1           0        0.256312    1.837555    1.386257
     14          7           0        0.608182   -1.413527    1.013917
     15          1           0        1.458331   -1.223086    0.478590
     16          1           0        0.923854   -1.650929    1.947472
     17         17           0        3.325457    0.067507   -0.517059
 ---------------------------------------------------------------------

 SCF Done:  E(RHF) =  -1240.62668621     A.U. after    2 cycles

 The electronic state is 1-A.
 Alpha  occ. eigenvalues --  -99.78448 -99.61889 -15.67069 -15.60636 -15.60432
 Alpha  occ. eigenvalues --  -11.41254 -11.36471 -11.33509 -11.27503 -10.35822
 Alpha  occ. eigenvalues --  -10.18571  -9.55818  -9.55067  -9.55042  -9.38622
 Alpha  occ. eigenvalues --   -9.38271  -9.38249  -1.34451  -1.23181  -1.18662
 Alpha  occ. eigenvalues --   -1.11459  -1.03900  -0.97804  -0.87973  -0.77181
 Alpha  occ. eigenvalues --   -0.62830  -0.58777  -0.55593  -0.50679  -0.49492
 Alpha  occ. eigenvalues --   -0.46673  -0.45031  -0.42809  -0.41102  -0.39473
 Alpha  occ. eigenvalues --   -0.38726  -0.36418  -0.33538  -0.32753  -0.26954
 Alpha  occ. eigenvalues --   -0.25939  -0.25665  -0.24218  -0.22916
 Alpha virt. eigenvalues --    0.13152   0.13957   0.14891   0.15403   0.15966
 Alpha virt. eigenvalues --    0.16619   0.17782   0.18361   0.18978   0.20042
 Alpha virt. eigenvalues --    0.20846   0.21748   0.22506   0.23698   0.24375

 Mulliken charges:
               1
     1  C    0.154453
     2  C    2.312607
     3  Cl  -0.082816
     4  H    1.727971
     5  C    2.316881
     6  N   -2.649024
     7  C   -3.698099
     8  H    1.229081
     9  H    1.321280
    10  H    1.225322
    11  N   -2.933916
    12  H    0.419179
    13  H    0.570356
    14  N   -2.996988
    15  H    0.600354
    16  H    0.474878
    17  Cl  -0.991518
 Sum of Mulliken charges =  -1.00000

 Dipole moment (field-independent basis, Debye):
    X=             -7.8850    Y=             -1.0729    Z=              1.6458  Tot=              8.1261

 Test job not archived.
 1\1\GINC-SE016\SP\RHF\Aug-CC-pVDZ\C4H8Cl2N3(1-)\OHZDE\09-Apr-2025\0\\#
 t hf aug-cc-pvdz iop(5/13=1,5/36=2,99/5=2) pseudo=read geom=check gues
 s=(read,tcheck) scf=(maxcycle=1)\\title\\-1,1\C,0,0.081385,0.005138,-0
 .034764\C,0,-0.523277,-0.462498,-1.399872\Cl,0,1.735402,-0.713101,0.14
 1285\H,0,0.291749,-0.351836,-2.126392\C,0,0.283366,1.455505,-0.081415\
 N,0,0.428298,2.620666,-0.137714\C,0,-0.757436,-0.385453,1.169034\H,0,-
 0.336044,0.042198,2.080822\H,0,-0.769012,-1.471449,1.248657\H,0,-1.788
 966,-0.054805,1.036371\N,0,-1.651995,0.329156,-1.846523\H,0,-2.490062,

 Normal termination of Gaussian 16 at Wed Apr  9 02:51:05 2025.
