 Gaussian 16, Revision C.01,

 ----------------------------------------------------------------------
 #t hf aug-cc-pvdz symm=none int=(grid=ultrafine) guess=(read,tcheck) s
 table=(opt,rrhf)
 ----------------------------------------------------------------------
 -----
 title
 -----
 Symbolic Z-matrix:
 Charge = -1 Multiplicity = 1

 SCF Done:  E(RHF) =  -1292.99051364     A.U. after   15 cycles
 Normal termination of Gaussian 16 at Wed Apr  9 02:41:52 2025.
 Gaussian 16:  ES64L-G16RevC.01  3-Jul-2019

 ----------------------------------------------------------------------
 #t hf aug-cc-pvdz iop(5/13=1,5/36=2,99/5=2) pseudo=read geom=check gue
 ss=(read,tcheck) scf=(maxcycle=1)
 ----------------------------------------------------------------------
 -----
 title
 -----
 Structure from the checkpoint file:  "E2SN2_209_mol2.chk"
 Charge = -1 Multiplicity = 1

                         Standard orientation:
 ---------------------------------------------------------------------
 Center     Atomic      Atomic             Coordinates (Angstroms)
 Number     Number       Type             X           Y           Z
 ---------------------------------------------------------------------
      1          6           0        0.027259   -0.263863    0.213330
      2          6           0       -0.017005    1.212719   -0.106517
      3         17           0       -0.721269   -0.627404    1.773018
      4          1           0        0.520694    1.372768   -1.040853
      5          1           0        1.086936   -0.553840    0.239958
      6          1           0        0.566987    1.716141    0.665898
      7          7           0       -0.634154   -1.091916   -0.864447
      8          8           0       -0.852575   -0.532554   -1.937401
      9          8           0       -0.836639   -2.275875   -0.625094
     10          6           0       -1.369974    1.759571   -0.174074
     11          7           0       -2.447847    2.221524   -0.217552
     12         17           0        3.137235    0.378847   -0.089929
 ---------------------------------------------------------------------

 SCF Done:  E(RHF) =  -1295.11440782     A.U. after    2 cycles

 The electronic state is 1-A.
 Alpha  occ. eigenvalues --  -99.80478 -99.62658 -21.00395 -21.00170 -15.89911
 Alpha  occ. eigenvalues --  -15.66627 -11.41981 -11.36664 -11.32804 -10.37924
 Alpha  occ. eigenvalues --  -10.19332  -9.57912  -9.57030  -9.56972  -9.39346
 Alpha  occ. eigenvalues --   -9.38963  -9.38900  -1.89759  -1.59712  -1.29433
 Alpha  occ. eigenvalues --   -1.20457  -1.09164  -0.98451  -0.97438  -0.75814
 Alpha  occ. eigenvalues --   -0.65148  -0.62574  -0.58626  -0.55697  -0.51353
 Alpha  occ. eigenvalues --   -0.48882  -0.46929  -0.42836  -0.41922  -0.39418
 Alpha  occ. eigenvalues --   -0.33966  -0.33246  -0.27368  -0.26491  -0.26414
 Alpha  occ. eigenvalues --   -0.25311  -0.21907  -0.21702
 Alpha virt. eigenvalues --    0.14100   0.15754   0.16549   0.17497   0.18843
 Alpha virt. eigenvalues --    0.20683   0.21239   0.21796   0.23098   0.23463
 Alpha virt. eigenvalues --    0.24037   0.24941   0.26007   0.26130   0.26692

 Mulliken charges:
               1
     1  C   -1.504614
     2  C   -0.626800
     3  Cl   0.058830
     4  H    1.454495
     5  H    1.632959
     6  H    1.341813
     7  N    4.287988
     8  O   -2.710041
     9  O   -2.815003
    10  C    1.193069
    11  N   -2.342764
    12  Cl  -0.969932
 Sum of Mulliken charges =  -1.00000

 Dipole moment (field-independent basis, Debye):
    X=             -7.1989    Y=             -1.5069    Z=              0.1523  Tot=              7.3565

 Test job not archived.
 1\1\GINC-SE188\SP\RHF\Aug-CC-pVDZ\C3H3Cl2N2O2(1-)\OHZDE\09-Apr-2025\0\
 \#t hf aug-cc-pvdz iop(5/13=1,5/36=2,99/5=2) pseudo=read geom=check gu
 ess=(read,tcheck) scf=(maxcycle=1)\\title\\-1,1\C,0,-0.252793,0.13106,
 0.013267\C,0,-0.677609,0.086941,-1.436609\Cl,0,1.322956,-0.629296,0.26
 6164\H,0,-1.681168,0.505857,-1.508011\H,0,-1.01688,-0.411601,0.587202\
 H,0,-0.773047,-0.967611,-1.701025\N,0,-0.217212,1.545476,0.545154\O,0,
 -0.781462,2.405328,-0.128715\O,0,0.300385,1.72603,1.64039\C,0,0.245757
 ,0.767819,-2.341008\N,0,0.98266,1.29614,-3.085959\Cl,0,-2.994359,-1.48

 Normal termination of Gaussian 16 at Wed Apr  9 02:41:59 2025.
