 Gaussian 16, Revision C.01,

 ----------------------------------------------------------------------
 #t hf aug-cc-pvdz symm=none int=(grid=ultrafine) guess=(read,tcheck) s
 table=(opt,rrhf)
 ----------------------------------------------------------------------
 -----
 title
 -----
 Symbolic Z-matrix:
 Charge = -1 Multiplicity = 1

 SCF Done:  E(RHF) =  -1236.20461156     A.U. after   16 cycles
 Normal termination of Gaussian 16 at Wed Apr  9 02:47:10 2025.
 Gaussian 16:  ES64L-G16RevC.01  3-Jul-2019

 ----------------------------------------------------------------------
 #t hf aug-cc-pvdz iop(5/13=1,5/36=2,99/5=2) pseudo=read geom=check gue
 ss=(read,tcheck) scf=(maxcycle=1)
 ----------------------------------------------------------------------
 -----
 title
 -----
 Structure from the checkpoint file:  "E2SN2_262_mol1.chk"
 Charge = -1 Multiplicity = 1

                         Standard orientation:
 ---------------------------------------------------------------------
 Center     Atomic      Atomic             Coordinates (Angstroms)
 Number     Number       Type             X           Y           Z
 ---------------------------------------------------------------------
      1          6           0        0.404114    0.303915   -0.296939
      2          1           0        0.580833   -1.226930    1.135476
      3         17           0       -1.727250    1.109145   -1.076628
      4         17           0        2.577776   -0.223868   -0.137110
      5          6           0       -0.067900   -1.030307    0.270613
      6          1           0        0.543744    0.416465   -1.354125
      7          6           0        0.473768    1.430032    0.587594
      8          7           0        0.574661    2.301782    1.372410
      9          7           0        0.056408   -2.046978   -0.769769
     10          1           0       -0.284324   -2.929680   -0.406493
     11          1           0        1.049146   -2.145310   -0.956394
     12          6           0       -1.432370   -1.049134    0.815474
     13          7           0       -2.433071   -1.267846    1.390877
 ---------------------------------------------------------------------

 SCF Done:  E(RHF) =  -1238.16341749     A.U. after    2 cycles

 The electronic state is 1-A.
 Alpha  occ. eigenvalues --  -99.71304 -99.66265 -15.65594 -15.65221 -15.65047
 Alpha  occ. eigenvalues --  -11.45805 -11.39542 -11.34554 -11.32735 -10.28289
 Alpha  occ. eigenvalues --  -10.23215  -9.48352  -9.47886  -9.47735  -9.43217
 Alpha  occ. eigenvalues --   -9.42797  -9.42726  -1.31816  -1.19372  -1.16808
 Alpha  occ. eigenvalues --   -1.10564  -1.04783  -1.00128  -0.87509  -0.67225
 Alpha  occ. eigenvalues --   -0.63533  -0.55090  -0.51797  -0.49830  -0.44887
 Alpha  occ. eigenvalues --   -0.40885  -0.39947  -0.36080  -0.35258  -0.34938
 Alpha  occ. eigenvalues --   -0.33108  -0.31838  -0.31400  -0.29017  -0.28445
 Alpha  occ. eigenvalues --   -0.27980  -0.27264
 Alpha virt. eigenvalues --    0.12773   0.14772   0.14961   0.15990   0.16688
 Alpha virt. eigenvalues --    0.19654   0.19755   0.21189   0.21881   0.22336
 Alpha virt. eigenvalues --    0.23436   0.24055   0.24715   0.25527   0.25862

 Mulliken charges:
               1
     1  C   -1.474143
     2  H    1.643759
     3  Cl  -0.632112
     4  Cl  -0.504006
     5  C   -0.130949
     6  H    1.629589
     7  C    2.790271
     8  N   -2.801109
     9  N   -3.057401
    10  H    0.673647
    11  H    0.591808
    12  C    2.993904
    13  N   -2.723258
 Sum of Mulliken charges =  -1.00000

 Dipole moment (field-independent basis, Debye):
    X=              2.2424    Y=             -4.3995    Z=              0.2074  Tot=              4.9423

 Test job not archived.
 1\1\GINC-SE424\SP\RHF\Aug-CC-pVDZ\C4H4Cl2N3(1-)\OHZDE\09-Apr-2025\0\\#
 t hf aug-cc-pvdz iop(5/13=1,5/36=2,99/5=2) pseudo=read geom=check gues
 s=(read,tcheck) scf=(maxcycle=1)\\title\\-1,1\C,0,0.55764377,-0.048278
 83,-0.02954537\H,0,1.58404098,1.71691256,-0.53662968\Cl,0,-1.7916448,-
 0.35124014,-0.46322987\Cl,0,2.62553606,-0.20028299,0.8246348\C,0,0.595
 96116,1.47324103,-0.12211221\H,0,0.19158424,-0.52127425,0.86044534\C,0
 ,0.84448155,-0.80659388,-1.21194664\N,0,1.1526599,-1.37712492,-2.19458
 756\N,0,0.39406935,2.02452476,1.21459749\H,0,0.38887239,3.03619332,1.1

 Normal termination of Gaussian 16 at Wed Apr  9 02:47:15 2025.
