 Gaussian 16, Revision C.01,

 ----------------------------------------------------------------------
 #t hf aug-cc-pvdz symm=none int=(grid=ultrafine) guess=(read,tcheck) s
 table=(opt,rrhf)
 ----------------------------------------------------------------------
 -----
 title
 -----
 Symbolic Z-matrix:
 Charge = -1 Multiplicity = 1

 SCF Done:  E(RHF) =  -583.953666789     A.U. after   18 cycles
 Normal termination of Gaussian 16 at Wed Apr  9 02:59:21 2025.
 Gaussian 16:  ES64L-G16RevC.01  3-Jul-2019

 ----------------------------------------------------------------------
 #t hf aug-cc-pvdz iop(5/13=1,5/36=2,99/5=2) pseudo=read geom=check gue
 ss=(read,tcheck) scf=(maxcycle=1)
 ----------------------------------------------------------------------
 -----
 title
 -----
 Structure from the checkpoint file:  "E2SN2_408_mol2.chk"
 Charge = -1 Multiplicity = 1

                         Standard orientation:
 ---------------------------------------------------------------------
 Center     Atomic      Atomic             Coordinates (Angstroms)
 Number     Number       Type             X           Y           Z
 ---------------------------------------------------------------------
      1          6           0       -1.059114   -0.324062    0.177289
      2          6           0        0.203197    0.203793   -0.544706
      3          9           0       -0.942931   -0.024942    1.530724
      4          1           0        0.007361   -0.079997   -1.611983
      5          7           0       -2.241338    0.310581   -0.313561
      6          1           0       -2.178854    1.317873   -0.198487
      7          1           0       -2.250882    0.081185   -1.323587
      8          7           0       -1.080225   -1.735448   -0.004004
      9          1           0       -1.078797   -1.861448   -1.028002
     10          1           0       -1.992920   -2.041973    0.320728
     11          7           0        1.443965   -0.479136   -0.064702
     12          8           0        1.991462   -0.026909    0.941260
     13          8           0        1.821867   -1.456729   -0.702989
     14          6           0        0.348439    1.639196   -0.376653
     15          7           0        0.421982    2.808271   -0.285104
     16          1           0       -1.291983   -0.765505   -2.705343
 ---------------------------------------------------------------------

 SCF Done:  E(RHF) =  -586.457990170     A.U. after    2 cycles

 The electronic state is 1-A.
 Alpha  occ. eigenvalues --  -29.14321 -20.98846 -20.98448 -15.88513 -15.67114
 Alpha  occ. eigenvalues --  -15.61585 -15.61320 -11.45041 -11.38433 -11.33619
 Alpha  occ. eigenvalues --   -1.88041  -1.57947  -1.37126  -1.21112  -1.14404
 Alpha  occ. eigenvalues --   -1.10296  -0.89172  -0.80220  -0.69342  -0.61153
 Alpha  occ. eigenvalues --   -0.60236  -0.55897  -0.52326  -0.50884  -0.48113
 Alpha  occ. eigenvalues --   -0.46642  -0.45727  -0.41219  -0.34885  -0.34008
 Alpha  occ. eigenvalues --   -0.29401  -0.28067  -0.24670  -0.23038  -0.20310
 Alpha  occ. eigenvalues --   -0.19947  -0.15155  -0.13843  -0.13369
 Alpha virt. eigenvalues --    0.14252   0.15178   0.16694   0.17774   0.18435
 Alpha virt. eigenvalues --    0.19622   0.20303   0.21069   0.21806   0.23497
 Alpha virt. eigenvalues --    0.23730   0.24938   0.25509   0.25827   0.26462

 Mulliken charges:
               1
     1  C    4.001325
     2  C   -1.166888
     3  F    0.481575
     4  H    2.402355
     5  N   -2.994269
     6  H    0.499286
     7  H    0.646547
     8  N   -3.276472
     9  H    0.686140
    10  H    0.482075
    11  N    4.302013
    12  O   -2.889009
    13  O   -2.861749
    14  C    2.541908
    15  N   -2.622508
    16  H   -1.232329
 Sum of Mulliken charges =  -1.00000

 Dipole moment (field-independent basis, Debye):
    X=              1.8288    Y=              0.8066    Z=              8.7372  Tot=              8.9629

 Test job not archived.
 1\1\GINC-SE132\SP\RHF\Aug-CC-pVDZ\C3H6F1N4O2(1-)\OHZDE\09-Apr-2025\0\\
 #t hf aug-cc-pvdz iop(5/13=1,5/36=2,99/5=2) pseudo=read geom=check gue
 ss=(read,tcheck) scf=(maxcycle=1)\\title\\-1,1\C,0,-0.00803,-0.019052,
 0.007338\C,0,-0.49604,-0.076426,-1.459595\F,0,1.382906,-0.013151,0.002
 903\H,0,-1.611579,-0.071487,-1.343333\N,0,-0.450915,1.174808,0.655343\
 H,0,-0.122184,1.994984,0.154314\H,0,-1.483832,1.127447,0.594462\N,0,-0
 .482673,-1.197782,0.648145\H,0,-1.506587,-1.159464,0.527395\H,0,-0.306
 259,-1.063195,1.639702\N,0,-0.069009,-1.338857,-2.137985\O,0,1.051283,

 Normal termination of Gaussian 16 at Wed Apr  9 02:59:29 2025.
