 Gaussian 16, Revision C.01,

 ----------------------------------------------------------------------
 #t hf aug-cc-pvdz symm=none int=(grid=ultrafine) guess=(read,tcheck) s
 table=(opt,rrhf)
 ----------------------------------------------------------------------
 -----
 title
 -----
 Symbolic Z-matrix:
 Charge = -1 Multiplicity = 1

 SCF Done:  E(RHF) =  -907.308652183     A.U. after   17 cycles
 Normal termination of Gaussian 16 at Wed Apr  9 02:38:27 2025.
 Gaussian 16:  ES64L-G16RevC.01  3-Jul-2019

 ----------------------------------------------------------------------
 #t hf aug-cc-pvdz iop(5/13=1,5/36=2,99/5=2) pseudo=read geom=check gue
 ss=(read,tcheck) scf=(maxcycle=1)
 ----------------------------------------------------------------------
 -----
 title
 -----
 Structure from the checkpoint file:  "E2SN2_161_mol2.chk"
 Charge = -1 Multiplicity = 1

                         Standard orientation:
 ---------------------------------------------------------------------
 Center     Atomic      Atomic             Coordinates (Angstroms)
 Number     Number       Type             X           Y           Z
 ---------------------------------------------------------------------
      1          6           0       -0.892994    0.380937   -0.054744
      2          6           0        0.416215    0.330116    0.749509
      3         17           0       -1.214625   -1.320227   -0.728338
      4          1           0        0.521619    1.359787    1.106020
      5          7           0       -1.991295    0.730931    0.787648
      6          1           0       -1.949004    0.161529    1.627996
      7          1           0       -1.766014    1.713533    1.055526
      8          7           0       -0.730382    1.289443   -1.139311
      9          1           0       -0.517384    2.186736   -0.662979
     10          1           0       -1.655328    1.404334   -1.544918
     11          7           0        1.617408    0.080308   -0.149912
     12          8           0        2.141797    1.050794   -0.687439
     13          8           0        2.014212   -1.083663   -0.259680
     14          7           0        0.349702   -0.606137    1.822567
     15          1           0        0.432023   -1.544489    1.450471
     16          1           0        1.109629   -0.442629    2.469768
     17          1           0       -0.632342    3.139883    1.041285
 ---------------------------------------------------------------------

 SCF Done:  E(RHF) =  -909.596012816     A.U. after    2 cycles

 The electronic state is 1-A.
 Alpha  occ. eigenvalues --  -99.74424 -20.97271 -20.96775 -15.85837 -15.64569
 Alpha  occ. eigenvalues --  -15.59917 -15.59535 -11.41554 -11.33097 -10.31835
 Alpha  occ. eigenvalues --   -9.51881  -9.51175  -9.51023  -1.86090  -1.56266
 Alpha  occ. eigenvalues --   -1.36195  -1.23936  -1.14031  -1.11765  -0.99604
 Alpha  occ. eigenvalues --   -0.79989  -0.70412  -0.61637  -0.59041  -0.58241
 Alpha  occ. eigenvalues --   -0.54143  -0.50941  -0.49022  -0.48278  -0.42948
 Alpha  occ. eigenvalues --   -0.41646  -0.39460  -0.35889  -0.35338  -0.31543
 Alpha  occ. eigenvalues --   -0.26400  -0.25802  -0.20586  -0.18241  -0.17959
 Alpha  occ. eigenvalues --   -0.12446
 Alpha virt. eigenvalues --    0.12769   0.14826   0.15131   0.15770   0.17095
 Alpha virt. eigenvalues --    0.19101   0.19772   0.20243   0.21444   0.22358
 Alpha virt. eigenvalues --    0.23788   0.24084   0.24821   0.26044   0.26398

 Mulliken charges:
               1
     1  C    3.991273
     2  C    1.443320
     3  Cl  -0.155446
     4  H    2.216871
     5  N   -3.068252
     6  H    0.634149
     7  H    0.642302
     8  N   -3.451219
     9  H    0.697791
    10  H    0.615056
    11  N    4.303114
    12  O   -2.789275
    13  O   -2.954147
    14  N   -2.942826
    15  H    0.556536
    16  H    0.485674
    17  H   -1.224921
 Sum of Mulliken charges =  -1.00000

 Dipole moment (field-independent basis, Debye):
    X=              1.9038    Y=             -7.7800    Z=             -0.5671  Tot=              8.0297

 Test job not archived.
 1\1\GINC-SE329\SP\RHF\Aug-CC-pVDZ\C2H8Cl1N4O2(1-)\OHZDE\09-Apr-2025\0\
 \#t hf aug-cc-pvdz iop(5/13=1,5/36=2,99/5=2) pseudo=read geom=check gu
 ess=(read,tcheck) scf=(maxcycle=1)\\title\\-1,1\C,0,-0.237052,0.068003
 ,-1.407805\C,0,-0.003539,0.004997,0.110396\Cl,0,-2.067956,0.188224,-1.
 698447\H,0,1.086711,-0.059623,0.18531\N,0,0.370177,1.233652,-1.965406\
 H,0,0.119432,2.034626,-1.392902\H,0,1.386928,1.046911,-1.826258\N,0,0.
 25139,-1.132752,-1.997487\H,0,1.258414,-1.124105,-1.746044\H,0,0.21581
 ,-0.981901,-3.002086\N,0,-0.535132,-1.289876,0.706165\O,0,0.199396,-2.

 Normal termination of Gaussian 16 at Wed Apr  9 02:38:35 2025.
