 Gaussian 16, Revision C.01,

 ----------------------------------------------------------------------
 #t hf aug-cc-pvdz symm=none int=(grid=ultrafine) guess=(read,tcheck) s
 table=(opt,rrhf)
 ----------------------------------------------------------------------
 -----
 title
 -----
 Symbolic Z-matrix:
 Charge = -1 Multiplicity = 1

 SCF Done:  E(RHF) =  -1220.26265076     A.U. after   15 cycles
 Normal termination of Gaussian 16 at Wed Apr  9 02:49:39 2025.
 Gaussian 16:  ES64L-G16RevC.01  3-Jul-2019

 ----------------------------------------------------------------------
 #t hf aug-cc-pvdz iop(5/13=1,5/36=2,99/5=2) pseudo=read geom=check gue
 ss=(read,tcheck) scf=(maxcycle=1)
 ----------------------------------------------------------------------
 -----
 title
 -----
 Structure from the checkpoint file:  "E2SN2_279_mol2.chk"
 Charge = -1 Multiplicity = 1

                         Standard orientation:
 ---------------------------------------------------------------------
 Center     Atomic      Atomic             Coordinates (Angstroms)
 Number     Number       Type             X           Y           Z
 ---------------------------------------------------------------------
      1          6           0       -0.598030   -0.398801    0.139584
      2          6           0        0.003949    0.629373   -0.826027
      3         17           0       -2.410938   -0.264036    0.115223
      4          1           0        1.104653    0.527681   -0.751158
      5          1           0       -0.314454    0.417937   -1.850071
      6          6           0       -0.291846   -1.746686   -0.346454
      7          7           0       -0.095670   -2.841659   -0.723837
      8          6           0       -0.094323   -0.202637    1.559781
      9          1           0        0.998508   -0.256869    1.534330
     10          1           0       -0.504275   -0.969931    2.218407
     11          1           0       -0.401540    0.781711    1.918220
     12          6           0       -0.384387    1.989738   -0.473533
     13          7           0       -0.702775    3.086353   -0.200701
     14         17           0        3.169411    0.038194    0.066067
 ---------------------------------------------------------------------

 SCF Done:  E(RHF) =  -1222.15640779     A.U. after    2 cycles

 The electronic state is 1-A.
 Alpha  occ. eigenvalues --  -99.80106 -99.61750 -15.67442 -15.66172 -11.43430
 Alpha  occ. eigenvalues --  -11.37183 -11.35418 -11.32655 -11.29216 -10.37481
 Alpha  occ. eigenvalues --  -10.18411  -9.57454  -9.56725  -9.56655  -9.38423
 Alpha  occ. eigenvalues --   -9.38132  -9.37980  -1.32191  -1.19969  -1.18883
 Alpha  occ. eigenvalues --   -1.09449  -0.97685  -0.96980  -0.84935  -0.64507
 Alpha  occ. eigenvalues --   -0.60178  -0.57904  -0.53143  -0.48384  -0.46987
 Alpha  occ. eigenvalues --   -0.44077  -0.42815  -0.41611  -0.39659  -0.38364
 Alpha  occ. eigenvalues --   -0.35092  -0.33679  -0.32803  -0.31169  -0.25507
 Alpha  occ. eigenvalues --   -0.25395  -0.25045
 Alpha virt. eigenvalues --    0.12659   0.14097   0.14724   0.15532   0.17114
 Alpha virt. eigenvalues --    0.17520   0.18658   0.19668   0.20231   0.21268
 Alpha virt. eigenvalues --    0.21642   0.22402   0.23618   0.24494   0.24754

 Mulliken charges:
               1
     1  C    1.174932
     2  C   -3.614775
     3  Cl  -0.101527
     4  H    1.812118
     5  H    1.270207
     6  C    2.234823
     7  N   -2.679452
     8  C   -3.971913
     9  H    1.229693
    10  H    1.251207
    11  H    1.288521
    12  C    2.598853
    13  N   -2.577942
    14  Cl  -0.914743
 Sum of Mulliken charges =  -1.00000

 Dipole moment (field-independent basis, Debye):
    X=             -9.2113    Y=             -0.6392    Z=              0.4552  Tot=              9.2447

 Test job not archived.
 1\1\GINC-SE195\SP\RHF\Aug-CC-pVDZ\C5H5Cl2N2(1-)\OHZDE\09-Apr-2025\0\\#
 t hf aug-cc-pvdz iop(5/13=1,5/36=2,99/5=2) pseudo=read geom=check gues
 s=(read,tcheck) scf=(maxcycle=1)\\title\\-1,1\C,0,0.032378,0.007472,0.
 023888\C,0,-0.562096,-0.163365,-1.379444\Cl,0,1.846222,-0.069959,-0.07
 2887\H,0,-1.663512,-0.139727,-1.261884\H,0,-0.245273,0.658385,-2.02682
 5\C,0,-0.283661,1.350871,0.515999\N,0,-0.487844,2.431279,0.929395\C,0,
 -0.469845,-1.058143,0.983782\H,0,-1.563043,-1.006373,0.994013\H,0,-0.0
 65494,-0.891053,1.983367\H,0,-0.155433,-2.040988,0.627463\C,0,-0.16381

 Normal termination of Gaussian 16 at Wed Apr  9 02:49:46 2025.
