 Gaussian 16, Revision C.01,

 ----------------------------------------------------------------------
 #t hf aug-cc-pvdz symm=none int=(grid=ultrafine) guess=(read,tcheck) s
 table=(opt,rrhf)
 ----------------------------------------------------------------------
 -----
 title
 -----
 Symbolic Z-matrix:
 Charge = -1 Multiplicity = 1

 SCF Done:  E(RHF) =  -1275.21857468     A.U. after   18 cycles
 Normal termination of Gaussian 16 at Wed Apr  9 03:00:54 2025.
 Gaussian 16:  ES64L-G16RevC.01  3-Jul-2019

 ----------------------------------------------------------------------
 #t hf aug-cc-pvdz iop(5/13=1,5/36=2,99/5=2) pseudo=read geom=check gue
 ss=(read,tcheck) scf=(maxcycle=1)
 ----------------------------------------------------------------------
 -----
 title
 -----
 Structure from the checkpoint file:  "E2SN2_57_mol1.chk"
 Charge = -1 Multiplicity = 1

                         Standard orientation:
 ---------------------------------------------------------------------
 Center     Atomic      Atomic             Coordinates (Angstroms)
 Number     Number       Type             X           Y           Z
 ---------------------------------------------------------------------
      1          6           0        0.566178    0.041579    0.272696
      2          6           0       -0.428074   -0.224865   -0.699191
      3         17           0        2.618517   -0.022358   -0.657991
      4         17           0       -3.123991    0.106179    0.323168
      5          1           0       -1.522899   -0.085583    0.008734
      6          6           0        0.654832    1.399722    0.753349
      7          7           0        0.669765    2.514975    1.132759
      8          6           0       -0.552076   -1.647961   -1.191352
      9          1           0       -0.602224   -2.362219   -0.367550
     10          1           0       -1.465025   -1.736759   -1.782848
     11          1           0        0.312524   -1.868768   -1.824953
     12          7           0       -0.557308    0.742009   -1.752365
     13          1           0        0.027725    1.552974   -1.590742
     14          1           0       -1.524924    1.041633   -1.818342
     15          6           0        0.787580   -0.958431    1.285875
     16          7           0        0.915721   -1.775056    2.125240
 ---------------------------------------------------------------------

 SCF Done:  E(RHF) =  -1277.38398168     A.U. after    2 cycles

 The electronic state is 1-A.
 Alpha  occ. eigenvalues --  -99.72694 -99.68107 -15.68874 -15.68813 -15.63306
 Alpha  occ. eigenvalues --  -11.49777 -11.37682 -11.37183 -11.34082 -11.27565
 Alpha  occ. eigenvalues --  -10.29536 -10.25038  -9.49591  -9.49054  -9.49035
 Alpha  occ. eigenvalues --   -9.45047  -9.44521  -9.44506  -1.32586  -1.21666
 Alpha  occ. eigenvalues --   -1.20070  -1.11212  -1.06262  -1.04947  -0.96610
 Alpha  occ. eigenvalues --   -0.76912  -0.71433  -0.62004  -0.56325  -0.49863
 Alpha  occ. eigenvalues --   -0.47236  -0.46151  -0.44574  -0.42895  -0.42116
 Alpha  occ. eigenvalues --   -0.39785  -0.37767  -0.36617  -0.35189  -0.34451
 Alpha  occ. eigenvalues --   -0.33221  -0.32443  -0.32023  -0.31782  -0.28315
 Alpha  occ. eigenvalues --   -0.19607
 Alpha virt. eigenvalues --    0.12114   0.13626   0.14996   0.15462   0.15562
 Alpha virt. eigenvalues --    0.16879   0.17255   0.18992   0.19872   0.20475
 Alpha virt. eigenvalues --    0.21698   0.21887   0.22607   0.23859   0.24172

 Mulliken charges:
               1
     1  C    2.400803
     2  C    2.162605
     3  Cl  -0.448062
     4  Cl  -0.924317
     5  H    2.013168
     6  C    0.929017
     7  N   -2.389993
     8  C   -4.758801
     9  H    1.182209
    10  H    1.179374
    11  H    1.182620
    12  N   -3.469447
    13  H    0.630081
    14  H    0.488712
    15  C    1.397429
    16  N   -2.575400
 Sum of Mulliken charges =  -1.00000

 Dipole moment (field-independent basis, Debye):
    X=              1.5749    Y=             -0.4381    Z=             -1.8597  Tot=              2.4760

 Test job not archived.
 1\1\GINC-SE462\SP\RHF\Aug-CC-pVDZ\C5H6Cl2N3(1-)\OHZDE\09-Apr-2025\0\\#
 t hf aug-cc-pvdz iop(5/13=1,5/36=2,99/5=2) pseudo=read geom=check gues
 s=(read,tcheck) scf=(maxcycle=1)\\title\\-1,1\C,0,-0.29906297,-0.04316
 304,-0.3057256\C,0,-0.14673534,0.06243518,1.09774901\Cl,0,1.71425353,-
 0.17242271,-1.31181221\Cl,0,-2.67461083,-0.04611072,2.51931056\H,0,-1.
 39717556,0.06498243,1.49220172\C,0,-0.80640716,-1.29693142,-0.80981437
 \N,0,-1.24786896,-2.32834784,-1.16933706\C,0,0.35649909,1.37861681,1.6
 4292982\H,0,-0.19958194,2.22704631,1.24010134\H,0,0.24439009,1.3749895

 Normal termination of Gaussian 16 at Wed Apr  9 03:01:02 2025.
