 Gaussian 16, Revision C.01,

 ----------------------------------------------------------------------
 #t hf aug-cc-pvdz symm=none int=(grid=ultrafine) guess=(read,tcheck) s
 table=(opt,rrhf)
 ----------------------------------------------------------------------
 -----
 title
 -----
 Symbolic Z-matrix:
 Charge = -1 Multiplicity = 1

 SCF Done:  E(RHF) =  -516.031260331     A.U. after   16 cycles
 Normal termination of Gaussian 16 at Wed Apr  9 02:47:58 2025.
 Gaussian 16:  ES64L-G16RevC.01  3-Jul-2019

 ----------------------------------------------------------------------
 #t hf aug-cc-pvdz iop(5/13=1,5/36=2,99/5=2) pseudo=read geom=check gue
 ss=(read,tcheck) scf=(maxcycle=1)
 ----------------------------------------------------------------------
 -----
 title
 -----
 Structure from the checkpoint file:  "E2SN2_267_mol1.chk"
 Charge = -1 Multiplicity = 1

                         Standard orientation:
 ---------------------------------------------------------------------
 Center     Atomic      Atomic             Coordinates (Angstroms)
 Number     Number       Type             X           Y           Z
 ---------------------------------------------------------------------
      1          6           0        0.139286   -0.032137    0.051658
      2          1           0       -0.745279   -0.835744    1.807067
      3          9           0       -0.288927   -0.620407   -1.545545
      4          9           0        0.748036    0.673223    1.625525
      5          6           0       -0.797781   -1.018324    0.737369
      6          1           0       -0.392844   -2.015569    0.513135
      7          6           0       -0.308086    1.308014   -0.282227
      8          7           0       -0.667127    2.383411   -0.588240
      9          6           0        1.524492   -0.400611   -0.182873
     10          7           0        2.626865   -0.751026   -0.386426
     11          7           0       -2.164073   -0.815407    0.266668
     12          1           0       -2.766336   -1.502291    0.704024
     13          1           0       -2.144635   -0.982235   -0.731621
 ---------------------------------------------------------------------

 SCF Done:  E(RHF) =  -518.163223485     A.U. after    2 cycles

 The electronic state is 1-A.
 Alpha  occ. eigenvalues --  -29.01605 -28.98238 -15.62857 -15.62491 -15.61275
 Alpha  occ. eigenvalues --  -11.49329 -11.32574 -11.32473 -11.30175  -1.27399
 Alpha  occ. eigenvalues --   -1.18054  -1.15269  -1.05236  -0.83321  -0.69740
 Alpha  occ. eigenvalues --   -0.65000  -0.55384  -0.49175  -0.46638  -0.41884
 Alpha  occ. eigenvalues --   -0.40525  -0.38236  -0.35679  -0.33752  -0.30214
 Alpha  occ. eigenvalues --   -0.29867  -0.26751  -0.24896  -0.15696  -0.07403
 Alpha  occ. eigenvalues --   -0.07010  -0.04461  -0.04048   0.00918
 Alpha virt. eigenvalues --    0.12615   0.14798   0.15837   0.17000   0.19708
 Alpha virt. eigenvalues --    0.20553   0.21399   0.22530   0.23461   0.24188
 Alpha virt. eigenvalues --    0.25774   0.26003   0.27120   0.27223   0.28201

 Mulliken charges:
               1
     1  C    3.669384
     2  H    1.124205
     3  F   -0.397670
     4  F   -0.585351
     5  C   -2.700593
     6  H    1.451975
     7  C    1.591576
     8  N   -2.942013
     9  C    2.163927
    10  N   -3.105480
    11  N   -2.389833
    12  H    0.584776
    13  H    0.535097
 Sum of Mulliken charges =  -1.00000

 Dipole moment (field-independent basis, Debye):
    X=             -3.3923    Y=             -3.6151    Z=              0.7379  Tot=              5.0121

 Test job not archived.
 1\1\GINC-SE023\SP\RHF\Aug-CC-pVDZ\C4H4F2N3(1-)\OHZDE\09-Apr-2025\0\\#t
  hf aug-cc-pvdz iop(5/13=1,5/36=2,99/5=2) pseudo=read geom=check guess
 =(read,tcheck) scf=(maxcycle=1)\\title\\-1,1\C,0,0.63232631,-0.0165355
 5,-0.02792327\H,0,1.77236411,1.77488227,-0.05680466\F,0,-1.12259575,0.
 0104696,-0.03054009\F,0,2.4461348,-0.24468184,0.02875675\C,0,0.7205798
 7,1.50434232,-0.02673175\H,0,0.28452477,1.82494701,0.93025367\C,0,0.65
 892271,-0.76099607,-1.27399505\N,0,0.64535695,-1.37349999,-2.27583785\
 C,0,0.62038692,-0.73711648,1.23310545\N,0,0.5767565,-1.27916606,2.2741

 Normal termination of Gaussian 16 at Wed Apr  9 02:48:03 2025.
