 Gaussian 16, Revision C.01,

 ----------------------------------------------------------------------
 #t hf aug-cc-pvdz symm=none int=(grid=ultrafine) guess=(read,tcheck) s
 table=(opt,rrhf)
 ----------------------------------------------------------------------
 -----
 title
 -----
 Symbolic Z-matrix:
 Charge = -1 Multiplicity = 1

 SCF Done:  E(RHF) =  -1348.03784385     A.U. after   16 cycles
 Normal termination of Gaussian 16 at Wed Apr  9 02:45:37 2025.
 Gaussian 16:  ES64L-G16RevC.01  3-Jul-2019

 ----------------------------------------------------------------------
 #t hf aug-cc-pvdz iop(5/13=1,5/36=2,99/5=2) pseudo=read geom=check gue
 ss=(read,tcheck) scf=(maxcycle=1)
 ----------------------------------------------------------------------
 -----
 title
 -----
 Structure from the checkpoint file:  "E2SN2_240_mol2.chk"
 Charge = -1 Multiplicity = 1

                         Standard orientation:
 ---------------------------------------------------------------------
 Center     Atomic      Atomic             Coordinates (Angstroms)
 Number     Number       Type             X           Y           Z
 ---------------------------------------------------------------------
      1          6           0        0.479307   -0.146446   -0.208212
      2          6           0        0.147364    0.896067    0.845617
      3         17           0        2.268348   -0.271554   -0.449636
      4          1           0       -0.949288    0.903375    0.937357
      5          1           0        0.590557    0.614545    1.799854
      6          7           0        0.146541   -1.559706    0.401755
      7          8           0        0.229586   -1.704841    1.615524
      8          8           0       -0.133437   -2.431971   -0.409906
      9          7           0       -0.167529    0.095958   -1.409331
     10          1           0       -0.051762   -0.682987   -2.045397
     11          1           0       -1.170287    0.249769   -1.214695
     12          6           0        0.622138    2.215834    0.449669
     13          7           0        1.016171    3.290193    0.189815
     14         17           0       -3.071145    0.355787   -0.133904
 ---------------------------------------------------------------------

 SCF Done:  E(RHF) =  -1350.42658045     A.U. after    2 cycles

 The electronic state is 1-A.
 Alpha  occ. eigenvalues --  -99.80513 -99.62990 -21.00057 -20.99854 -15.88793
 Alpha  occ. eigenvalues --  -15.66009 -15.64328 -11.45948 -11.36610 -11.32284
 Alpha  occ. eigenvalues --  -10.37939 -10.19714  -9.57992  -9.57142  -9.57053
 Alpha  occ. eigenvalues --   -9.39751  -9.39438  -9.39276  -1.89050  -1.59515
 Alpha  occ. eigenvalues --   -1.35736  -1.20102  -1.19255  -1.05346  -0.99178
 Alpha  occ. eigenvalues --   -0.95618  -0.73525  -0.65369  -0.64743  -0.58524
 Alpha  occ. eigenvalues --   -0.56257  -0.55105  -0.50708  -0.46699  -0.45650
 Alpha  occ. eigenvalues --   -0.42679  -0.41414  -0.40805  -0.34941  -0.33092
 Alpha  occ. eigenvalues --   -0.31521  -0.26902  -0.26824  -0.26671  -0.23751
 Alpha  occ. eigenvalues --   -0.21875  -0.20574
 Alpha virt. eigenvalues --    0.13621   0.14798   0.14833   0.17193   0.18397
 Alpha virt. eigenvalues --    0.18468   0.19949   0.21664   0.22371   0.22912
 Alpha virt. eigenvalues --    0.24068   0.24715   0.25011   0.25570   0.26222

 Mulliken charges:
               1
     1  C    3.910965
     2  C   -2.098469
     3  Cl  -0.078976
     4  H    1.399839
     5  H    1.543387
     6  N    4.125008
     7  O   -2.992414
     8  O   -2.876098
     9  N   -3.455723
    10  H    0.688370
    11  H    0.360657
    12  C    1.951243
    13  N   -2.524544
    14  Cl  -0.953244
 Sum of Mulliken charges =  -1.00000

 Dipole moment (field-independent basis, Debye):
    X=              7.4931    Y=             -3.4489    Z=              0.5455  Tot=              8.2667

 Test job not archived.
 1\1\GINC-SE208\SP\RHF\Aug-CC-pVDZ\C3H4Cl2N3O2(1-)\OHZDE\09-Apr-2025\0\
 \#t hf aug-cc-pvdz iop(5/13=1,5/36=2,99/5=2) pseudo=read geom=check gu
 ess=(read,tcheck) scf=(maxcycle=1)\\title\\-1,1\C,0,-0.010035,0.012399
 ,0.005144\C,0,-0.524997,0.365379,-1.3797\Cl,0,1.796733,-0.088156,0.014
 383\H,0,-1.621319,0.414891,-1.297584\H,0,-0.138524,1.337219,-1.683688\
 N,0,-0.258574,1.258714,0.935209\O,0,-0.263839,2.373486,0.426828\O,0,-0
 .386858,1.010502,2.126831\N,0,-0.574278,-1.154892,0.493925\H,0,-0.3333
 42,-1.292288,1.46748\H,0,-1.599765,-1.091195,0.387233\C,0,-0.144663,-0

 Normal termination of Gaussian 16 at Wed Apr  9 02:45:44 2025.
