 Gaussian 16, Revision C.01,

 ----------------------------------------------------------------------
 #t hf aug-cc-pvdz symm=none int=(grid=ultrafine) guess=(read,tcheck) s
 table=(opt,rrhf)
 ----------------------------------------------------------------------
 -----
 title
 -----
 Symbolic Z-matrix:
 Charge = -1 Multiplicity = 1

 SCF Done:  E(RHF) =  -1042.92172842     A.U. after   17 cycles
 Normal termination of Gaussian 16 at Wed Apr  9 02:53:51 2025.
 Gaussian 16:  ES64L-G16RevC.01  3-Jul-2019

 ----------------------------------------------------------------------
 #t hf aug-cc-pvdz iop(5/13=1,5/36=2,99/5=2) pseudo=read geom=check gue
 ss=(read,tcheck) scf=(maxcycle=1)
 ----------------------------------------------------------------------
 -----
 title
 -----
 Structure from the checkpoint file:  "E2SN2_321_mol1.chk"
 Charge = -1 Multiplicity = 1

                         Standard orientation:
 ---------------------------------------------------------------------
 Center     Atomic      Atomic             Coordinates (Angstroms)
 Number     Number       Type             X           Y           Z
 ---------------------------------------------------------------------
      1          6           0       -0.702450   -0.306350   -0.239462
      2          1           0        0.735436    0.608273   -1.522211
      3          9           0       -0.483167   -2.182403    0.217957
      4         17           0       -1.128056    1.885818   -0.462515
      5          6           0        0.749925   -0.155088   -0.752127
      6          6           0       -1.107026   -0.248657    1.153553
      7          7           0       -1.532056   -0.181240    2.248821
      8          7           0       -1.609927   -0.711546   -1.275715
      9          1           0       -2.408138   -0.092166   -1.284989
     10          1           0       -1.881142   -1.653213   -1.020171
     11          7           0        1.389666   -1.335122   -1.254399
     12          1           0        1.048729   -1.472604   -2.197579
     13          1           0        1.023780   -2.098430   -0.686367
     14          7           0        1.643312    0.400502    0.321299
     15          8           0        2.318898    1.387920    0.039524
     16          8           0        1.696993   -0.220011    1.380554
 ---------------------------------------------------------------------

 SCF Done:  E(RHF) =  -1045.66494845     A.U. after    2 cycles

 The electronic state is 1-A.
 Alpha  occ. eigenvalues --  -99.69383 -28.99015 -20.97158 -20.96930 -15.86326
 Alpha  occ. eigenvalues --  -15.64491 -15.62889 -15.62657 -11.50688 -11.38454
 Alpha  occ. eigenvalues --  -11.32480 -10.26468  -9.46555  -9.46067  -9.45982
 Alpha  occ. eigenvalues --   -1.86345  -1.56385  -1.32882  -1.23788  -1.15654
 Alpha  occ. eigenvalues --   -1.07786  -1.01396  -0.90138  -0.75405  -0.64561
 Alpha  occ. eigenvalues --   -0.62497  -0.59496  -0.57358  -0.51338  -0.49716
 Alpha  occ. eigenvalues --   -0.45713  -0.44526  -0.43392  -0.40508  -0.35969
 Alpha  occ. eigenvalues --   -0.33496  -0.32792  -0.32206  -0.29333  -0.28138
 Alpha  occ. eigenvalues --   -0.26338  -0.21459  -0.18920  -0.18257  -0.09420
 Alpha  occ. eigenvalues --   -0.06193  -0.05136
 Alpha virt. eigenvalues --    0.13363   0.14009   0.15374   0.16136   0.17230
 Alpha virt. eigenvalues --    0.19993   0.20712   0.22422   0.22566   0.23550
 Alpha virt. eigenvalues --    0.24447   0.24914   0.25472   0.26737   0.27046

 Mulliken charges:
               1
     1  C    5.580111
     2  H    1.852822
     3  F   -0.487193
     4  Cl  -0.653359
     5  C    0.619068
     6  C    1.837766
     7  N   -3.077859
     8  N   -4.111706
     9  H    0.590890
    10  H    0.557278
    11  N   -2.904435
    12  H    0.531089
    13  H    0.258489
    14  N    4.265038
    15  O   -2.898229
    16  O   -2.959768
 Sum of Mulliken charges =  -1.00000

 Dipole moment (field-independent basis, Debye):
    X=              1.5509    Y=             -6.3028    Z=             -2.6133  Tot=              6.9971

 Test job not archived.
 1\1\GINC-SE054\SP\RHF\Aug-CC-pVDZ\C3H5Cl1F1N4O2(1-)\OHZDE\09-Apr-2025\
 0\\#t hf aug-cc-pvdz iop(5/13=1,5/36=2,99/5=2) pseudo=read geom=check
 guess=(read,tcheck) scf=(maxcycle=1)\\title\\-1,1\C,0,0.76901099,0.027
 32113,0.03953356\H,0,1.60939278,1.96607558,0.33019781\F,0,-1.08214909,
 -0.2718544,0.55001892\Cl,0,2.85685059,0.1111683,-0.77923892\C,0,0.6353
 1391,1.56890525,0.06678892\C,0,0.36532313,-0.8269632,-1.06261691\N,0,0
 .1017022,-1.59279181,-1.91632521\N,0,1.15982058,-0.51138526,1.31176786
 \H,0,1.94983604,-1.12883099,1.18728732\H,0,0.3449902,-1.02060974,1.631

 Normal termination of Gaussian 16 at Wed Apr  9 02:54:01 2025.
