 Gaussian 16, Revision C.01,

 ----------------------------------------------------------------------
 #t hf aug-cc-pvdz symm=none int=(grid=ultrafine) guess=(read,tcheck) s
 table=(opt,rrhf)
 ----------------------------------------------------------------------
 -----
 title
 -----
 Symbolic Z-matrix:
 Charge = -1 Multiplicity = 1

 SCF Done:  E(RHF) =  -463.392416353     A.U. after   15 cycles
 Normal termination of Gaussian 16 at Wed Apr  9 02:39:59 2025.
 Gaussian 16:  ES64L-G16RevC.01  3-Jul-2019

 ----------------------------------------------------------------------
 #t hf aug-cc-pvdz iop(5/13=1,5/36=2,99/5=2) pseudo=read geom=check gue
 ss=(read,tcheck) scf=(maxcycle=1)
 ----------------------------------------------------------------------
 -----
 title
 -----
 Structure from the checkpoint file:  "E2SN2_179_mol2.chk"
 Charge = -1 Multiplicity = 1

                         Standard orientation:
 ---------------------------------------------------------------------
 Center     Atomic      Atomic             Coordinates (Angstroms)
 Number     Number       Type             X           Y           Z
 ---------------------------------------------------------------------
      1          6           0        0.467831    0.352600    0.342456
      2          6           0       -0.475899    0.296902   -0.866430
      3          9           0        0.755693    1.679543    0.715621
      4          1           0        0.018633    0.762341   -1.731287
      5          1           0       -0.070832   -0.185295    1.148300
      6          6           0        1.752106   -0.289250    0.027597
      7          7           0        2.779249   -0.788486   -0.248165
      8          6           0       -1.758176    1.034844   -0.507483
      9          1           0       -2.175388    0.501466    0.350361
     10          1           0       -2.451683    0.983388   -1.350465
     11          1           0       -1.568946    2.080317   -0.252580
     12          7           0       -0.814828   -1.090623   -1.163216
     13          1           0       -1.160738   -1.446360   -0.247692
     14          1           0        0.030959   -1.600468   -1.400385
     15          9           0       -1.454373   -1.269787    1.438443
 ---------------------------------------------------------------------

 SCF Done:  E(RHF) =  -465.331867051     A.U. after    2 cycles

 The electronic state is 1-A.
 Alpha  occ. eigenvalues --  -29.13277 -28.90139 -15.64368 -15.56521 -11.36878
 Alpha  occ. eigenvalues --  -11.31675 -11.29003 -11.22605  -1.25682  -1.16802
 Alpha  occ. eigenvalues --   -1.03883  -0.92570  -0.72463  -0.62980  -0.60457
 Alpha  occ. eigenvalues --   -0.51331  -0.49373  -0.43065  -0.41920  -0.37853
 Alpha  occ. eigenvalues --   -0.37518  -0.34154  -0.32386  -0.30553  -0.28496
 Alpha  occ. eigenvalues --   -0.24494  -0.21230  -0.13679  -0.11528   0.00920
 Alpha  occ. eigenvalues --    0.01275   0.03500
 Alpha virt. eigenvalues --    0.13949   0.14774   0.15200   0.16394   0.18113
 Alpha virt. eigenvalues --    0.18606   0.19406   0.20518   0.22536   0.23565
 Alpha virt. eigenvalues --    0.24117   0.25059   0.26302   0.26407   0.26872

 Mulliken charges:
               1
     1  C    0.378030
     2  C    0.996281
     3  F    0.001156
     4  H    1.824690
     5  H    1.225682
     6  C    0.829151
     7  N   -2.360442
     8  C   -3.916262
     9  H    1.049161
    10  H    1.021239
    11  H    1.176837
    12  N   -3.163545
    13  H    0.239836
    14  H    0.570418
    15  F   -0.872233
 Sum of Mulliken charges =  -1.00000

 Dipole moment (field-independent basis, Debye):
    X=              1.1124    Y=              5.2524    Z=             -1.2380  Tot=              5.5098

 Test job not archived.
 1\1\GINC-SE108\SP\RHF\Aug-CC-pVDZ\C4H7F2N2(1-)\OHZDE\09-Apr-2025\0\\#t
  hf aug-cc-pvdz iop(5/13=1,5/36=2,99/5=2) pseudo=read geom=check guess
 =(read,tcheck) scf=(maxcycle=1)\\title\\-1,1\C,0,-0.194782,-0.085752,0
 .024622\C,0,-0.400731,-0.109066,-1.495962\F,0,0.862752,0.768286,0.3922
 28\H,0,0.503603,-0.510341,-1.975893\H,0,-1.161091,0.26823,0.436712\C,0
 ,0.147641,-1.425826,0.522031\N,0,0.439658,-2.499603,0.898905\C,0,-0.68
 2619,1.312217,-1.963005\H,0,-1.592317,1.619456,-1.440982\H,0,-0.856038
 ,1.309339,-3.041956\H,0,0.141282,1.989782,-1.726593\N,0,-1.557159,-0.9

 Normal termination of Gaussian 16 at Wed Apr  9 02:40:04 2025.
