 Gaussian 16, Revision C.01,

 ----------------------------------------------------------------------
 #t hf aug-cc-pvdz symm=none int=(grid=ultrafine) guess=(read,tcheck) s
 table=(opt,rrhf)
 ----------------------------------------------------------------------
 -----
 title
 -----
 Symbolic Z-matrix:
 Charge = -1 Multiplicity = 1

 SCF Done:  E(RHF) =  -364.424582392     A.U. after   16 cycles
 Normal termination of Gaussian 16 at Wed Apr  9 02:33:41 2025.
 Gaussian 16:  ES64L-G16RevC.01  3-Jul-2019

 ----------------------------------------------------------------------
 #t hf aug-cc-pvdz iop(5/13=1,5/36=2,99/5=2) pseudo=read geom=check gue
 ss=(read,tcheck) scf=(maxcycle=1)
 ----------------------------------------------------------------------
 -----
 title
 -----
 Structure from the checkpoint file:  "E2SN2_11_mol1.chk"
 Charge = -1 Multiplicity = 1

                         Standard orientation:
 ---------------------------------------------------------------------
 Center     Atomic      Atomic             Coordinates (Angstroms)
 Number     Number       Type             X           Y           Z
 ---------------------------------------------------------------------
      1          6           0        0.995451    0.101937    0.204462
      2          6           0       -0.449785    0.453046    0.391894
      3          9           0        1.428525    0.334136   -1.133611
      4          1           0       -0.240042    1.274796    2.695780
      5          1           0       -0.475795    0.607071    1.625965
      6          1           0        1.561154    0.812670    0.819461
      7          6           0        1.343782   -1.320020    0.569877
      8          1           0        2.415370   -1.495313    0.443493
      9          1           0        1.075194   -1.493596    1.615150
     10          1           0        0.792541   -2.021485   -0.059669
     11          6           0       -1.364115   -0.550753   -0.097547
     12          7           0       -2.095732   -1.407560   -0.448547
     13          7           0       -0.806295    1.796876   -0.032678
     14          1           0       -0.640452    2.382659    0.791674
     15          1           0       -0.182511    2.095496   -0.772896
 ---------------------------------------------------------------------

 SCF Done:  E(RHF) =  -366.062462816     A.U. after    2 cycles

 The electronic state is 1-A.
 Alpha  occ. eigenvalues --  -29.11359 -15.60595 -15.59177 -11.36133 -11.31193
 Alpha  occ. eigenvalues --  -11.27494 -11.24734  -1.25496  -1.12713  -1.07992
 Alpha  occ. eigenvalues --   -0.86643  -0.80070  -0.61771  -0.53833  -0.50995
 Alpha  occ. eigenvalues --   -0.49696  -0.42818  -0.41164  -0.39585  -0.38865
 Alpha  occ. eigenvalues --   -0.35294  -0.28958  -0.28050  -0.23130  -0.21696
 Alpha  occ. eigenvalues --   -0.13804  -0.12214  -0.08338
 Alpha virt. eigenvalues --    0.13176   0.14711   0.15361   0.15929   0.16669
 Alpha virt. eigenvalues --    0.17698   0.19121   0.19988   0.21389   0.22848
 Alpha virt. eigenvalues --    0.24011   0.24915   0.25567   0.25969   0.26276

 Mulliken charges:
               1
     1  C   -0.412385
     2  C    0.367556
     3  F   -0.020587
     4  H   -0.341760
     5  H    1.173997
     6  H    1.587376
     7  C   -3.995105
     8  H    1.114768
     9  H    1.283499
    10  H    1.185165
    11  C    1.328024
    12  N   -2.445316
    13  N   -2.837307
    14  H    0.485080
    15  H    0.526993
 Sum of Mulliken charges =  -1.00000

 Dipole moment (field-independent basis, Debye):
    X=              4.9651    Y=             -1.5749    Z=             -7.9835  Tot=              9.5326

 Test job not archived.
 1\1\GINC-SE460\SP\RHF\Aug-CC-pVDZ\C4H8F1N2(1-)\OHZDE\09-Apr-2025\0\\#t
  hf aug-cc-pvdz iop(5/13=1,5/36=2,99/5=2) pseudo=read geom=check guess
 =(read,tcheck) scf=(maxcycle=1)\\title\\-1,1\C,0,-0.14663403,0.0904333
 9,-0.39887936\C,0,-0.08945004,0.06229184,1.09880303\F,0,1.13024235,-0.
 15471623,-0.9831697\H,0,-2.31353753,-0.9182758,1.44387493\H,0,-1.28716
 72,-0.15355105,1.35612853\H,0,-0.7687855,-0.76368857,-0.69347991\C,0,-
 0.68845092,1.37420761,-0.97782789\H,0,-0.73539765,1.31161693,-2.068185
 55\H,0,-1.69529853,1.54246803,-0.58691857\H,0,-0.05320892,2.21691652,-

 Normal termination of Gaussian 16 at Wed Apr  9 02:33:46 2025.
