 Gaussian 16, Revision C.01,

 ----------------------------------------------------------------------
 #t hf aug-cc-pvdz symm=none int=(grid=ultrafine) guess=(read,tcheck) s
 table=(opt,rrhf)
 ----------------------------------------------------------------------
 -----
 title
 -----
 Symbolic Z-matrix:
 Charge = -1 Multiplicity = 1

 SCF Done:  E(RHF) =  -685.447556985     A.U. after   16 cycles
 Normal termination of Gaussian 16 at Wed Apr  9 02:42:27 2025.
 Gaussian 16:  ES64L-G16RevC.01  3-Jul-2019

 ----------------------------------------------------------------------
 #t hf aug-cc-pvdz iop(5/13=1,5/36=2,99/5=2) pseudo=read geom=check gue
 ss=(read,tcheck) scf=(maxcycle=1)
 ----------------------------------------------------------------------
 -----
 title
 -----
 Structure from the checkpoint file:  "E2SN2_21_mol1.chk"
 Charge = -1 Multiplicity = 1

                         Standard orientation:
 ---------------------------------------------------------------------
 Center     Atomic      Atomic             Coordinates (Angstroms)
 Number     Number       Type             X           Y           Z
 ---------------------------------------------------------------------
      1          6           0        0.540360    0.394290   -0.337944
      2          6           0       -0.700989    0.763662    0.417684
      3         17           0        1.141982   -1.309687    0.050750
      4          1           0       -0.547797    3.169205   -0.292338
      5          1           0       -0.790573    1.998165    0.066164
      6          7           0        1.632306    1.314407   -0.121719
      7          1           0        1.828860    1.317170    0.875880
      8          1           0        1.212557    2.233726   -0.320508
      9          6           0       -1.877923    0.009281    0.094918
     10          7           0       -2.873995   -0.543756   -0.210953
     11          1           0        0.326311    0.356361   -1.407859
     12          1           0       -0.519924    0.792097    1.496673
 ---------------------------------------------------------------------

 SCF Done:  E(RHF) =  -686.798450034     A.U. after    2 cycles

 The electronic state is 1-A.
 Alpha  occ. eigenvalues --  -99.74237 -15.61214 -15.60611 -11.35470 -11.30906
 Alpha  occ. eigenvalues --  -11.24996 -10.31563  -9.51495  -9.50763  -9.50714
 Alpha  occ. eigenvalues --   -1.28103  -1.15165  -1.12401  -0.96942  -0.76306
 Alpha  occ. eigenvalues --   -0.58226  -0.56689  -0.48999  -0.45463  -0.43784
 Alpha  occ. eigenvalues --   -0.39604  -0.37721  -0.35184  -0.34518  -0.29539
 Alpha  occ. eigenvalues --   -0.28983  -0.23613  -0.11193
 Alpha virt. eigenvalues --    0.14384   0.15607   0.16241   0.17598   0.18331
 Alpha virt. eigenvalues --    0.19670   0.20160   0.21831   0.23270   0.23997
 Alpha virt. eigenvalues --    0.24615   0.25891   0.26421   0.26933   0.27370

 Mulliken charges:
               1
     1  C   -1.091290
     2  C   -2.387699
     3  Cl  -0.154364
     4  H   -0.462835
     5  H    1.386801
     6  N   -2.523275
     7  H    0.560167
     8  H    0.693168
     9  C    2.399196
    10  N   -2.597345
    11  H    1.787601
    12  H    1.389875
 Sum of Mulliken charges =  -1.00000

 Dipole moment (field-independent basis, Debye):
    X=              3.6277    Y=             -5.1554    Z=              1.7249  Tot=              6.5356

 Test job not archived.
 1\1\GINC-SE132\SP\RHF\Aug-CC-pVDZ\C3H6Cl1N2(1-)\OHZDE\09-Apr-2025\0\\#
 t hf aug-cc-pvdz iop(5/13=1,5/36=2,99/5=2) pseudo=read geom=check gues
 s=(read,tcheck) scf=(maxcycle=1)\\title\\-1,1\C,0,-0.14954625,0.006324
 74,-0.39732038\C,0,-0.08781467,-0.02602674,1.10051115\Cl,0,1.51877598,
 -0.06095112,-1.190254\H,0,-2.52746592,0.53399891,1.32121936\H,0,-1.332
 73995,0.17328442,1.35746711\N,0,-0.84348304,1.16327736,-0.91271155\H,0
 ,-0.34902553,1.98475783,-0.57429248\H,0,-1.73774176,1.1523145,-0.40179
 641\C,0,0.40967204,-1.24042947,1.68031579\N,0,0.74036445,-2.25678055,2

 Normal termination of Gaussian 16 at Wed Apr  9 02:42:32 2025.
