 Gaussian 16, Revision C.01,

 ----------------------------------------------------------------------
 #t hf aug-cc-pvdz symm=none int=(grid=ultrafine) guess=(read,tcheck) s
 table=(opt,rrhf)
 ----------------------------------------------------------------------
 -----
 title
 -----
 Symbolic Z-matrix:
 Charge = -1 Multiplicity = 1

 SCF Done:  E(RHF) =  -403.470933907     A.U. after   16 cycles
 Normal termination of Gaussian 16 at Wed Apr  9 02:33:40 2025.
 Gaussian 16:  ES64L-G16RevC.01  3-Jul-2019

 ----------------------------------------------------------------------
 #t hf aug-cc-pvdz iop(5/13=1,5/36=2,99/5=2) pseudo=read geom=check gue
 ss=(read,tcheck) scf=(maxcycle=1)
 ----------------------------------------------------------------------
 -----
 title
 -----
 Structure from the checkpoint file:  "E2SN2_115_mol1.chk"
 Charge = -1 Multiplicity = 1

                         Standard orientation:
 ---------------------------------------------------------------------
 Center     Atomic      Atomic             Coordinates (Angstroms)
 Number     Number       Type             X           Y           Z
 ---------------------------------------------------------------------
      1          6           0       -0.764136   -0.263251   -0.049659
      2          6           0        0.490288    0.490950    0.337811
      3          9           0       -0.856073   -0.383985   -1.464032
      4          1           0       -0.267495    0.979064    2.634561
      5          1           0        0.251147    0.646846    1.606136
      6          6           0       -0.781745   -1.661006    0.525594
      7          1           0        0.073938   -2.234487    0.164943
      8          1           0       -0.736290   -1.592939    1.616361
      9          1           0       -1.711323   -2.150008    0.228784
     10          7           0       -1.969102    0.436040    0.355106
     11          1           0       -2.000243    1.303565   -0.171877
     12          1           0       -1.806433    0.706082    1.331713
     13          6           0        0.530915    1.930027   -0.153774
     14          1           0       -0.106410    2.545100    0.495286
     15          1           0        1.545442    2.330331   -0.079999
     16          1           0        0.199096    2.033480   -1.193077
     17          6           0        1.702064   -0.230101    0.094154
     18          7           0        2.711805   -0.823309   -0.066719
 ---------------------------------------------------------------------

 SCF Done:  E(RHF) =  -405.327865884     A.U. after    2 cycles

 The electronic state is 1-A.
 Alpha  occ. eigenvalues --  -29.10238 -15.60197 -15.59221 -11.38159 -11.31315
 Alpha  occ. eigenvalues --  -11.27582 -11.25643 -11.22757  -1.28613  -1.14916
 Alpha  occ. eigenvalues --   -1.03440  -0.97051  -0.82232  -0.76836  -0.61098
 Alpha  occ. eigenvalues --   -0.54647  -0.50823  -0.47937  -0.45577  -0.42073
 Alpha  occ. eigenvalues --   -0.40658  -0.38354  -0.37957  -0.35519  -0.34245
 Alpha  occ. eigenvalues --   -0.29168  -0.28043  -0.22714  -0.21619  -0.12653
 Alpha  occ. eigenvalues --   -0.11453  -0.07520
 Alpha virt. eigenvalues --    0.13898   0.14176   0.14774   0.15379   0.15760
 Alpha virt. eigenvalues --    0.16577   0.17414   0.17659   0.18866   0.20470
 Alpha virt. eigenvalues --    0.21329   0.21731   0.22940   0.25075   0.25462

 Mulliken charges:
               1
     1  C    4.843928
     2  C   -1.031883
     3  F   -0.074575
     4  H   -0.086543
     5  H    1.039061
     6  C   -4.790102
     7  H    1.161466
     8  H    1.215452
     9  H    1.152892
    10  N   -3.593623
    11  H    0.438923
    12  H    0.600487
    13  C   -4.043319
    14  H    1.303585
    15  H    1.240640
    16  H    1.181690
    17  C    0.993176
    18  N   -2.551256
 Sum of Mulliken charges =  -1.00000

 Dipole moment (field-independent basis, Debye):
    X=             -2.3543    Y=             -0.7591    Z=             -7.9487  Tot=              8.3247

 Test job not archived.
 1\1\GINC-SE252\SP\RHF\Aug-CC-pVDZ\C5H10F1N2(1-)\OHZDE\09-Apr-2025\0\\#
 t hf aug-cc-pvdz iop(5/13=1,5/36=2,99/5=2) pseudo=read geom=check gues
 s=(read,tcheck) scf=(maxcycle=1)\\title\\-1,1\C,0,-0.08267717,-0.01816
 499,-0.40465234\C,0,-0.03216515,-0.04768108,1.10832821\F,0,1.22830117,
 0.09600559,-0.94481985\H,0,-2.42626061,0.47177825,1.40161703\H,0,-1.30
 432244,0.05192248,1.35699678\C,0,-0.69779554,-1.27669057,-0.97270972\H
 ,0,-0.11810777,-2.15317134,-0.67794319\H,0,-1.71775883,-1.37344252,-0.
 58958503\H,0,-0.7228834,-1.19376163,-2.06074833\N,0,-0.80583904,1.1358

 Normal termination of Gaussian 16 at Wed Apr  9 02:33:47 2025.
