 Gaussian 16, Revision C.01,

 ----------------------------------------------------------------------
 #t hf aug-cc-pvdz symm=none int=(grid=ultrafine) guess=(read,tcheck) s
 table=(opt,rrhf)
 ----------------------------------------------------------------------
 -----
 title
 -----
 Symbolic Z-matrix:
 Charge = -1 Multiplicity = 1

 SCF Done:  E(RHF) =  -915.245902446     A.U. after   15 cycles
 Normal termination of Gaussian 16 at Wed Apr  9 02:50:00 2025.
 Gaussian 16:  ES64L-G16RevC.01  3-Jul-2019

 ----------------------------------------------------------------------
 #t hf aug-cc-pvdz iop(5/13=1,5/36=2,99/5=2) pseudo=read geom=check gue
 ss=(read,tcheck) scf=(maxcycle=1)
 ----------------------------------------------------------------------
 -----
 title
 -----
 Structure from the checkpoint file:  "E2SN2_283_mol2.chk"
 Charge = -1 Multiplicity = 1

                         Standard orientation:
 ---------------------------------------------------------------------
 Center     Atomic      Atomic             Coordinates (Angstroms)
 Number     Number       Type             X           Y           Z
 ---------------------------------------------------------------------
      1          6           0        0.684275   -0.721124   -0.396762
      2          6           0        0.443617    0.810913   -0.325492
      3          9           0        1.708867   -0.952078   -1.323327
      4          1           0        0.028312    1.090512   -1.301099
      5          6           0        1.174238   -1.190339    0.913038
      6          7           0        1.557198   -1.549856    1.963499
      7          6           0       -0.545216   -1.478599   -0.840237
      8          1           0       -0.777117   -1.178722   -1.864382
      9          1           0       -1.416651   -1.239189   -0.227959
     10          1           0       -0.345689   -2.551789   -0.816370
     11          6           0        1.749311    1.484833   -0.188126
     12          7           0        2.782249    2.028781   -0.065009
     13          7           0       -0.466468    1.268903    0.691562
     14          1           0       -0.198220    0.921259    1.604817
     15          1           0       -1.424616    0.966052    0.478312
     16         17           0       -3.493766    0.287746    0.054809
 ---------------------------------------------------------------------

 SCF Done:  E(RHF) =  -917.474889210     A.U. after    2 cycles

 The electronic state is 1-A.
 Alpha  occ. eigenvalues --  -99.62429 -29.18741 -15.69134 -15.67070 -15.62889
 Alpha  occ. eigenvalues --  -11.46650 -11.40532 -11.36368 -11.34249 -11.29870
 Alpha  occ. eigenvalues --  -10.19104  -9.39113  -9.38822  -9.38664  -1.33825
 Alpha  occ. eigenvalues --   -1.22652  -1.18238  -1.14401  -0.98378  -0.95001
 Alpha  occ. eigenvalues --   -0.87278  -0.71206  -0.66529  -0.60254  -0.53898
 Alpha  occ. eigenvalues --   -0.50694  -0.48335  -0.47170  -0.44994  -0.42588
 Alpha  occ. eigenvalues --   -0.40788  -0.36940  -0.36206  -0.33674  -0.33556
 Alpha  occ. eigenvalues --   -0.31262  -0.27424  -0.26193  -0.26045  -0.25100
 Alpha  occ. eigenvalues --   -0.18499  -0.16940
 Alpha virt. eigenvalues --    0.12822   0.14118   0.14835   0.16451   0.17269
 Alpha virt. eigenvalues --    0.17714   0.18416   0.19186   0.19404   0.21556
 Alpha virt. eigenvalues --    0.22109   0.22497   0.22910   0.23381   0.23821

 Mulliken charges:
               1
     1  C    3.462288
     2  C   -0.908145
     3  F    0.010224
     4  H    1.786017
     5  C    0.598660
     6  N   -2.387728
     7  C   -4.222991
     8  H    1.255424
     9  H    1.186945
    10  H    1.118762
    11  C    2.236400
    12  N   -2.514157
    13  N   -2.770842
    14  H    0.544543
    15  H    0.560076
    16  Cl  -0.955474
 Sum of Mulliken charges =  -1.00000

 Dipole moment (field-independent basis, Debye):
    X=              9.3665    Y=             -3.0243    Z=             -3.9998  Tot=             10.6243

 Test job not archived.
 1\1\GINC-SE227\SP\RHF\Aug-CC-pVDZ\C5H6Cl1F1N3(1-)\OHZDE\09-Apr-2025\0\
 \#t hf aug-cc-pvdz iop(5/13=1,5/36=2,99/5=2) pseudo=read geom=check gu
 ess=(read,tcheck) scf=(maxcycle=1)\\title\\-1,1\C,0,0.04144,0.017868,-
 0.032553\C,0,-0.455147,-0.020867,-1.502938\F,0,1.369397,-0.427004,-0.0
 16075\H,0,-0.495894,-1.082825,-1.773209\C,0,0.050266,1.417441,0.433192
 \N,0,0.045545,2.535853,0.791678\C,0,-0.775017,-0.870862,0.876097\H,0,-
 0.633984,-1.905052,0.554945\H,0,-1.842818,-0.654218,0.80926\H,0,-0.427
 96,-0.763716,1.905751\C,0,0.563622,0.617285,-2.358945\N,0,1.362159,1.1

 Normal termination of Gaussian 16 at Wed Apr  9 02:50:08 2025.
