 Gaussian 16, Revision C.01,

 ----------------------------------------------------------------------
 #t hf aug-cc-pvdz symm=none int=(grid=ultrafine) guess=(read,tcheck) s
 table=(opt,rrhf)
 ----------------------------------------------------------------------
 -----
 title
 -----
 Symbolic Z-matrix:
 Charge = -1 Multiplicity = 1

 SCF Done:  E(RHF) =  -1000.70617761     A.U. after   17 cycles
 Normal termination of Gaussian 16 at Wed Apr  9 02:41:25 2025.
 Gaussian 16:  ES64L-G16RevC.01  3-Jul-2019

 ----------------------------------------------------------------------
 #t hf aug-cc-pvdz iop(5/13=1,5/36=2,99/5=2) pseudo=read geom=check gue
 ss=(read,tcheck) scf=(maxcycle=1)
 ----------------------------------------------------------------------
 -----
 title
 -----
 Structure from the checkpoint file:  "E2SN2_1_mol1.chk"
 Charge = -1 Multiplicity = 1

                         Standard orientation:
 ---------------------------------------------------------------------
 Center     Atomic      Atomic             Coordinates (Angstroms)
 Number     Number       Type             X           Y           Z
 ---------------------------------------------------------------------
      1          6           0        0.558250    0.418398    0.559302
      2          6           0       -0.933935    0.230597    0.594905
      3         17           0        1.144335    1.649900   -0.579298
      4          1           0       -1.235077    0.079390    3.014862
      5          1           0       -1.111072   -0.303760    1.636277
      6          1           0        0.812999    0.752111    1.571637
      7          7           0        1.327493   -0.879425    0.381391
      8          8           0        2.335724   -0.901462   -0.310386
      9          8           0        0.890039   -1.811708    1.044539
     10          7           0       -1.684325    1.417854    0.785154
     11          1           0       -1.210431    2.239579    0.436523
     12          1           0       -1.819932    1.469880    1.805240
     13          7           0       -1.430336   -0.560779   -0.549735
     14          8           0       -2.638987   -0.780833   -0.607644
     15          8           0       -0.602514   -1.008875   -1.358933
 ---------------------------------------------------------------------

 SCF Done:  E(RHF) =  -1003.31420278     A.U. after    2 cycles

 The electronic state is 1-A.
 Alpha  occ. eigenvalues --  -99.79848 -20.98864 -20.98381 -20.96409 -20.96012
 Alpha  occ. eigenvalues --  -15.88795 -15.85721 -15.61889 -11.42438 -11.32977
 Alpha  occ. eigenvalues --  -10.37273  -9.57339  -9.56488  -9.56346  -1.88531
 Alpha  occ. eigenvalues --   -1.85409  -1.58412  -1.55516  -1.30538  -1.21826
 Alpha  occ. eigenvalues --   -1.05930  -0.97131  -0.79180  -0.68911  -0.64849
 Alpha  occ. eigenvalues --   -0.61824  -0.57932  -0.55555  -0.53409  -0.50223
 Alpha  occ. eigenvalues --   -0.49291  -0.47140  -0.44635  -0.41528  -0.39673
 Alpha  occ. eigenvalues --   -0.37441  -0.29348  -0.24217  -0.22310  -0.21178
 Alpha  occ. eigenvalues --   -0.19808  -0.18312  -0.17547  -0.13168
 Alpha virt. eigenvalues --    0.13637   0.15079   0.15690   0.18109   0.19324
 Alpha virt. eigenvalues --    0.19664   0.22362   0.22842   0.23546   0.24102
 Alpha virt. eigenvalues --    0.25044   0.25678   0.25879   0.26243   0.26311

 Mulliken charges:
               1
     1  C   -1.492165
     2  C    2.484741
     3  Cl   0.058218
     4  H   -0.786930
     5  H    1.819569
     6  H    1.763573
     7  N    4.907975
     8  O   -3.019934
     9  O   -2.945326
    10  N   -2.584778
    11  H    0.530659
    12  H    0.467633
    13  N    3.303509
    14  O   -2.803427
    15  O   -2.703316
 Sum of Mulliken charges =  -1.00000

 Dipole moment (field-independent basis, Debye):
    X=              3.8503    Y=              0.9771    Z=             -6.4698  Tot=              7.5919

 Test job not archived.
 1\1\GINC-SE252\SP\RHF\Aug-CC-pVDZ\C2H5Cl1N3O4(1-)\OHZDE\09-Apr-2025\0\
 \#t hf aug-cc-pvdz iop(5/13=1,5/36=2,99/5=2) pseudo=read geom=check gu
 ess=(read,tcheck) scf=(maxcycle=1)\\title\\-1,1\C,0,-0.18742704,0.1094
 7986,-0.29813864\C,0,-0.11799772,0.12036689,1.2045976\Cl,0,1.34667056,
 -0.22515052,-1.12944272\H,0,-2.16326765,-1.12757931,1.6833926\H,0,-1.2
 4720217,-0.0328263,1.52522419\H,0,-0.87823441,-0.7088455,-0.5309742\N,
 0,-0.85035258,1.34519197,-0.88232708\O,0,-0.42551714,1.83278566,-1.920
 27604\O,0,-1.84795308,1.70975989,-0.27227246\N,0,0.47197853,-1.0292784

 Normal termination of Gaussian 16 at Wed Apr  9 02:41:32 2025.
