 Gaussian 16, Revision C.01,

 ----------------------------------------------------------------------
 #t hf aug-cc-pvdz symm=none int=(grid=ultrafine) guess=(read,tcheck) s
 table=(opt,rrhf)
 ----------------------------------------------------------------------
 -----
 title
 -----
 Symbolic Z-matrix:
 Charge = -1 Multiplicity = 1

 SCF Done:  E(RHF) =  -987.976300877     A.U. after   16 cycles
 Normal termination of Gaussian 16 at Wed Apr  9 02:57:33 2025.
 Gaussian 16:  ES64L-G16RevC.01  3-Jul-2019

 ----------------------------------------------------------------------
 #t hf aug-cc-pvdz iop(5/13=1,5/36=2,99/5=2) pseudo=read geom=check gue
 ss=(read,tcheck) scf=(maxcycle=1)
 ----------------------------------------------------------------------
 -----
 title
 -----
 Structure from the checkpoint file:  "E2SN2_375_mol2.chk"
 Charge = -1 Multiplicity = 1

                         Standard orientation:
 ---------------------------------------------------------------------
 Center     Atomic      Atomic             Coordinates (Angstroms)
 Number     Number       Type             X           Y           Z
 ---------------------------------------------------------------------
      1          6           0       -0.126956   -0.373477    0.465516
      2          6           0       -0.031895    0.930261   -0.330006
      3          9           0       -0.540907   -0.119535    1.739358
      4          1           0        0.364468    0.658736   -1.310985
      5          1           0        0.849706   -0.866340    0.461627
      6          7           0       -1.127673   -1.298952   -0.171995
      7          8           0       -2.040763   -1.747352    0.511017
      8          8           0       -0.927596   -1.532705   -1.361385
      9          7           0        0.862110    1.902744    0.267722
     10          1           0        1.798628    1.497155    0.196958
     11          1           0        0.634977    1.994622    1.251607
     12          6           0       -1.377566    1.507332   -0.496530
     13          7           0       -2.455905    1.957686   -0.607694
     14         17           0        3.131532   -0.369585   -0.217682
 ---------------------------------------------------------------------

 SCF Done:  E(RHF) =  -990.435910428     A.U. after    2 cycles

 The electronic state is 1-A.
 Alpha  occ. eigenvalues --  -99.63307 -29.19578 -21.00888 -21.00316 -15.89936
 Alpha  occ. eigenvalues --  -15.67152 -15.63529 -11.45201 -11.38675 -11.33532
 Alpha  occ. eigenvalues --  -10.20000  -9.40030  -9.39749  -9.39570  -1.90094
 Alpha  occ. eigenvalues --   -1.60205  -1.31696  -1.18576  -1.15404  -0.99267
 Alpha  occ. eigenvalues --   -0.92340  -0.83506  -0.69940  -0.63098  -0.62292
 Alpha  occ. eigenvalues --   -0.58620  -0.52149  -0.50009  -0.49458  -0.46895
 Alpha  occ. eigenvalues --   -0.41224  -0.35308  -0.34033  -0.33715  -0.28384
 Alpha  occ. eigenvalues --   -0.27894  -0.27185  -0.26335  -0.25724  -0.23449
 Alpha  occ. eigenvalues --   -0.22793  -0.17429  -0.17025
 Alpha virt. eigenvalues --    0.14539   0.15510   0.16642   0.17860   0.18774
 Alpha virt. eigenvalues --    0.20912   0.21475   0.21727   0.22446   0.23531
 Alpha virt. eigenvalues --    0.24914   0.24989   0.25760   0.26146   0.27073

 Mulliken charges:
               1
     1  C    0.430463
     2  C   -0.592801
     3  F    0.359136
     4  H    1.956573
     5  H    1.472582
     6  N    3.827936
     7  O   -2.658572
     8  O   -2.935479
     9  N   -2.553758
    10  H    0.488822
    11  H    0.564246
    12  C    2.071351
    13  N   -2.445486
    14  Cl  -0.985012
 Sum of Mulliken charges =  -1.00000

 Dipole moment (field-independent basis, Debye):
    X=             -7.1767    Y=              0.4288    Z=              4.0468  Tot=              8.2502

 Test job not archived.
 1\1\GINC-SE106\SP\RHF\Aug-CC-pVDZ\C3H4Cl1F1N3O2(1-)\OHZDE\09-Apr-2025\
 0\\#t hf aug-cc-pvdz iop(5/13=1,5/36=2,99/5=2) pseudo=read geom=check
 guess=(read,tcheck) scf=(maxcycle=1)\\title\\-1,1\C,0,-0.329396,0.0744
 75,0.071171\C,0,-0.592232,0.049834,-1.436123\F,0,0.712273,-0.748314,0.
 381749\H,0,-1.472816,0.67485,-1.600672\H,0,-1.239154,-0.229151,0.59743
 \N,0,0.031409,1.467061,0.512627\O,0,1.072849,1.641699,1.134082\O,0,-0.
 783421,2.332581,0.202393\N,0,-0.875297,-1.277189,-1.947134\H,0,-1.7703
 75,-1.547857,-1.532225\H,0,-0.166629,-1.917156,-1.606115\C,0,0.556227,

 Normal termination of Gaussian 16 at Wed Apr  9 02:57:40 2025.
