 Gaussian 16, Revision C.01,

 ----------------------------------------------------------------------
 #t hf aug-cc-pvdz symm=none int=(grid=ultrafine) guess=(read,tcheck) s
 table=(opt,rrhf)
 ----------------------------------------------------------------------
 -----
 title
 -----
 Symbolic Z-matrix:
 Charge = -1 Multiplicity = 1

 SCF Done:  E(RHF) =  -816.219925082     A.U. after   16 cycles
 Normal termination of Gaussian 16 at Wed Apr  9 03:02:32 2025.
 Gaussian 16:  ES64L-G16RevC.01  3-Jul-2019

 ----------------------------------------------------------------------
 #t hf aug-cc-pvdz iop(5/13=1,5/36=2,99/5=2) pseudo=read geom=check gue
 ss=(read,tcheck) scf=(maxcycle=1)
 ----------------------------------------------------------------------
 -----
 title
 -----
 Structure from the checkpoint file:  "E2SN2_94_mol1.chk"
 Charge = -1 Multiplicity = 1

                         Standard orientation:
 ---------------------------------------------------------------------
 Center     Atomic      Atomic             Coordinates (Angstroms)
 Number     Number       Type             X           Y           Z
 ---------------------------------------------------------------------
      1          6           0        0.418778   -0.186408    0.367489
      2          6           0       -0.644109    0.860122    0.074025
      3         17           0        0.406407   -1.536996   -0.894455
      4          1           0       -0.132937    1.902763    2.374095
      5          1           0       -0.502376    1.514979    1.088021
      6          6           0        1.753481    0.425372    0.249325
      7          7           0        2.816412    0.909273    0.123464
      8          7           0        0.296262   -0.774584    1.674206
      9          1           0       -0.613101   -1.229176    1.713367
     10          1           0        0.236814    0.056637    2.297533
     11          6           0       -0.439486    1.704043   -1.173106
     12          1           0        0.495541    2.263535   -1.087909
     13          1           0       -0.406015    1.097351   -2.083745
     14          1           0       -1.253544    2.427309   -1.266312
     15          6           0       -1.957522    0.266872    0.144995
     16          7           0       -3.044126   -0.181042    0.230089
 ---------------------------------------------------------------------

 SCF Done:  E(RHF) =  -818.159197033     A.U. after    2 cycles

 The electronic state is 1-A.
 Alpha  occ. eigenvalues --  -99.77570 -15.65725 -15.63953 -15.62449 -11.44182
 Alpha  occ. eigenvalues --  -11.34897 -11.33852 -11.30653 -11.27671 -10.34905
 Alpha  occ. eigenvalues --   -9.54922  -9.54197  -9.54135  -1.34694  -1.18414
 Alpha  occ. eigenvalues --   -1.17337  -1.15839  -1.06606  -0.89639  -0.83071
 Alpha  occ. eigenvalues --   -0.63917  -0.59569  -0.54576  -0.51856  -0.47762
 Alpha  occ. eigenvalues --   -0.45850  -0.44534  -0.42987  -0.41086  -0.38510
 Alpha  occ. eigenvalues --   -0.38192  -0.36734  -0.33580  -0.32201  -0.30626
 Alpha  occ. eigenvalues --   -0.30256  -0.25700  -0.12240
 Alpha virt. eigenvalues --    0.13298   0.14449   0.15372   0.15901   0.16468
 Alpha virt. eigenvalues --    0.18041   0.18511   0.19374   0.19933   0.20378
 Alpha virt. eigenvalues --    0.22174   0.22277   0.23170   0.23826   0.24922

 Mulliken charges:
               1
     1  C    3.170088
     2  C   -0.879277
     3  Cl  -0.194051
     4  H   -0.687338
     5  H    1.870361
     6  C    1.962001
     7  N   -2.655192
     8  N   -3.534521
     9  H    0.632584
    10  H    0.649226
    11  C   -4.257263
    12  H    1.142308
    13  H    1.209342
    14  H    1.198934
    15  C    2.088301
    16  N   -2.715504
 Sum of Mulliken charges =  -1.00000

 Dipole moment (field-independent basis, Debye):
    X=              0.1424    Y=             -3.4955    Z=             -5.9221  Tot=              6.8783

 Test job not archived.
 1\1\GINC-SE462\SP\RHF\Aug-CC-pVDZ\C5H7Cl1N3(1-)\OHZDE\09-Apr-2025\0\\#
 t hf aug-cc-pvdz iop(5/13=1,5/36=2,99/5=2) pseudo=read geom=check gues
 s=(read,tcheck) scf=(maxcycle=1)\\title\\-1,1\C,0,-0.03350599,0.089779
 22,-0.34639364\C,0,-0.15492192,0.00616949,1.16666354\Cl,0,1.7282876,0.
 27038801,-0.87574275\H,0,-2.70894474,0.20189045,0.88849427\H,0,-1.3685
 2384,0.03071897,1.22734308\C,0,-0.47635454,-1.1817356,-0.94372466\N,0,
 -0.80071949,-2.2080932,-1.41404311\N,0,-0.80077629,1.16091007,-0.92297
 487\H,0,-0.44477074,2.02905895,-0.52964877\H,0,-1.74547914,1.01677135,

 Normal termination of Gaussian 16 at Wed Apr  9 03:02:40 2025.
