 Gaussian 16, Revision C.01,

 ----------------------------------------------------------------------
 #t hf aug-cc-pvdz symm=none int=(grid=ultrafine) guess=(read,tcheck) s
 table=(opt,rrhf)
 ----------------------------------------------------------------------
 -----
 title
 -----
 Symbolic Z-matrix:
 Charge = -1 Multiplicity = 1

 SCF Done:  E(RHF) =  -575.175199110     A.U. after   16 cycles
 Normal termination of Gaussian 16 at Wed Apr  9 02:41:20 2025.
 Gaussian 16:  ES64L-G16RevC.01  3-Jul-2019

 ----------------------------------------------------------------------
 #t hf aug-cc-pvdz iop(5/13=1,5/36=2,99/5=2) pseudo=read geom=check gue
 ss=(read,tcheck) scf=(maxcycle=1)
 ----------------------------------------------------------------------
 -----
 title
 -----
 Structure from the checkpoint file:  "E2SN2_197_mol2.chk"
 Charge = -1 Multiplicity = 1

                         Standard orientation:
 ---------------------------------------------------------------------
 Center     Atomic      Atomic             Coordinates (Angstroms)
 Number     Number       Type             X           Y           Z
 ---------------------------------------------------------------------
      1          6           0        0.502580    0.843730    0.229245
      2          6           0       -0.248192   -0.291904   -0.474201
      3          9           0       -0.400268    1.937533    0.247205
      4          1           0       -0.346643   -0.031412   -1.530882
      5          1           0        0.693745    0.569443    1.268820
      6          7           0        1.713807    1.200898   -0.385585
      7          1           0        2.436858    0.455562   -0.113934
      8          1           0        1.602774    1.195770   -1.394142
      9          7           0       -1.663499   -0.347724    0.015124
     10          8           0       -1.842211   -0.541534    1.216641
     11          8           0       -2.569128   -0.199778   -0.808093
     12          6           0        0.426349   -1.635328   -0.263620
     13          1           0        0.210040   -1.984569    0.748571
     14          1           0        1.520650   -1.509937   -0.317046
     15          1           0        0.055177   -2.371422   -0.982784
     16          9           0        3.142660   -0.811327    0.274762
 ---------------------------------------------------------------------

 SCF Done:  E(RHF) =  -577.555096757     A.U. after    2 cycles

 The electronic state is 1-A.
 Alpha  occ. eigenvalues --  -29.11152 -28.91213 -20.97555 -20.97192 -15.86399
 Alpha  occ. eigenvalues --  -15.56442 -11.38397 -11.32571 -11.24680  -1.86604
 Alpha  occ. eigenvalues --   -1.56521  -1.26243  -1.10203  -0.91213  -0.86798
 Alpha  occ. eigenvalues --   -0.70720  -0.61751  -0.58394  -0.56671  -0.53397
 Alpha  occ. eigenvalues --   -0.47577  -0.46454  -0.44271  -0.40801  -0.40145
 Alpha  occ. eigenvalues --   -0.37519  -0.27790  -0.26417  -0.22375  -0.19857
 Alpha  occ. eigenvalues --   -0.19661  -0.18252  -0.12226  -0.11771  -0.00275
 Alpha  occ. eigenvalues --    0.00915   0.02684
 Alpha virt. eigenvalues --    0.13613   0.14520   0.15761   0.16285   0.17111
 Alpha virt. eigenvalues --    0.18872   0.20986   0.21609   0.23658   0.24048
 Alpha virt. eigenvalues --    0.25005   0.25795   0.26189   0.26456   0.26773

 Mulliken charges:
               1
     1  C    0.154621
     2  C   -1.442966
     3  F    0.226698
     4  H    1.802169
     5  H    1.696721
     6  N   -2.655934
     7  H    0.268178
     8  H    0.304028
     9  N    4.478805
    10  O   -2.989366
    11  O   -2.767950
    12  C   -3.208112
    13  H    1.259543
    14  H    1.052598
    15  H    1.130878
    16  F   -0.309911
 Sum of Mulliken charges =  -1.00000

 Dipole moment (field-independent basis, Debye):
    X=             -6.9310    Y=              1.7153    Z=             -0.8621  Tot=              7.1920

 Test job not archived.
 1\1\GINC-SE424\SP\RHF\Aug-CC-pVDZ\C3H7F2N2O2(1-)\OHZDE\09-Apr-2025\0\\
 #t hf aug-cc-pvdz iop(5/13=1,5/36=2,99/5=2) pseudo=read geom=check gue
 ss=(read,tcheck) scf=(maxcycle=1)\\title\\-1,1\C,0,-0.017608,0.036349,
 -0.089381\C,0,-0.128421,-0.003843,-1.617211\F,0,1.372625,-0.006847,0.1
 88556\H,0,0.163006,-1.001939,-1.953365\H,0,-0.38841,0.994372,0.281014\
 N,0,-0.694299,-1.006193,0.564722\H,0,-1.738094,-0.756005,0.560218\H,0,
 -0.564397,-1.874097,0.055397\N,0,0.903051,0.895837,-2.227365\O,0,0.860
 67,2.089781,-1.934373\O,0,1.733567,0.395205,-2.988515\C,0,-1.512371,0.

 Normal termination of Gaussian 16 at Wed Apr  9 02:41:26 2025.
