 Gaussian 16, Revision C.01,

 ----------------------------------------------------------------------
 #t hf aug-cc-pvdz symm=none int=(grid=ultrafine) guess=(read,tcheck) s
 table=(opt,rrhf)
 ----------------------------------------------------------------------
 -----
 title
 -----
 Symbolic Z-matrix:
 Charge = -1 Multiplicity = 1

 SCF Done:  E(RHF) =  -915.207677721     A.U. after   16 cycles
 Normal termination of Gaussian 16 at Wed Apr  9 02:48:44 2025.
 Gaussian 16:  ES64L-G16RevC.01  3-Jul-2019

 ----------------------------------------------------------------------
 #t hf aug-cc-pvdz iop(5/13=1,5/36=2,99/5=2) pseudo=read geom=check gue
 ss=(read,tcheck) scf=(maxcycle=1)
 ----------------------------------------------------------------------
 -----
 title
 -----
 Structure from the checkpoint file:  "E2SN2_274_mol2.chk"
 Charge = -1 Multiplicity = 1

                         Standard orientation:
 ---------------------------------------------------------------------
 Center     Atomic      Atomic             Coordinates (Angstroms)
 Number     Number       Type             X           Y           Z
 ---------------------------------------------------------------------
      1          6           0       -0.851569    0.226383    0.213176
      2          6           0       -0.736473   -0.599645   -1.124119
      3          9           0       -2.236783    0.287033    0.498039
      4          1           0       -1.725681   -0.422406   -1.564240
      5          6           0       -0.265632   -0.383831    1.415308
      6          7           0       -0.132003   -0.926682    2.450604
      7          6           0       -0.426307    1.617786    0.011822
      8          7           0       -0.273142    2.760080   -0.215559
      9          6           0       -0.575041   -2.077036   -0.804017
     10          1           0        0.419901   -2.247868   -0.387616
     11          1           0       -1.325242   -2.415820   -0.084650
     12          1           0       -0.676701   -2.647863   -1.728605
     13          7           0        0.253654   -0.185175   -2.087716
     14          1           0        0.072235    0.768758   -2.380354
     15          1           0        1.165367   -0.184008   -1.625578
     16         17           0        2.375984    0.019200    0.234374
 ---------------------------------------------------------------------

 SCF Done:  E(RHF) =  -917.446875120     A.U. after    2 cycles

 The electronic state is 1-A.
 Alpha  occ. eigenvalues --  -99.61917 -29.17942 -15.66926 -15.65327 -15.60700
 Alpha  occ. eigenvalues --  -11.49548 -11.36764 -11.35184 -11.33806 -11.26878
 Alpha  occ. eigenvalues --  -10.18713  -9.38724  -9.38534  -9.38328  -1.31267
 Alpha  occ. eigenvalues --   -1.20374  -1.18069  -1.09766  -0.98540  -0.97146
 Alpha  occ. eigenvalues --   -0.78662  -0.70511  -0.68191  -0.57805  -0.55492
 Alpha  occ. eigenvalues --   -0.46944  -0.44638  -0.42887  -0.41834  -0.39150
 Alpha  occ. eigenvalues --   -0.37676  -0.35622  -0.35234  -0.32756  -0.32333
 Alpha  occ. eigenvalues --   -0.30279  -0.26191  -0.25855  -0.24758  -0.23826
 Alpha  occ. eigenvalues --   -0.17748  -0.15550
 Alpha virt. eigenvalues --    0.12737   0.13678   0.14474   0.15244   0.17023
 Alpha virt. eigenvalues --    0.18239   0.19208   0.19695   0.20830   0.22721
 Alpha virt. eigenvalues --    0.22843   0.23662   0.24105   0.24558   0.24916

 Mulliken charges:
               1
     1  C    2.438436
     2  C    0.763902
     3  F   -0.087029
     4  H    1.362320
     5  C    2.329886
     6  N   -2.934528
     7  C    1.636843
     8  N   -2.758629
     9  C   -4.173515
    10  H    1.315558
    11  H    1.167281
    12  H    1.002311
    13  N   -2.995027
    14  H    0.449811
    15  H    0.464928
    16  Cl  -0.982545
 Sum of Mulliken charges =  -1.00000

 Dipole moment (field-independent basis, Debye):
    X=             -9.8682    Y=             -1.4153    Z=             -2.3716  Tot=             10.2474

 Test job not archived.
 1\1\GINC-SE460\SP\RHF\Aug-CC-pVDZ\C5H6Cl1F1N3(1-)\OHZDE\09-Apr-2025\0\
 \#t hf aug-cc-pvdz iop(5/13=1,5/36=2,99/5=2) pseudo=read geom=check gu
 ess=(read,tcheck) scf=(maxcycle=1)\\title\\-1,1\C,0,-0.1248,0.005946,-
 0.000164\C,0,-0.450072,0.191137,-1.531121\F,0,1.278571,0.157557,0.1057
 02\H,0,0.509145,-0.089973,-1.983374\C,0,-0.664326,1.022616,0.91422\N,0
 ,-0.763681,1.93748,1.647388\C,0,-0.40998,-1.366914,0.437237\N,0,-0.455
 711,-2.507374,0.715191\C,0,-0.744455,1.654137,-1.821258\H,0,-1.710768,
 1.919196,-1.387133\H,0,0.025216,2.308562,-1.403646\H,0,-0.789924,1.793

 Normal termination of Gaussian 16 at Wed Apr  9 02:48:52 2025.
