 Gaussian 16, Revision C.01,

 ----------------------------------------------------------------------
 #t hf aug-cc-pvdz symm=none int=(grid=ultrafine) guess=(read,tcheck) s
 table=(opt,rrhf)
 ----------------------------------------------------------------------
 -----
 title
 -----
 Symbolic Z-matrix:
 Charge = -1 Multiplicity = 1

 SCF Done:  E(RHF) =  -740.479285469     A.U. after   15 cycles
 Normal termination of Gaussian 16 at Wed Apr  9 03:01:45 2025.
 Gaussian 16:  ES64L-G16RevC.01  3-Jul-2019

 ----------------------------------------------------------------------
 #t hf aug-cc-pvdz iop(5/13=1,5/36=2,99/5=2) pseudo=read geom=check gue
 ss=(read,tcheck) scf=(maxcycle=1)
 ----------------------------------------------------------------------
 -----
 title
 -----
 Structure from the checkpoint file:  "E2SN2_82_mol2.chk"
 Charge = -1 Multiplicity = 1

                         Standard orientation:
 ---------------------------------------------------------------------
 Center     Atomic      Atomic             Coordinates (Angstroms)
 Number     Number       Type             X           Y           Z
 ---------------------------------------------------------------------
      1          6           0       -0.206558   -0.173011    0.203160
      2          6           0        0.923818   -0.818049   -0.638138
      3         17           0       -0.206866    1.653454   -0.117282
      4          1           0        0.919274   -0.372394   -1.638858
      5          1           0        0.649628   -1.877674   -0.722873
      6          6           0       -1.532302   -0.623732   -0.232020
      7          7           0       -2.579920   -1.021282   -0.585737
      8          7           0        0.013948   -0.484733    1.563914
      9          1           0        1.019535   -0.337575    1.691833
     10          1           0       -0.532445    0.104461    2.178555
     11          7           0        2.191662   -0.598660    0.012839
     12          1           0        2.821112   -0.098252   -0.714791
     13          1           0        2.635604   -1.494643    0.180297
     14          1           0        3.514433    0.388840   -1.915495
 ---------------------------------------------------------------------

 SCF Done:  E(RHF) =  -742.072514630     A.U. after    2 cycles

 The electronic state is 1-A.
 Alpha  occ. eigenvalues --  -99.76629 -15.66851 -15.64680 -15.56811 -11.41827
 Alpha  occ. eigenvalues --  -11.34635 -11.29387 -10.33957  -9.53933  -9.53235
 Alpha  occ. eigenvalues --   -9.53121  -1.35246  -1.18705  -1.16819  -1.15546
 Alpha  occ. eigenvalues --   -0.94159  -0.78624  -0.63871  -0.59350  -0.54248
 Alpha  occ. eigenvalues --   -0.50601  -0.46020  -0.44511  -0.42761  -0.39761
 Alpha  occ. eigenvalues --   -0.37083  -0.35844  -0.33196  -0.31910  -0.28810
 Alpha  occ. eigenvalues --   -0.22929  -0.09956
 Alpha virt. eigenvalues --    0.12711   0.14514   0.15204   0.16729   0.17219
 Alpha virt. eigenvalues --    0.17809   0.18964   0.20425   0.20898   0.21902
 Alpha virt. eigenvalues --    0.22614   0.23016   0.24064   0.25265   0.25514

 Mulliken charges:
               1
     1  C    1.517470
     2  C   -1.639803
     3  Cl  -0.036540
     4  H    1.514960
     5  H    1.263130
     6  C    2.538504
     7  N   -2.558967
     8  N   -3.025573
     9  H    0.646383
    10  H    0.647709
    11  N   -2.091502
    12  H    0.654991
    13  H    0.491406
    14  H   -0.922169
 Sum of Mulliken charges =  -1.00000

 Dipole moment (field-independent basis, Debye):
    X=             -9.1524    Y=             -2.4233    Z=              8.0317  Tot=             12.4156

 Test job not archived.
 1\1\GINC-SE113\SP\RHF\Aug-CC-pVDZ\C3H7Cl1N3(1-)\OHZDE\09-Apr-2025\0\\#
 t hf aug-cc-pvdz iop(5/13=1,5/36=2,99/5=2) pseudo=read geom=check gues
 s=(read,tcheck) scf=(maxcycle=1)\\title\\-1,1\C,0,-0.661736,-0.123006,
 -1.519753\C,0,0.117898,-0.189996,-0.18211\Cl,0,0.227382,1.038732,-2.65
 9267\H,0,1.190129,-0.246918,-0.399252\H,0,-0.197237,-1.131165,0.286991
 \C,0,-0.64778,-1.410367,-2.221631\N,0,-0.641036,-2.46024,-2.749256\N,0
 ,-1.984959,0.291833,-1.246924\H,0,-1.871025,1.057939,-0.576607\H,0,-2.
 464936,0.594619,-2.084433\N,0,-0.181923,0.978848,0.607347\H,0,0.771235

 Normal termination of Gaussian 16 at Wed Apr  9 03:01:50 2025.
