 Gaussian 16, Revision C.01,

 ----------------------------------------------------------------------
 #t hf aug-cc-pvdz symm=none int=(grid=ultrafine) guess=(read,tcheck) s
 table=(opt,rrhf)
 ----------------------------------------------------------------------
 -----
 title
 -----
 Symbolic Z-matrix:
 Charge = -1 Multiplicity = 1

 SCF Done:  E(RHF) =  -630.157695748     A.U. after   16 cycles
 Normal termination of Gaussian 16 at Wed Apr  9 03:00:07 2025.
 Gaussian 16:  ES64L-G16RevC.01  3-Jul-2019

 ----------------------------------------------------------------------
 #t hf aug-cc-pvdz iop(5/13=1,5/36=2,99/5=2) pseudo=read geom=check gue
 ss=(read,tcheck) scf=(maxcycle=1)
 ----------------------------------------------------------------------
 -----
 title
 -----
 Structure from the checkpoint file:  "E2SN2_411_mol1.chk"
 Charge = -1 Multiplicity = 1

                         Standard orientation:
 ---------------------------------------------------------------------
 Center     Atomic      Atomic             Coordinates (Angstroms)
 Number     Number       Type             X           Y           Z
 ---------------------------------------------------------------------
      1          6           0       -0.919295   -0.231273    0.070055
      2          1           0        0.152976    0.591250   -1.545278
      3          9           0        0.126693   -1.107617    1.295092
      4          9           0       -1.978961    0.644705   -1.070620
      5          6           0        0.265836    0.589632   -0.464074
      6          7           0       -1.683159    0.296389    1.173251
      7          1           0       -1.593842   -0.366509    1.928412
      8          1           0       -2.635275    0.400022    0.855613
      9          7           0       -1.186032   -1.474615   -0.597769
     10          1           0       -2.140420   -1.439710   -0.925137
     11          1           0       -1.036299   -2.204827    0.082537
     12          7           0        1.602080   -0.078855   -0.262588
     13          8           0        2.376984    0.371636    0.578555
     14          8           0        1.875152   -1.005153   -1.022396
     15          6           0        0.300771    1.988876    0.100545
     16          1           0       -0.652296    2.455659   -0.138631
     17          1           0        0.422327    1.950906    1.180444
     18          1           0        1.122057    2.563717   -0.336892
 ---------------------------------------------------------------------

 SCF Done:  E(RHF) =  -632.817824770     A.U. after    2 cycles

 The electronic state is 1-A.
 Alpha  occ. eigenvalues --  -28.97173 -28.95135 -20.92944 -20.92786 -15.82485
 Alpha  occ. eigenvalues --  -15.58737 -15.58405 -11.49289 -11.32511 -11.23725
 Alpha  occ. eigenvalues --   -1.82534  -1.52410  -1.29567  -1.12445  -1.09080
 Alpha  occ. eigenvalues --   -0.87275  -0.80158  -0.68050  -0.62725  -0.54344
 Alpha  occ. eigenvalues --   -0.53108  -0.51439  -0.50144  -0.45205  -0.44197
 Alpha  occ. eigenvalues --   -0.40073  -0.37546  -0.36808  -0.34341  -0.32510
 Alpha  occ. eigenvalues --   -0.25831  -0.20298  -0.19156  -0.15890  -0.14696
 Alpha  occ. eigenvalues --   -0.13007  -0.04223  -0.04077  -0.01834  -0.01600
 Alpha  occ. eigenvalues --    0.02182
 Alpha virt. eigenvalues --    0.13793   0.14370   0.14632   0.15605   0.16483
 Alpha virt. eigenvalues --    0.16559   0.17015   0.18455   0.23036   0.23718
 Alpha virt. eigenvalues --    0.25024   0.25831   0.27070   0.27249   0.28105

 Mulliken charges:
               1
     1  C    5.742973
     2  H    2.168264
     3  F   -0.748953
     4  F   -0.474367
     5  C   -1.412733
     6  N   -3.586605
     7  H    0.446149
     8  H    0.470562
     9  N   -3.791460
    10  H    0.471553
    11  H    0.423207
    12  N    4.640133
    13  O   -2.910221
    14  O   -3.093325
    15  C   -2.965872
    16  H    1.177948
    17  H    1.313834
    18  H    1.128914
 Sum of Mulliken charges =  -1.00000

 Dipole moment (field-independent basis, Debye):
    X=             -0.8839    Y=              0.4315    Z=              0.4672  Tot=              1.0889

 Test job not archived.
 1\1\GINC-SE059\SP\RHF\Aug-CC-pVDZ\C3H8F2N3O2(1-)\OHZDE\09-Apr-2025\0\\
 #t hf aug-cc-pvdz iop(5/13=1,5/36=2,99/5=2) pseudo=read geom=check gue
 ss=(read,tcheck) scf=(maxcycle=1)\\title\\-1,1\C,0,0.57765826,-0.10449
 223,0.02045442\H,0,1.62818369,1.64661741,0.53583717\F,0,-1.15815439,-0
 .13810358,0.61088758\F,0,2.24808212,-0.10541012,-0.61283161\C,0,0.6540
 7752,1.42869953,0.10529141\N,0,0.11979121,-0.705992,-1.20735329\H,0,-0
 .71414136,-1.22599478,-0.97968521\H,0,0.8652867,-1.29408395,-1.5487374
 2\N,0,0.99344029,-0.82910847,1.18882738\H,0,1.73286204,-1.455259,0.905

 Normal termination of Gaussian 16 at Wed Apr  9 03:00:16 2025.
