 Gaussian 16, Revision C.01,

 ----------------------------------------------------------------------
 #t hf aug-cc-pvdz symm=none int=(grid=ultrafine) guess=(read,tcheck) s
 table=(opt,rrhf)
 ----------------------------------------------------------------------
 -----
 title
 -----
 Symbolic Z-matrix:
 Charge = -1 Multiplicity = 1

 SCF Done:  E(RHF) =  -839.465412269     A.U. after   15 cycles
 Normal termination of Gaussian 16 at Wed Apr  9 02:56:04 2025.
 Gaussian 16:  ES64L-G16RevC.01  3-Jul-2019

 ----------------------------------------------------------------------
 #t hf aug-cc-pvdz iop(5/13=1,5/36=2,99/5=2) pseudo=read geom=check gue
 ss=(read,tcheck) scf=(maxcycle=1)
 ----------------------------------------------------------------------
 -----
 title
 -----
 Structure from the checkpoint file:  "E2SN2_370_mol2.chk"
 Charge = -1 Multiplicity = 1

                         Standard orientation:
 ---------------------------------------------------------------------
 Center     Atomic      Atomic             Coordinates (Angstroms)
 Number     Number       Type             X           Y           Z
 ---------------------------------------------------------------------
      1          6           0        0.132240   -0.721350   -0.123093
      2          6           0       -0.063259    0.682796   -0.739909
      3         17           0        1.948273   -1.095857   -0.247679
      4          1           0        0.528579    0.749520   -1.659688
      5          1           0       -0.352791   -1.433434   -0.790942
      6          7           0       -0.357068   -0.925315    1.177204
      7          1           0       -0.135198   -0.135652    1.773011
      8          1           0       -1.401481   -1.024795    1.049636
      9          6           0        0.484086    1.698970    0.180465
     10          7           0        0.919094    2.499599    0.921114
     11          7           0       -1.463794    0.975577   -1.022197
     12          1           0       -2.065271    0.366465   -0.419080
     13          1           0       -1.647284    0.659014   -1.967383
     14          9           0       -2.783691   -0.929231    0.309707
 ---------------------------------------------------------------------

 SCF Done:  E(RHF) =  -841.369435154     A.U. after    2 cycles

 The electronic state is 1-A.
 Alpha  occ. eigenvalues --  -99.74427 -28.92602 -15.63924 -15.58919 -15.57592
 Alpha  occ. eigenvalues --  -11.38012 -11.33919 -11.29914 -10.31743  -9.51717
 Alpha  occ. eigenvalues --   -9.50993  -9.50920  -1.30735  -1.19313  -1.15132
 Alpha  occ. eigenvalues --   -1.12512  -0.92325  -0.77944  -0.60175  -0.58278
 Alpha  occ. eigenvalues --   -0.54733  -0.50791  -0.45446  -0.44894  -0.40556
 Alpha  occ. eigenvalues --   -0.38317  -0.37124  -0.34922  -0.31319  -0.30894
 Alpha  occ. eigenvalues --   -0.28695  -0.25767  -0.20448  -0.01754  -0.00713
 Alpha  occ. eigenvalues --    0.00931
 Alpha virt. eigenvalues --    0.13534   0.15348   0.15886   0.17111   0.17785
 Alpha virt. eigenvalues --    0.19109   0.19828   0.20899   0.22103   0.22939
 Alpha virt. eigenvalues --    0.23719   0.24904   0.25409   0.26341   0.26901

 Mulliken charges:
               1
     1  C   -0.807160
     2  C    0.707392
     3  Cl  -0.121100
     4  H    1.698159
     5  H    1.825398
     6  N   -2.569690
     7  H    0.559130
     8  H    0.204767
     9  C    2.384084
    10  N   -2.492218
    11  N   -2.823719
    12  H    0.454639
    13  H    0.374741
    14  F   -0.394424
 Sum of Mulliken charges =  -1.00000

 Dipole moment (field-independent basis, Debye):
    X=              2.2310    Y=              0.0947    Z=             -2.6346  Tot=              3.4536

 Test job not archived.
 1\1\GINC-SE332\SP\RHF\Aug-CC-pVDZ\C3H6Cl1F1N3(1-)\OHZDE\09-Apr-2025\0\
 \#t hf aug-cc-pvdz iop(5/13=1,5/36=2,99/5=2) pseudo=read geom=check gu
 ess=(read,tcheck) scf=(maxcycle=1)\\title\\-1,1\C,0,-0.024095,0.030472
 ,-0.071967\C,0,-0.285881,-0.087689,-1.591116\Cl,0,1.812768,0.232645,0.
 125047\H,0,0.468026,-0.751904,-2.028334\H,0,-0.253447,-0.940335,0.3676
 61\N,0,-0.738052,1.016511,0.627882\H,0,-0.759532,1.88458,0.104646\H,0,
 -1.70821,0.610505,0.732391\C,0,-0.091967,1.232628,-2.222341\N,0,0.0612
 45,2.287837,-2.714133\N,0,-1.624621,-0.584679,-1.88723\H,0,-2.244802,-

 Normal termination of Gaussian 16 at Wed Apr  9 02:56:09 2025.
