 Gaussian 16, Revision C.01,

 ----------------------------------------------------------------------
 #t hf aug-cc-pvdz symm=none int=(grid=ultrafine) guess=(read,tcheck) s
 table=(opt,rrhf)
 ----------------------------------------------------------------------
 -----
 title
 -----
 Symbolic Z-matrix:
 Charge = -1 Multiplicity = 1

 SCF Done:  E(RHF) =  -779.535932183     A.U. after   16 cycles
 Normal termination of Gaussian 16 at Wed Apr  9 02:55:19 2025.
 Gaussian 16:  ES64L-G16RevC.01  3-Jul-2019

 ----------------------------------------------------------------------
 #t hf aug-cc-pvdz iop(5/13=1,5/36=2,99/5=2) pseudo=read geom=check gue
 ss=(read,tcheck) scf=(maxcycle=1)
 ----------------------------------------------------------------------
 -----
 title
 -----
 Structure from the checkpoint file:  "E2SN2_362_mol2.chk"
 Charge = -1 Multiplicity = 1

                         Standard orientation:
 ---------------------------------------------------------------------
 Center     Atomic      Atomic             Coordinates (Angstroms)
 Number     Number       Type             X           Y           Z
 ---------------------------------------------------------------------
      1          6           0       -0.594837    0.250778    0.135728
      2          6           0        0.771702    0.317891   -0.594988
      3         17           0       -1.393545   -1.304316   -0.435470
      4          1           0        0.564874    0.043898   -1.634156
      5          6           0       -0.474411    0.161153    1.647302
      6          1           0        0.129008   -0.689872    1.969445
      7          1           0       -0.047039    1.108415    1.993805
      8          1           0       -1.474815    0.071851    2.078887
      9          7           0       -1.371117    1.366371   -0.336138
     10          1           0       -2.317944    1.256780    0.018064
     11          1           0       -0.977358    2.205706    0.160532
     12          6           0        1.700056   -0.699218   -0.067380
     13          7           0        2.444384   -1.509859    0.342317
     14          7           0        1.406488    1.627688   -0.581178
     15          1           0        1.147904    2.153668    0.269356
     16          1           0        0.961054    2.167268   -1.315196
     17          1           0       -0.068756    3.282644    1.163283
 ---------------------------------------------------------------------

 SCF Done:  E(RHF) =  -781.340007016     A.U. after    2 cycles

 The electronic state is 1-A.
 Alpha  occ. eigenvalues --  -99.75734 -15.64368 -15.60260 -15.59735 -11.39641
 Alpha  occ. eigenvalues --  -11.36159 -11.31225 -11.25871 -10.33136  -9.53171
 Alpha  occ. eigenvalues --   -9.52423  -9.52344  -1.33498  -1.20674  -1.15808
 Alpha  occ. eigenvalues --   -1.13548  -0.97960  -0.90594  -0.73128  -0.60845
 Alpha  occ. eigenvalues --   -0.59223  -0.52821  -0.48984  -0.48216  -0.45270
 Alpha  occ. eigenvalues --   -0.44468  -0.39897  -0.39193  -0.38383  -0.37051
 Alpha  occ. eigenvalues --   -0.35669  -0.31011  -0.30927  -0.25232  -0.22839
 Alpha  occ. eigenvalues --   -0.12289
 Alpha virt. eigenvalues --    0.13669   0.14128   0.15064   0.16050   0.16388
 Alpha virt. eigenvalues --    0.17151   0.18033   0.18924   0.19410   0.20967
 Alpha virt. eigenvalues --    0.21814   0.22418   0.23740   0.24023   0.24454

 Mulliken charges:
               1
     1  C    3.605590
     2  C   -1.089554
     3  Cl  -0.287187
     4  H    1.675520
     5  C   -4.145089
     6  H    1.221151
     7  H    1.340741
     8  H    1.181090
     9  N   -3.567020
    10  H    0.479625
    11  H    0.795596
    12  C    2.823877
    13  N   -2.632489
    14  N   -2.458184
    15  H    0.726216
    16  H    0.481203
    17  H   -1.151086
 Sum of Mulliken charges =  -1.00000

 Dipole moment (field-independent basis, Debye):
    X=             -2.1113    Y=             -6.6263    Z=             -3.0973  Tot=              7.6130

 Test job not archived.
 1\1\GINC-SE459\SP\RHF\Aug-CC-pVDZ\C4H9Cl1N3(1-)\OHZDE\09-Apr-2025\0\\#
 t hf aug-cc-pvdz iop(5/13=1,5/36=2,99/5=2) pseudo=read geom=check gues
 s=(read,tcheck) scf=(maxcycle=1)\\title\\-1,1\C,0,-0.022503,0.016043,-
 0.037287\C,0,-0.28845,0.145422,-1.55992\Cl,0,1.805965,-0.051622,0.1488
 5\H,0,0.38168,-0.574965,-2.039177\C,0,-0.509212,1.207038,0.770201\H,0,
 -0.079694,2.149943,0.425848\H,0,-1.602554,1.217478,0.70303\H,0,-0.2435
 ,1.057212,1.819962\N,0,-0.573314,-1.248251,0.372569\H,0,-0.281059,-1.4
 17087,1.331752\H,0,-1.61298,-1.094977,0.41515\C,0,0.105552,1.479121,-2

 Normal termination of Gaussian 16 at Wed Apr  9 02:55:26 2025.
