 Gaussian 16, Revision C.01,

 ----------------------------------------------------------------------
 #t hf aug-cc-pvdz symm=none int=(grid=ultrafine) guess=(read,tcheck) s
 table=(opt,rrhf)
 ----------------------------------------------------------------------
 -----
 title
 -----
 Symbolic Z-matrix:
 Charge = -1 Multiplicity = 1

 SCF Done:  E(RHF) =  -666.840673824     A.U. after   16 cycles
 Normal termination of Gaussian 16 at Wed Apr  9 02:59:00 2025.
 Gaussian 16:  ES64L-G16RevC.01  3-Jul-2019

 ----------------------------------------------------------------------
 #t hf aug-cc-pvdz iop(5/13=1,5/36=2,99/5=2) pseudo=read geom=check gue
 ss=(read,tcheck) scf=(maxcycle=1)
 ----------------------------------------------------------------------
 -----
 title
 -----
 Structure from the checkpoint file:  "E2SN2_402_mol1.chk"
 Charge = -1 Multiplicity = 1

                         Standard orientation:
 ---------------------------------------------------------------------
 Center     Atomic      Atomic             Coordinates (Angstroms)
 Number     Number       Type             X           Y           Z
 ---------------------------------------------------------------------
      1          6           0        1.008212   -0.021477    0.127939
      2          1           0       -0.207278   -0.183955   -1.637920
      3          9           0        0.277666    0.933357    1.497253
      4          9           0        1.617787   -0.992107   -1.245576
      5          6           0       -0.346181    0.122362   -0.603551
      6          7           0        1.168893   -1.132090    1.011995
      7          1           0        1.327053   -0.766041    1.938129
      8          1           0        1.927951   -1.696625    0.663241
      9          6           0        2.069944    1.038284   -0.099477
     10          1           0        2.980387    0.553404   -0.447206
     11          1           0        1.745906    1.743304   -0.869638
     12          1           0        2.236065    1.588997    0.823470
     13          6           0       -0.921326    1.463565   -0.558870
     14          7           0       -1.386314    2.530623   -0.713505
     15          7           0       -1.330867   -0.869185   -0.049051
     16          8           0       -1.307755   -1.981952   -0.567233
     17          8           0       -2.079125   -0.522069    0.857547
 ---------------------------------------------------------------------

 SCF Done:  E(RHF) =  -669.620912641     A.U. after    2 cycles

 The electronic state is 1-A.
 Alpha  occ. eigenvalues --  -28.97874 -28.96241 -20.96432 -20.96102 -15.86297
 Alpha  occ. eigenvalues --  -15.64055 -15.60208 -11.49706 -11.38345 -11.32605
 Alpha  occ. eigenvalues --  -11.25383  -1.85829  -1.55696  -1.28101  -1.18606
 Alpha  occ. eigenvalues --   -1.09147  -0.98558  -0.79999  -0.74339  -0.68503
 Alpha  occ. eigenvalues --   -0.59158  -0.56825  -0.55710  -0.48510  -0.47537
 Alpha  occ. eigenvalues --   -0.45503  -0.44768  -0.41177  -0.39293  -0.35534
 Alpha  occ. eigenvalues --   -0.33431  -0.31547  -0.30302  -0.24839  -0.21753
 Alpha  occ. eigenvalues --   -0.18176  -0.17839  -0.13906  -0.05339  -0.04478
 Alpha  occ. eigenvalues --   -0.03090  -0.02246   0.01731
 Alpha virt. eigenvalues --    0.14100   0.14339   0.14999   0.15724   0.16121
 Alpha virt. eigenvalues --    0.16936   0.20035   0.21318   0.23341   0.23716
 Alpha virt. eigenvalues --    0.24288   0.24904   0.25254   0.26213   0.26423

 Mulliken charges:
               1
     1  C    6.509510
     2  H    1.967745
     3  F   -0.453208
     4  F   -0.556269
     5  C   -3.003679
     6  N   -4.242332
     7  H    0.557547
     8  H    0.500409
     9  C   -4.968648
    10  H    1.117682
    11  H    1.179056
    12  H    1.117827
    13  C    3.454327
    14  N   -2.923703
    15  N    4.472823
    16  O   -2.895886
    17  O   -2.833200
 Sum of Mulliken charges =  -1.00000

 Dipole moment (field-independent basis, Debye):
    X=              1.1688    Y=             -1.9499    Z=              1.1280  Tot=              2.5378

 Test job not archived.
 1\1\GINC-SE398\SP\RHF\Aug-CC-pVDZ\C4H6F2N3O2(1-)\OHZDE\09-Apr-2025\0\\
 #t hf aug-cc-pvdz iop(5/13=1,5/36=2,99/5=2) pseudo=read geom=check gue
 ss=(read,tcheck) scf=(maxcycle=1)\\title\\-1,1\C,0,0.64060198,-0.08335
 274,0.03042694\H,0,1.52174424,1.85981108,0.29457564\F,0,-1.17876178,-0
 .13730478,0.11663703\F,0,2.41763974,0.07651276,-0.09928125\C,0,0.52961
 468,1.45692256,0.10378089\N,0,0.57945025,-0.69110862,-1.26097822\H,0,-
 0.22914926,-1.29327263,-1.27817931\H,0,1.45005166,-1.17556774,-1.41541
 102\C,0,0.76641683,-0.86262836,1.32618389\H,0,1.66421044,-1.47646278,1

 Normal termination of Gaussian 16 at Wed Apr  9 02:59:10 2025.
