 Gaussian 16, Revision C.01,

 ----------------------------------------------------------------------
 #t hf aug-cc-pvdz symm=none int=(grid=ultrafine) guess=(read,tcheck) s
 table=(opt,rrhf)
 ----------------------------------------------------------------------
 -----
 title
 -----
 Symbolic Z-matrix:
 Charge = -1 Multiplicity = 1

 SCF Done:  E(RHF) =  -862.492667071     A.U. after   15 cycles
 Normal termination of Gaussian 16 at Wed Apr  9 02:33:41 2025.
 Gaussian 16:  ES64L-G16RevC.01  3-Jul-2019

 ----------------------------------------------------------------------
 #t hf aug-cc-pvdz iop(5/13=1,5/36=2,99/5=2) pseudo=read geom=check gue
 ss=(read,tcheck) scf=(maxcycle=1)
 ----------------------------------------------------------------------
 -----
 title
 -----
 Structure from the checkpoint file:  "E2SN2_108_mol2.chk"
 Charge = -1 Multiplicity = 1

                         Standard orientation:
 ---------------------------------------------------------------------
 Center     Atomic      Atomic             Coordinates (Angstroms)
 Number     Number       Type             X           Y           Z
 ---------------------------------------------------------------------
      1          6           0        0.258898   -0.607284    0.386600
      2          6           0       -0.309937    0.726169   -0.140202
      3         17           0        1.327639   -1.269103   -0.931969
      4          1           0       -0.775813    0.513469   -1.108119
      5          6           0        1.114758   -0.417163    1.623844
      6          1           0        0.504861    0.105581    2.364381
      7          1           0        2.005939    0.176697    1.409527
      8          1           0        1.425071   -1.386199    2.023395
      9          6           0       -0.884665   -1.583516    0.618332
     10          1           0       -0.497772   -2.603762    0.688727
     11          1           0       -1.646441   -1.467135   -0.160016
     12          1           0       -1.367112   -1.315697    1.561450
     13          6           0        0.756998    1.719201   -0.305384
     14          7           0        1.582913    2.548152   -0.415416
     15          7           0       -1.342131    1.188527    0.794907
     16          1           0       -2.187787    0.765663    0.320635
     17          1           0       -1.423327    2.196007    0.698745
     18          9           0       -2.878807   -0.065675   -0.856758
 ---------------------------------------------------------------------

 SCF Done:  E(RHF) =  -864.560584855     A.U. after    2 cycles

 The electronic state is 1-A.
 Alpha  occ. eigenvalues --  -99.74742 -28.90206 -15.63766 -15.57325 -11.37446
 Alpha  occ. eigenvalues --  -11.33890 -11.30638 -11.27304 -11.23638 -10.32156
 Alpha  occ. eigenvalues --   -9.52180  -9.51465  -9.51421  -1.29522  -1.18415
 Alpha  occ. eigenvalues --   -1.14576  -1.03438  -0.89846  -0.88603  -0.69833
 Alpha  occ. eigenvalues --   -0.60883  -0.56450  -0.51503  -0.48280  -0.46362
 Alpha  occ. eigenvalues --   -0.44753  -0.42804  -0.40454  -0.38757  -0.36987
 Alpha  occ. eigenvalues --   -0.36648  -0.34716  -0.32160  -0.31545  -0.28536
 Alpha  occ. eigenvalues --   -0.26088  -0.22451   0.00793   0.01414   0.02370
 Alpha virt. eigenvalues --    0.13166   0.14549   0.14840   0.15410   0.15744
 Alpha virt. eigenvalues --    0.15983   0.17115   0.18120   0.19517   0.20296
 Alpha virt. eigenvalues --    0.21025   0.22657   0.23255   0.23935   0.25142

 Mulliken charges:
               1
     1  C    0.891040
     2  C    1.692582
     3  Cl  -0.328238
     4  H    1.748349
     5  C   -4.434423
     6  H    1.330001
     7  H    1.233641
     8  H    1.231467
     9  C   -4.028679
    10  H    1.008793
    11  H    0.806345
    12  H    1.474306
    13  C    2.280226
    14  N   -2.624357
    15  N   -3.077965
    16  H   -0.006271
    17  H    0.685442
    18  F   -0.882260
 Sum of Mulliken charges =  -1.00000

 Dipole moment (field-independent basis, Debye):
    X=              3.4855    Y=             -1.6850    Z=              2.9144  Tot=              4.8458

 Test job not archived.
 1\1\GINC-SE080\SP\RHF\Aug-CC-pVDZ\C5H9Cl1F1N2(1-)\OHZDE\09-Apr-2025\0\
 \#t hf aug-cc-pvdz iop(5/13=1,5/36=2,99/5=2) pseudo=read geom=check gu
 ess=(read,tcheck) scf=(maxcycle=1)\\title\\-1,1\C,0,-0.369308,0.00333,
 -1.493399\C,0,-0.067499,-0.15501,0.010938\Cl,0,0.021601,-1.597884,-2.2
 69376\H,0,0.962698,-0.517157,0.092713\C,0,-1.832868,0.299915,-1.756925
 \H,0,-2.094818,1.187537,-1.176288\H,0,-2.47325,-0.530357,-1.451368\H,0
 ,-1.994908,0.49687,-2.819901\C,0,0.550818,1.063101,-2.080525\H,0,0.575
 997,0.975326,-3.170115\H,0,1.54378,0.999237,-1.622681\H,0,0.150152,2.0

 Normal termination of Gaussian 16 at Wed Apr  9 02:33:50 2025.
