 Gaussian 16, Revision C.01,

 ----------------------------------------------------------------------
 #t hf aug-cc-pvdz symm=none int=(grid=ultrafine) guess=(read,tcheck) s
 table=(opt,rrhf)
 ----------------------------------------------------------------------
 -----
 title
 -----
 Symbolic Z-matrix:
 Charge = -1 Multiplicity = 1

 SCF Done:  E(RHF) =  -876.124993648     A.U. after   16 cycles
 Normal termination of Gaussian 16 at Wed Apr  9 02:46:03 2025.
 Gaussian 16:  ES64L-G16RevC.01  3-Jul-2019

 ----------------------------------------------------------------------
 #t hf aug-cc-pvdz iop(5/13=1,5/36=2,99/5=2) pseudo=read geom=check gue
 ss=(read,tcheck) scf=(maxcycle=1)
 ----------------------------------------------------------------------
 -----
 title
 -----
 Structure from the checkpoint file:  "E2SN2_253_mol1.chk"
 Charge = -1 Multiplicity = 1

                         Standard orientation:
 ---------------------------------------------------------------------
 Center     Atomic      Atomic             Coordinates (Angstroms)
 Number     Number       Type             X           Y           Z
 ---------------------------------------------------------------------
      1          6           0        0.453873   -0.198627   -0.450328
      2          1           0       -0.448015   -1.674825    0.680409
      3         17           0        0.092837    1.903699   -0.493368
      4          9           0        0.797057   -2.123476   -0.774198
      5          6           0       -0.633704   -0.611368    0.531957
      6          1           0        0.284280   -0.291116   -1.505233
      7          6           0        1.812788   -0.182411    0.029030
      8          7           0        2.918786   -0.105344    0.419396
      9          6           0       -1.961708   -0.482318   -0.104032
     10          7           0       -3.059582   -0.414062   -0.517532
     11          7           0       -0.527893    0.069075    1.811463
     12          1           0       -1.194463   -0.336738    2.456207
     13          1           0       -0.740220    1.051742    1.690603
 ---------------------------------------------------------------------

 SCF Done:  E(RHF) =  -878.163678114     A.U. after    2 cycles

 The electronic state is 1-A.
 Alpha  occ. eigenvalues --  -99.71133 -28.94995 -15.65260 -15.64102 -15.63109
 Alpha  occ. eigenvalues --  -11.44757 -11.37586 -11.32824 -11.31297 -10.28198
 Alpha  occ. eigenvalues --   -9.48210  -9.47768  -9.47648  -1.30452  -1.17626
 Alpha  occ. eigenvalues --   -1.16811  -1.10651  -1.01326  -0.86631  -0.65088
 Alpha  occ. eigenvalues --   -0.61565  -0.59091  -0.51957  -0.46791  -0.43160
 Alpha  occ. eigenvalues --   -0.42008  -0.39590  -0.35497  -0.34715  -0.33320
 Alpha  occ. eigenvalues --   -0.32792  -0.31109  -0.29962  -0.27777  -0.26585
 Alpha  occ. eigenvalues --   -0.04804  -0.02986  -0.02197
 Alpha virt. eigenvalues --    0.12986   0.15645   0.16113   0.16378   0.18734
 Alpha virt. eigenvalues --    0.20332   0.20569   0.21377   0.22911   0.23152
 Alpha virt. eigenvalues --    0.24267   0.24343   0.25855   0.26720   0.27410

 Mulliken charges:
               1
     1  C   -1.179205
     2  H    1.359612
     3  Cl  -0.575269
     4  F   -0.406821
     5  C    0.860833
     6  H    1.451015
     7  C    2.423205
     8  N   -2.862113
     9  C    2.616113
    10  N   -2.754909
    11  N   -3.176347
    12  H    0.663711
    13  H    0.580174
 Sum of Mulliken charges =  -1.00000

 Dipole moment (field-independent basis, Debye):
    X=             -2.1637    Y=             -3.7819    Z=              1.7053  Tot=              4.6789

 Test job not archived.
 1\1\GINC-SE460\SP\RHF\Aug-CC-pVDZ\C4H4Cl1F1N3(1-)\OHZDE\09-Apr-2025\0\
 \#t hf aug-cc-pvdz iop(5/13=1,5/36=2,99/5=2) pseudo=read geom=check gu
 ess=(read,tcheck) scf=(maxcycle=1)\\title\\-1,1\C,0,0.50530118,-0.0504
 2203,-0.04787331\H,0,1.68943372,1.63939851,-0.1639101\Cl,0,-1.62030849
 ,-0.23403453,-0.05454415\F,0,2.46627334,-0.12388599,0.229437\C,0,0.617
 60084,1.4678151,-0.06802966\H,0,0.58945949,-0.58020154,0.88077641\C,0,
 0.79454728,-0.75576857,-1.2707884\N,0,0.96792215,-1.34257626,-2.274358
 51\C,0,0.19966054,2.02080357,1.23744315\N,0,-0.11218613,2.55748409,2.2

 Normal termination of Gaussian 16 at Wed Apr  9 02:46:09 2025.
