 Gaussian 16, Revision C.01,

 ----------------------------------------------------------------------
 #t hf aug-cc-pvdz symm=none int=(grid=ultrafine) guess=(read,tcheck) s
 table=(opt,rrhf)
 ----------------------------------------------------------------------
 -----
 title
 -----
 Symbolic Z-matrix:
 Charge = -1 Multiplicity = 1

 SCF Done:  E(RHF) =  -366.706586033     A.U. after   17 cycles
 Normal termination of Gaussian 16 at Wed Apr  9 02:59:24 2025.
 Gaussian 16:  ES64L-G16RevC.01  3-Jul-2019

 ----------------------------------------------------------------------
 #t hf aug-cc-pvdz iop(5/13=1,5/36=2,99/5=2) pseudo=read geom=check gue
 ss=(read,tcheck) scf=(maxcycle=1)
 ----------------------------------------------------------------------
 -----
 title
 -----
 Structure from the checkpoint file:  "E2SN2_418_mol1.chk"
 Charge = -1 Multiplicity = 1

                         Standard orientation:
 ---------------------------------------------------------------------
 Center     Atomic      Atomic             Coordinates (Angstroms)
 Number     Number       Type             X           Y           Z
 ---------------------------------------------------------------------
      1          6           0        0.619824    0.123786   -0.260460
      2          1           0       -0.998981   -0.033814   -1.597335
      3          9           0        0.593238   -0.586446    1.288752
      4          1           0        0.773803    0.997297   -1.904687
      5          6           0       -0.896593    0.012748   -0.514513
      6          7           0        1.421229   -0.963396   -0.812625
      7          1           0        2.000825   -1.300597   -0.052139
      8          1           0        1.978950   -0.577506   -1.556511
      9          7           0        1.198337    1.340144    0.300931
     10          1           0        1.768919    1.765235   -0.409591
     11          1           0        1.741240    1.057588    1.109167
     12          6           0       -1.615410    1.256107   -0.019095
     13          1           0       -1.463736    1.371377    1.056929
     14          1           0       -1.209385    2.140204   -0.513167
     15          1           0       -2.691367    1.185224   -0.223903
     16          6           0       -1.527750   -1.262552    0.050471
     17          1           0       -0.914096   -2.125976   -0.212911
     18          1           0       -1.615622   -1.224825    1.135751
     19          1           0       -2.527077   -1.393967   -0.386925
 ---------------------------------------------------------------------

 SCF Done:  E(RHF) =  -368.448284890     A.U. after    2 cycles

 The electronic state is 1-A.
 Alpha  occ. eigenvalues --  -28.97299 -15.56888 -15.56407 -11.41061 -11.25546
 Alpha  occ. eigenvalues --  -11.22672 -11.19111  -1.25780  -1.08864  -1.04790
 Alpha  occ. eigenvalues --   -0.84499  -0.77144  -0.64887  -0.56973  -0.48708
 Alpha  occ. eigenvalues --   -0.47482  -0.45654  -0.44200  -0.38814  -0.37593
 Alpha  occ. eigenvalues --   -0.33225  -0.32628  -0.30570  -0.28005  -0.22611
 Alpha  occ. eigenvalues --   -0.17670  -0.14735  -0.05111  -0.03499  -0.02529
 Alpha virt. eigenvalues --    0.13964   0.14757   0.14828   0.15183   0.15839
 Alpha virt. eigenvalues --    0.16137   0.16640   0.16923   0.17616   0.18132
 Alpha virt. eigenvalues --    0.19297   0.20850   0.23993   0.25457   0.25990

 Mulliken charges:
               1
     1  C    3.845208
     2  H    1.975963
     3  F   -0.208421
     4  H   -0.986617
     5  C   -0.768838
     6  N   -3.351421
     7  H    0.435465
     8  H    0.625678
     9  N   -2.977439
    10  H    0.641575
    11  H    0.445279
    12  C   -3.903146
    13  H    1.314961
    14  H    1.321646
    15  H    1.111010
    16  C   -4.151290
    17  H    1.354587
    18  H    1.240176
    19  H    1.035624
 Sum of Mulliken charges =  -1.00000

 Dipole moment (field-independent basis, Debye):
    X=             -0.9474    Y=             -2.7805    Z=              5.8975  Tot=              6.5886

 Test job not archived.
 1\1\GINC-SE069\SP\RHF\Aug-CC-pVDZ\C4H12F1N2(1-)\OHZDE\09-Apr-2025\0\\#
 t hf aug-cc-pvdz iop(5/13=1,5/36=2,99/5=2) pseudo=read geom=check gues
 s=(read,tcheck) scf=(maxcycle=1)\\title\\-1,1\C,0,0.54967663,-0.077343
 59,-0.02811383\H,0,1.62663413,1.69637367,-0.38405395\F,0,-1.11055226,-
 0.22140406,-0.38599657\H,0,2.3523256,-0.05241722,0.46183192\C,0,0.5993
 4358,1.46117511,-0.11108501\N,0,0.93653477,-0.77594208,-1.24934341\H,0
 ,0.19131541,-1.43495358,-1.44511816\H,0,1.80542781,-1.24863856,-1.0624
 9306\N,0,0.3388648,-0.7523922,1.24829963\H,0,1.1855113,-1.24297331,1.4

 Normal termination of Gaussian 16 at Wed Apr  9 02:59:31 2025.
