 Gaussian 16, Revision C.01,

 ----------------------------------------------------------------------
 #t hf aug-cc-pvdz symm=none int=(grid=ultrafine) guess=(read,tcheck) s
 table=(opt,rrhf)
 ----------------------------------------------------------------------
 -----
 title
 -----
 Symbolic Z-matrix:
 Charge = -1 Multiplicity = 1

 SCF Done:  E(RHF) =  -492.218502849     A.U. after   15 cycles
 Normal termination of Gaussian 16 at Wed Apr  9 02:40:52 2025.
 Gaussian 16:  ES64L-G16RevC.01  3-Jul-2019

 ----------------------------------------------------------------------
 #t hf aug-cc-pvdz iop(5/13=1,5/36=2,99/5=2) pseudo=read geom=check gue
 ss=(read,tcheck) scf=(maxcycle=1)
 ----------------------------------------------------------------------
 -----
 title
 -----
 Structure from the checkpoint file:  "E2SN2_198_mol2.chk"
 Charge = -1 Multiplicity = 1

                         Standard orientation:
 ---------------------------------------------------------------------
 Center     Atomic      Atomic             Coordinates (Angstroms)
 Number     Number       Type             X           Y           Z
 ---------------------------------------------------------------------
      1          6           0       -1.015630   -0.493043    0.318853
      2          6           0       -0.049916    0.504163   -0.309293
      3          9           0       -0.605133   -1.782040   -0.129471
      4          1           0       -0.166058    0.465619   -1.393018
      5          1           0       -0.856604   -0.531736    1.402994
      6          7           0       -2.334006   -0.210486   -0.065233
      7          1           0       -2.977740   -0.216095    0.710301
      8          1           0       -2.444840    0.668377   -0.608927
      9          7           0        1.351041    0.018582   -0.035100
     10          8           0        2.078507   -0.260435   -0.985134
     11          8           0        1.685632   -0.046030    1.147967
     12          7           0       -0.164676    1.854067    0.136358
     13          1           0       -0.396039    1.865997    1.123872
     14          1           0       -0.975592    2.250876   -0.390537
     15          1           0       -2.423276    2.285187   -1.291649
 ---------------------------------------------------------------------

 SCF Done:  E(RHF) =  -494.332386621     A.U. after    2 cycles

 The electronic state is 1-A.
 Alpha  occ. eigenvalues --  -29.11944 -20.97656 -20.96997 -15.86067 -15.60292
 Alpha  occ. eigenvalues --  -15.60144 -11.40239 -11.32297  -1.86467  -1.56547
 Alpha  occ. eigenvalues --   -1.30728  -1.19328  -1.01522  -0.89036  -0.72529
 Alpha  occ. eigenvalues --   -0.62382  -0.59578  -0.57695  -0.54324  -0.49514
 Alpha  occ. eigenvalues --   -0.47933  -0.47139  -0.42603  -0.38984  -0.29639
 Alpha  occ. eigenvalues --   -0.26440  -0.22461  -0.20454  -0.19445  -0.18458
 Alpha  occ. eigenvalues --   -0.13802  -0.11987  -0.11361
 Alpha virt. eigenvalues --    0.13480   0.14981   0.15451   0.16933   0.19025
 Alpha virt. eigenvalues --    0.20575   0.21228   0.21993   0.22858   0.23575
 Alpha virt. eigenvalues --    0.25064   0.25700   0.26050   0.27213   0.29024

 Mulliken charges:
               1
     1  C    0.177645
     2  C   -0.182392
     3  F    0.281759
     4  H    2.015844
     5  H    1.896145
     6  N   -2.583685
     7  H    0.499061
     8  H    0.721492
     9  N    4.450486
    10  O   -2.733671
    11  O   -2.953998
    12  N   -2.724124
    13  H    0.486699
    14  H    0.698033
    15  H   -1.049294
 Sum of Mulliken charges =  -1.00000

 Dipole moment (field-independent basis, Debye):
    X=              5.7102    Y=             -8.0150    Z=              4.6794  Tot=             10.8970

 Test job not archived.
 1\1\GINC-SE403\SP\RHF\Aug-CC-pVDZ\C2H7F1N3O2(1-)\OHZDE\09-Apr-2025\0\\
 #t hf aug-cc-pvdz iop(5/13=1,5/36=2,99/5=2) pseudo=read geom=check gue
 ss=(read,tcheck) scf=(maxcycle=1)\\title\\-1,1\C,0,0.129353,0.045675,-
 0.001725\C,0,-0.411862,0.196379,-1.418046\F,0,1.423694,-0.536883,-0.12
 9486\H,0,-0.524946,-0.796545,-1.854794\H,0,0.330279,1.034867,0.426384\
 N,0,-0.722993,-0.758307,0.768075\H,0,-0.922824,-0.362803,1.67335\H,0,-
 1.610162,-1.021332,0.294748\N,0,0.648454,0.882322,-2.241978\O,0,1.1243
 01,0.290269,-3.207723\O,0,0.956678,2.023067,-1.896329\N,0,-1.634853,0.

 Normal termination of Gaussian 16 at Wed Apr  9 02:40:57 2025.
