 Gaussian 16, Revision C.01,

 ----------------------------------------------------------------------
 #t hf aug-cc-pvdz symm=none int=(grid=ultrafine) guess=(read,tcheck) s
 table=(opt,rrhf)
 ----------------------------------------------------------------------
 -----
 title
 -----
 Symbolic Z-matrix:
 Charge = -1 Multiplicity = 1

 SCF Done:  E(RHF) =  -575.178184854     A.U. after   16 cycles
 Normal termination of Gaussian 16 at Wed Apr  9 02:58:25 2025.
 Gaussian 16:  ES64L-G16RevC.01  3-Jul-2019

 ----------------------------------------------------------------------
 #t hf aug-cc-pvdz iop(5/13=1,5/36=2,99/5=2) pseudo=read geom=check gue
 ss=(read,tcheck) scf=(maxcycle=1)
 ----------------------------------------------------------------------
 -----
 title
 -----
 Structure from the checkpoint file:  "E2SN2_400_mol2.chk"
 Charge = -1 Multiplicity = 1

                         Standard orientation:
 ---------------------------------------------------------------------
 Center     Atomic      Atomic             Coordinates (Angstroms)
 Number     Number       Type             X           Y           Z
 ---------------------------------------------------------------------
      1          6           0       -0.636089    0.679809    0.075776
      2          6           0        0.255024   -0.318030   -0.671615
      3          9           0        0.018108    1.929589    0.042070
      4          1           0       -0.292313   -1.272540   -0.605762
      5          1           0        0.377778    0.021224   -1.699768
      6          7           0       -1.891490    0.787752   -0.607677
      7          1           0       -2.233446   -0.207274   -0.588359
      8          1           0       -1.698816    1.016676   -1.579802
      9          6           0       -0.895165    0.285834    1.509266
     10          1           0        0.027444    0.228149    2.086007
     11          1           0       -1.564027    1.031624    1.942702
     12          1           0       -1.387539   -0.687048    1.464041
     13          7           0        1.627255   -0.427773   -0.127238
     14          8           0        2.545615    0.102874   -0.759745
     15          8           0        1.787244   -1.036502    0.933063
     16          9           0       -2.060878   -1.825958   -0.346711
 ---------------------------------------------------------------------

 SCF Done:  E(RHF) =  -577.556759222     A.U. after    2 cycles

 The electronic state is 1-A.
 Alpha  occ. eigenvalues --  -29.11336 -28.90895 -20.96705 -20.96467 -15.85968
 Alpha  occ. eigenvalues --  -15.57249 -11.37852 -11.30652 -11.22950  -1.85726
 Alpha  occ. eigenvalues --   -1.55477  -1.27633  -1.06417  -0.96213  -0.80925
 Alpha  occ. eigenvalues --   -0.73228  -0.60473  -0.57079  -0.55448  -0.51867
 Alpha  occ. eigenvalues --   -0.47878  -0.46090  -0.42962  -0.41503  -0.37836
 Alpha  occ. eigenvalues --   -0.36728  -0.29804  -0.25514  -0.21397  -0.20199
 Alpha  occ. eigenvalues --   -0.18903  -0.17936  -0.12346  -0.11542   0.00310
 Alpha  occ. eigenvalues --    0.00677   0.02363
 Alpha virt. eigenvalues --    0.14284   0.14724   0.15666   0.16532   0.17779
 Alpha virt. eigenvalues --    0.18909   0.19715   0.20655   0.23081   0.24648
 Alpha virt. eigenvalues --    0.25001   0.25670   0.26103   0.26754   0.27752

 Mulliken charges:
               1
     1  C    4.367197
     2  C   -1.811678
     3  F    0.117343
     4  H    0.743472
     5  H    1.671734
     6  N   -3.556059
     7  H    0.249267
     8  H    0.381675
     9  C   -4.170589
    10  H    1.274079
    11  H    1.146857
    12  H    0.997267
    13  N    4.009974
    14  O   -2.747601
    15  O   -2.832349
    16  F   -0.840588
 Sum of Mulliken charges =  -1.00000

 Dipole moment (field-independent basis, Debye):
    X=              4.2573    Y=              4.5149    Z=              0.2772  Tot=              6.2118

 Test job not archived.
 1\1\GINC-SE113\SP\RHF\Aug-CC-pVDZ\C3H7F2N2O2(1-)\OHZDE\09-Apr-2025\0\\
 #t hf aug-cc-pvdz iop(5/13=1,5/36=2,99/5=2) pseudo=read geom=check gue
 ss=(read,tcheck) scf=(maxcycle=1)\\title\\-1,1\C,0,-0.017662,-0.029653
 ,0.013894\C,0,-0.491967,-0.07034,-1.442725\F,0,1.388848,0.081191,-0.00
 8556\H,0,-1.587348,-0.168528,-1.368547\H,0,-0.189381,0.852229,-1.93726
 4\N,0,-0.57035,1.128422,0.652791\H,0,-1.603398,0.969086,0.531103\H,0,-
 0.327,1.940669,0.091016\C,0,-0.41348,-1.254732,0.80113\H,0,0.015403,-2
 .162967,0.378833\H,0,-0.066814,-1.116382,1.826863\H,0,-1.503825,-1.287

 Normal termination of Gaussian 16 at Wed Apr  9 02:58:31 2025.
