 Gaussian 16, Revision C.01,

 ----------------------------------------------------------------------
 #t hf aug-cc-pvdz symm=none int=(grid=ultrafine) guess=(read,tcheck) s
 table=(opt,rrhf)
 ----------------------------------------------------------------------
 -----
 title
 -----
 Symbolic Z-matrix:
 Charge = -1 Multiplicity = 1

 SCF Done:  E(RHF) =  -852.235599242     A.U. after   17 cycles
 Normal termination of Gaussian 16 at Wed Apr  9 02:41:05 2025.
 Gaussian 16:  ES64L-G16RevC.01  3-Jul-2019

 ----------------------------------------------------------------------
 #t hf aug-cc-pvdz iop(5/13=1,5/36=2,99/5=2) pseudo=read geom=check gue
 ss=(read,tcheck) scf=(maxcycle=1)
 ----------------------------------------------------------------------
 -----
 title
 -----
 Structure from the checkpoint file:  "E2SN2_199_mol1.chk"
 Charge = -1 Multiplicity = 1

                         Standard orientation:
 ---------------------------------------------------------------------
 Center     Atomic      Atomic             Coordinates (Angstroms)
 Number     Number       Type             X           Y           Z
 ---------------------------------------------------------------------
      1          6           0       -0.838235    0.650081    0.697545
      2          1           0        1.081809    0.600703    1.618742
      3         17           0       -1.720659   -0.712208   -0.683241
      4          1           0       -0.518797    1.844594    2.381748
      5          6           0        0.513646   -0.019181    0.934882
      6          1           0       -1.556659    0.445271    1.472083
      7          7           0       -0.874366    1.805650   -0.141290
      8          1           0       -0.590049    2.574940    0.448583
      9          1           0       -1.834970    1.946849   -0.429566
     10          7           0        1.365655    0.040367   -0.347366
     11          8           0        1.540075   -0.996758   -0.986936
     12          8           0        1.892309    1.119684   -0.605958
     13          7           0        0.367734   -1.335570    1.443345
     14          1           0        1.274432   -1.745182    1.621564
     15          1           0       -0.129262   -1.901564    0.767703
 ---------------------------------------------------------------------

 SCF Done:  E(RHF) =  -854.279532014     A.U. after    2 cycles

 The electronic state is 1-A.
 Alpha  occ. eigenvalues --  -99.69335 -20.96241 -20.96070 -15.84823 -15.63085
 Alpha  occ. eigenvalues --  -15.61084 -11.40922 -11.33145 -10.26415  -9.46457
 Alpha  occ. eigenvalues --   -9.46021  -9.45834  -1.85112  -1.55381  -1.29379
 Alpha  occ. eigenvalues --   -1.20406  -1.07275  -0.98595  -0.83220  -0.68856
 Alpha  occ. eigenvalues --   -0.60495  -0.56973  -0.55848  -0.52772  -0.49651
 Alpha  occ. eigenvalues --   -0.48383  -0.42605  -0.39324  -0.35153  -0.33683
 Alpha  occ. eigenvalues --   -0.32770  -0.30008  -0.25722  -0.20936  -0.17507
 Alpha  occ. eigenvalues --   -0.16994  -0.13001
 Alpha virt. eigenvalues --    0.13469   0.14778   0.15619   0.16358   0.16634
 Alpha virt. eigenvalues --    0.18242   0.19709   0.21812   0.22650   0.23575
 Alpha virt. eigenvalues --    0.24652   0.25983   0.26556   0.26644   0.27168

 Mulliken charges:
               1
     1  C   -0.204476
     2  H    2.050100
     3  Cl  -0.516054
     4  H   -0.949421
     5  C    1.089638
     6  H    1.878953
     7  N   -2.705884
     8  H    0.740243
     9  H    0.590906
    10  N    4.511734
    11  O   -2.843219
    12  O   -2.872594
    13  N   -2.859976
    14  H    0.518183
    15  H    0.571866
 Sum of Mulliken charges =  -1.00000

 Dipole moment (field-independent basis, Debye):
    X=              2.5575    Y=             -2.8930    Z=             -3.3646  Tot=              5.1216

 Test job not archived.
 1\1\GINC-SE329\SP\RHF\Aug-CC-pVDZ\C2H7Cl1N3O2(1-)\OHZDE\09-Apr-2025\0\
 \#t hf aug-cc-pvdz iop(5/13=1,5/36=2,99/5=2) pseudo=read geom=check gu
 ess=(read,tcheck) scf=(maxcycle=1)\\title\\-1,1\C,0,0.46615693,-0.0569
 6038,0.01528533\H,0,1.74093166,1.6359096,0.23150918\Cl,0,-1.63922472,-
 0.14344644,-0.30246288\H,0,2.52404851,-0.33287302,-0.2179445\C,0,0.688
 15878,1.45345893,0.04954281\H,0,0.70232154,-0.50065058,-0.93621572\N,0
 ,0.49046139,-0.7648421,1.25568889\H,0,1.46853123,-0.90705065,1.4648543
 7\H,0,0.04976433,-1.66430041,1.10548708\N,0,0.02866968,2.05663795,1.30

 Normal termination of Gaussian 16 at Wed Apr  9 02:41:11 2025.
