 Gaussian 16, Revision C.01,

 ----------------------------------------------------------------------
 #t hf aug-cc-pvdz symm=none int=(grid=ultrafine) guess=(read,tcheck) s
 table=(opt,rrhf)
 ----------------------------------------------------------------------
 -----
 title
 -----
 Symbolic Z-matrix:
 Charge = -1 Multiplicity = 1

 SCF Done:  E(RHF) =  -726.799783788     A.U. after   16 cycles
 Normal termination of Gaussian 16 at Wed Apr  9 02:33:44 2025.
 Gaussian 16:  ES64L-G16RevC.01  3-Jul-2019

 ----------------------------------------------------------------------
 #t hf aug-cc-pvdz iop(5/13=1,5/36=2,99/5=2) pseudo=read geom=check gue
 ss=(read,tcheck) scf=(maxcycle=1)
 ----------------------------------------------------------------------
 -----
 title
 -----
 Structure from the checkpoint file:  "E2SN2_113_mol1.chk"
 Charge = -1 Multiplicity = 1

                         Standard orientation:
 ---------------------------------------------------------------------
 Center     Atomic      Atomic             Coordinates (Angstroms)
 Number     Number       Type             X           Y           Z
 ---------------------------------------------------------------------
      1          6           0       -0.194833    0.555875    0.003285
      2          6           0        1.120593   -0.052058    0.013531
      3         17           0       -1.655770   -0.969165   -0.036375
      4          1           0        2.202505    2.033622   -0.713663
      5          1           0        1.763510    1.048575   -0.187848
      6          6           0       -0.560695    1.340758    1.233156
      7          1           0       -0.539025    0.728678    2.133608
      8          1           0        0.170190    2.157649    1.329908
      9          1           0       -1.555898    1.765438    1.104791
     10          7           0       -0.502687    1.319331   -1.168705
     11          1           0       -0.378508    0.711533   -1.971566
     12          1           0        0.289675    1.989252   -1.219040
     13          6           0        1.576133   -0.739490    1.278790
     14          1           0        0.935679   -1.599399    1.517244
     15          1           0        2.594424   -1.104206    1.124928
     16          1           0        1.581994   -0.064024    2.139625
     17          7           0        1.494501   -0.800634   -1.174351
     18          1           0        0.689516   -1.312099   -1.525564
     19          1           0        1.804142   -0.140606   -1.885226
 ---------------------------------------------------------------------

 SCF Done:  E(RHF) =  -728.444841395     A.U. after    2 cycles

 The electronic state is 1-A.
 Alpha  occ. eigenvalues --  -99.68533 -15.59389 -15.58221 -11.36997 -11.27905
 Alpha  occ. eigenvalues --  -11.25542 -11.21969 -10.25554  -9.45667  -9.45088
 Alpha  occ. eigenvalues --   -9.45020  -1.29051  -1.15359  -1.06697  -0.98431
 Alpha  occ. eigenvalues --   -0.91507  -0.78517  -0.63225  -0.56339  -0.52223
 Alpha  occ. eigenvalues --   -0.50425  -0.46069  -0.42891  -0.41916  -0.40549
 Alpha  occ. eigenvalues --   -0.37747  -0.35116  -0.33579  -0.32590  -0.31358
 Alpha  occ. eigenvalues --   -0.30337  -0.23966  -0.20383  -0.09918
 Alpha virt. eigenvalues --    0.13885   0.14494   0.15045   0.15264   0.15546
 Alpha virt. eigenvalues --    0.15756   0.16046   0.17076   0.18410   0.18834
 Alpha virt. eigenvalues --    0.19498   0.20747   0.22409   0.23708   0.24732

 Mulliken charges:
               1
     1  C    4.390659
     2  C    0.918231
     3  Cl  -0.640568
     4  H   -0.078521
     5  H    0.807582
     6  C   -4.438163
     7  H    1.230698
     8  H    1.257914
     9  H    1.106332
    10  N   -3.597929
    11  H    0.637979
    12  H    0.608014
    13  C   -4.571168
    14  H    1.194243
    15  H    1.119291
    16  H    1.210015
    17  N   -3.121365
    18  H    0.527583
    19  H    0.439174
 Sum of Mulliken charges =  -1.00000

 Dipole moment (field-independent basis, Debye):
    X=             -2.5255    Y=             -2.3575    Z=              1.7112  Tot=              3.8555

 Test job not archived.
 1\1\GINC-SE094\SP\RHF\Aug-CC-pVDZ\C4H12Cl1N2(1-)\OHZDE\09-Apr-2025\0\\
 #t hf aug-cc-pvdz iop(5/13=1,5/36=2,99/5=2) pseudo=read geom=check gue
 ss=(read,tcheck) scf=(maxcycle=1)\\title\\-1,1\C,0,-0.21960064,-0.0181
 1494,-0.30551235\C,0,-0.08681181,-0.03467576,1.13744496\Cl,0,1.7043059
 8,0.08820143,-1.1709234\H,0,-2.43598592,0.61683552,1.46351364\H,0,-1.3
 4485923,0.12561134,1.37601309\C,0,-0.79786955,-1.26228777,-0.92204994\
 H,0,-0.20040223,-2.1460524,-0.70315001\H,0,-1.80875965,-1.39380929,-0.
 50772151\H,0,-0.86890497,-1.12825121,-2.00105264\N,0,-0.87240369,1.137

 Normal termination of Gaussian 16 at Wed Apr  9 02:33:52 2025.
