 Gaussian 16, Revision C.01,

 ----------------------------------------------------------------------
 #t hf aug-cc-pvdz symm=none int=(grid=ultrafine) guess=(read,tcheck) s
 table=(opt,rrhf)
 ----------------------------------------------------------------------
 -----
 title
 -----
 Symbolic Z-matrix:
 Charge = -1 Multiplicity = 1

 SCF Done:  E(RHF) =  -943.980968704     A.U. after   17 cycles
 Normal termination of Gaussian 16 at Wed Apr  9 02:37:08 2025.
 Gaussian 16:  ES64L-G16RevC.01  3-Jul-2019

 ----------------------------------------------------------------------
 #t hf aug-cc-pvdz iop(5/13=1,5/36=2,99/5=2) pseudo=read geom=check gue
 ss=(read,tcheck) scf=(maxcycle=1)
 ----------------------------------------------------------------------
 -----
 title
 -----
 Structure from the checkpoint file:  "E2SN2_141_mol1.chk"
 Charge = -1 Multiplicity = 1

                         Standard orientation:
 ---------------------------------------------------------------------
 Center     Atomic      Atomic             Coordinates (Angstroms)
 Number     Number       Type             X           Y           Z
 ---------------------------------------------------------------------
      1          6           0        0.779209   -0.194303   -0.261002
      2          6           0       -0.699027   -0.448662   -0.504876
      3         17           0        1.219761   -0.496258    1.498262
      4          1           0       -0.581335   -1.012833   -2.901832
      5          1           0       -0.776101   -0.376472   -1.707263
      6          7           0        1.586490   -1.091350   -1.066759
      7          1           0        1.132050   -1.083773   -1.995302
      8          1           0        1.433257   -2.028554   -0.708168
      9          6           0        1.207876    1.171971   -0.587283
     10          7           0        1.608468    2.225410   -0.918253
     11          7           0       -1.140235   -1.774652   -0.294140
     12          1           0       -0.630919   -2.264475    0.428739
     13          1           0       -1.099964   -2.256872   -1.193228
     14          7           0       -1.595040    0.534614    0.136348
     15          8           0       -1.087061    1.541988    0.649897
     16          8           0       -2.807819    0.336410    0.065753
 ---------------------------------------------------------------------

 SCF Done:  E(RHF) =  -946.407579499     A.U. after    2 cycles

 The electronic state is 1-A.
 Alpha  occ. eigenvalues --  -99.78370 -20.96044 -20.95764 -15.85592 -15.65188
 Alpha  occ. eigenvalues --  -15.63655 -15.62887 -11.44716 -11.35338 -11.32220
 Alpha  occ. eigenvalues --  -10.35719  -9.55771  -9.55013  -9.54931  -1.85449
 Alpha  occ. eigenvalues --   -1.55234  -1.35760  -1.22799  -1.17246  -1.16345
 Alpha  occ. eigenvalues --   -1.01111  -0.89123  -0.72326  -0.66686  -0.60267
 Alpha  occ. eigenvalues --   -0.58336  -0.55151  -0.52307  -0.49436  -0.47997
 Alpha  occ. eigenvalues --   -0.45085  -0.42613  -0.40563  -0.38623  -0.38491
 Alpha  occ. eigenvalues --   -0.32621  -0.32258  -0.29574  -0.27287  -0.21222
 Alpha  occ. eigenvalues --   -0.18127  -0.17272  -0.14073
 Alpha virt. eigenvalues --    0.13052   0.14753   0.15243   0.17157   0.17570
 Alpha virt. eigenvalues --    0.18271   0.19210   0.20693   0.21771   0.22302
 Alpha virt. eigenvalues --    0.23225   0.24476   0.24687   0.25351   0.25684

 Mulliken charges:
               1
     1  C    2.192610
     2  C    2.371405
     3  Cl  -0.220552
     4  H   -0.694114
     5  H    1.381982
     6  N   -3.004546
     7  H    0.774064
     8  H    0.585684
     9  C    2.341681
    10  N   -2.718142
    11  N   -2.664556
    12  H    0.534078
    13  H    0.468474
    14  N    3.080815
    15  O   -2.634020
    16  O   -2.794863
 Sum of Mulliken charges =  -1.00000

 Dipole moment (field-independent basis, Debye):
    X=              1.0207    Y=             -1.5022    Z=              6.3016  Tot=              6.5581

 Test job not archived.
 1\1\GINC-SE094\SP\RHF\Aug-CC-pVDZ\C3H6Cl1N4O2(1-)\OHZDE\09-Apr-2025\0\
 \#t hf aug-cc-pvdz iop(5/13=1,5/36=2,99/5=2) pseudo=read geom=check gu
 ess=(read,tcheck) scf=(maxcycle=1)\\title\\-1,1\C,0,-0.09646848,0.0402
 6531,-0.36389243\C,0,-0.14723814,0.11116227,1.15325981\Cl,0,1.62052697
 ,-0.24880479,-0.95434606\H,0,-2.48420607,-0.60535906,1.4737503\H,0,-1.
 33469705,0.12781369,1.36901605\N,0,-0.90851116,-1.06135309,-0.84624488
 \H,0,-1.77631731,-1.00647237,-0.28707848\H,0,-0.45515656,-1.9172154,-0
 .54229076\C,0,-0.58633652,1.25334792,-1.03125979\N,0,-1.05061304,2.168

 Normal termination of Gaussian 16 at Wed Apr  9 02:37:16 2025.
