 Gaussian 16, Revision C.01,

 ----------------------------------------------------------------------
 #t hf aug-cc-pvdz symm=none int=(grid=ultrafine) guess=(read,tcheck) s
 table=(opt,rrhf)
 ----------------------------------------------------------------------
 -----
 title
 -----
 Symbolic Z-matrix:
 Charge = -1 Multiplicity = 1

 SCF Done:  E(RHF) =  -987.964994459     A.U. after   16 cycles
 Normal termination of Gaussian 16 at Wed Apr  9 02:46:33 2025.
 Gaussian 16:  ES64L-G16RevC.01  3-Jul-2019

 ----------------------------------------------------------------------
 #t hf aug-cc-pvdz iop(5/13=1,5/36=2,99/5=2) pseudo=read geom=check gue
 ss=(read,tcheck) scf=(maxcycle=1)
 ----------------------------------------------------------------------
 -----
 title
 -----
 Structure from the checkpoint file:  "E2SN2_250_mol2.chk"
 Charge = -1 Multiplicity = 1

                         Standard orientation:
 ---------------------------------------------------------------------
 Center     Atomic      Atomic             Coordinates (Angstroms)
 Number     Number       Type             X           Y           Z
 ---------------------------------------------------------------------
      1          6           0       -0.254077   -0.972558    0.275119
      2          6           0       -0.438071    0.399090    0.937983
      3          9           0       -0.165758   -1.905401    1.300004
      4          1           0       -1.259432    0.338338    1.657899
      5          1           0        0.694700   -0.971434   -0.281079
      6          6           0       -1.364446   -1.384663   -0.593866
      7          7           0       -2.211638   -1.797747   -1.293597
      8          7           0       -1.014385    1.388688   -0.114135
      9          8           0       -0.255034    2.210740   -0.613237
     10          8           0       -2.223016    1.297690   -0.334049
     11          7           0        0.773979    0.794770    1.515839
     12          1           0        1.559342    0.682001    0.867370
     13          1           0        0.739405    1.732754    1.887565
     14         17           0        2.887417   -0.214805   -0.748568
 ---------------------------------------------------------------------

 SCF Done:  E(RHF) =  -990.427373781     A.U. after    2 cycles

 The electronic state is 1-A.
 Alpha  occ. eigenvalues --  -99.62357 -29.17818 -20.99927 -20.99199 -15.88009
 Alpha  occ. eigenvalues --  -15.67667 -15.63964 -11.44757 -11.38647 -11.34065
 Alpha  occ. eigenvalues --  -10.19050  -9.39110  -9.38798  -9.38587  -1.88302
 Alpha  occ. eigenvalues --   -1.58729  -1.31722  -1.21355  -1.10376  -0.98617
 Alpha  occ. eigenvalues --   -0.97601  -0.76439  -0.68217  -0.66919  -0.60133
 Alpha  occ. eigenvalues --   -0.57560  -0.53520  -0.52827  -0.48093  -0.44699
 Alpha  occ. eigenvalues --   -0.43057  -0.35614  -0.34588  -0.31948  -0.29008
 Alpha  occ. eigenvalues --   -0.26881  -0.26170  -0.26140  -0.23293  -0.20960
 Alpha  occ. eigenvalues --   -0.20432  -0.16863  -0.16145
 Alpha virt. eigenvalues --    0.12726   0.14040   0.17387   0.18000   0.19957
 Alpha virt. eigenvalues --    0.20066   0.21221   0.22255   0.23156   0.23578
 Alpha virt. eigenvalues --    0.24478   0.24652   0.25547   0.26520   0.27070

 Mulliken charges:
               1
     1  C    0.116058
     2  C   -0.208557
     3  F    0.124427
     4  H    1.876568
     5  H    1.781984
     6  C    1.512306
     7  N   -2.509099
     8  N    4.366912
     9  O   -2.694087
    10  O   -2.935381
    11  N   -2.439534
    12  H    0.449217
    13  H    0.504353
    14  Cl  -0.945168
 Sum of Mulliken charges =  -1.00000

 Dipole moment (field-independent basis, Debye):
    X=             -6.3697    Y=              0.7610    Z=              6.1835  Tot=              8.9100

 Test job not archived.
 1\1\GINC-SE070\SP\RHF\Aug-CC-pVDZ\C3H4Cl1F1N3O2(1-)\OHZDE\09-Apr-2025\
 0\\#t hf aug-cc-pvdz iop(5/13=1,5/36=2,99/5=2) pseudo=read geom=check
 guess=(read,tcheck) scf=(maxcycle=1)\\title\\-1,1\C,0,-0.307084,0.1048
 76,0.002153\C,0,-0.315763,-0.341119,-1.466068\F,0,0.679139,-0.635169,0
 .640967\H,0,0.70467,-0.294621,-1.857423\H,0,-1.279254,-0.14362,0.45234
 2\C,0,0.012174,1.523977,0.207367\N,0,0.272018,2.639946,0.462494\N,0,-1
 .028336,0.749765,-2.314953\O,0,-2.174775,0.534717,-2.690341\O,0,-0.355
 398,1.744682,-2.588317\N,0,-0.882572,-1.618081,-1.553471\H,0,-1.763051

 Normal termination of Gaussian 16 at Wed Apr  9 02:46:39 2025.
