 Gaussian 16, Revision C.01,

 ----------------------------------------------------------------------
 #t hf aug-cc-pvdz symm=none int=(grid=ultrafine) guess=(read,tcheck) s
 table=(opt,rrhf)
 ----------------------------------------------------------------------
 -----
 title
 -----
 Symbolic Z-matrix:
 Charge = -1 Multiplicity = 1

 SCF Done:  E(RHF) =  -611.858487528     A.U. after   16 cycles
 Normal termination of Gaussian 16 at Wed Apr  9 02:47:29 2025.
 Gaussian 16:  ES64L-G16RevC.01  3-Jul-2019

 ----------------------------------------------------------------------
 #t hf aug-cc-pvdz iop(5/13=1,5/36=2,99/5=2) pseudo=read geom=check gue
 ss=(read,tcheck) scf=(maxcycle=1)
 ----------------------------------------------------------------------
 -----
 title
 -----
 Structure from the checkpoint file:  "E2SN2_255_mol2.chk"
 Charge = -1 Multiplicity = 1

                         Standard orientation:
 ---------------------------------------------------------------------
 Center     Atomic      Atomic             Coordinates (Angstroms)
 Number     Number       Type             X           Y           Z
 ---------------------------------------------------------------------
      1          6           0       -0.734596    0.508471    0.337268
      2          6           0       -0.022701   -0.622228   -0.389075
      3          9           0       -0.620308    0.361876    1.723824
      4          1           0       -0.244691   -0.481451   -1.445673
      5          1           0       -1.806007    0.335954   -0.021377
      6          6           0       -0.209979    1.826916   -0.020927
      7          7           0        0.171061    2.901520   -0.306057
      8          6           0       -0.523959   -1.968562    0.087194
      9          1           0       -1.597551   -1.924968   -0.123346
     10          1           0       -0.046981   -2.777133   -0.473538
     11          1           0       -0.325543   -2.099255    1.149994
     12          7           0        1.463804   -0.502391   -0.252833
     13          8           0        1.974899   -0.846405    0.813105
     14          8           0        2.089419   -0.041122   -1.211294
     15          9           0       -2.823071   -0.496812   -0.843278
 ---------------------------------------------------------------------

 SCF Done:  E(RHF) =  -614.361045830     A.U. after    2 cycles

 The electronic state is 1-A.
 Alpha  occ. eigenvalues --  -29.14597 -28.91884 -20.98178 -20.97972 -15.87009
 Alpha  occ. eigenvalues --  -15.65474 -11.40456 -11.35192 -11.32175 -11.26183
 Alpha  occ. eigenvalues --   -1.87152  -1.57076  -1.24042  -1.15393  -1.00466
 Alpha  occ. eigenvalues --   -0.90600  -0.72417  -0.65806  -0.62476  -0.58489
 Alpha  occ. eigenvalues --   -0.53537  -0.51747  -0.47681  -0.44529  -0.42304
 Alpha  occ. eigenvalues --   -0.39860  -0.39263  -0.34271  -0.32270  -0.29715
 Alpha  occ. eigenvalues --   -0.24776  -0.24129  -0.20240  -0.19328  -0.14941
 Alpha  occ. eigenvalues --   -0.13131  -0.00989  -0.00135   0.02275
 Alpha virt. eigenvalues --    0.13424   0.15239   0.16204   0.17678   0.18411
 Alpha virt. eigenvalues --    0.19983   0.22083   0.22753   0.23454   0.23817
 Alpha virt. eigenvalues --    0.24135   0.25143   0.26239   0.26736   0.27433

 Mulliken charges:
               1
     1  C    0.880307
     2  C   -1.241454
     3  F   -0.055856
     4  H    2.155328
     5  H    1.202580
     6  C    0.683962
     7  N   -2.402505
     8  C   -3.502988
     9  H    0.816049
    10  H    1.126751
    11  H    1.294423
    12  N    4.257350
    13  O   -2.841926
    14  O   -2.812703
    15  F   -0.559318
 Sum of Mulliken charges =  -1.00000

 Dipole moment (field-independent basis, Debye):
    X=              3.5889    Y=             -2.7246    Z=              3.5300  Tot=              5.7241

 Test job not archived.
 1\1\GINC-SE129\SP\RHF\Aug-CC-pVDZ\C4H5F2N2O2(1-)\OHZDE\09-Apr-2025\0\\
 #t hf aug-cc-pvdz iop(5/13=1,5/36=2,99/5=2) pseudo=read geom=check gue
 ss=(read,tcheck) scf=(maxcycle=1)\\title\\-1,1\C,0,-0.156833,0.027329,
 0.039471\C,0,-0.512323,0.295921,-1.414604\F,0,1.001619,-0.751084,0.135
 138\H,0,-1.467688,0.817803,-1.394279\H,0,-1.085572,-0.550433,0.371052\
 C,0,0.062495,1.256813,0.802417\N,0,0.220119,2.225229,1.449403\C,0,-0.6
 27632,-0.999201,-2.189246\H,0,-1.404372,-1.547571,-1.646299\H,0,-0.933
 47,-0.804642,-3.220908\H,0,0.320828,-1.534378,-2.187858\N,0,0.466535,1

 Normal termination of Gaussian 16 at Wed Apr  9 02:47:36 2025.
