 Gaussian 16, Revision C.01,

 ----------------------------------------------------------------------
 #t hf aug-cc-pvdz symm=none int=(grid=ultrafine) guess=(read,tcheck) s
 table=(opt,rrhf)
 ----------------------------------------------------------------------
 -----
 title
 -----
 Symbolic Z-matrix:
 Charge = -1 Multiplicity = 1

 SCF Done:  E(RHF) =  -1144.49150122     A.U. after   15 cycles
 Normal termination of Gaussian 16 at Wed Apr  9 02:37:33 2025.
 Gaussian 16:  ES64L-G16RevC.01  3-Jul-2019

 ----------------------------------------------------------------------
 #t hf aug-cc-pvdz iop(5/13=1,5/36=2,99/5=2) pseudo=read geom=check gue
 ss=(read,tcheck) scf=(maxcycle=1)
 ----------------------------------------------------------------------
 -----
 title
 -----
 Structure from the checkpoint file:  "E2SN2_166_mol1.chk"
 Charge = -1 Multiplicity = 1

                         Standard orientation:
 ---------------------------------------------------------------------
 Center     Atomic      Atomic             Coordinates (Angstroms)
 Number     Number       Type             X           Y           Z
 ---------------------------------------------------------------------
      1          6           0       -0.430300   -0.625176   -0.120566
      2          1           0       -0.906449    1.246938    0.740556
      3         17           0        1.723793   -1.474030   -0.324350
      4         17           0       -2.715559   -0.199979   -0.203298
      5          6           0       -0.002101    0.675387    0.528735
      6          1           0       -0.658949   -1.453670    0.522302
      7          1           0       -0.486685   -0.718062   -1.186791
      8          6           0        0.788576    1.501466   -0.412115
      9          7           0        1.394758    2.253332   -1.081132
     10          7           0        0.657710    0.436414    1.805612
     11          1           0        0.897983    1.326250    2.225723
     12          1           0        1.509792   -0.081588    1.620546
 ---------------------------------------------------------------------

 SCF Done:  E(RHF) =  -1146.05833429     A.U. after    2 cycles

 The electronic state is 1-A.
 Alpha  occ. eigenvalues --  -99.66981 -99.66435 -15.64512 -15.63416 -11.39938
 Alpha  occ. eigenvalues --  -11.35497 -11.31037 -10.23945 -10.23337  -9.43974
 Alpha  occ. eigenvalues --   -9.43577  -9.43434  -9.43377  -9.42906  -9.42804
 Alpha  occ. eigenvalues --   -1.28684  -1.16186  -1.07275  -1.03458  -0.96935
 Alpha  occ. eigenvalues --   -0.81385  -0.62292  -0.58962  -0.51524  -0.47114
 Alpha  occ. eigenvalues --   -0.44074  -0.40886  -0.36732  -0.33634  -0.32377
 Alpha  occ. eigenvalues --   -0.31101  -0.30257  -0.29818  -0.28979  -0.27696
 Alpha  occ. eigenvalues --   -0.26031
 Alpha virt. eigenvalues --    0.13212   0.15497   0.16235   0.16612   0.17174
 Alpha virt. eigenvalues --    0.19379   0.19830   0.21407   0.23138   0.23387
 Alpha virt. eigenvalues --    0.24981   0.25278   0.26263   0.26327   0.26969

 Mulliken charges:
               1
     1  C   -2.774059
     2  H    1.744144
     3  Cl  -0.700182
     4  Cl  -0.709460
     5  C   -0.320547
     6  H    1.438412
     7  H    1.563057
     8  C    2.884912
     9  N   -2.665047
    10  N   -2.688750
    11  H    0.635968
    12  H    0.591552
 Sum of Mulliken charges =  -1.00000

 Dipole moment (field-independent basis, Debye):
    X=              1.4786    Y=              1.7973    Z=              2.8963  Tot=              3.7155

 Test job not archived.
 1\1\GINC-SE435\SP\RHF\Aug-CC-pVDZ\C3H5Cl2N2(1-)\OHZDE\09-Apr-2025\0\\#
 t hf aug-cc-pvdz iop(5/13=1,5/36=2,99/5=2) pseudo=read geom=check gues
 s=(read,tcheck) scf=(maxcycle=1)\\title\\-1,1\C,0,0.63914643,-0.006423
 05,-0.01674207\H,0,1.70152637,1.82234538,-0.01294133\Cl,0,-1.67782014,
 -0.18613605,-0.0563626\Cl,0,2.9371345,-0.35028282,0.08839741\C,0,0.656
 97583,1.50884422,-0.00914415\H,0,0.65945721,-0.50213192,-0.96848885\H,
 0,0.59128792,-0.56298803,0.89790912\C,0,0.07919881,2.03864923,1.247142
 36\N,0,-0.32539729,2.56851398,2.21455546\N,0,0.04692474,2.05056923,-1.

 Normal termination of Gaussian 16 at Wed Apr  9 02:37:38 2025.
