 Gaussian 16, Revision C.01,

 ----------------------------------------------------------------------
 #t hf aug-cc-pvdz symm=none int=(grid=ultrafine) guess=(read,tcheck) s
 table=(opt,rrhf)
 ----------------------------------------------------------------------
 -----
 title
 -----
 Symbolic Z-matrix:
 Charge = -1 Multiplicity = 1

 SCF Done:  E(RHF) =  -515.191776541     A.U. after   17 cycles
 Normal termination of Gaussian 16 at Wed Apr  9 02:57:55 2025.
 Gaussian 16:  ES64L-G16RevC.01  3-Jul-2019

 ----------------------------------------------------------------------
 #t hf aug-cc-pvdz iop(5/13=1,5/36=2,99/5=2) pseudo=read geom=check gue
 ss=(read,tcheck) scf=(maxcycle=1)
 ----------------------------------------------------------------------
 -----
 title
 -----
 Structure from the checkpoint file:  "E2SN2_380_mol1.chk"
 Charge = -1 Multiplicity = 1

                         Standard orientation:
 ---------------------------------------------------------------------
 Center     Atomic      Atomic             Coordinates (Angstroms)
 Number     Number       Type             X           Y           Z
 ---------------------------------------------------------------------
      1          6           0        0.141020   -0.403757   -0.262978
      2          1           0       -1.492230   -0.184317   -1.525604
      3          9           0        0.065893   -0.840708    1.286804
      4          1           0        0.517509    0.366902   -1.888056
      5          6           0       -1.296001    0.094790   -0.490067
      6          7           0        0.431342   -1.702810   -0.788172
      7          1           0        1.027493   -2.152344   -0.103185
      8          1           0        0.952471   -1.572322   -1.641452
      9          7           0        1.315520    0.484431   -0.000638
     10          8           0        1.123401    1.610751    0.464877
     11          8           0        2.434737   -0.032785   -0.095802
     12          6           0       -1.521879    1.595740   -0.379084
     13          1           0       -1.363927    1.948077    0.640659
     14          1           0       -0.837634    2.130300   -1.037648
     15          1           0       -2.554531    1.817367   -0.676170
     16          6           0       -2.301219   -0.670341    0.377208
     17          1           0       -2.114836   -1.743405    0.316439
     18          1           0       -2.237180   -0.370685    1.423210
     19          1           0       -3.314843   -0.466871    0.009165
 ---------------------------------------------------------------------

 SCF Done:  E(RHF) =  -517.510885486     A.U. after    2 cycles

 The electronic state is 1-A.
 Alpha  occ. eigenvalues --  -29.02691 -20.91029 -20.90787 -15.81970 -15.59640
 Alpha  occ. eigenvalues --  -11.44852 -11.28590 -11.24852 -11.21704  -1.80969
 Alpha  occ. eigenvalues --   -1.50939  -1.25903  -1.07855  -0.95949  -0.86560
 Alpha  occ. eigenvalues --   -0.75732  -0.67667  -0.58443  -0.53792  -0.51672
 Alpha  occ. eigenvalues --   -0.48157  -0.46233  -0.42914  -0.41128  -0.40876
 Alpha  occ. eigenvalues --   -0.37021  -0.33349  -0.32511  -0.31029  -0.26859
 Alpha  occ. eigenvalues --   -0.19355  -0.18325  -0.15433  -0.12855  -0.07773
 Alpha  occ. eigenvalues --   -0.06407  -0.06181
 Alpha virt. eigenvalues --    0.13223   0.14170   0.14539   0.15313   0.15817
 Alpha virt. eigenvalues --    0.16140   0.16384   0.17520   0.17704   0.19998
 Alpha virt. eigenvalues --    0.23701   0.24079   0.24710   0.25290   0.26438

 Mulliken charges:
               1
     1  C    3.879672
     2  H    1.719335
     3  F   -0.058759
     4  H   -0.840906
     5  C   -0.861817
     6  N   -3.249529
     7  H    0.415179
     8  H    0.529631
     9  N    5.016772
    10  O   -3.275885
    11  O   -3.224498
    12  C   -4.046239
    13  H    1.377668
    14  H    1.464972
    15  H    0.978630
    16  C   -4.426489
    17  H    1.274632
    18  H    1.285354
    19  H    1.042278
 Sum of Mulliken charges =  -1.00000

 Dipole moment (field-independent basis, Debye):
    X=             -2.2492    Y=             -1.8656    Z=              5.4696  Tot=              6.2012

 Test job not archived.
 1\1\GINC-SE129\SP\RHF\Aug-CC-pVDZ\C4H10F1N2O2(1-)\OHZDE\09-Apr-2025\0\
 \#t hf aug-cc-pvdz iop(5/13=1,5/36=2,99/5=2) pseudo=read geom=check gu
 ess=(read,tcheck) scf=(maxcycle=1)\\title\\-1,1\C,0,0.49138177,-0.0741
 1487,-0.07364442\H,0,1.54940665,1.67229344,-0.44851128\F,0,-1.04036921
 ,-0.34236097,-0.49811654\H,0,2.1207365,0.03914955,0.7683247\C,0,0.5340
 7949,1.46274334,-0.11095766\N,0,1.09198671,-0.73323577,-1.19279013\H,0
 ,0.49634775,-1.52619374,-1.40043289\H,0,1.99436111,-1.06992474,-0.8943
 7751\N,0,0.33456829,-0.88837968,1.17115769\O,0,-0.18940721,-0.37353169

 Normal termination of Gaussian 16 at Wed Apr  9 02:58:04 2025.
