 Gaussian 16, Revision C.01,

 ----------------------------------------------------------------------
 #t hf aug-cc-pvdz symm=none int=(grid=ultrafine) guess=(read,tcheck) s
 table=(opt,rrhf)
 ----------------------------------------------------------------------
 -----
 title
 -----
 Symbolic Z-matrix:
 Charge = -1 Multiplicity = 1

 SCF Done:  E(RHF) =  -823.413996500     A.U. after   16 cycles
 Normal termination of Gaussian 16 at Wed Apr  9 02:36:03 2025.
 Gaussian 16:  ES64L-G16RevC.01  3-Jul-2019

 ----------------------------------------------------------------------
 #t hf aug-cc-pvdz iop(5/13=1,5/36=2,99/5=2) pseudo=read geom=check gue
 ss=(read,tcheck) scf=(maxcycle=1)
 ----------------------------------------------------------------------
 -----
 title
 -----
 Structure from the checkpoint file:  "E2SN2_139_mol1.chk"
 Charge = -1 Multiplicity = 1

                         Standard orientation:
 ---------------------------------------------------------------------
 Center     Atomic      Atomic             Coordinates (Angstroms)
 Number     Number       Type             X           Y           Z
 ---------------------------------------------------------------------
      1          6           0       -0.199883    0.148401    0.087110
      2          6           0        0.770457   -0.332867   -0.865792
      3         17           0       -1.913308   -0.938430    0.127311
      4          9           0        2.745197    0.732641    0.307247
      5          1           0        1.873169    0.385183   -0.382192
      6          1           0        0.493042   -0.113412   -1.899125
      7          7           0        0.178288    0.146170    1.491928
      8          1           0        1.171249    0.390302    1.482478
      9          1           0        0.088341   -0.801222    1.836922
     10          6           0       -0.736505    1.459813   -0.291707
     11          7           0       -1.131059    2.520220   -0.611014
     12          6           0        1.268745   -1.748364   -0.652221
     13          1           0        0.461259   -2.491657   -0.692315
     14          1           0        2.008688   -2.000677   -1.417390
     15          1           0        1.776221   -1.835606    0.311376
 ---------------------------------------------------------------------

 SCF Done:  E(RHF) =  -825.296305456     A.U. after    2 cycles

 The electronic state is 1-A.
 Alpha  occ. eigenvalues --  -99.71711 -28.99231 -15.63345 -15.60954 -11.41036
 Alpha  occ. eigenvalues --  -11.31214 -11.25922 -11.20853 -10.28802  -9.48846
 Alpha  occ. eigenvalues --   -9.48249  -9.48177  -1.28781  -1.14985  -1.09609
 Alpha  occ. eigenvalues --   -1.01844  -0.88264  -0.72514  -0.61552  -0.55842
 Alpha  occ. eigenvalues --   -0.51869  -0.47897  -0.44200  -0.41831  -0.40939
 Alpha  occ. eigenvalues --   -0.38435  -0.35161  -0.34425  -0.32692  -0.29510
 Alpha  occ. eigenvalues --   -0.29291  -0.24713  -0.23273  -0.06596  -0.06443
 Alpha  occ. eigenvalues --   -0.02751
 Alpha virt. eigenvalues --    0.13625   0.14877   0.15205   0.15754   0.16547
 Alpha virt. eigenvalues --    0.17703   0.18691   0.20151   0.21151   0.22258
 Alpha virt. eigenvalues --    0.23360   0.24633   0.24982   0.25329   0.26035

 Mulliken charges:
               1
     1  C    3.362764
     2  C   -3.038816
     3  Cl  -0.359203
     4  F    0.572962
     5  H    0.540512
     6  H    1.193877
     7  N   -3.147590
     8  H    0.517031
     9  H    0.606806
    10  C    1.506808
    11  N   -2.590065
    12  C   -3.680619
    13  H    1.245913
    14  H    1.040382
    15  H    1.229238
 Sum of Mulliken charges =  -1.00000

 Dipole moment (field-independent basis, Debye):
    X=              3.2866    Y=             -1.6963    Z=              0.8138  Tot=              3.7870

 Test job not archived.
 1\1\GINC-SE461\SP\RHF\Aug-CC-pVDZ\C4H7Cl1F1N2(1-)\OHZDE\09-Apr-2025\0\
 \#t hf aug-cc-pvdz iop(5/13=1,5/36=2,99/5=2) pseudo=read geom=check gu
 ess=(read,tcheck) scf=(maxcycle=1)\\title\\-1,1\C,0,-0.22060486,0.0387
 4223,-0.32212117\C,0,-0.13301269,0.07857945,1.1173025\Cl,0,1.57742519,
 -0.1473873,-1.24466551\F,0,-2.52333022,-0.67264827,1.48194946\H,0,-1.4
 9045653,-0.14250769,1.38915848\H,0,0.26505627,1.02467743,1.49058077\N,
 0,-0.96864345,-1.05614288,-0.92061526\H,0,-1.74710053,-1.20751767,-0.2
 7505268\H,0,-0.3802561,-1.8797008,-0.90589127\C,0,-0.66395707,1.320698

 Normal termination of Gaussian 16 at Wed Apr  9 02:36:09 2025.
