 Gaussian 16, Revision C.01,

 ----------------------------------------------------------------------
 #t hf aug-cc-pvdz symm=none int=(grid=ultrafine) guess=(read,tcheck) s
 table=(opt,rrhf)
 ----------------------------------------------------------------------
 -----
 title
 -----
 Symbolic Z-matrix:
 Charge = -1 Multiplicity = 1

 SCF Done:  E(RHF) =  -839.439797367     A.U. after   16 cycles
 Normal termination of Gaussian 16 at Wed Apr  9 02:42:01 2025.
 Gaussian 16:  ES64L-G16RevC.01  3-Jul-2019

 ----------------------------------------------------------------------
 #t hf aug-cc-pvdz iop(5/13=1,5/36=2,99/5=2) pseudo=read geom=check gue
 ss=(read,tcheck) scf=(maxcycle=1)
 ----------------------------------------------------------------------
 -----
 title
 -----
 Structure from the checkpoint file:  "E2SN2_207_mol1.chk"
 Charge = -1 Multiplicity = 1

                         Standard orientation:
 ---------------------------------------------------------------------
 Center     Atomic      Atomic             Coordinates (Angstroms)
 Number     Number       Type             X           Y           Z
 ---------------------------------------------------------------------
      1          6           0        0.387318   -0.424102   -0.355370
      2          1           0        0.040487    0.739075    1.408581
      3          9           0       -1.136095   -1.415542   -1.124049
      4         17           0        2.160655    0.861504    0.017982
      5          6           0       -0.564534    0.221849    0.662772
      6          1           0        0.413764   -0.083948   -1.375407
      7          7           0        0.968975   -1.658787    0.072983
      8          1           0        1.934872   -1.683246   -0.223064
      9          1           0        0.427620   -2.349375   -0.436159
     10          7           0       -1.435336   -0.716806    1.360133
     11          1           0       -0.808438   -1.327619    1.874727
     12          1           0       -1.811706   -1.280946    0.597977
     13          6           0       -1.375207    1.238613   -0.019861
     14          7           0       -2.017687    2.070195   -0.541852
 ---------------------------------------------------------------------

 SCF Done:  E(RHF) =  -841.350310503     A.U. after    2 cycles

 The electronic state is 1-A.
 Alpha  occ. eigenvalues --  -99.67217 -28.95727 -15.62638 -15.61675 -15.60140
 Alpha  occ. eigenvalues --  -11.41564 -11.34736 -11.29113 -10.24253  -9.44323
 Alpha  occ. eigenvalues --   -9.43797  -9.43703  -1.29679  -1.19833  -1.14370
 Alpha  occ. eigenvalues --   -1.05268  -0.93854  -0.77181  -0.63384  -0.58470
 Alpha  occ. eigenvalues --   -0.53771  -0.48167  -0.47004  -0.43927  -0.37785
 Alpha  occ. eigenvalues --   -0.36535  -0.32130  -0.31719  -0.30666  -0.29657
 Alpha  occ. eigenvalues --   -0.28311  -0.26480  -0.24089  -0.05922  -0.03655
 Alpha  occ. eigenvalues --   -0.03172
 Alpha virt. eigenvalues --    0.13995   0.14864   0.16145   0.16365   0.17335
 Alpha virt. eigenvalues --    0.17772   0.20441   0.21342   0.23385   0.23981
 Alpha virt. eigenvalues --    0.24920   0.25488   0.26485   0.27656   0.28490

 Mulliken charges:
               1
     1  C    0.525154
     2  H    1.788229
     3  F   -0.603872
     4  Cl  -0.640180
     5  C   -0.256021
     6  H    1.617824
     7  N   -3.068095
     8  H    0.585163
     9  H    0.570878
    10  N   -2.694043
    11  H    0.611026
    12  H    0.411656
    13  C    2.917853
    14  N   -2.765570
 Sum of Mulliken charges =  -1.00000

 Dipole moment (field-independent basis, Debye):
    X=             -1.8767    Y=             -4.8303    Z=             -0.1134  Tot=              5.1834

 Test job not archived.
 1\1\GINC-SE114\SP\RHF\Aug-CC-pVDZ\C3H6Cl1F1N3(1-)\OHZDE\09-Apr-2025\0\
 \#t hf aug-cc-pvdz iop(5/13=1,5/36=2,99/5=2) pseudo=read geom=check gu
 ess=(read,tcheck) scf=(maxcycle=1)\\title\\-1,1\C,0,0.7872479,0.038908
 58,0.08559519\H,0,1.72181291,1.96375928,0.00599691\F,0,-1.16391557,-0.
 03090854,0.37316079\Cl,0,2.87452347,-0.20486154,-0.63603982\C,0,0.7047
 0031,1.56997267,-0.00882493\H,0,0.47953792,-0.5797601,-0.7386879\N,0,0
 .99568189,-0.46599344,1.40767248\H,0,1.64171319,-1.24169138,1.36145758
 \H,0,0.07191709,-0.79298064,1.67023689\N,0,-0.04103322,2.20544465,1.07

 Normal termination of Gaussian 16 at Wed Apr  9 02:42:06 2025.
