 Gaussian 16, Revision C.01,

 ----------------------------------------------------------------------
 #t hf aug-cc-pvdz symm=none int=(grid=ultrafine) guess=(read,tcheck) s
 table=(opt,rrhf)
 ----------------------------------------------------------------------
 -----
 title
 -----
 Symbolic Z-matrix:
 Charge = -1 Multiplicity = 1

 SCF Done:  E(RHF) =  -915.192414276     A.U. after   16 cycles
 Normal termination of Gaussian 16 at Wed Apr  9 03:03:01 2025.
 Gaussian 16:  ES64L-G16RevC.01  3-Jul-2019

 ----------------------------------------------------------------------
 #t hf aug-cc-pvdz iop(5/13=1,5/36=2,99/5=2) pseudo=read geom=check gue
 ss=(read,tcheck) scf=(maxcycle=1)
 ----------------------------------------------------------------------
 -----
 title
 -----
 Structure from the checkpoint file:  "E2SN2_90_mol2.chk"
 Charge = -1 Multiplicity = 1

                         Standard orientation:
 ---------------------------------------------------------------------
 Center     Atomic      Atomic             Coordinates (Angstroms)
 Number     Number       Type             X           Y           Z
 ---------------------------------------------------------------------
      1          6           0       -0.010369   -0.602024   -0.150628
      2          6           0       -0.343294    0.879134    0.168808
      3         17           0        1.331638   -0.656076   -1.389165
      4          1           0       -1.137856    0.783817    0.921185
      5          6           0        0.545381   -1.235861    1.059858
      6          7           0        0.977266   -1.731876    2.033247
      7          7           0       -1.127367   -1.365531   -0.613537
      8          1           0       -1.292555   -1.098673   -1.579066
      9          1           0       -1.956242   -0.973381   -0.051168
     10          6           0       -1.016457    1.586968   -1.007643
     11          1           0       -0.462530    1.460887   -1.940792
     12          1           0       -2.020727    1.169311   -1.059658
     13          1           0       -1.101171    2.654843   -0.793250
     14          6           0        0.818587    1.600731    0.672235
     15          7           0        1.739710    2.214917    1.067749
     16          9           0       -2.861901   -0.004419    0.694508
 ---------------------------------------------------------------------

 SCF Done:  E(RHF) =  -917.437155614     A.U. after    2 cycles

 The electronic state is 1-A.
 Alpha  occ. eigenvalues --  -99.77962 -28.93015 -15.65458 -15.64813 -15.59597
 Alpha  occ. eigenvalues --  -11.43803 -11.36440 -11.33284 -11.31639 -11.27209
 Alpha  occ. eigenvalues --  -10.35359  -9.55362  -9.54635  -9.54583  -1.34169
 Alpha  occ. eigenvalues --   -1.19146  -1.17171  -1.15343  -1.06971  -0.91251
 Alpha  occ. eigenvalues --   -0.80270  -0.64284  -0.63350  -0.55892  -0.51477
 Alpha  occ. eigenvalues --   -0.48782  -0.45946  -0.44306  -0.42786  -0.42212
 Alpha  occ. eigenvalues --   -0.38798  -0.38563  -0.37094  -0.33114  -0.32491
 Alpha  occ. eigenvalues --   -0.31778  -0.31086  -0.28487  -0.23287  -0.02008
 Alpha  occ. eigenvalues --   -0.01653   0.00176
 Alpha virt. eigenvalues --    0.13246   0.14201   0.15146   0.15987   0.16995
 Alpha virt. eigenvalues --    0.18148   0.18442   0.19027   0.20336   0.21624
 Alpha virt. eigenvalues --    0.22398   0.22968   0.23662   0.24574   0.24980

 Mulliken charges:
               1
     1  C    3.709738
     2  C    0.962211
     3  Cl  -0.163556
     4  H    1.008280
     5  C    1.478351
     6  N   -2.567094
     7  N   -3.839495
     8  H    0.539436
     9  H    0.030376
    10  C   -4.116837
    11  H    1.204087
    12  H    1.168022
    13  H    1.077264
    14  C    1.809607
    15  N   -2.564610
    16  F   -0.735783
 Sum of Mulliken charges =  -1.00000

 Dipole moment (field-independent basis, Debye):
    X=              0.8934    Y=              1.0357    Z=             -3.6183  Tot=              3.8682

 Test job not archived.
 1\1\GINC-SE423\SP\RHF\Aug-CC-pVDZ\C5H6Cl1F1N3(1-)\OHZDE\09-Apr-2025\0\
 \#t hf aug-cc-pvdz iop(5/13=1,5/36=2,99/5=2) pseudo=read geom=check gu
 ess=(read,tcheck) scf=(maxcycle=1)\\title\\-1,1\C,0,-0.097674,-0.06183
 7,-1.521059\C,0,-0.011227,0.114311,0.017839\Cl,0,-1.813945,-0.493747,-
 1.974652\H,0,1.044036,0.381627,0.16429\C,0,0.163612,1.239911,-2.16376\
 N,0,0.383186,2.279941,-2.663928\N,0,0.80309,-1.038921,-2.049116\H,0,0.
 415872,-1.951671,-1.830724\H,0,1.681387,-0.934807,-1.436883\C,0,-0.174
 365,-1.211799,0.761501\H,0,-1.06114,-1.762645,0.439482\H,0,0.747296,-1

 Normal termination of Gaussian 16 at Wed Apr  9 03:03:10 2025.
