 Gaussian 16, Revision C.01,

 ----------------------------------------------------------------------
 #t hf aug-cc-pvdz symm=none int=(grid=ultrafine) guess=(read,tcheck) s
 table=(opt,rrhf)
 ----------------------------------------------------------------------
 -----
 title
 -----
 Symbolic Z-matrix:
 Charge = -1 Multiplicity = 1

 SCF Done:  E(RHF) =  -611.817195182     A.U. after   16 cycles
 Normal termination of Gaussian 16 at Wed Apr  9 02:47:22 2025.
 Gaussian 16:  ES64L-G16RevC.01  3-Jul-2019

 ----------------------------------------------------------------------
 #t hf aug-cc-pvdz iop(5/13=1,5/36=2,99/5=2) pseudo=read geom=check gue
 ss=(read,tcheck) scf=(maxcycle=1)
 ----------------------------------------------------------------------
 -----
 title
 -----
 Structure from the checkpoint file:  "E2SN2_255_mol1.chk"
 Charge = -1 Multiplicity = 1

                         Standard orientation:
 ---------------------------------------------------------------------
 Center     Atomic      Atomic             Coordinates (Angstroms)
 Number     Number       Type             X           Y           Z
 ---------------------------------------------------------------------
      1          6           0        0.812984    0.497752    0.386124
      2          1           0       -0.229934    0.792473   -1.440797
      3          9           0        0.027526   -0.531703    1.634639
      4          9           0        1.613463    1.628307   -0.675160
      5          6           0       -0.481466    0.635540   -0.392765
      6          1           0        1.019318    1.167851    1.200823
      7          6           0        1.768216   -0.553013    0.098607
      8          7           0        2.590150   -1.365070   -0.110563
      9          6           0       -1.298146    1.775111    0.167598
     10          1           0       -1.531191    1.563349    1.210373
     11          1           0       -0.687910    2.676174    0.089534
     12          1           0       -2.228677    1.915930   -0.384265
     13          7           0       -1.270078   -0.646788   -0.403055
     14          8           0       -2.407333   -0.657318    0.059958
     15          8           0       -0.737735   -1.596999   -0.969088
 ---------------------------------------------------------------------

 SCF Done:  E(RHF) =  -614.334774518     A.U. after    2 cycles

 The electronic state is 1-A.
 Alpha  occ. eigenvalues --  -29.00252 -28.97789 -20.95886 -20.95535 -15.85363
 Alpha  occ. eigenvalues --  -15.61841 -11.46102 -11.37068 -11.31001 -11.27171
 Alpha  occ. eigenvalues --   -1.85388  -1.55310  -1.21422  -1.13484  -0.97849
 Alpha  occ. eigenvalues --   -0.90381  -0.71677  -0.64170  -0.61587  -0.56593
 Alpha  occ. eigenvalues --   -0.50752  -0.49220  -0.47177  -0.43519  -0.42302
 Alpha  occ. eigenvalues --   -0.39281  -0.37139  -0.33632  -0.29907  -0.29254
 Alpha  occ. eigenvalues --   -0.22126  -0.18230  -0.17694  -0.14902  -0.06968
 Alpha  occ. eigenvalues --   -0.05685  -0.04484  -0.03727   0.03018
 Alpha virt. eigenvalues --    0.12977   0.14656   0.15639   0.15703   0.16145
 Alpha virt. eigenvalues --    0.20120   0.21577   0.22239   0.23297   0.24733
 Alpha virt. eigenvalues --    0.25358   0.25434   0.26153   0.26546   0.27455

 Mulliken charges:
               1
     1  C    1.222223
     2  H    2.054406
     3  F   -0.581702
     4  F   -0.485294
     5  C   -2.838674
     6  H    1.642724
     7  C    1.175208
     8  N   -2.645496
     9  C   -3.049659
    10  H    1.209406
    11  H    1.126943
    12  H    1.169499
    13  N    5.067620
    14  O   -2.905719
    15  O   -3.161486
 Sum of Mulliken charges =  -1.00000

 Dipole moment (field-independent basis, Debye):
    X=             -3.9385    Y=              2.6619    Z=              0.0909  Tot=              4.7545

 Test job not archived.
 1\1\GINC-SE123\SP\RHF\Aug-CC-pVDZ\C4H5F2N2O2(1-)\OHZDE\09-Apr-2025\0\\
 #t hf aug-cc-pvdz iop(5/13=1,5/36=2,99/5=2) pseudo=read geom=check gue
 ss=(read,tcheck) scf=(maxcycle=1)\\title\\-1,1\C,0,0.51786762,-0.03604
 692,-0.01772577\H,0,1.6529599,1.71734053,-0.40421652\F,0,-1.24312026,0
 .0172843,-0.38048169\F,0,2.17503329,-0.17242155,0.51184584\C,0,0.63590
 14,1.47411671,-0.09974649\H,0,0.21980478,-0.49851338,0.9056515\C,0,0.7
 4546439,-0.88284731,-1.17114234\N,0,0.9473785,-1.61787621,-2.0642976\C
 ,0,0.2844696,2.08899037,1.23367855\H,0,-0.74224634,1.82547382,1.484570

 Normal termination of Gaussian 16 at Wed Apr  9 02:47:28 2025.
