 Gaussian 16, Revision C.01,

 ----------------------------------------------------------------------
 #t hf aug-cc-pvdz symm=none int=(grid=ultrafine) guess=(read,tcheck) s
 table=(opt,rrhf)
 ----------------------------------------------------------------------
 -----
 title
 -----
 Symbolic Z-matrix:
 Charge = -1 Multiplicity = 1

 SCF Done:  E(RHF) =  -836.247986087     A.U. after   17 cycles
 Normal termination of Gaussian 16 at Wed Apr  9 02:35:03 2025.
 Gaussian 16:  ES64L-G16RevC.01  3-Jul-2019

 ----------------------------------------------------------------------
 #t hf aug-cc-pvdz iop(5/13=1,5/36=2,99/5=2) pseudo=read geom=check gue
 ss=(read,tcheck) scf=(maxcycle=1)
 ----------------------------------------------------------------------
 -----
 title
 -----
 Structure from the checkpoint file:  "E2SN2_129_mol2.chk"
 Charge = -1 Multiplicity = 1

                         Standard orientation:
 ---------------------------------------------------------------------
 Center     Atomic      Atomic             Coordinates (Angstroms)
 Number     Number       Type             X           Y           Z
 ---------------------------------------------------------------------
      1          6           0        0.255645   -0.253426    0.370762
      2          6           0        0.364754    1.184481    0.874137
      3         17           0        1.414107   -0.504374   -0.963861
      4          1           0        1.376038    1.250590    1.286819
      5          1           0       -0.321707    1.253445    1.723640
      6          7           0        0.440557   -1.269275    1.329812
      7          1           0       -0.261563   -1.118760    2.050764
      8          1           0        1.389485   -1.049598    1.833621
      9          7           0       -1.182100   -0.386870   -0.217257
     10          8           0       -2.069167   -0.355023    0.635954
     11          8           0       -1.379081   -0.463085   -1.423854
     12          6           0        0.058888    2.274897   -0.144314
     13          1           0       -0.971212    2.209601   -0.507066
     14          1           0        0.186732    3.260765    0.311779
     15          1           0        0.724782    2.211046   -1.006118
     16          1           0        2.538690   -0.540564    2.604001
 ---------------------------------------------------------------------

 SCF Done:  E(RHF) =  -838.240734446     A.U. after    2 cycles

 The electronic state is 1-A.
 Alpha  occ. eigenvalues --  -99.76086 -20.98563 -20.97758 -15.86687 -15.58241
 Alpha  occ. eigenvalues --  -11.41495 -11.30412 -11.25654 -10.33603  -9.53680
 Alpha  occ. eigenvalues --   -9.52772  -9.52722  -1.87373  -1.57561  -1.30970
 Alpha  occ. eigenvalues --   -1.14228  -1.05815  -0.94816  -0.82232  -0.67908
 Alpha  occ. eigenvalues --   -0.61660  -0.58154  -0.53202  -0.51665  -0.47242
 Alpha  occ. eigenvalues --   -0.45405  -0.44126  -0.42871  -0.39581  -0.38963
 Alpha  occ. eigenvalues --   -0.36737  -0.36057  -0.25479  -0.21952  -0.20261
 Alpha  occ. eigenvalues --   -0.19747  -0.10263
 Alpha virt. eigenvalues --    0.12418   0.14267   0.14693   0.15205   0.16724
 Alpha virt. eigenvalues --    0.18340   0.18564   0.21148   0.22063   0.22446
 Alpha virt. eigenvalues --    0.22607   0.23286   0.24406   0.25076   0.25715

 Mulliken charges:
               1
     1  C    3.330623
     2  C   -2.703940
     3  Cl   0.042847
     4  H    1.398495
     5  H    1.695112
     6  N   -3.551347
     7  H    0.482562
     8  H    0.711287
     9  N    4.335204
    10  O   -2.926851
    11  O   -2.889487
    12  C   -3.549785
    13  H    1.243191
    14  H    1.108656
    15  H    1.251190
    16  H   -0.977757
 Sum of Mulliken charges =  -1.00000

 Dipole moment (field-independent basis, Debye):
    X=             -8.3876    Y=              3.7021    Z=             -6.9386  Tot=             11.4979

 Test job not archived.
 1\1\GINC-SE462\SP\RHF\Aug-CC-pVDZ\C3H8Cl1N2O2(1-)\OHZDE\09-Apr-2025\0\
 \#t hf aug-cc-pvdz iop(5/13=1,5/36=2,99/5=2) pseudo=read geom=check gu
 ess=(read,tcheck) scf=(maxcycle=1)\\title\\-1,1\C,0,-0.14113,0.238655,
 -1.390964\C,0,0.058227,0.051039,0.111676\Cl,0,0.134786,1.949965,-1.817
 011\H,0,1.117215,0.273736,0.273922\H,0,-0.064611,-1.020871,0.294863\N,
 0,0.64535,-0.571811,-2.233884\H,0,0.430902,-1.536471,-1.991314\H,0,1.6
 84002,-0.440753,-1.90743\N,0,-1.642926,-0.081499,-1.660767\O,0,-1.9269
 86,-1.271159,-1.519734\O,0,-2.449087,0.798963,-1.935318\C,0,-0.869677,

 Normal termination of Gaussian 16 at Wed Apr  9 02:35:09 2025.
