 Gaussian 16, Revision C.01,

 ----------------------------------------------------------------------
 #t hf aug-cc-pvdz symm=none int=(grid=ultrafine) guess=(read,tcheck) s
 table=(opt,rrhf)
 ----------------------------------------------------------------------
 -----
 title
 -----
 Symbolic Z-matrix:
 Charge = -1 Multiplicity = 1

 SCF Done:  E(RHF) =  -832.223781006     A.U. after   17 cycles
 Normal termination of Gaussian 16 at Wed Apr  9 02:37:10 2025.
 Gaussian 16:  ES64L-G16RevC.01  3-Jul-2019

 ----------------------------------------------------------------------
 #t hf aug-cc-pvdz iop(5/13=1,5/36=2,99/5=2) pseudo=read geom=check gue
 ss=(read,tcheck) scf=(maxcycle=1)
 ----------------------------------------------------------------------
 -----
 title
 -----
 Structure from the checkpoint file:  "E2SN2_149_mol2.chk"
 Charge = -1 Multiplicity = 1

                         Standard orientation:
 ---------------------------------------------------------------------
 Center     Atomic      Atomic             Coordinates (Angstroms)
 Number     Number       Type             X           Y           Z
 ---------------------------------------------------------------------
      1          6           0       -0.596035    0.339306   -0.158034
      2          6           0        0.880885    0.354558   -0.607750
      3         17           0       -0.613572   -0.009016    1.716991
      4          1           0        0.813906    0.415030   -1.709107
      5          7           0       -1.186746    1.536825   -0.497296
      6          1           0       -0.628249    2.136940   -1.215849
      7          1           0       -2.180550    1.487165   -0.667074
      8          6           0       -1.275607   -0.849957   -0.698770
      9          7           0       -1.850781   -1.751420   -1.189469
     10          6           0        1.564280   -0.890849   -0.255434
     11          7           0        2.165965   -1.871061   -0.017433
     12          7           0        1.563080    1.512265   -0.054644
     13          1           0        1.298421    2.279550   -0.694412
     14          1           0        2.563024    1.368559   -0.156930
     15          1           0        0.282396    2.761409   -2.113659
 ---------------------------------------------------------------------

 SCF Done:  E(RHF) =  -834.204645969     A.U. after    2 cycles

 The electronic state is 1-A.
 Alpha  occ. eigenvalues --  -99.75353 -15.66717 -15.66020 -15.61624 -15.60823
 Alpha  occ. eigenvalues --  -11.44762 -11.38330 -11.34489 -11.32399 -10.32610
 Alpha  occ. eigenvalues --   -9.52593  -9.51935  -9.51882  -1.35761  -1.22445
 Alpha  occ. eigenvalues --   -1.17859  -1.16905  -1.14287  -0.96901  -0.82815
 Alpha  occ. eigenvalues --   -0.68230  -0.62574  -0.55515  -0.51477  -0.49937
 Alpha  occ. eigenvalues --   -0.47706  -0.46906  -0.42724  -0.39453  -0.38022
 Alpha  occ. eigenvalues --   -0.37841  -0.33922  -0.33247  -0.32562  -0.31335
 Alpha  occ. eigenvalues --   -0.25827  -0.24110  -0.14761
 Alpha virt. eigenvalues --    0.14293   0.14761   0.15672   0.17685   0.18082
 Alpha virt. eigenvalues --    0.18696   0.18936   0.19577   0.20175   0.21437
 Alpha virt. eigenvalues --    0.22347   0.22577   0.24001   0.24219   0.25468

 Mulliken charges:
               1
     1  C    2.307977
     2  C    0.506660
     3  Cl  -0.138520
     4  H    1.954480
     5  N   -3.622627
     6  H    0.715223
     7  H    0.674246
     8  C    2.475957
     9  N   -2.732814
    10  C    2.163465
    11  N   -2.531954
    12  N   -3.043108
    13  H    0.672374
    14  H    0.573935
    15  H   -0.975293
 Sum of Mulliken charges =  -1.00000

 Dipole moment (field-independent basis, Debye):
    X=             -0.5022    Y=             -2.9796    Z=              3.1351  Tot=              4.3542

 Test job not archived.
 1\1\GINC-SE403\SP\RHF\Aug-CC-pVDZ\C4H6Cl1N4(1-)\OHZDE\09-Apr-2025\0\\#
 t hf aug-cc-pvdz iop(5/13=1,5/36=2,99/5=2) pseudo=read geom=check gues
 s=(read,tcheck) scf=(maxcycle=1)\\title\\-1,1\C,0,-0.238108,-0.061308,
 -1.504668\C,0,-0.073671,-0.197633,0.024432\Cl,0,-2.060391,0.390345,-1.
 840303\H,0,0.950693,-0.596107,0.138572\N,0,0.653594,0.877351,-1.975706
 \H,0,1.450794,1.142478,-1.281044\H,0,0.950855,0.739282,-2.930436\C,0,-
 0.125484,-1.383176,-2.14384\N,0,0.042407,-2.419723,-2.674527\C,0,-1.01
 2048,-1.172432,0.582471\N,0,-1.725944,-1.954303,1.090914\N,0,-0.21072,

 Normal termination of Gaussian 16 at Wed Apr  9 02:37:17 2025.
