 Gaussian 16, Revision C.01,

 ----------------------------------------------------------------------
 #t hf aug-cc-pvdz symm=none int=(grid=ultrafine) guess=(read,tcheck) s
 table=(opt,rrhf)
 ----------------------------------------------------------------------
 -----
 title
 -----
 Symbolic Z-matrix:
 Charge = -1 Multiplicity = 1

 SCF Done:  E(RHF) =  -987.991668310     A.U. after   16 cycles
 Normal termination of Gaussian 16 at Wed Apr  9 02:45:33 2025.
 Gaussian 16:  ES64L-G16RevC.01  3-Jul-2019

 ----------------------------------------------------------------------
 #t hf aug-cc-pvdz iop(5/13=1,5/36=2,99/5=2) pseudo=read geom=check gue
 ss=(read,tcheck) scf=(maxcycle=1)
 ----------------------------------------------------------------------
 -----
 title
 -----
 Structure from the checkpoint file:  "E2SN2_238_mol2.chk"
 Charge = -1 Multiplicity = 1

                         Standard orientation:
 ---------------------------------------------------------------------
 Center     Atomic      Atomic             Coordinates (Angstroms)
 Number     Number       Type             X           Y           Z
 ---------------------------------------------------------------------
      1          6           0        0.624048   -0.305817   -0.318660
      2          6           0        0.601763    0.751828    0.764650
      3          9           0        1.927865   -0.643124   -0.644229
      4          1           0       -0.448646    1.016092    0.948482
      5          1           0        1.038088    0.344597    1.676262
      6          7           0        0.144302   -1.670590    0.304183
      7          8           0        0.308443   -1.863694    1.504830
      8          8           0       -0.297852   -2.489556   -0.495080
      9          7           0       -0.085259    0.055393   -1.445262
     10          1           0       -0.201107   -0.736226   -2.065190
     11          1           0       -1.003583    0.431207   -1.169861
     12          6           0        1.358977    1.926052    0.345709
     13          7           0        1.995687    2.870481    0.064221
     14         17           0       -2.747771    0.972887    0.065775
 ---------------------------------------------------------------------

 SCF Done:  E(RHF) =  -990.463970460     A.U. after    2 cycles

 The electronic state is 1-A.
 Alpha  occ. eigenvalues --  -99.63029 -29.19041 -21.00263 -21.00038 -15.88442
 Alpha  occ. eigenvalues --  -15.66083 -15.64107 -11.47799 -11.36457 -11.32256
 Alpha  occ. eigenvalues --  -10.19737  -9.39765  -9.39463  -9.39296  -1.89018
 Alpha  occ. eigenvalues --   -1.59571  -1.35125  -1.20064  -1.08439  -0.99385
 Alpha  occ. eigenvalues --   -0.97938  -0.81768  -0.67744  -0.65239  -0.59480
 Alpha  occ. eigenvalues --   -0.55926  -0.55151  -0.50653  -0.48728  -0.46314
 Alpha  occ. eigenvalues --   -0.41345  -0.36257  -0.34140  -0.31899  -0.30008
 Alpha  occ. eigenvalues --   -0.27675  -0.26958  -0.26781  -0.24225  -0.22787
 Alpha  occ. eigenvalues --   -0.20595  -0.17993  -0.17536
 Alpha virt. eigenvalues --    0.13604   0.15061   0.17089   0.18243   0.18961
 Alpha virt. eigenvalues --    0.19719   0.21278   0.21933   0.22883   0.24064
 Alpha virt. eigenvalues --    0.24383   0.24986   0.25834   0.26693   0.26866

 Mulliken charges:
               1
     1  C    3.928078
     2  C   -2.767767
     3  F    0.525025
     4  H    1.348430
     5  H    1.577462
     6  N    3.923552
     7  O   -2.940057
     8  O   -2.871750
     9  N   -3.352490
    10  H    0.515926
    11  H    0.391439
    12  C    2.215272
    13  N   -2.550927
    14  Cl  -0.942193
 Sum of Mulliken charges =  -1.00000

 Dipole moment (field-independent basis, Debye):
    X=              8.8213    Y=             -5.3124    Z=             -0.7200  Tot=             10.3226

 Test job not archived.
 1\1\GINC-SE159\SP\RHF\Aug-CC-pVDZ\C3H4Cl1F1N3O2(1-)\OHZDE\09-Apr-2025\
 0\\#t hf aug-cc-pvdz iop(5/13=1,5/36=2,99/5=2) pseudo=read geom=check
 guess=(read,tcheck) scf=(maxcycle=1)\\title\\-1,1\C,0,-0.00948,0.00940
 9,0.009459\C,0,-0.521011,0.435404,-1.350517\F,0,1.371904,-0.097312,-0.
 000531\H,0,-1.618288,0.456654,-1.300302\H,0,-0.149147,1.433546,-1.5800
 4\N,0,-0.175348,1.21662,1.007369\O,0,-0.171194,2.359348,0.560222\O,0,-
 0.21887,0.917089,2.19624\N,0,-0.588371,-1.156077,0.467004\H,0,-0.36313
 ,-1.309712,1.441712\H,0,-1.609049,-1.108454,0.339141\C,0,-0.073859,-0.

 Normal termination of Gaussian 16 at Wed Apr  9 02:45:41 2025.
