 Gaussian 16, Revision C.01,

 ----------------------------------------------------------------------
 #t hf aug-cc-pvdz symm=none int=(grid=ultrafine) guess=(read,tcheck) s
 table=(opt,rrhf)
 ----------------------------------------------------------------------
 -----
 title
 -----
 Symbolic Z-matrix:
 Charge = -1 Multiplicity = 1

 SCF Done:  E(RHF) =  -417.093924566     A.U. after   17 cycles
 Normal termination of Gaussian 16 at Wed Apr  9 02:37:47 2025.
 Gaussian 16:  ES64L-G16RevC.01  3-Jul-2019

 ----------------------------------------------------------------------
 #t hf aug-cc-pvdz iop(5/13=1,5/36=2,99/5=2) pseudo=read geom=check gue
 ss=(read,tcheck) scf=(maxcycle=1)
 ----------------------------------------------------------------------
 -----
 title
 -----
 Structure from the checkpoint file:  "E2SN2_164_mol1.chk"
 Charge = -1 Multiplicity = 1

                         Standard orientation:
 ---------------------------------------------------------------------
 Center     Atomic      Atomic             Coordinates (Angstroms)
 Number     Number       Type             X           Y           Z
 ---------------------------------------------------------------------
      1          6           0        0.647642   -0.295171   -0.204427
      2          1           0       -0.715189   -0.904296   -1.790795
      3          9           0        0.260674   -0.479353    1.378590
      4          1           0        1.124535    0.107177   -1.955073
      5          6           0       -0.674553   -0.882165   -0.706095
      6          1           0       -0.685521   -1.904929   -0.322661
      7          7           0        1.784402   -1.191140   -0.155316
      8          1           0        2.196891   -1.075757    0.763958
      9          1           0        2.425638   -0.918341   -0.883572
     10          6           0        0.836197    1.137275   -0.224956
     11          7           0        0.980837    2.294314   -0.031800
     12          6           0       -1.847641   -0.175129   -0.190172
     13          7           0       -2.831280    0.368464    0.149221
 ---------------------------------------------------------------------

 SCF Done:  E(RHF) =  -418.933699143     A.U. after    2 cycles

 The electronic state is 1-A.
 Alpha  occ. eigenvalues --  -29.03533 -15.63114 -15.61711 -15.60040 -11.45175
 Alpha  occ. eigenvalues --  -11.33490 -11.30339 -11.28880  -1.28461  -1.17165
 Alpha  occ. eigenvalues --   -1.12891  -1.02785  -0.84933  -0.65095  -0.62028
 Alpha  occ. eigenvalues --   -0.52878  -0.49011  -0.48231  -0.41665  -0.38342
 Alpha  occ. eigenvalues --   -0.37054  -0.32242  -0.31072  -0.29842  -0.27949
 Alpha  occ. eigenvalues --   -0.24991  -0.18916  -0.08781  -0.08328  -0.07913
 Alpha virt. eigenvalues --    0.14112   0.14682   0.15893   0.16450   0.18969
 Alpha virt. eigenvalues --    0.19469   0.20603   0.22365   0.23511   0.24272
 Alpha virt. eigenvalues --    0.24649   0.25608   0.26071   0.27067   0.27787

 Mulliken charges:
               1
     1  C    2.851152
     2  H    1.410200
     3  F   -0.009646
     4  H   -0.783662
     5  C   -3.227442
     6  H    1.482600
     7  N   -3.283078
     8  H    0.450693
     9  H    0.685312
    10  C    2.349490
    11  N   -2.867077
    12  C    2.528026
    13  N   -2.586569
 Sum of Mulliken charges =  -1.00000

 Dipole moment (field-independent basis, Debye):
    X=             -0.5067    Y=             -4.4138    Z=              5.2681  Tot=              6.8914

 Test job not archived.
 1\1\GINC-SE424\SP\RHF\Aug-CC-pVDZ\C4H5F1N3(1-)\OHZDE\09-Apr-2025\0\\#t
  hf aug-cc-pvdz iop(5/13=1,5/36=2,99/5=2) pseudo=read geom=check guess
 =(read,tcheck) scf=(maxcycle=1)\\title\\-1,1\C,0,0.50256005,-0.0709592
 9,0.00657801\H,0,1.71192036,1.74074714,-0.00180953\F,0,-1.13566975,-0.
 01029182,0.05276976\H,0,2.34797722,-0.26343725,0.11362381\C,0,0.666094
 85,1.45122384,0.03196592\H,0,0.16526949,1.79771696,-0.87484377\N,0,0.5
 6252776,-0.71386724,-1.28975051\H,0,-0.23959802,-1.33266315,-1.3367615
 1\H,0,1.42789147,-1.2281603,-1.34082592\C,0,0.73416996,-0.82543471,1.2

 Normal termination of Gaussian 16 at Wed Apr  9 02:37:51 2025.
