 Gaussian 16, Revision C.01,

 ----------------------------------------------------------------------
 #t hf aug-cc-pvdz symm=none int=(grid=ultrafine) guess=(read,tcheck) s
 table=(opt,rrhf)
 ----------------------------------------------------------------------
 -----
 title
 -----
 Symbolic Z-matrix:
 Charge = -1 Multiplicity = 1

 SCF Done:  E(RHF) =  -1295.27355373     A.U. after   16 cycles
 Normal termination of Gaussian 16 at Wed Apr  9 02:45:32 2025.
 Gaussian 16:  ES64L-G16RevC.01  3-Jul-2019

 ----------------------------------------------------------------------
 #t hf aug-cc-pvdz iop(5/13=1,5/36=2,99/5=2) pseudo=read geom=check gue
 ss=(read,tcheck) scf=(maxcycle=1)
 ----------------------------------------------------------------------
 -----
 title
 -----
 Structure from the checkpoint file:  "E2SN2_245_mol1.chk"
 Charge = -1 Multiplicity = 1

                         Standard orientation:
 ---------------------------------------------------------------------
 Center     Atomic      Atomic             Coordinates (Angstroms)
 Number     Number       Type             X           Y           Z
 ---------------------------------------------------------------------
      1          6           0       -0.011669    0.146996   -0.160160
      2          1           0       -0.907540    1.033113    1.567321
      3         17           0        2.377215    0.104096   -0.158913
      4         17           0       -2.370300   -0.071259   -0.164976
      5          6           0       -0.054664    1.214144    0.918312
      6          1           0        0.839208    1.134771    1.531878
      7          7           0        0.059187   -1.288104    0.329585
      8          8           0        0.062696   -1.462389    1.541480
      9          8           0        0.099579   -2.163261   -0.525363
     10          7           0        0.006793    0.392508   -1.545061
     11          1           0       -0.860662    0.084691   -1.958954
     12          1           0        0.790086   -0.089041   -1.961126
     13          6           0       -0.141550    2.594703    0.290591
     14          1           0        0.730622    2.784157   -0.335300
     15          1           0       -1.035398    2.678934   -0.328167
     16          1           0       -0.186629    3.354444    1.077416
 ---------------------------------------------------------------------

 SCF Done:  E(RHF) =  -1297.51481142     A.U. after    2 cycles

 The electronic state is 1-A.
 Alpha  occ. eigenvalues --  -99.67296 -99.66722 -20.96384 -20.96219 -15.86856
 Alpha  occ. eigenvalues --  -15.63496 -11.47542 -11.30326 -11.24632 -10.24325
 Alpha  occ. eigenvalues --  -10.23742  -9.44401  -9.43959  -9.43891  -9.43806
 Alpha  occ. eigenvalues --   -9.43382  -9.43279  -1.86101  -1.56216  -1.28547
 Alpha  occ. eigenvalues --   -1.08102  -1.04765  -1.03247  -0.96873  -0.79793
 Alpha  occ. eigenvalues --   -0.66558  -0.60282  -0.59335  -0.53302  -0.50980
 Alpha  occ. eigenvalues --   -0.50858  -0.45412  -0.39519  -0.39396  -0.37394
 Alpha  occ. eigenvalues --   -0.33195  -0.31936  -0.31778  -0.30604  -0.30136
 Alpha  occ. eigenvalues --   -0.29272  -0.28869  -0.21730  -0.18055  -0.17608
 Alpha virt. eigenvalues --    0.12927   0.14600   0.15490   0.15633   0.16135
 Alpha virt. eigenvalues --    0.16472   0.16770   0.18624   0.20369   0.21632
 Alpha virt. eigenvalues --    0.22826   0.24677   0.25646   0.25839   0.26650

 Mulliken charges:
               1
     1  C    4.367423
     2  H    1.442847
     3  Cl  -0.768053
     4  Cl  -0.766301
     5  C   -2.864541
     6  H    1.425495
     7  N    4.939527
     8  O   -3.236691
     9  O   -3.217071
    10  N   -3.506738
    11  H    0.602053
    12  H    0.683980
    13  C   -3.749384
    14  H    1.335679
    15  H    1.305633
    16  H    1.006143
 Sum of Mulliken charges =  -1.00000

 Dipole moment (field-independent basis, Debye):
    X=             -0.3178    Y=              1.1927    Z=             -0.1622  Tot=              1.2449

 Test job not archived.
 1\1\GINC-SE080\SP\RHF\Aug-CC-pVDZ\C3H7Cl2N2O2(1-)\OHZDE\09-Apr-2025\0\
 \#t hf aug-cc-pvdz iop(5/13=1,5/36=2,99/5=2) pseudo=read geom=check gu
 ess=(read,tcheck) scf=(maxcycle=1)\\title\\-1,1\C,0,0.5714125,-0.04121
 721,0.04946873\H,0,1.45717411,1.83208264,-0.47793631\Cl,0,-1.75194384,
 -0.24974912,-0.4673838\Cl,0,2.91470281,-0.03151107,0.39544012\C,0,0.52
 238791,1.47213024,-0.05604438\H,0,-0.27084277,1.75437429,-0.7437176\N,
 0,0.82725893,-0.7882927,-1.2469887\O,0,0.98367602,-0.11294265,-2.25620
 342\O,0,0.86553567,-2.01015662,-1.18333542\N,0,0.36188835,-0.78018121,

 Normal termination of Gaussian 16 at Wed Apr  9 02:45:40 2025.
