 Gaussian 16, Revision C.01,

 ----------------------------------------------------------------------
 #t hf aug-cc-pvdz symm=none int=(grid=ultrafine) guess=(read,tcheck) s
 table=(opt,rrhf)
 ----------------------------------------------------------------------
 -----
 title
 -----
 Symbolic Z-matrix:
 Charge = -1 Multiplicity = 1

 SCF Done:  E(RHF) =  -836.225031220     A.U. after   16 cycles
 Normal termination of Gaussian 16 at Wed Apr  9 03:00:50 2025.
 Gaussian 16:  ES64L-G16RevC.01  3-Jul-2019

 ----------------------------------------------------------------------
 #t hf aug-cc-pvdz iop(5/13=1,5/36=2,99/5=2) pseudo=read geom=check gue
 ss=(read,tcheck) scf=(maxcycle=1)
 ----------------------------------------------------------------------
 -----
 title
 -----
 Structure from the checkpoint file:  "E2SN2_5_mol1.chk"
 Charge = -1 Multiplicity = 1

                         Standard orientation:
 ---------------------------------------------------------------------
 Center     Atomic      Atomic             Coordinates (Angstroms)
 Number     Number       Type             X           Y           Z
 ---------------------------------------------------------------------
      1          6           0       -0.093465    0.101431   -0.532302
      2          6           0        1.121536   -0.571586   -0.059796
      3         17           0       -0.293364    1.896991   -0.066064
      4          1           0        1.716190   -2.881836   -0.559205
      5          1           0        1.095458   -1.793105   -0.313431
      6          1           0       -0.144674    0.095365   -1.615954
      7          7           0       -1.340439   -0.591007   -0.058075
      8          8           0       -1.664687   -0.507396    1.123260
      9          8           0       -1.932208   -1.259267   -0.907659
     10          6           0        1.427859   -0.500570    1.418207
     11          1           0        0.553027   -0.707838    2.037736
     12          1           0        2.188870   -1.262359    1.624830
     13          1           0        1.822070    0.483740    1.705145
     14          7           0        2.227985   -0.202329   -0.926808
     15          1           0        2.717018   -1.088752   -1.105310
     16          1           0        2.865982    0.416947   -0.438009
 ---------------------------------------------------------------------

 SCF Done:  E(RHF) =  -838.213569682     A.U. after    2 cycles

 The electronic state is 1-A.
 Alpha  occ. eigenvalues --  -99.76744 -20.97865 -20.97597 -15.87144 -15.58758
 Alpha  occ. eigenvalues --  -11.40422 -11.28096 -11.22881 -10.33962  -9.53974
 Alpha  occ. eigenvalues --   -9.53301  -9.53167  -1.86942  -1.56902  -1.26040
 Alpha  occ. eigenvalues --   -1.17448  -1.03603  -0.93154  -0.78315  -0.68419
 Alpha  occ. eigenvalues --   -0.58957  -0.58025  -0.55469  -0.50383  -0.45980
 Alpha  occ. eigenvalues --   -0.45273  -0.43465  -0.39946  -0.39061  -0.38106
 Alpha  occ. eigenvalues --   -0.34613  -0.32770  -0.24118  -0.21433  -0.19371
 Alpha  occ. eigenvalues --   -0.19155  -0.10063
 Alpha virt. eigenvalues --    0.13882   0.14905   0.15018   0.15416   0.16838
 Alpha virt. eigenvalues --    0.17172   0.18226   0.20103   0.21277   0.22395
 Alpha virt. eigenvalues --    0.23841   0.24262   0.25223   0.26024   0.26555

 Mulliken charges:
               1
     1  C   -2.276273
     2  C    1.790763
     3  Cl  -0.088195
     4  H   -0.517249
     5  H    1.662802
     6  H    1.954175
     7  N    4.522465
     8  O   -2.905401
     9  O   -2.695079
    10  C   -4.296483
    11  H    1.349961
    12  H    1.288778
    13  H    1.134074
    14  N   -3.014664
    15  H    0.509840
    16  H    0.580486
 Sum of Mulliken charges =  -1.00000

 Dipole moment (field-independent basis, Debye):
    X=             -3.3325    Y=              6.7839    Z=              1.8149  Tot=              7.7730

 Test job not archived.
 1\1\GINC-SE108\SP\RHF\Aug-CC-pVDZ\C3H8Cl1N2O2(1-)\OHZDE\09-Apr-2025\0\
 \#t hf aug-cc-pvdz iop(5/13=1,5/36=2,99/5=2) pseudo=read geom=check gu
 ess=(read,tcheck) scf=(maxcycle=1)\\title\\-1,1\C,0,-0.04818618,0.0375
 5063,-0.45618822\C,0,-0.1923277,0.00311965,1.00342816\Cl,0,1.6836281,0
 .2276274,-1.12406774\H,0,-2.30011666,-0.30983447,2.18645921\H,0,-1.392
 70658,0.00395288,1.3443237\H,0,-0.41238195,-0.88080962,-0.90444666\N,0
 ,-0.85464949,1.14484765,-1.07491016\O,0,-0.48708476,2.30829681,-0.9372
 0562\O,0,-1.88915135,0.7933868,-1.64485424\C,0,0.42352718,1.1357173,1.

 Normal termination of Gaussian 16 at Wed Apr  9 03:00:57 2025.
