 Gaussian 16, Revision C.01,

 ----------------------------------------------------------------------
 #t hf aug-cc-pvdz symm=none int=(grid=ultrafine) guess=(read,tcheck) s
 table=(opt,rrhf)
 ----------------------------------------------------------------------
 -----
 title
 -----
 Symbolic Z-matrix:
 Charge = -1 Multiplicity = 1

 SCF Done:  E(RHF) =  -987.902665444     A.U. after   17 cycles
 Normal termination of Gaussian 16 at Wed Apr  9 02:46:31 2025.
 Gaussian 16:  ES64L-G16RevC.01  3-Jul-2019

 ----------------------------------------------------------------------
 #t hf aug-cc-pvdz iop(5/13=1,5/36=2,99/5=2) pseudo=read geom=check gue
 ss=(read,tcheck) scf=(maxcycle=1)
 ----------------------------------------------------------------------
 -----
 title
 -----
 Structure from the checkpoint file:  "E2SN2_250_mol1.chk"
 Charge = -1 Multiplicity = 1

                         Standard orientation:
 ---------------------------------------------------------------------
 Center     Atomic      Atomic             Coordinates (Angstroms)
 Number     Number       Type             X           Y           Z
 ---------------------------------------------------------------------
      1          6           0       -0.597999   -0.047931   -0.390866
      2          1           0        0.324405    0.924932    1.318173
      3          9           0        0.459542   -1.472354   -1.138556
      4         17           0       -1.833385    1.647483    0.217398
      5          6           0        0.485486    0.064926    0.668296
      6          1           0       -0.444040    0.403857   -1.351201
      7          6           0       -1.638759   -1.030292   -0.230796
      8          7           0       -2.507594   -1.813347   -0.114416
      9          7           0        1.781424    0.458325   -0.083254
     10          8           0        2.829859   -0.038518    0.318835
     11          8           0        1.699962    1.317442   -0.952664
     12          7           0        0.617329   -1.121185    1.421957
     13          1           0        1.395412   -1.044547    2.061344
     14          1           0        0.786843   -1.858418    0.743726
 ---------------------------------------------------------------------

 SCF Done:  E(RHF) =  -990.387584776     A.U. after    2 cycles

 The electronic state is 1-A.
 Alpha  occ. eigenvalues --  -99.69887 -28.97879 -20.97661 -20.97458 -15.86407
 Alpha  occ. eigenvalues --  -15.63565 -15.63243 -11.46040 -11.37302 -11.32446
 Alpha  occ. eigenvalues --  -10.26893  -9.46961  -9.46467  -9.46330  -1.86811
 Alpha  occ. eigenvalues --   -1.57070  -1.30063  -1.18105  -1.09807  -1.02400
 Alpha  occ. eigenvalues --   -0.94075  -0.74091  -0.65339  -0.63716  -0.57928
 Alpha  occ. eigenvalues --   -0.52803  -0.50758  -0.48337  -0.44642  -0.43814
 Alpha  occ. eigenvalues --   -0.39610  -0.35000  -0.33434  -0.32897  -0.32286
 Alpha  occ. eigenvalues --   -0.29510  -0.28744  -0.22182  -0.19959  -0.18530
 Alpha  occ. eigenvalues --   -0.07709  -0.05296  -0.05013
 Alpha virt. eigenvalues --    0.13455   0.15137   0.16242   0.17305   0.20008
 Alpha virt. eigenvalues --    0.20619   0.22157   0.23456   0.23978   0.24562
 Alpha virt. eigenvalues --    0.25367   0.25934   0.26643   0.26982   0.27509

 Mulliken charges:
               1
     1  C   -1.259169
     2  H    1.781734
     3  F   -0.443224
     4  Cl  -0.572521
     5  C    0.736797
     6  H    1.656840
     7  C    3.035151
     8  N   -3.005455
     9  N    5.225076
    10  O   -2.987294
    11  O   -3.206279
    12  N   -2.884973
    13  H    0.658573
    14  H    0.264745
 Sum of Mulliken charges =  -1.00000

 Dipole moment (field-independent basis, Debye):
    X=              7.0721    Y=             -2.8318    Z=             -0.7794  Tot=              7.6577

 Test job not archived.
 1\1\GINC-SE453\SP\RHF\Aug-CC-pVDZ\C3H4Cl1F1N3O2(1-)\OHZDE\09-Apr-2025\
 0\\#t hf aug-cc-pvdz iop(5/13=1,5/36=2,99/5=2) pseudo=read geom=check
 guess=(read,tcheck) scf=(maxcycle=1)\\title\\-1,1\C,0,0.6499737,-0.011
 25794,-0.04396975\H,0,1.73970664,1.86267817,0.09369761\F,0,-1.26212942
 ,0.2043508,-0.10553266\Cl,0,2.77798222,-0.43969411,0.19812831\C,0,0.72
 045028,1.50644211,-0.05499858\H,0,0.43873395,-0.52145415,0.87534389\C,
 0,0.51679081,-0.718476,-1.29134425\N,0,0.42420653,-1.31876008,-2.29766
 442\N,0,0.01441595,1.97857515,1.24024307\O,0,-0.66055144,3.00150528,1.

 Normal termination of Gaussian 16 at Wed Apr  9 02:46:37 2025.
