 Gaussian 16, Revision C.01,

 ----------------------------------------------------------------------
 #t hf aug-cc-pvdz symm=none int=(grid=ultrafine) guess=(read,tcheck) s
 table=(opt,rrhf)
 ----------------------------------------------------------------------
 -----
 title
 -----
 Symbolic Z-matrix:
 Charge = -1 Multiplicity = 1

 SCF Done:  E(RHF) =  -476.166374714     A.U. after   16 cycles
 Normal termination of Gaussian 16 at Wed Apr  9 02:57:12 2025.
 Gaussian 16:  ES64L-G16RevC.01  3-Jul-2019

 ----------------------------------------------------------------------
 #t hf aug-cc-pvdz iop(5/13=1,5/36=2,99/5=2) pseudo=read geom=check gue
 ss=(read,tcheck) scf=(maxcycle=1)
 ----------------------------------------------------------------------
 -----
 title
 -----
 Structure from the checkpoint file:  "E2SN2_37_mol1.chk"
 Charge = -1 Multiplicity = 1

                         Standard orientation:
 ---------------------------------------------------------------------
 Center     Atomic      Atomic             Coordinates (Angstroms)
 Number     Number       Type             X           Y           Z
 ---------------------------------------------------------------------
      1          6           0       -0.136273   -0.054486    0.301548
      2          6           0       -1.005803   -0.128741   -0.871075
      3          9           0       -0.132286   -1.196954    1.149297
      4          1           0       -1.108701    2.262837   -1.392958
      5          1           0       -0.938664    1.206876   -1.331483
      6          1           0       -0.681261   -0.896364   -1.576296
      7          7           0        1.305142    0.008640   -0.215417
      8          8           0        1.865641    1.100947   -0.237735
      9          8           0        1.787763   -1.042200   -0.636885
     10          6           0       -2.480411   -0.160004   -0.531366
     11          1           0       -2.839453    0.865400   -0.341317
     12          1           0       -3.052278   -0.536404   -1.385839
     13          1           0       -2.739664   -0.783848    0.335295
     14          7           0       -0.337607    1.063645    1.172055
     15          1           0       -1.188645    0.869363    1.686695
     16          1           0       -0.525806    1.868149    0.568084
 ---------------------------------------------------------------------

 SCF Done:  E(RHF) =  -478.269479454     A.U. after    2 cycles

 The electronic state is 1-A.
 Alpha  occ. eigenvalues --  -29.11685 -20.95277 -20.94725 -15.83657 -15.60380
 Alpha  occ. eigenvalues --  -11.41739 -11.25199 -11.19101  -1.84206  -1.54384
 Alpha  occ. eigenvalues --   -1.28593  -1.03397  -0.95942  -0.76598  -0.74027
 Alpha  occ. eigenvalues --   -0.60129  -0.54906  -0.52243  -0.48522  -0.46369
 Alpha  occ. eigenvalues --   -0.44897  -0.43235  -0.37394  -0.34682  -0.34064
 Alpha  occ. eigenvalues --   -0.26144  -0.24026  -0.21990  -0.17921  -0.16863
 Alpha  occ. eigenvalues --   -0.12575  -0.10987  -0.06018
 Alpha virt. eigenvalues --    0.13774   0.14484   0.15130   0.16050   0.17264
 Alpha virt. eigenvalues --    0.18034   0.19699   0.21048   0.21614   0.23691
 Alpha virt. eigenvalues --    0.24567   0.25320   0.26818   0.27074   0.27604

 Mulliken charges:
               1
     1  C    4.437416
     2  C   -2.816454
     3  F    0.294832
     4  H   -0.154953
     5  H    0.542851
     6  H    1.420567
     7  N    3.214898
     8  O   -2.674681
     9  O   -2.890971
    10  C   -3.678080
    11  H    1.273784
    12  H    1.079505
    13  H    1.183545
    14  N   -3.422517
    15  H    0.484739
    16  H    0.705521
 Sum of Mulliken charges =  -1.00000

 Dipole moment (field-independent basis, Debye):
    X=              0.9744    Y=             -6.7237    Z=              4.8877  Tot=              8.3694

 Test job not archived.
 1\1\GINC-SE126\SP\RHF\Aug-CC-pVDZ\C3H8F1N2O2(1-)\OHZDE\09-Apr-2025\0\\
 #t hf aug-cc-pvdz iop(5/13=1,5/36=2,99/5=2) pseudo=read geom=check gue
 ss=(read,tcheck) scf=(maxcycle=1)\\title\\-1,1\C,0,-0.08243456,0.01106
 39,-0.33110208\C,0,-0.16120596,-0.10229329,1.12409097\F,0,1.22735991,0
 .02696899,-0.88618074\H,0,-2.46977211,0.66339636,1.41876425\H,0,-1.539
 1996,0.13985619,1.33109656\H,0,0.21679848,-1.06143201,1.48336171\N,0,-
 0.69833131,-1.26653475,-0.91190166\O,0,-1.84698964,-1.21239906,-1.3425
 3479\O,0,-0.01423558,-2.28778432,-0.84955948\C,0,0.37713388,1.10792637

 Normal termination of Gaussian 16 at Wed Apr  9 02:57:19 2025.
