 Gaussian 16, Revision C.01,

 ----------------------------------------------------------------------
 #t hf aug-cc-pvdz symm=none int=(grid=ultrafine) guess=(read,tcheck) s
 table=(opt,rrhf)
 ----------------------------------------------------------------------
 -----
 title
 -----
 Symbolic Z-matrix:
 Charge = -1 Multiplicity = 1

 SCF Done:  E(RHF) =  -1000.68206794     A.U. after   16 cycles
 Normal termination of Gaussian 16 at Wed Apr  9 02:52:04 2025.
 Gaussian 16:  ES64L-G16RevC.01  3-Jul-2019

 ----------------------------------------------------------------------
 #t hf aug-cc-pvdz iop(5/13=1,5/36=2,99/5=2) pseudo=read geom=check gue
 ss=(read,tcheck) scf=(maxcycle=1)
 ----------------------------------------------------------------------
 -----
 title
 -----
 Structure from the checkpoint file:  "E2SN2_30_mol2.chk"
 Charge = -1 Multiplicity = 1

                         Standard orientation:
 ---------------------------------------------------------------------
 Center     Atomic      Atomic             Coordinates (Angstroms)
 Number     Number       Type             X           Y           Z
 ---------------------------------------------------------------------
      1          6           0        0.004878   -0.213894    0.050514
      2          6           0       -0.994142   -1.037649   -0.733013
      3         17           0        0.089165   -0.684890    1.740176
      4          1           0       -0.878344   -0.806030   -1.800803
      5          1           0       -0.723216   -2.091490   -0.593826
      6          7           0        1.434125   -0.299637   -0.480171
      7          8           0        2.194130    0.615049   -0.182052
      8          8           0        1.718927   -1.298408   -1.129836
      9          7           0       -0.356995    1.260878   -0.087586
     10          8           0       -0.704847    1.895225    0.891399
     11          8           0       -0.254345    1.665843   -1.238162
     12          7           0       -2.319821   -0.641830   -0.334680
     13          1           0       -2.896508   -0.774866   -1.235554
     14          1           0       -2.679273   -1.298574    0.349356
     15          1           0       -3.334956   -1.134194   -2.620916
 ---------------------------------------------------------------------

 SCF Done:  E(RHF) =  -1003.29163383     A.U. after    2 cycles

 The electronic state is 1-A.
 Alpha  occ. eigenvalues --  -99.83338 -21.02926 -21.02460 -21.01430 -21.00595
 Alpha  occ. eigenvalues --  -15.92506 -15.91219 -15.57915 -11.48556 -11.31611
 Alpha  occ. eigenvalues --  -10.40832  -9.60990  -9.59934  -9.59874  -1.93156
 Alpha  occ. eigenvalues --   -1.89578  -1.62377  -1.60967  -1.33531  -1.20462
 Alpha  occ. eigenvalues --   -1.11010  -0.92126  -0.87564  -0.70980  -0.66209
 Alpha  occ. eigenvalues --   -0.65889  -0.59646  -0.58558  -0.53141  -0.52465
 Alpha  occ. eigenvalues --   -0.51346  -0.48282  -0.46126  -0.45044  -0.41854
 Alpha  occ. eigenvalues --   -0.38151  -0.30870  -0.26619  -0.24787  -0.23806
 Alpha  occ. eigenvalues --   -0.23739  -0.22108  -0.21149  -0.10561
 Alpha virt. eigenvalues --    0.13264   0.14405   0.15461   0.17602   0.18093
 Alpha virt. eigenvalues --    0.20065   0.21125   0.21649   0.22173   0.23110
 Alpha virt. eigenvalues --    0.23721   0.24193   0.24872   0.25577   0.25925

 Mulliken charges:
               1
     1  C    1.366626
     2  C   -1.099702
     3  Cl   0.253993
     4  H    1.648343
     5  H    1.411297
     6  N    4.437245
     7  O   -3.021601
     8  O   -2.869803
     9  N    4.959206
    10  O   -3.042523
    11  O   -3.147703
    12  N   -2.091550
    13  H    0.714881
    14  H    0.431247
    15  H   -0.949956
 Sum of Mulliken charges =  -1.00000

 Dipole moment (field-independent basis, Debye):
    X=             10.7074    Y=              2.5179    Z=              8.5862  Tot=             13.9539

 Test job not archived.
 1\1\GINC-SE041\SP\RHF\Aug-CC-pVDZ\C2H5Cl1N3O4(1-)\OHZDE\09-Apr-2025\0\
 \#t hf aug-cc-pvdz iop(5/13=1,5/36=2,99/5=2) pseudo=read geom=check gu
 ess=(read,tcheck) scf=(maxcycle=1)\\title\\-1,1\C,0,-0.475883,0.129846
 ,-1.493725\C,0,0.107592,0.105953,-0.097475\Cl,0,-2.231677,0.162623,-1.
 490051\H,0,1.1943,0.251292,-0.169406\H,0,-0.304817,0.969096,0.439422\N
 ,0,-0.036172,1.328599,-2.331203\O,0,-0.118819,1.216656,-3.549304\O,0,0
 .327292,2.323668,-1.716018\N,0,0.045854,-1.076909,-2.266066\O,0,-0.726
 339,-1.943472,-2.632938\O,0,1.257151,-1.03877,-2.438302\N,0,-0.129028,

 Normal termination of Gaussian 16 at Wed Apr  9 02:52:13 2025.
