 Gaussian 16, Revision C.01,

 ----------------------------------------------------------------------
 #t hf aug-cc-pvdz symm=none int=(grid=ultrafine) guess=(read,tcheck) s
 table=(opt,rrhf)
 ----------------------------------------------------------------------
 -----
 title
 -----
 Symbolic Z-matrix:
 Charge = -1 Multiplicity = 1

 SCF Done:  E(RHF) =  -763.529695416     A.U. after   16 cycles
 Normal termination of Gaussian 16 at Wed Apr  9 02:54:30 2025.
 Gaussian 16:  ES64L-G16RevC.01  3-Jul-2019

 ----------------------------------------------------------------------
 #t hf aug-cc-pvdz iop(5/13=1,5/36=2,99/5=2) pseudo=read geom=check gue
 ss=(read,tcheck) scf=(maxcycle=1)
 ----------------------------------------------------------------------
 -----
 title
 -----
 Structure from the checkpoint file:  "E2SN2_346_mol2.chk"
 Charge = -1 Multiplicity = 1

                         Standard orientation:
 ---------------------------------------------------------------------
 Center     Atomic      Atomic             Coordinates (Angstroms)
 Number     Number       Type             X           Y           Z
 ---------------------------------------------------------------------
      1          6           0       -0.598905    0.249200    0.141396
      2          6           0        0.758808    0.317297   -0.607879
      3         17           0       -1.370791   -1.338115   -0.361533
      4          1           0        0.550172    0.039801   -1.648870
      5          6           0       -0.443508    0.257754    1.646690
      6          1           0       -1.425651    0.171082    2.119954
      7          1           0       -0.000696    1.225612    1.925896
      8          1           0        0.185103   -0.566871    1.988826
      9          6           0       -1.494542    1.384621   -0.312984
     10          1           0       -1.557605    1.429905   -1.405030
     11          1           0       -2.501850    1.245985    0.087536
     12          1           0       -1.074284    2.315324    0.086593
     13          6           0        1.675997   -0.722099   -0.095798
     14          7           0        2.412658   -1.547609    0.297944
     15          7           0        1.423496    1.606920   -0.590894
     16          1           0        1.240863    2.149847    0.289995
     17          1           0        1.014987    2.177718   -1.322305
     18          1           0        0.632236    3.223751    1.445571
 ---------------------------------------------------------------------

 SCF Done:  E(RHF) =  -765.284189326     A.U. after    2 cycles

 The electronic state is 1-A.
 Alpha  occ. eigenvalues --  -99.76045 -15.64013 -15.59391 -11.39476 -11.35023
 Alpha  occ. eigenvalues --  -11.31417 -11.27815 -11.24924 -10.33428  -9.53441
 Alpha  occ. eigenvalues --   -9.52758  -9.52702  -1.30532  -1.19218  -1.15258
 Alpha  occ. eigenvalues --   -1.04724  -0.91396  -0.89745  -0.71191  -0.60492
 Alpha  occ. eigenvalues --   -0.56932  -0.53217  -0.48842  -0.47656  -0.45015
 Alpha  occ. eigenvalues --   -0.43219  -0.39435  -0.39112  -0.39010  -0.38045
 Alpha  occ. eigenvalues --   -0.35974  -0.33063  -0.30728  -0.29980  -0.22986
 Alpha  occ. eigenvalues --   -0.11143
 Alpha virt. eigenvalues --    0.12749   0.13777   0.14162   0.15026   0.16088
 Alpha virt. eigenvalues --    0.16321   0.16868   0.18160   0.19264   0.19743
 Alpha virt. eigenvalues --    0.20996   0.21423   0.22552   0.23258   0.23775

 Mulliken charges:
               1
     1  C    2.146373
     2  C   -1.139206
     3  Cl  -0.325198
     4  H    1.702558
     5  C   -4.419283
     6  H    1.159304
     7  H    1.517956
     8  H    1.184598
     9  C   -4.179021
    10  H    1.087925
    11  H    1.075853
    12  H    1.464829
    13  C    2.614942
    14  N   -2.566978
    15  N   -2.516825
    16  H    0.854054
    17  H    0.437035
    18  H   -1.098915
 Sum of Mulliken charges =  -1.00000

 Dipole moment (field-independent basis, Debye):
    X=             -4.5421    Y=             -6.6181    Z=             -5.1324  Tot=              9.5274

 Test job not archived.
 1\1\GINC-SE069\SP\RHF\Aug-CC-pVDZ\C5H10Cl1N2(1-)\OHZDE\09-Apr-2025\0\\
 #t hf aug-cc-pvdz iop(5/13=1,5/36=2,99/5=2) pseudo=read geom=check gue
 ss=(read,tcheck) scf=(maxcycle=1)\\title\\-1,1\C,0,-0.016327,-0.000294
 ,-0.018753\C,0,-0.357636,0.321991,-1.498305\Cl,0,1.81547,0.026754,0.09
 1259\H,0,0.302567,-0.305578,-2.110256\C,0,-0.575797,1.017567,0.951342\
 H,0,-0.274209,0.760951,1.970797\H,0,-1.672944,0.967349,0.884\H,0,-0.22
 123,2.024793,0.723322\C,0,-0.49829,-1.394992,0.328144\H,0,-0.156071,-2
 .129502,-0.408044\H,0,-0.118389,-1.685373,1.310824\H,0,-1.593984,-1.36

 Normal termination of Gaussian 16 at Wed Apr  9 02:54:38 2025.
