 Gaussian 16, Revision C.01,

 ----------------------------------------------------------------------
 #t hf aug-cc-pvdz symm=none int=(grid=ultrafine) guess=(read,tcheck) s
 table=(opt,rrhf)
 ----------------------------------------------------------------------
 -----
 title
 -----
 Symbolic Z-matrix:
 Charge = -1 Multiplicity = 1

 SCF Done:  E(RHF) =  -1044.69569314     A.U. after   15 cycles
 Normal termination of Gaussian 16 at Wed Apr  9 02:42:21 2025.
 Gaussian 16:  ES64L-G16RevC.01  3-Jul-2019

 ----------------------------------------------------------------------
 #t hf aug-cc-pvdz iop(5/13=1,5/36=2,99/5=2) pseudo=read geom=check gue
 ss=(read,tcheck) scf=(maxcycle=1)
 ----------------------------------------------------------------------
 -----
 title
 -----
 Structure from the checkpoint file:  "E2SN2_212_mol2.chk"
 Charge = -1 Multiplicity = 1

                         Standard orientation:
 ---------------------------------------------------------------------
 Center     Atomic      Atomic             Coordinates (Angstroms)
 Number     Number       Type             X           Y           Z
 ---------------------------------------------------------------------
      1          6           0       -0.196854   -0.639593   -0.393111
      2          6           0        0.725797   -0.080718    0.649438
      3          9           0        0.247193   -1.875424   -0.818982
      4          1           0        0.806920   -0.727318    1.517907
      5          1           0       -0.343088    0.023727   -1.237865
      6          1           0        0.364940    0.921610    0.907081
      7          7           0       -1.556615   -0.910000    0.193951
      8          8           0       -2.457630   -1.080677   -0.619360
      9          8           0       -1.650368   -1.038586    1.412663
     10          7           0        2.095231    0.065612    0.087590
     11          8           0        3.026151   -0.006850    0.888838
     12          8           0        2.214661    0.283945   -1.114976
     13         17           0       -1.121176    2.448865   -0.109551
 ---------------------------------------------------------------------

 SCF Done:  E(RHF) =  -1047.33425083     A.U. after    2 cycles

 The electronic state is 1-A.
 Alpha  occ. eigenvalues --  -99.62017 -29.19703 -21.00120 -20.99918 -20.99897
 Alpha  occ. eigenvalues --  -20.99639 -15.89552 -15.89349 -11.44591 -11.34631
 Alpha  occ. eigenvalues --  -10.18689  -9.38712  -9.38373  -9.38295  -1.90329
 Alpha  occ. eigenvalues --   -1.88083  -1.59416  -1.58975  -1.23195  -1.05509
 Alpha  occ. eigenvalues --   -0.97843  -0.82595  -0.77396  -0.68419  -0.63210
 Alpha  occ. eigenvalues --   -0.60707  -0.58386  -0.55287  -0.51727  -0.49696
 Alpha  occ. eigenvalues --   -0.46537  -0.44684  -0.32262  -0.28408  -0.27660
 Alpha  occ. eigenvalues --   -0.25825  -0.25674  -0.25346  -0.22653  -0.21691
 Alpha  occ. eigenvalues --   -0.21243  -0.21010  -0.17621  -0.17347
 Alpha virt. eigenvalues --    0.14113   0.16886   0.18274   0.20617   0.21406
 Alpha virt. eigenvalues --    0.21523   0.22519   0.24010   0.24357   0.24795
 Alpha virt. eigenvalues --    0.25371   0.26910   0.27186   0.28707   0.29254

 Mulliken charges:
               1
     1  C   -0.465377
     2  C   -2.131681
     3  F    0.337248
     4  H    1.549058
     5  H    1.833650
     6  H    1.248903
     7  N    4.603247
     8  O   -2.953936
     9  O   -2.907681
    10  N    4.392819
    11  O   -2.794387
    12  O   -2.781167
    13  Cl  -0.930695
 Sum of Mulliken charges =  -1.00000

 Dipole moment (field-independent basis, Debye):
    X=              4.0804    Y=             -9.5801    Z=             -0.5099  Tot=             10.4254

 Test job not archived.
 1\1\GINC-SE080\SP\RHF\Aug-CC-pVDZ\C2H3Cl1F1N2O4(1-)\OHZDE\09-Apr-2025\
 0\\#t hf aug-cc-pvdz iop(5/13=1,5/36=2,99/5=2) pseudo=read geom=check
 guess=(read,tcheck) scf=(maxcycle=1)\\title\\-1,1\C,0,-0.063548,0.0034
 77,0.014263\C,0,-0.452713,0.12749,-1.429242\F,0,1.301123,-0.167353,0.1
 33901\H,0,0.03589,0.965062,-1.91776\H,0,-0.592728,-0.785737,0.535892\H
 ,0,-1.545594,0.198497,-1.471998\N,0,-0.34847,1.28517,0.751009\O,0,-0.3
 5101,1.201064,1.973855\O,0,-0.455963,2.321155,0.098504\N,0,-0.053106,-
 1.099752,-2.168583\O,0,0.187658,-0.962483,-3.367354\O,0,-0.023497,-2.1

 Normal termination of Gaussian 16 at Wed Apr  9 02:42:26 2025.
