 Gaussian 16, Revision C.01,

 ----------------------------------------------------------------------
 #t hf aug-cc-pvdz symm=none int=(grid=ultrafine) guess=(read,tcheck) s
 table=(opt,rrhf)
 ----------------------------------------------------------------------
 -----
 title
 -----
 Symbolic Z-matrix:
 Charge = -1 Multiplicity = 1

 SCF Done:  E(RHF) =  -876.155899079     A.U. after   15 cycles
 Normal termination of Gaussian 16 at Wed Apr  9 02:36:58 2025.
 Gaussian 16:  ES64L-G16RevC.01  3-Jul-2019

 ----------------------------------------------------------------------
 #t hf aug-cc-pvdz iop(5/13=1,5/36=2,99/5=2) pseudo=read geom=check gue
 ss=(read,tcheck) scf=(maxcycle=1)
 ----------------------------------------------------------------------
 -----
 title
 -----
 Structure from the checkpoint file:  "E2SN2_144_mol2.chk"
 Charge = -1 Multiplicity = 1

                         Standard orientation:
 ---------------------------------------------------------------------
 Center     Atomic      Atomic             Coordinates (Angstroms)
 Number     Number       Type             X           Y           Z
 ---------------------------------------------------------------------
      1          6           0       -0.297647   -0.221368    0.161133
      2          6           0        0.538910    0.551543   -0.880571
      3         17           0        0.293185   -1.955439    0.208786
      4          1           0        0.101301    1.551574   -0.793418
      5          1           0        0.421729    0.131000   -1.882911
      6          7           0       -0.295116    0.337430    1.472320
      7          1           0        0.670985    0.377992    1.786832
      8          1           0       -0.621763    1.327438    1.252251
      9          6           0       -1.680593   -0.280189   -0.342322
     10          7           0       -2.760924   -0.401470   -0.785020
     11          6           0        1.947174    0.575856   -0.515843
     12          7           0        3.083814    0.607230   -0.220935
     13          9           0       -0.977541    2.477454    0.254328
 ---------------------------------------------------------------------

 SCF Done:  E(RHF) =  -878.191651686     A.U. after    2 cycles

 The electronic state is 1-A.
 Alpha  occ. eigenvalues --  -99.77455 -28.92655 -15.65135 -15.64713 -15.59736
 Alpha  occ. eigenvalues --  -11.41933 -11.35114 -11.32855 -11.30236 -10.34826
 Alpha  occ. eigenvalues --   -9.54816  -9.54075  -9.53962  -1.33507  -1.18875
 Alpha  occ. eigenvalues --   -1.16412  -1.15375  -1.01937  -0.85486  -0.65158
 Alpha  occ. eigenvalues --   -0.58511  -0.56950  -0.52277  -0.49569  -0.46797
 Alpha  occ. eigenvalues --   -0.42054  -0.41059  -0.38472  -0.36848  -0.33638
 Alpha  occ. eigenvalues --   -0.33013  -0.31741  -0.30786  -0.28868  -0.23723
 Alpha  occ. eigenvalues --   -0.01834  -0.01228   0.00518
 Alpha virt. eigenvalues --    0.13899   0.15961   0.16507   0.17897   0.18758
 Alpha virt. eigenvalues --    0.19041   0.20238   0.21315   0.22064   0.23104
 Alpha virt. eigenvalues --    0.24198   0.24700   0.25000   0.25452   0.26723

 Mulliken charges:
               1
     1  C    2.909766
     2  C   -2.296412
     3  Cl  -0.195173
     4  H    1.099757
     5  H    1.349964
     6  N   -3.570972
     7  H    0.605549
     8  H    0.251270
     9  C    2.699224
    10  N   -2.870756
    11  C    2.172559
    12  N   -2.575239
    13  F   -0.579538
 Sum of Mulliken charges =  -1.00000

 Dipole moment (field-independent basis, Debye):
    X=              1.2425    Y=             -2.1583    Z=             -0.8312  Tot=              2.6254

 Test job not archived.
 1\1\GINC-SE128\SP\RHF\Aug-CC-pVDZ\C4H4Cl1F1N3(1-)\OHZDE\09-Apr-2025\0\
 \#t hf aug-cc-pvdz iop(5/13=1,5/36=2,99/5=2) pseudo=read geom=check gu
 ess=(read,tcheck) scf=(maxcycle=1)\\title\\-1,1\C,0,-0.016441,0.13209,
 -1.507136\C,0,-0.068876,0.004161,0.030151\Cl,0,-1.700816,0.521994,-2.1
 14764\H,0,0.982031,-0.207122,0.254011\H,0,-0.733053,-0.805507,0.344123
 \N,0,0.92013,1.085725,-2.001997\H,0,0.678911,1.98893,-1.60206\H,0,1.80
 8998,0.733382,-1.531877\C,0,0.30931,-1.198729,-2.04776\N,0,0.482612,-2
 .276044,-2.480386\C,0,-0.483184,1.252873,0.651354\N,0,-0.807469,2.2615

 Normal termination of Gaussian 16 at Wed Apr  9 02:37:04 2025.
