 Gaussian 16, Revision C.01,

 ----------------------------------------------------------------------
 #t hf aug-cc-pvdz symm=none int=(grid=ultrafine) guess=(read,tcheck) s
 table=(opt,rrhf)
 ----------------------------------------------------------------------
 -----
 title
 -----
 Symbolic Z-matrix:
 Charge = -1 Multiplicity = 1

 SCF Done:  E(RHF) =  -1222.53598093     A.U. after   17 cycles
 Normal termination of Gaussian 16 at Wed Apr  9 03:03:04 2025.
 Gaussian 16:  ES64L-G16RevC.01  3-Jul-2019

 ----------------------------------------------------------------------
 #t hf aug-cc-pvdz iop(5/13=1,5/36=2,99/5=2) pseudo=read geom=check gue
 ss=(read,tcheck) scf=(maxcycle=1)
 ----------------------------------------------------------------------
 -----
 title
 -----
 Structure from the checkpoint file:  "E2SN2_8_mol1.chk"
 Charge = -1 Multiplicity = 1

                         Standard orientation:
 ---------------------------------------------------------------------
 Center     Atomic      Atomic             Coordinates (Angstroms)
 Number     Number       Type             X           Y           Z
 ---------------------------------------------------------------------
      1          6           0        0.433193    0.272878   -0.323295
      2          6           0       -0.327974   -0.549238    0.506069
      3         17           0        2.714927   -0.569486   -0.108001
      4         17           0       -3.063476    0.143822   -0.309271
      5          1           0       -1.608000   -0.026260    0.102067
      6          6           0        0.695147    1.611556    0.135201
      7          7           0        0.850095    2.728185    0.478342
      8          6           0       -0.308984   -0.340385    1.995957
      9          1           0       -0.335557    0.715809    2.271009
     10          1           0       -1.165875   -0.851985    2.438365
     11          1           0        0.611061   -0.784239    2.394213
     12          7           0       -0.473063   -1.937610    0.132769
     13          1           0        0.443726   -2.257922   -0.176295
     14          1           0       -1.129247   -2.039750   -0.633115
     15          6           0        0.396251    0.120688   -1.817699
     16          1           0        0.517137   -0.923863   -2.096931
     17          1           0       -0.573205    0.484690   -2.184105
     18          1           0        1.200288    0.692787   -2.276769
 ---------------------------------------------------------------------

 SCF Done:  E(RHF) =  -1224.52965194     A.U. after    2 cycles

 The electronic state is 1-A.
 Alpha  occ. eigenvalues --  -99.70939 -99.65899 -15.66132 -15.61729 -11.43529
 Alpha  occ. eigenvalues --  -11.34525 -11.32606 -11.28958 -11.26075 -10.27915
 Alpha  occ. eigenvalues --  -10.22736  -9.47972  -9.47418  -9.47378  -9.42832
 Alpha  occ. eigenvalues --   -9.42351  -9.42309  -1.28686  -1.18850  -1.09590
 Alpha  occ. eigenvalues --   -1.07832  -1.01751  -0.97075  -0.85534  -0.72852
 Alpha  occ. eigenvalues --   -0.59915  -0.55758  -0.51914  -0.49246  -0.47467
 Alpha  occ. eigenvalues --   -0.46048  -0.43363  -0.41422  -0.38479  -0.38152
 Alpha  occ. eigenvalues --   -0.36085  -0.34637  -0.34536  -0.32837  -0.31123
 Alpha  occ. eigenvalues --   -0.29653  -0.28825  -0.24590  -0.19454
 Alpha virt. eigenvalues --    0.13229   0.14396   0.14617   0.14930   0.15681
 Alpha virt. eigenvalues --    0.16118   0.16591   0.16652   0.17575   0.18679
 Alpha virt. eigenvalues --    0.19943   0.20761   0.22652   0.23444   0.24223

 Mulliken charges:
               1
     1  C    4.470679
     2  C    2.395962
     3  Cl  -0.834439
     4  Cl  -0.953530
     5  H    1.525525
     6  C    1.027746
     7  N   -2.532973
     8  C   -5.553073
     9  H    1.153870
    10  H    1.267320
    11  H    1.232876
    12  N   -3.570510
    13  H    0.560393
    14  H    0.460795
    15  C   -5.276723
    16  H    1.277251
    17  H    1.081004
    18  H    1.267825
 Sum of Mulliken charges =  -1.00000

 Dipole moment (field-independent basis, Debye):
    X=             -1.2994    Y=             -0.9305    Z=             -1.1769  Tot=              1.9848

 Test job not archived.
 1\1\GINC-SE342\SP\RHF\Aug-CC-pVDZ\C5H9Cl2N2(1-)\OHZDE\09-Apr-2025\0\\#
 t hf aug-cc-pvdz iop(5/13=1,5/36=2,99/5=2) pseudo=read geom=check gues
 s=(read,tcheck) scf=(maxcycle=1)\\title\\-1,1\C,0,-0.41967927,0.025472
 38,-0.2478838\C,0,-0.10656288,0.07254233,1.10962758\Cl,0,1.72078737,-0
 .33298865,-1.36687617\Cl,0,-2.76413387,-0.12327649,2.3453685\H,0,-1.46
 890204,0.0975893,1.57716845\C,0,-0.7497859,1.26909698,-0.89233847\N,0,
 -1.08775915,2.27599671,-1.40277264\C,0,0.49843591,1.31718757,1.7000339
 2\H,0,0.03541546,2.22930457,1.31850984\H,0,0.39301843,1.2839135,2.7860

 Normal termination of Gaussian 16 at Wed Apr  9 03:03:13 2025.
