 Gaussian 16, Revision C.01,

 ----------------------------------------------------------------------
 #t hf aug-cc-pvdz symm=none int=(grid=ultrafine) guess=(read,tcheck) s
 table=(opt,rrhf)
 ----------------------------------------------------------------------
 -----
 title
 -----
 Symbolic Z-matrix:
 Charge = -1 Multiplicity = 1

 SCF Done:  E(RHF) =  -1183.56279455     A.U. after   15 cycles
 Normal termination of Gaussian 16 at Wed Apr  9 02:54:25 2025.
 Gaussian 16:  ES64L-G16RevC.01  3-Jul-2019

 ----------------------------------------------------------------------
 #t hf aug-cc-pvdz iop(5/13=1,5/36=2,99/5=2) pseudo=read geom=check gue
 ss=(read,tcheck) scf=(maxcycle=1)
 ----------------------------------------------------------------------
 -----
 title
 -----
 Structure from the checkpoint file:  "E2SN2_342_mol2.chk"
 Charge = -1 Multiplicity = 1

                         Standard orientation:
 ---------------------------------------------------------------------
 Center     Atomic      Atomic             Coordinates (Angstroms)
 Number     Number       Type             X           Y           Z
 ---------------------------------------------------------------------
      1          6           0        0.891603   -0.113647   -0.070189
      2          6           0        0.301661    0.041293    1.356260
      3         17           0        2.456956   -1.030103    0.083466
      4          1           0        0.053774   -0.967948    1.699444
      5          1           0        1.103562    0.421653    1.998914
      6          6           0       -0.025807   -0.861514   -1.019059
      7          1           0       -0.176710   -1.873550   -0.638458
      8          1           0       -1.008928   -0.384991   -1.059734
      9          1           0        0.410563   -0.914940   -2.018242
     10          6           0        1.238698    1.210126   -0.590218
     11          7           0        1.502183    2.290349   -0.970732
     12          7           0       -0.860657    0.877669    1.470294
     13          1           0       -1.676698    0.493434    0.990060
     14          1           0       -0.684380    1.810298    1.119236
     15         17           0       -3.453944   -0.288581   -0.298108
 ---------------------------------------------------------------------

 SCF Done:  E(RHF) =  -1185.32665451     A.U. after    2 cycles

 The electronic state is 1-A.
 Alpha  occ. eigenvalues --  -99.79464 -99.60987 -15.67282 -15.60336 -11.40619
 Alpha  occ. eigenvalues --  -11.35520 -11.31896 -11.27676 -10.36812 -10.17634
 Alpha  occ. eigenvalues --   -9.56805  -9.56034  -9.56027  -9.37626  -9.37361
 Alpha  occ. eigenvalues --   -9.37197  -1.31768  -1.19614  -1.18905  -1.04330
 Alpha  occ. eigenvalues --   -0.96692  -0.89022  -0.80809  -0.61628  -0.56945
 Alpha  occ. eigenvalues --   -0.55756  -0.50933  -0.46639  -0.45309  -0.42805
 Alpha  occ. eigenvalues --   -0.40877  -0.40438  -0.39371  -0.37383  -0.33745
 Alpha  occ. eigenvalues --   -0.33174  -0.25286  -0.24672  -0.24573  -0.22499
 Alpha virt. eigenvalues --    0.12947   0.13990   0.14844   0.15189   0.15891
 Alpha virt. eigenvalues --    0.16694   0.17675   0.18731   0.20156   0.20444
 Alpha virt. eigenvalues --    0.21192   0.22586   0.22988   0.24111   0.25221

 Mulliken charges:
               1
     1  C   -0.390607
     2  C   -1.067786
     3  Cl  -0.059412
     4  H    1.407081
     5  H    1.343525
     6  C   -3.514615
     7  H    1.234030
     8  H    1.331713
     9  H    1.161123
    10  C    2.432940
    11  N   -2.608093
    12  N   -2.485311
    13  H    0.612312
    14  H    0.566215
    15  Cl  -0.963114
 Sum of Mulliken charges =  -1.00000

 Dipole moment (field-independent basis, Debye):
    X=             10.0132    Y=             -0.6436    Z=              1.2458  Tot=             10.1109

 Test job not archived.
 1\1\GINC-SE114\SP\RHF\Aug-CC-pVDZ\C4H7Cl2N2(1-)\OHZDE\09-Apr-2025\0\\#
 t hf aug-cc-pvdz iop(5/13=1,5/36=2,99/5=2) pseudo=read geom=check gues
 s=(read,tcheck) scf=(maxcycle=1)\\title\\-1,1\C,0,0.019213,-0.029996,-
 0.025589\C,0,-0.397092,-0.65199,-1.384488\Cl,0,1.800078,0.336292,-0.11
 6051\H,0,-0.26549,0.132178,-2.136521\H,0,0.320095,-1.449456,-1.609023\
 C,0,-0.730286,1.247515,0.302313\H,0,-0.501781,1.995267,-0.459592\H,0,-
 1.810082,1.079108,0.271756\H,0,-0.434388,1.629965,1.280994\C,0,-0.1419
 4,-1.033061,1.028532\N,0,-0.286252,-1.866183,1.84473\N,0,-1.738879,-1.

 Normal termination of Gaussian 16 at Wed Apr  9 02:54:31 2025.
