 Gaussian 16, Revision C.01,

 ----------------------------------------------------------------------
 #t hf aug-cc-pvdz symm=none int=(grid=ultrafine) guess=(read,tcheck) s
 table=(opt,rrhf)
 ----------------------------------------------------------------------
 -----
 title
 -----
 Symbolic Z-matrix:
 Charge = -1 Multiplicity = 1

 SCF Done:  E(RHF) =  -891.254801807     A.U. after   18 cycles
 Normal termination of Gaussian 16 at Wed Apr  9 02:36:45 2025.
 Gaussian 16:  ES64L-G16RevC.01  3-Jul-2019

 ----------------------------------------------------------------------
 #t hf aug-cc-pvdz iop(5/13=1,5/36=2,99/5=2) pseudo=read geom=check gue
 ss=(read,tcheck) scf=(maxcycle=1)
 ----------------------------------------------------------------------
 -----
 title
 -----
 Structure from the checkpoint file:  "E2SN2_131_mol1.chk"
 Charge = -1 Multiplicity = 1

                         Standard orientation:
 ---------------------------------------------------------------------
 Center     Atomic      Atomic             Coordinates (Angstroms)
 Number     Number       Type             X           Y           Z
 ---------------------------------------------------------------------
      1          6           0        0.010671    0.080074    0.406601
      2          6           0       -0.992596   -0.801230   -0.200264
      3         17           0       -0.110424    1.953162   -0.207583
      4          1           0       -0.656432   -2.584528    1.501047
      5          1           0       -0.749454   -1.835986    0.493496
      6          7           0        0.018312    0.113404    1.817998
      7          1           0       -0.099278   -0.879897    2.105663
      8          1           0       -0.806142    0.619205    2.116758
      9          7           0        1.400741   -0.358575   -0.053862
     10          8           0        1.722461   -0.159522   -1.224554
     11          8           0        2.075108   -0.978998    0.764445
     12          7           0       -0.946099   -1.050609   -1.628380
     13          1           0       -0.127881   -1.606987   -1.845597
     14          1           0       -0.818262   -0.165647   -2.113366
     15          6           0       -2.399304   -0.489824    0.270368
     16          1           0       -2.515525   -0.749889    1.327532
     17          1           0       -2.670980    0.561939    0.118220
     18          1           0       -3.082707   -1.117463   -0.304489
 ---------------------------------------------------------------------

 SCF Done:  E(RHF) =  -893.516944311     A.U. after    2 cycles

 The electronic state is 1-A.
 Alpha  occ. eigenvalues --  -99.74537 -20.97230 -20.96416 -15.86015 -15.61712
 Alpha  occ. eigenvalues --  -15.60055 -11.43687 -11.29090 -11.23568 -10.31635
 Alpha  occ. eigenvalues --   -9.51754  -9.51033  -9.51005  -1.86172  -1.56265
 Alpha  occ. eigenvalues --   -1.31370  -1.18908  -1.12843  -0.98490  -0.95815
 Alpha  occ. eigenvalues --   -0.76931  -0.66329  -0.61133  -0.56512  -0.54618
 Alpha  occ. eigenvalues --   -0.52322  -0.49768  -0.46418  -0.45429  -0.41852
 Alpha  occ. eigenvalues --   -0.38666  -0.37657  -0.36360  -0.36081  -0.34241
 Alpha  occ. eigenvalues --   -0.29942  -0.24736  -0.20548  -0.17603  -0.17409
 Alpha  occ. eigenvalues --   -0.10796
 Alpha virt. eigenvalues --    0.13841   0.14689   0.15064   0.15231   0.16184
 Alpha virt. eigenvalues --    0.16727   0.17734   0.19006   0.19695   0.21258
 Alpha virt. eigenvalues --    0.22360   0.23594   0.24758   0.25949   0.26143

 Mulliken charges:
               1
     1  C    4.331062
     2  C    1.622045
     3  Cl  -0.315660
     4  H   -0.351409
     5  H    1.168734
     6  N   -3.642348
     7  H    0.624048
     8  H    0.577292
     9  N    3.827431
    10  O   -3.103159
    11  O   -2.692798
    12  N   -3.487726
    13  H    0.499171
    14  H    0.594959
    15  C   -4.193579
    16  H    1.239868
    17  H    1.176422
    18  H    1.125647
 Sum of Mulliken charges =  -1.00000

 Dipole moment (field-independent basis, Debye):
    X=              0.5590    Y=              4.3447    Z=             -2.7235  Tot=              5.1581

 Test job not archived.
 1\1\GINC-SE112\SP\RHF\Aug-CC-pVDZ\C3H9Cl1N3O2(1-)\OHZDE\09-Apr-2025\0\
 \#t hf aug-cc-pvdz iop(5/13=1,5/36=2,99/5=2) pseudo=read geom=check gu
 ess=(read,tcheck) scf=(maxcycle=1)\\title\\-1,1\C,0,-0.18658216,0.0003
 6335,-0.220258\C,0,-0.15805133,0.00588795,1.2462628\Cl,0,1.60217709,0.
 14778243,-1.04424394\H,0,-2.47323869,-0.8845629,1.43233087\H,0,-1.3861
 1121,-0.25034723,1.43953219\N,0,-0.81801004,-1.11456492,-0.81308513\H,
 0,-1.67093464,-1.27118799,-0.23757195\H,0,-0.21044319,-1.9141851,-0.68
 546341\N,0,-0.90992218,1.25570601,-0.70772966\O,0,-0.35122515,2.344128

 Normal termination of Gaussian 16 at Wed Apr  9 02:36:54 2025.
