 Gaussian 16, Revision C.01,

 ----------------------------------------------------------------------
 #t hf aug-cc-pvdz symm=none int=(grid=ultrafine) guess=(read,tcheck) s
 table=(opt,rrhf)
 ----------------------------------------------------------------------
 -----
 title
 -----
 Symbolic Z-matrix:
 Charge = -1 Multiplicity = 1

 SCF Done:  E(RHF) =  -1000.66384944     A.U. after   17 cycles
 Normal termination of Gaussian 16 at Wed Apr  9 02:46:36 2025.
 Gaussian 16:  ES64L-G16RevC.01  3-Jul-2019

 ----------------------------------------------------------------------
 #t hf aug-cc-pvdz iop(5/13=1,5/36=2,99/5=2) pseudo=read geom=check gue
 ss=(read,tcheck) scf=(maxcycle=1)
 ----------------------------------------------------------------------
 -----
 title
 -----
 Structure from the checkpoint file:  "E2SN2_24_mol1.chk"
 Charge = -1 Multiplicity = 1

                         Standard orientation:
 ---------------------------------------------------------------------
 Center     Atomic      Atomic             Coordinates (Angstroms)
 Number     Number       Type             X           Y           Z
 ---------------------------------------------------------------------
      1          6           0       -0.001077    0.112039   -0.198439
      2          6           0       -0.815072   -0.266475   -1.354075
      3         17           0        0.197288    1.912700    0.095951
      4          1           0       -1.559717   -2.480464   -2.080807
      5          1           0       -0.850732   -1.465813   -1.602750
      6          1           0       -0.404499    0.190847   -2.259147
      7          7           0       -0.571231   -0.525535    1.066379
      8          8           0       -0.470966   -1.745790    1.077167
      9          8           0       -1.089197    0.174300    1.919713
     10          7           0       -2.215029   -0.034644   -1.073177
     11          1           0       -2.681463   -0.867236   -1.457267
     12          1           0       -2.561223    0.787392   -1.549011
     13          7           0        1.438597   -0.378541   -0.292519
     14          8           0        1.892417   -0.547125   -1.417804
     15          8           0        2.047031   -0.529256    0.761939
 ---------------------------------------------------------------------

 SCF Done:  E(RHF) =  -1003.28399279     A.U. after    2 cycles

 The electronic state is 1-A.
 Alpha  occ. eigenvalues --  -99.80485 -21.00711 -21.00243 -20.99466 -20.98912
 Alpha  occ. eigenvalues --  -15.90408 -15.89393 -15.60106 -11.47453 -11.27242
 Alpha  occ. eigenvalues --  -10.37768  -9.57922  -9.56983  -9.56936  -1.91094
 Alpha  occ. eigenvalues --   -1.87599  -1.60199  -1.58916  -1.29598  -1.19676
 Alpha  occ. eigenvalues --   -1.09631  -0.90276  -0.85514  -0.68013  -0.63797
 Alpha  occ. eigenvalues --   -0.63599  -0.57636  -0.56680  -0.51749  -0.50634
 Alpha  occ. eigenvalues --   -0.49633  -0.46571  -0.43813  -0.42643  -0.40683
 Alpha  occ. eigenvalues --   -0.36508  -0.29326  -0.24851  -0.23159  -0.22788
 Alpha  occ. eigenvalues --   -0.21654  -0.20304  -0.18858  -0.11167
 Alpha virt. eigenvalues --    0.13625   0.14781   0.15030   0.17830   0.18934
 Alpha virt. eigenvalues --    0.20217   0.20995   0.22875   0.23314   0.23867
 Alpha virt. eigenvalues --    0.23953   0.25192   0.26081   0.26129   0.26910

 Mulliken charges:
               1
     1  C    1.355083
     2  C   -0.896302
     3  Cl   0.222963
     4  H   -0.731037
     5  H    1.532714
     6  H    1.446886
     7  N    4.802714
     8  O   -3.071199
     9  O   -3.032294
    10  N   -2.216685
    11  H    0.551230
    12  H    0.500456
    13  N    4.456065
    14  O   -2.913761
    15  O   -3.006834
 Sum of Mulliken charges =  -1.00000

 Dipole moment (field-independent basis, Debye):
    X=              3.5911    Y=              6.3624    Z=              4.1939  Tot=              8.4241

 Test job not archived.
 1\1\GINC-SE336\SP\RHF\Aug-CC-pVDZ\C2H5Cl1N3O4(1-)\OHZDE\09-Apr-2025\0\
 \#t hf aug-cc-pvdz iop(5/13=1,5/36=2,99/5=2) pseudo=read geom=check gu
 ess=(read,tcheck) scf=(maxcycle=1)\\title\\-1,1\C,0,-0.08329177,0.0573
 4466,-0.40389185\C,0,-0.18735132,0.03166141,1.05551483\Cl,0,1.61568605
 ,-0.01062484,-1.09472141\H,0,-2.1741976,-0.10069736,2.47653746\H,0,-1.
 31652801,0.18631337,1.50558857\H,0,0.39421621,0.85506645,1.48054546\N,
 0,-0.89478979,-1.09039579,-1.00013392\O,0,-2.10107571,-0.96482977,-0.8
 3191402\O,0,-0.32408056,-2.02023247,-1.54413062\N,0,0.09152161,-1.2987

 Normal termination of Gaussian 16 at Wed Apr  9 02:46:43 2025.
