 Gaussian 16, Revision C.01,

 ----------------------------------------------------------------------
 #t hf aug-cc-pvdz symm=none int=(grid=ultrafine) guess=(read,tcheck) s
 table=(opt,rrhf)
 ----------------------------------------------------------------------
 -----
 title
 -----
 Symbolic Z-matrix:
 Charge = -1 Multiplicity = 1

 SCF Done:  E(RHF) =  -932.874208351     A.U. after   16 cycles
 Normal termination of Gaussian 16 at Wed Apr  9 02:38:40 2025.
 Gaussian 16:  ES64L-G16RevC.01  3-Jul-2019

 ----------------------------------------------------------------------
 #t hf aug-cc-pvdz iop(5/13=1,5/36=2,99/5=2) pseudo=read geom=check gue
 ss=(read,tcheck) scf=(maxcycle=1)
 ----------------------------------------------------------------------
 -----
 title
 -----
 Structure from the checkpoint file:  "E2SN2_169_mol2.chk"
 Charge = -1 Multiplicity = 1

                         Standard orientation:
 ---------------------------------------------------------------------
 Center     Atomic      Atomic             Coordinates (Angstroms)
 Number     Number       Type             X           Y           Z
 ---------------------------------------------------------------------
      1          6           0       -0.047442    0.153580   -0.280687
      2          6           0        0.866167   -0.691500    0.564988
      3         17           0        0.303849    1.921224   -0.194130
      4          1           0        0.420029   -1.708010    0.254808
      5          1           0       -0.039251   -0.155437   -1.317536
      6          1           0        0.722217   -0.473686    1.623601
      7          7           0       -1.476061    0.000032    0.167095
      8          8           0       -2.333367    0.192336   -0.683807
      9          8           0       -1.680621   -0.203744    1.358181
     10          6           0        2.254796   -0.541831    0.185677
     11          7           0        3.389920   -0.453418   -0.107786
     12          9           0       -0.666073   -2.286688   -0.654520
 ---------------------------------------------------------------------

 SCF Done:  E(RHF) =  -935.092963877     A.U. after    2 cycles

 The electronic state is 1-A.
 Alpha  occ. eigenvalues --  -99.78773 -28.91636 -20.96925 -20.96723 -15.86916
 Alpha  occ. eigenvalues --  -15.64119 -11.39894 -11.33801 -11.28533 -10.36130
 Alpha  occ. eigenvalues --   -9.56107  -9.55353  -9.55224  -1.86529  -1.56543
 Alpha  occ. eigenvalues --   -1.26770  -1.18146  -1.07324  -0.94199  -0.72423
 Alpha  occ. eigenvalues --   -0.62702  -0.61768  -0.56694  -0.52152  -0.50098
 Alpha  occ. eigenvalues --   -0.45572  -0.44223  -0.40573  -0.39742  -0.38658
 Alpha  occ. eigenvalues --   -0.33771  -0.31313  -0.25780  -0.22941  -0.19039
 Alpha  occ. eigenvalues --   -0.18454  -0.01091  -0.00505   0.01582
 Alpha virt. eigenvalues --    0.14627   0.16102   0.17142   0.18450   0.19905
 Alpha virt. eigenvalues --    0.21308   0.22669   0.23809   0.24249   0.24791
 Alpha virt. eigenvalues --    0.25837   0.26175   0.26711   0.27597   0.27871

 Mulliken charges:
               1
     1  C   -1.462694
     2  C   -1.573319
     3  Cl  -0.153384
     4  H    0.858642
     5  H    1.827779
     6  H    1.520958
     7  N    5.355773
     8  O   -3.028998
     9  O   -3.029423
    10  C    1.922103
    11  N   -2.565210
    12  F   -0.672228
 Sum of Mulliken charges =  -1.00000

 Dipole moment (field-independent basis, Debye):
    X=             -2.4381    Y=              1.8472    Z=              0.9689  Tot=              3.2086

 Test job not archived.
 1\1\GINC-SE042\SP\RHF\Aug-CC-pVDZ\C3H3Cl1F1N2O2(1-)\OHZDE\09-Apr-2025\
 0\\#t hf aug-cc-pvdz iop(5/13=1,5/36=2,99/5=2) pseudo=read geom=check
 guess=(read,tcheck) scf=(maxcycle=1)\\title\\-1,1\C,0,-0.019643,0.0059
 06,-0.009747\C,0,-0.523881,-0.004577,-1.427366\Cl,0,1.778145,0.076621,
 0.125976\H,0,-1.6455,-0.004678,-1.161822\H,0,-0.447101,0.816566,0.5653
 39\H,0,-0.212346,-0.914867,-1.940341\N,0,-0.433032,-1.250315,0.708624\
 O,0,-0.547465,-1.166106,1.92345\O,0,-0.525754,-2.279097,0.04903\C,0,-0
 .114605,1.173861,-2.161085\N,0,0.189264,2.126259,-2.779993\F,0,-2.5636

 Normal termination of Gaussian 16 at Wed Apr  9 02:38:46 2025.
