 Gaussian 16, Revision C.01,

 ----------------------------------------------------------------------
 #t hf aug-cc-pvdz symm=none int=(grid=ultrafine) guess=(read,tcheck) s
 table=(opt,rrhf)
 ----------------------------------------------------------------------
 -----
 title
 -----
 Symbolic Z-matrix:
 Charge = -1 Multiplicity = 1

 SCF Done:  E(RHF) =  -987.975003485     A.U. after   16 cycles
 Normal termination of Gaussian 16 at Wed Apr  9 02:43:30 2025.
 Gaussian 16:  ES64L-G16RevC.01  3-Jul-2019

 ----------------------------------------------------------------------
 #t hf aug-cc-pvdz iop(5/13=1,5/36=2,99/5=2) pseudo=read geom=check gue
 ss=(read,tcheck) scf=(maxcycle=1)
 ----------------------------------------------------------------------
 -----
 title
 -----
 Structure from the checkpoint file:  "E2SN2_219_mol2.chk"
 Charge = -1 Multiplicity = 1

                         Standard orientation:
 ---------------------------------------------------------------------
 Center     Atomic      Atomic             Coordinates (Angstroms)
 Number     Number       Type             X           Y           Z
 ---------------------------------------------------------------------
      1          6           0        0.106462   -0.513866   -0.426922
      2          6           0       -0.078844    0.948623    0.007679
      3          9           0        0.436983   -0.566533   -1.743156
      4          1           0       -0.816031    1.323986   -0.709307
      5          1           0       -0.813976   -1.066024   -0.232637
      6          7           0        1.228287   -1.153832    0.346556
      7          8           0        1.006933   -1.322326    1.546331
      8          8           0        2.267550   -1.437061   -0.236701
      9          6           0        1.187624    1.677088   -0.183307
     10          7           0        2.204976    2.246776   -0.320595
     11          7           0       -0.616352    1.174160    1.330326
     12          1           0       -0.129118    0.589993    1.999019
     13          1           0       -1.588146    0.865414    1.280034
     14         17           0       -3.164192   -0.181193   -0.176732
 ---------------------------------------------------------------------

 SCF Done:  E(RHF) =  -990.436060182     A.U. after    2 cycles

 The electronic state is 1-A.
 Alpha  occ. eigenvalues --  -99.63223 -29.19480 -21.01381 -21.00525 -15.90114
 Alpha  occ. eigenvalues --  -15.66829 -15.63100 -11.45459 -11.38543 -11.33358
 Alpha  occ. eigenvalues --  -10.19912  -9.39964  -9.39635  -9.39519  -1.90396
 Alpha  occ. eigenvalues --   -1.60555  -1.31233  -1.18214  -1.15880  -0.99144
 Alpha  occ. eigenvalues --   -0.93148  -0.82865  -0.67769  -0.65384  -0.62409
 Alpha  occ. eigenvalues --   -0.58628  -0.51403  -0.50837  -0.49371  -0.46567
 Alpha  occ. eigenvalues --   -0.40904  -0.35248  -0.33654  -0.33343  -0.28985
 Alpha  occ. eigenvalues --   -0.27620  -0.27114  -0.26635  -0.25556  -0.23940
 Alpha  occ. eigenvalues --   -0.22706  -0.17638  -0.16098
 Alpha virt. eigenvalues --    0.14968   0.15608   0.16398   0.17637   0.18958
 Alpha virt. eigenvalues --    0.20809   0.20882   0.21919   0.22716   0.23346
 Alpha virt. eigenvalues --    0.24402   0.25190   0.25441   0.26423   0.26903

 Mulliken charges:
               1
     1  C    0.249967
     2  C    0.241628
     3  F    0.393072
     4  H    1.753587
     5  H    1.565529
     6  N    3.783244
     7  O   -2.907805
     8  O   -2.714647
     9  C    1.589580
    10  N   -2.369668
    11  N   -2.752411
    12  H    0.752556
    13  H    0.405166
    14  Cl  -0.989797
 Sum of Mulliken charges =  -1.00000

 Dipole moment (field-independent basis, Debye):
    X=              7.3768    Y=             -1.4790    Z=             -1.7361  Tot=              7.7213

 Test job not archived.
 1\1\GINC-SE128\SP\RHF\Aug-CC-pVDZ\C3H4Cl1F1N3O2(1-)\OHZDE\09-Apr-2025\
 0\\#t hf aug-cc-pvdz iop(5/13=1,5/36=2,99/5=2) pseudo=read geom=check
 guess=(read,tcheck) scf=(maxcycle=1)\\title\\-1,1\C,0,-0.47136,0.15342
 4,0.041289\C,0,-0.659422,-0.495719,-1.33905\F,0,0.500227,-0.499039,0.7
 30347\H,0,-0.840687,-1.546476,-1.091129\H,0,-1.418202,0.128474,0.58230
 6\N,0,-0.03524,1.586644,-0.107017\O,0,-0.883579,2.345594,-0.577299\O,0
 ,1.105006,1.898094,0.214406\C,0,0.598359,-0.394222,-2.099814\N,0,1.598
 015,-0.293421,-2.707206\N,0,-1.783676,-0.042723,-2.126467\H,0,-1.81356

 Normal termination of Gaussian 16 at Wed Apr  9 02:43:37 2025.
