 Gaussian 16, Revision C.01,

 ----------------------------------------------------------------------
 #t hf aug-cc-pvdz symm=none int=(grid=ultrafine) guess=(read,tcheck) s
 table=(opt,rrhf)
 ----------------------------------------------------------------------
 -----
 title
 -----
 Symbolic Z-matrix:
 Charge = -1 Multiplicity = 1

 SCF Done:  E(RHF) =  -380.431499448     A.U. after   16 cycles
 Normal termination of Gaussian 16 at Wed Apr  9 02:37:41 2025.
 Gaussian 16:  ES64L-G16RevC.01  3-Jul-2019

 ----------------------------------------------------------------------
 #t hf aug-cc-pvdz iop(5/13=1,5/36=2,99/5=2) pseudo=read geom=check gue
 ss=(read,tcheck) scf=(maxcycle=1)
 ----------------------------------------------------------------------
 -----
 title
 -----
 Structure from the checkpoint file:  "E2SN2_154_mol2.chk"
 Charge = -1 Multiplicity = 1

                         Standard orientation:
 ---------------------------------------------------------------------
 Center     Atomic      Atomic             Coordinates (Angstroms)
 Number     Number       Type             X           Y           Z
 ---------------------------------------------------------------------
      1          6           0       -0.493545    0.422044   -0.595022
      2          6           0        0.957450    0.182803   -0.229575
      3          9           0       -0.903968    1.699591   -0.198518
      4          1           0        1.553687    0.932121   -0.772934
      5          1           0       -0.602084    0.355538   -1.680083
      6          6           0       -1.396117   -0.557155    0.035376
      7          7           0       -2.148433   -1.331484    0.494990
      8          7           0        1.351944   -1.107647   -0.748642
      9          1           0        2.383043   -1.066249   -0.662573
     10          1           0        1.054275   -1.791828   -0.056000
     11          7           0        1.142808    0.264171    1.211187
     12          1           0        2.162498    0.140358    1.299511
     13          1           0        0.935676    1.213285    1.513439
     14          1           0        3.817650   -0.140979    0.177877
 ---------------------------------------------------------------------

 SCF Done:  E(RHF) =  -382.100906987     A.U. after    2 cycles

 The electronic state is 1-A.
 Alpha  occ. eigenvalues --  -29.16854 -15.66507 -15.58693 -15.58418 -11.41451
 Alpha  occ. eigenvalues --  -11.33978 -11.30167  -1.31426  -1.19920  -1.09358
 Alpha  occ. eigenvalues --   -1.07365  -0.77369  -0.67126  -0.61101  -0.56647
 Alpha  occ. eigenvalues --   -0.51524  -0.43570  -0.42085  -0.40880  -0.39924
 Alpha  occ. eigenvalues --   -0.34552  -0.32872  -0.27325  -0.23924  -0.23885
 Alpha  occ. eigenvalues --   -0.16999  -0.15625  -0.10747
 Alpha virt. eigenvalues --    0.13719   0.15229   0.16192   0.16900   0.17935
 Alpha virt. eigenvalues --    0.18907   0.20028   0.20552   0.21325   0.22582
 Alpha virt. eigenvalues --    0.23413   0.24191   0.25305   0.26061   0.28377

 Mulliken charges:
               1
     1  C    0.246817
     2  C    0.559319
     3  F    0.141612
     4  H    1.657641
     5  H    1.537414
     6  C    1.096278
     7  N   -2.308593
     8  N   -2.602534
     9  H    0.656574
    10  H    0.522749
    11  N   -2.670506
    12  H    0.686464
    13  H    0.547173
    14  H   -1.070408
 Sum of Mulliken charges =  -1.00000

 Dipole moment (field-independent basis, Debye):
    X=            -11.3743    Y=              4.4708    Z=             -0.8322  Tot=             12.2497

 Test job not archived.
 1\1\GINC-SE042\SP\RHF\Aug-CC-pVDZ\C3H7F1N3(1-)\OHZDE\09-Apr-2025\0\\#t
  hf aug-cc-pvdz iop(5/13=1,5/36=2,99/5=2) pseudo=read geom=check guess
 =(read,tcheck) scf=(maxcycle=1)\\title\\-1,1\C,0,-0.738479,0.138494,-1
 .612995\C,0,0.097054,0.074274,-0.350484\F,0,-0.633876,1.396153,-2.2172
 63\H,0,1.143939,0.239081,-0.648954\H,0,-0.369366,-0.606804,-2.321408\C
 ,0,-2.165455,-0.118319,-1.350972\N,0,-3.306067,-0.343433,-1.192422\N,0
 ,0.028827,-1.271344,0.173897\H,0,0.798331,-1.269715,0.866823\H,0,-0.82
 5853,-1.31479,0.725349\N,0,-0.364755,1.055223,0.619695\H,0,0.318074,0.

 Normal termination of Gaussian 16 at Wed Apr  9 02:37:45 2025.
