 Gaussian 16, Revision C.01,

 ----------------------------------------------------------------------
 #t hf aug-cc-pvdz symm=none int=(grid=ultrafine) guess=(read,tcheck) s
 table=(opt,rrhf)
 ----------------------------------------------------------------------
 -----
 title
 -----
 Symbolic Z-matrix:
 Charge = -1 Multiplicity = 1

 SCF Done:  E(RHF) =  -971.873284407     A.U. after   18 cycles
 Normal termination of Gaussian 16 at Wed Apr  9 02:44:52 2025.
 Gaussian 16:  ES64L-G16RevC.01  3-Jul-2019

 ----------------------------------------------------------------------
 #t hf aug-cc-pvdz iop(5/13=1,5/36=2,99/5=2) pseudo=read geom=check gue
 ss=(read,tcheck) scf=(maxcycle=1)
 ----------------------------------------------------------------------
 -----
 title
 -----
 Structure from the checkpoint file:  "E2SN2_229_mol1.chk"
 Charge = -1 Multiplicity = 1

                         Standard orientation:
 ---------------------------------------------------------------------
 Center     Atomic      Atomic             Coordinates (Angstroms)
 Number     Number       Type             X           Y           Z
 ---------------------------------------------------------------------
      1          6           0        0.074294   -0.093560   -0.050311
      2          1           0        0.613267   -1.177644   -1.756197
      3         17           0       -0.042530    2.039209    0.014296
      4          9           0        0.038566   -2.034592    0.115937
      5          6           0        0.926414   -0.247107   -1.291636
      6          1           0        0.717939    0.578719   -1.971252
      7          7           0       -1.399317   -0.294024   -0.196821
      8          8           0       -1.820318   -0.378887   -1.343737
      9          8           0       -2.072143   -0.321469    0.822099
     10          6           0        0.597620   -0.239710    1.285467
     11          7           0        1.094316   -0.260718    2.351338
     12          6           0        2.402891   -0.303089   -0.931877
     13          1           0        2.721380    0.605775   -0.416484
     14          1           0        2.584671   -1.160651   -0.283197
     15          1           0        3.006046   -0.414595   -1.837710
 ---------------------------------------------------------------------

 SCF Done:  E(RHF) =  -974.324463629     A.U. after    2 cycles

 The electronic state is 1-A.
 Alpha  occ. eigenvalues --  -99.71957 -28.96623 -20.96839 -20.96657 -15.87847
 Alpha  occ. eigenvalues --  -15.63372 -11.49044 -11.33630 -11.31404 -11.25940
 Alpha  occ. eigenvalues --  -10.28994  -9.49084  -9.48528  -9.48505  -1.86986
 Alpha  occ. eigenvalues --   -1.56891  -1.23810  -1.13778  -1.07573  -1.00935
 Alpha  occ. eigenvalues --   -0.81236  -0.79173  -0.62738  -0.60268  -0.55156
 Alpha  occ. eigenvalues --   -0.52272  -0.47425  -0.44702  -0.42285  -0.40682
 Alpha  occ. eigenvalues --   -0.39566  -0.37462  -0.35342  -0.33795  -0.33097
 Alpha  occ. eigenvalues --   -0.31379  -0.28126  -0.23713  -0.19052  -0.18381
 Alpha  occ. eigenvalues --   -0.06718  -0.03904  -0.02841
 Alpha virt. eigenvalues --    0.12532   0.14966   0.15555   0.16049   0.16621
 Alpha virt. eigenvalues --    0.19650   0.20345   0.22129   0.23387   0.24186
 Alpha virt. eigenvalues --    0.24579   0.25081   0.25323   0.26041   0.26361

 Mulliken charges:
               1
     1  C    1.080765
     2  H    1.269189
     3  Cl  -0.586577
     4  F   -0.318064
     5  C   -3.812192
     6  H    1.300013
     7  N    5.494604
     8  O   -3.208755
     9  O   -3.346545
    10  C    4.893466
    11  N   -3.409468
    12  C   -4.031300
    13  H    1.284163
    14  H    1.331977
    15  H    1.058724
 Sum of Mulliken charges =  -1.00000

 Dipole moment (field-independent basis, Debye):
    X=              0.7010    Y=             -5.3290    Z=             -3.4917  Tot=              6.4095

 Test job not archived.
 1\1\GINC-SE126\SP\RHF\Aug-CC-pVDZ\C4H5Cl1F1N2O2(1-)\OHZDE\09-Apr-2025\
 0\\#t hf aug-cc-pvdz iop(5/13=1,5/36=2,99/5=2) pseudo=read geom=check
 guess=(read,tcheck) scf=(maxcycle=1)\\title\\-1,1\C,0,0.41289767,-0.03
 170723,-0.02456777\H,0,1.47650084,1.71967043,-0.44552301\Cl,0,-1.66919
 852,-0.28464876,-0.43374092\F,0,2.32031562,-0.06625733,0.3717688\C,0,0
 .48333071,1.47919625,-0.0773373\H,0,-0.25841349,1.84586706,-0.78634913
 \N,0,0.86889345,-0.78546925,-1.23166822\O,0,1.08378575,-0.11706312,-2.
 23511952\O,0,0.95756869,-2.00026057,-1.1418689\C,0,0.39806304,-0.77531

 Normal termination of Gaussian 16 at Wed Apr  9 02:45:00 2025.
