 Gaussian 16, Revision C.01,

 ----------------------------------------------------------------------
 #t hf aug-cc-pvdz symm=none int=(grid=ultrafine) guess=(read,tcheck) s
 table=(opt,rrhf)
 ----------------------------------------------------------------------
 -----
 title
 -----
 Symbolic Z-matrix:
 Charge = -1 Multiplicity = 1

 SCF Done:  E(RHF) =  -1222.60847020     A.U. after   15 cycles
 Normal termination of Gaussian 16 at Wed Apr  9 02:33:54 2025.
 Gaussian 16:  ES64L-G16RevC.01  3-Jul-2019

 ----------------------------------------------------------------------
 #t hf aug-cc-pvdz iop(5/13=1,5/36=2,99/5=2) pseudo=read geom=check gue
 ss=(read,tcheck) scf=(maxcycle=1)
 ----------------------------------------------------------------------
 -----
 title
 -----
 Structure from the checkpoint file:  "E2SN2_110_mol2.chk"
 Charge = -1 Multiplicity = 1

                         Standard orientation:
 ---------------------------------------------------------------------
 Center     Atomic      Atomic             Coordinates (Angstroms)
 Number     Number       Type             X           Y           Z
 ---------------------------------------------------------------------
      1          6           0        0.768231   -0.611015    0.380330
      2          6           0        0.032961    0.692877   -0.000076
      3         17           0        1.638870   -1.173158   -1.108900
      4          1           0       -0.602021    0.474261   -0.870555
      5          6           0        1.798370   -0.383354    1.469892
      6          1           0        2.260815   -1.331137    1.755750
      7          1           0        1.286446    0.048484    2.332274
      8          1           0        2.582290    0.300933    1.138812
      9          6           0       -0.244857   -1.674045    0.764033
     10          1           0       -1.015681   -1.778680   -0.000065
     11          1           0        0.262326   -2.629441    0.921883
     12          1           0       -0.740130   -1.370436    1.688113
     13          6           0        0.996872    1.734248   -0.374654
     14          7           0        1.753425    2.594421   -0.634923
     15          7           0       -0.775419    1.131026    1.141857
     16          1           0       -1.722672    0.795329    0.931505
     17          1           0       -0.828942    2.143147    1.142576
     18         17           0       -3.311690   -0.078775   -0.422040
 ---------------------------------------------------------------------

 SCF Done:  E(RHF) =  -1224.58098987     A.U. after    2 cycles

 The electronic state is 1-A.
 Alpha  occ. eigenvalues --  -99.76521 -99.61594 -15.65519 -15.61298 -11.39749
 Alpha  occ. eigenvalues --  -11.35820 -11.32704 -11.29232 -11.26259 -10.33953
 Alpha  occ. eigenvalues --  -10.18268  -9.53964  -9.53258  -9.53202  -9.38284
 Alpha  occ. eigenvalues --   -9.37946  -9.37887  -1.31883  -1.20650  -1.16626
 Alpha  occ. eigenvalues --   -1.05562  -0.97421  -0.92060  -0.91089  -0.72050
 Alpha  occ. eigenvalues --   -0.62206  -0.58378  -0.53493  -0.50324  -0.48703
 Alpha  occ. eigenvalues --   -0.46410  -0.44473  -0.42302  -0.39720  -0.38936
 Alpha  occ. eigenvalues --   -0.38776  -0.36198  -0.33688  -0.33306  -0.30714
 Alpha  occ. eigenvalues --   -0.26236  -0.25388  -0.25305  -0.23891
 Alpha virt. eigenvalues --    0.12401   0.13759   0.14001   0.14797   0.15348
 Alpha virt. eigenvalues --    0.15918   0.16640   0.17363   0.18616   0.19675
 Alpha virt. eigenvalues --    0.20477   0.21649   0.22494   0.22944   0.23962

 Mulliken charges:
               1
     1  C    1.788685
     2  C    0.288171
     3  Cl  -0.326274
     4  H    1.721198
     5  C   -4.395336
     6  H    1.232858
     7  H    1.374238
     8  H    1.248031
     9  C   -4.367442
    10  H    1.100594
    11  H    1.128256
    12  H    1.498305
    13  C    2.069886
    14  N   -2.566912
    15  N   -2.961630
    16  H    0.474384
    17  H    0.673069
    18  Cl  -0.980081
 Sum of Mulliken charges =  -1.00000

 Dipole moment (field-independent basis, Debye):
    X=              8.2770    Y=             -1.2022    Z=              3.7747  Tot=              9.1761

 Test job not archived.
 1\1\GINC-SE073\SP\RHF\Aug-CC-pVDZ\C5H9Cl2N2(1-)\OHZDE\09-Apr-2025\0\\#
 t hf aug-cc-pvdz iop(5/13=1,5/36=2,99/5=2) pseudo=read geom=check gues
 s=(read,tcheck) scf=(maxcycle=1)\\title\\-1,1\C,0,-0.525642,-0.022334,
 -1.473989\C,0,-0.054594,-0.204899,-0.014451\Cl,0,-0.20654,-1.592083,-2
 .325978\H,0,0.995876,-0.528096,-0.042446\C,0,-2.012496,0.264733,-1.557
 764\H,0,-2.304189,0.443912,-2.595393\H,0,-2.217419,1.156028,-0.961229\
 H,0,-2.600694,-0.569367,-1.169573\C,0,0.303982,1.056353,-2.146125\H,0,
 1.370848,0.869808,-2.019785\H,0,0.053138,1.108452,-3.208808\H,0,0.0820

 Normal termination of Gaussian 16 at Wed Apr  9 02:34:04 2025.
