 Gaussian 16, Revision C.01,

 ----------------------------------------------------------------------
 #t hf aug-cc-pvdz symm=none int=(grid=ultrafine) guess=(read,tcheck) s
 table=(opt,rrhf)
 ----------------------------------------------------------------------
 -----
 title
 -----
 Symbolic Z-matrix:
 Charge = -1 Multiplicity = 1

 SCF Done:  E(RHF) =  -1083.65660072     A.U. after   16 cycles
 Normal termination of Gaussian 16 at Wed Apr  9 02:40:52 2025.
 Gaussian 16:  ES64L-G16RevC.01  3-Jul-2019

 ----------------------------------------------------------------------
 #t hf aug-cc-pvdz iop(5/13=1,5/36=2,99/5=2) pseudo=read geom=check gue
 ss=(read,tcheck) scf=(maxcycle=1)
 ----------------------------------------------------------------------
 -----
 title
 -----
 Structure from the checkpoint file:  "E2SN2_185_mol2.chk"
 Charge = -1 Multiplicity = 1

                         Standard orientation:
 ---------------------------------------------------------------------
 Center     Atomic      Atomic             Coordinates (Angstroms)
 Number     Number       Type             X           Y           Z
 ---------------------------------------------------------------------
      1          6           0        0.973185   -0.613104    0.259750
      2          6           0       -0.125601    0.145904   -0.446706
      3         17           0        2.515585    0.242012   -0.276140
      4          1           0        0.111571    0.293037   -1.501612
      5          1           0        0.849441   -0.460890    1.324429
      6          6           0        1.071038   -2.081210   -0.073934
      7          1           0        0.196650   -2.523484    0.399343
      8          1           0        1.984499   -2.482442    0.372202
      9          1           0        1.087405   -2.265654   -1.149835
     10          7           0       -0.278159    1.538351    0.094709
     11          8           0       -0.032553    1.751465    1.273605
     12          8           0       -0.655228    2.378014   -0.724328
     13          7           0       -1.501685   -0.476634   -0.467825
     14          8           0       -2.445875    0.187667   -0.075480
     15          8           0       -1.563856   -1.518152   -1.110305
     16          9           0       -0.940803   -1.245365    1.613230
 ---------------------------------------------------------------------

 SCF Done:  E(RHF) =  -1086.52194337     A.U. after    2 cycles

 The electronic state is 1-A.
 Alpha  occ. eigenvalues --  -99.76490 -28.89248 -20.98867 -20.98027 -20.96412
 Alpha  occ. eigenvalues --  -20.95719 -15.88146 -15.87576 -11.42525 -11.34338
 Alpha  occ. eigenvalues --  -11.25785 -10.33809  -9.53835  -9.53194  -9.53003
 Alpha  occ. eigenvalues --   -1.88663  -1.85334  -1.57824  -1.56614  -1.25390
 Alpha  occ. eigenvalues --   -1.13884  -1.00072  -0.87499  -0.80436  -0.70454
 Alpha  occ. eigenvalues --   -0.62039  -0.60333  -0.58701  -0.53266  -0.50266
 Alpha  occ. eigenvalues --   -0.49285  -0.47216  -0.45197  -0.44356  -0.40966
 Alpha  occ. eigenvalues --   -0.40662  -0.37369  -0.35643  -0.27649  -0.25731
 Alpha  occ. eigenvalues --   -0.21592  -0.21382  -0.19775  -0.17885  -0.17150
 Alpha  occ. eigenvalues --    0.00806   0.01861   0.02720
 Alpha virt. eigenvalues --    0.13400   0.14223   0.15347   0.16947   0.17670
 Alpha virt. eigenvalues --    0.18196   0.21969   0.22515   0.23978   0.24073
 Alpha virt. eigenvalues --    0.25094   0.25271   0.26064   0.26258   0.27291

 Mulliken charges:
               1
     1  C   -0.439722
     2  C   -1.149711
     3  Cl  -0.355550
     4  H    2.280158
     5  H    1.328935
     6  C   -3.183668
     7  H    1.066347
     8  H    1.089284
     9  H    1.243476
    10  N    4.367152
    11  O   -2.902925
    12  O   -2.795081
    13  N    5.888718
    14  O   -3.023079
    15  O   -3.221206
    16  F   -1.193128
 Sum of Mulliken charges =  -1.00000

 Dipole moment (field-independent basis, Debye):
    X=              0.0834    Y=              0.2198    Z=             -0.5464  Tot=              0.5949

 Test job not archived.
 1\1\GINC-SE333\SP\RHF\Aug-CC-pVDZ\C3H5Cl1F1N2O4(1-)\OHZDE\09-Apr-2025\
 0\\#t hf aug-cc-pvdz iop(5/13=1,5/36=2,99/5=2) pseudo=read geom=check
 guess=(read,tcheck) scf=(maxcycle=1)\\title\\-1,1\C,0,-0.077704,-0.026
 485,0.005615\C,0,-0.385938,0.056453,-1.471076\Cl,0,1.727231,0.334794,0
 .10094\H,0,0.342908,-0.504273,-2.058523\H,0,-0.613629,0.772886,0.50141
 1\C,0,-0.35845,-1.357976,0.657204\H,0,-1.444498,-1.420905,0.683487\H,0
 ,0.042901,-1.342919,1.673633\H,0,0.083621,-2.193029,0.110295\N,0,-0.27
 1587,1.462475,-1.986184\O,0,-0.536823,2.395332,-1.241225\O,0,0.089621,

 Normal termination of Gaussian 16 at Wed Apr  9 02:41:01 2025.
