 Gaussian 16, Revision C.01,

 ----------------------------------------------------------------------
 #t hf aug-cc-pvdz symm=none int=(grid=ultrafine) guess=(read,tcheck) s
 table=(opt,rrhf)
 ----------------------------------------------------------------------
 -----
 title
 -----
 Symbolic Z-matrix:
 Charge = -1 Multiplicity = 1

 SCF Done:  E(RHF) =  -528.874075474     A.U. after   17 cycles
 Normal termination of Gaussian 16 at Wed Apr  9 03:01:04 2025.
 Gaussian 16:  ES64L-G16RevC.01  3-Jul-2019

 ----------------------------------------------------------------------
 #t hf aug-cc-pvdz iop(5/13=1,5/36=2,99/5=2) pseudo=read geom=check gue
 ss=(read,tcheck) scf=(maxcycle=1)
 ----------------------------------------------------------------------
 -----
 title
 -----
 Structure from the checkpoint file:  "E2SN2_61_mol2.chk"
 Charge = -1 Multiplicity = 1

                         Standard orientation:
 ---------------------------------------------------------------------
 Center     Atomic      Atomic             Coordinates (Angstroms)
 Number     Number       Type             X           Y           Z
 ---------------------------------------------------------------------
      1          6           0        0.155813   -0.337010    0.236598
      2          6           0       -0.931581   -1.005576   -0.590164
      3          9           0       -0.058016   -0.467662    1.564469
      4          1           0       -0.998787   -2.050448   -0.251493
      5          1           0       -0.592012   -0.993187   -1.631748
      6          6           0        1.512905   -0.818928   -0.079716
      7          7           0        2.576682   -1.243032   -0.340446
      8          7           0        0.154468    1.160817   -0.078354
      9          8           0       -0.075353    1.941849    0.828924
     10          8           0        0.387488    1.438721   -1.250179
     11          7           0       -2.187410   -0.351809   -0.334139
     12          1           0       -2.569658   -0.010342   -1.207927
     13          1           0       -2.812870   -1.156461   -0.011392
     14          1           0       -3.230616   -2.617914    0.262643
 ---------------------------------------------------------------------

 SCF Done:  E(RHF) =  -531.121341055     A.U. after    2 cycles

 The electronic state is 1-A.
 Alpha  occ. eigenvalues --  -29.20580 -21.01790 -21.00841 -15.90781 -15.70631
 Alpha  occ. eigenvalues --  -15.58103 -11.49547 -11.37891 -11.31662  -1.90919
 Alpha  occ. eigenvalues --   -1.61182  -1.30874  -1.21245  -1.13950  -0.89413
 Alpha  occ. eigenvalues --   -0.82868  -0.74416  -0.65073  -0.60031  -0.54478
 Alpha  occ. eigenvalues --   -0.52133  -0.49755  -0.47526  -0.43772  -0.38989
 Alpha  occ. eigenvalues --   -0.38254  -0.36223  -0.33104  -0.27364  -0.24998
 Alpha  occ. eigenvalues --   -0.23411  -0.22879  -0.18544  -0.17054  -0.10930
 Alpha virt. eigenvalues --    0.14340   0.15455   0.16493   0.18192   0.19781
 Alpha virt. eigenvalues --    0.20065   0.21148   0.21656   0.21946   0.22887
 Alpha virt. eigenvalues --    0.23515   0.24492   0.24634   0.25858   0.26701

 Mulliken charges:
               1
     1  C    1.590564
     2  C   -1.924888
     3  F    0.607061
     4  H    1.446542
     5  H    1.447657
     6  C    1.843107
     7  N   -2.517001
     8  N    4.358626
     9  O   -2.711641
    10  O   -3.163610
    11  N   -2.065206
    12  H    0.475976
    13  H    0.587792
    14  H   -0.974980
 Sum of Mulliken charges =  -1.00000

 Dipole moment (field-independent basis, Debye):
    X=              8.1116    Y=              8.4537    Z=              1.1298  Tot=             11.7703

 Test job not archived.
 1\1\GINC-SE060\SP\RHF\Aug-CC-pVDZ\C3H5F1N3O2(1-)\OHZDE\09-Apr-2025\0\\
 #t hf aug-cc-pvdz iop(5/13=1,5/36=2,99/5=2) pseudo=read geom=check gue
 ss=(read,tcheck) scf=(maxcycle=1)\\title\\-1,1\C,0,-0.534094,-0.484784
 ,-1.451855\C,0,0.049351,-0.190312,-0.078603\F,0,0.064918,0.233817,-2.4
 26961\H,0,1.135537,-0.353009,-0.147182\H,0,-0.375144,-0.927382,0.61196
 9\C,0,-0.489946,-1.913435,-1.813802\N,0,-0.416861,-3.055298,-2.078893\
 N,0,-2.014321,-0.095471,-1.444976\O,0,-2.387454,0.771181,-2.216771\O,0
 ,-2.702216,-0.708864,-0.635499\N,0,-0.194629,1.188702,0.251338\H,0,-0.

 Normal termination of Gaussian 16 at Wed Apr  9 03:01:11 2025.
