 Gaussian 16, Revision C.01,

 ----------------------------------------------------------------------
 #t hf aug-cc-pvdz symm=none int=(grid=ultrafine) guess=(read,tcheck) s
 table=(opt,rrhf)
 ----------------------------------------------------------------------
 -----
 title
 -----
 Symbolic Z-matrix:
 Charge = -1 Multiplicity = 1

 SCF Done:  E(RHF) =  -611.831004498     A.U. after   17 cycles
 Normal termination of Gaussian 16 at Wed Apr  9 02:43:26 2025.
 Gaussian 16:  ES64L-G16RevC.01  3-Jul-2019

 ----------------------------------------------------------------------
 #t hf aug-cc-pvdz iop(5/13=1,5/36=2,99/5=2) pseudo=read geom=check gue
 ss=(read,tcheck) scf=(maxcycle=1)
 ----------------------------------------------------------------------
 -----
 title
 -----
 Structure from the checkpoint file:  "E2SN2_224_mol2.chk"
 Charge = -1 Multiplicity = 1

                         Standard orientation:
 ---------------------------------------------------------------------
 Center     Atomic      Atomic             Coordinates (Angstroms)
 Number     Number       Type             X           Y           Z
 ---------------------------------------------------------------------
      1          6           0        0.082513   -0.123513   -0.352078
      2          6           0        0.895304   -1.236703    0.264239
      3          9           0        0.083999   -0.313085   -1.749863
      4          1           0        0.626657   -2.155179   -0.266366
      5          1           0        0.585336   -1.297586    1.301560
      6          7           0       -1.390984   -0.232917   -0.016860
      7          8           0       -2.090343    0.728654   -0.307612
      8          8           0       -1.802173   -1.319321    0.377683
      9          6           0        0.560336    1.233249   -0.085803
     10          7           0        1.097733    2.257438   -0.323103
     11          6           0        2.387410   -0.948515    0.158552
     12          1           0        2.638207   -0.098029    0.793673
     13          1           0        2.681203   -0.713546   -0.867878
     14          1           0        2.966496   -1.814800    0.491878
     15          9           0       -0.068265    0.655944    1.800623
 ---------------------------------------------------------------------

 SCF Done:  E(RHF) =  -614.355640980     A.U. after    2 cycles

 The electronic state is 1-A.
 Alpha  occ. eigenvalues --  -29.15786 -28.91985 -20.96259 -20.96065 -15.86074
 Alpha  occ. eigenvalues --  -15.60383 -11.45923 -11.31692 -11.29822 -11.25433
 Alpha  occ. eigenvalues --   -1.85948  -1.56011  -1.24420  -1.11934  -1.01136
 Alpha  occ. eigenvalues --   -0.81462  -0.78785  -0.72070  -0.59550  -0.54260
 Alpha  occ. eigenvalues --   -0.51310  -0.48015  -0.46598  -0.41335  -0.40597
 Alpha  occ. eigenvalues --   -0.39208  -0.37865  -0.35575  -0.30397  -0.26892
 Alpha  occ. eigenvalues --   -0.24265  -0.22994  -0.18997  -0.17579  -0.15075
 Alpha  occ. eigenvalues --   -0.14219  -0.00436   0.00483   0.00934
 Alpha virt. eigenvalues --    0.12448   0.14334   0.14770   0.16472   0.17484
 Alpha virt. eigenvalues --    0.19990   0.22055   0.22220   0.23698   0.24553
 Alpha virt. eigenvalues --    0.25013   0.25089   0.25900   0.26377   0.27224

 Mulliken charges:
               1
     1  C    0.109495
     2  C   -2.486268
     3  F    0.022783
     4  H    1.396339
     5  H    0.950047
     6  N    5.665145
     7  O   -3.299574
     8  O   -3.233362
     9  C    4.563261
    10  N   -3.368416
    11  C   -3.855698
    12  H    1.327909
    13  H    1.181109
    14  H    1.053888
    15  F   -1.026656
 Sum of Mulliken charges =  -1.00000

 Dipole moment (field-independent basis, Debye):
    X=              0.0607    Y=             -5.1744    Z=             -2.5808  Tot=              5.7827

 Test job not archived.
 1\1\GINC-SE335\SP\RHF\Aug-CC-pVDZ\C4H5F2N2O2(1-)\OHZDE\09-Apr-2025\0\\
 #t hf aug-cc-pvdz iop(5/13=1,5/36=2,99/5=2) pseudo=read geom=check gue
 ss=(read,tcheck) scf=(maxcycle=1)\\title\\-1,1\C,0,-0.040838,0.00512,-
 0.013941\C,0,-0.351482,0.099041,-1.488507\F,0,1.361503,-0.051737,0.127
 302\H,0,0.373027,0.796167,-1.920264\H,0,-1.353802,0.506541,-1.560065\N
 ,0,-0.384909,1.279813,0.729234\O,0,-0.35114,1.225699,1.951605\O,0,-0.5
 2341,2.30195,0.065105\C,0,-0.606042,-1.151406,0.681049\N,0,-0.601721,-
 2.217549,1.188386\C,0,-0.272058,-1.269381,-2.153124\H,0,-1.082518,-1.8

 Normal termination of Gaussian 16 at Wed Apr  9 02:43:33 2025.
