 Gaussian 16, Revision C.01,

 ----------------------------------------------------------------------
 #t hf aug-cc-pvdz symm=none int=(grid=ultrafine) guess=(read,tcheck) s
 table=(opt,rrhf)
 ----------------------------------------------------------------------
 -----
 title
 -----
 Symbolic Z-matrix:
 Charge = -1 Multiplicity = 1

 SCF Done:  E(RHF) =  -575.115566325     A.U. after   16 cycles
 Normal termination of Gaussian 16 at Wed Apr  9 02:58:24 2025.
 Gaussian 16:  ES64L-G16RevC.01  3-Jul-2019

 ----------------------------------------------------------------------
 #t hf aug-cc-pvdz iop(5/13=1,5/36=2,99/5=2) pseudo=read geom=check gue
 ss=(read,tcheck) scf=(maxcycle=1)
 ----------------------------------------------------------------------
 -----
 title
 -----
 Structure from the checkpoint file:  "E2SN2_400_mol1.chk"
 Charge = -1 Multiplicity = 1

                         Standard orientation:
 ---------------------------------------------------------------------
 Center     Atomic      Atomic             Coordinates (Angstroms)
 Number     Number       Type             X           Y           Z
 ---------------------------------------------------------------------
      1          6           0       -0.904003    0.095114    0.003061
      2          1           0        0.176195   -1.665632   -0.595201
      3          9           0        0.184639    1.521476    0.442933
      4          9           0       -1.908653   -1.286467   -0.560325
      5          6           0        0.274647   -0.587253   -0.681483
      6          1           0        0.277811   -0.266085   -1.718447
      7          7           0       -1.695784    0.992526   -0.798321
      8          1           0       -1.614590    1.903726   -0.371584
      9          1           0       -2.642628    0.642826   -0.782174
     10          6           0       -1.209429   -0.150478    1.466446
     11          1           0       -2.133778   -0.720080    1.552780
     12          1           0       -0.392465   -0.705565    1.928431
     13          1           0       -1.290426    0.809330    1.973328
     14          7           0        1.627027   -0.274868   -0.137956
     15          8           0        2.429544    0.305065   -0.865803
     16          8           0        1.901708   -0.715253    0.977701
 ---------------------------------------------------------------------

 SCF Done:  E(RHF) =  -577.511071755     A.U. after    2 cycles

 The electronic state is 1-A.
 Alpha  occ. eigenvalues --  -28.96476 -28.94403 -20.94016 -20.93505 -15.83529
 Alpha  occ. eigenvalues --  -15.58508 -11.43226 -11.29785 -11.22666  -1.83276
 Alpha  occ. eigenvalues --   -1.53172  -1.24613  -1.06202  -0.94989  -0.78245
 Alpha  occ. eigenvalues --   -0.67122  -0.62235  -0.54113  -0.53861  -0.51192
 Alpha  occ. eigenvalues --   -0.44993  -0.44249  -0.43762  -0.38453  -0.35257
 Alpha  occ. eigenvalues --   -0.33838  -0.31217  -0.22679  -0.20026  -0.16770
 Alpha  occ. eigenvalues --   -0.15708  -0.12161  -0.03601  -0.03216  -0.01416
 Alpha  occ. eigenvalues --   -0.01100   0.03141
 Alpha virt. eigenvalues --    0.14589   0.14970   0.15664   0.16136   0.16345
 Alpha virt. eigenvalues --    0.16837   0.17655   0.22925   0.23724   0.25037
 Alpha virt. eigenvalues --    0.26327   0.26789   0.27518   0.28154   0.28853

 Mulliken charges:
               1
     1  C    6.455267
     2  H    1.515962
     3  F   -0.769609
     4  F   -0.599412
     5  C   -3.672066
     6  H    1.557683
     7  N   -4.026423
     8  H    0.431738
     9  H    0.478106
    10  C   -5.034683
    11  H    1.067468
    12  H    1.303368
    13  H    1.197920
    14  N    5.000973
    15  O   -2.936561
    16  O   -2.969730
 Sum of Mulliken charges =  -1.00000

 Dipole moment (field-independent basis, Debye):
    X=             -0.2941    Y=              0.2596    Z=              0.3605  Tot=              0.5327

 Test job not archived.
 1\1\GINC-SE112\SP\RHF\Aug-CC-pVDZ\C3H7F2N2O2(1-)\OHZDE\09-Apr-2025\0\\
 #t hf aug-cc-pvdz iop(5/13=1,5/36=2,99/5=2) pseudo=read geom=check gue
 ss=(read,tcheck) scf=(maxcycle=1)\\title\\-1,1\C,0,0.68405497,-0.08707
 977,0.06753812\H,0,1.81131036,1.62621669,0.71474855\F,0,-1.1448853,0.1
 265046,0.21753498\F,0,2.46394708,-0.18394191,-0.17348752\C,0,0.8675087
 ,1.41856463,0.21860625\H,0,0.83342575,1.8509449,-0.77655165\N,0,0.4800
 1092,-0.59056595,-1.26638317\H,0,-0.43247702,-1.0222047,-1.27233819\H,
 0,1.22032425,-1.25273623,-1.44674633\C,0,0.69744981,-1.0029078,1.27425

 Normal termination of Gaussian 16 at Wed Apr  9 02:58:31 2025.
