 Gaussian 16, Revision C.01,

 ----------------------------------------------------------------------
 #t hf aug-cc-pvdz symm=none int=(grid=ultrafine) guess=(read,tcheck) s
 table=(opt,rrhf)
 ----------------------------------------------------------------------
 -----
 title
 -----
 Symbolic Z-matrix:
 Charge = -1 Multiplicity = 1

 SCF Done:  E(RHF) =  -1055.72899727     A.U. after   18 cycles
 Normal termination of Gaussian 16 at Wed Apr  9 02:52:17 2025.
 Gaussian 16:  ES64L-G16RevC.01  3-Jul-2019

 ----------------------------------------------------------------------
 #t hf aug-cc-pvdz iop(5/13=1,5/36=2,99/5=2) pseudo=read geom=check gue
 ss=(read,tcheck) scf=(maxcycle=1)
 ----------------------------------------------------------------------
 -----
 title
 -----
 Structure from the checkpoint file:  "E2SN2_29_mol2.chk"
 Charge = -1 Multiplicity = 1

                         Standard orientation:
 ---------------------------------------------------------------------
 Center     Atomic      Atomic             Coordinates (Angstroms)
 Number     Number       Type             X           Y           Z
 ---------------------------------------------------------------------
      1          6           0        0.072934    0.018268    0.121712
      2          6           0       -1.330602    0.112974   -0.481321
      3         17           0        0.073698   -0.159716    1.853487
      4          1           0       -1.176994    0.306346   -1.548939
      5          7           0        0.787673   -1.154307   -0.550493
      6          8           0        1.040786   -2.156571    0.091027
      7          8           0        1.028378   -0.952152   -1.735549
      8          7           0        0.973514    1.204483   -0.218545
      9          8           0        2.154038    1.092581    0.091974
     10          8           0        0.462112    2.166505   -0.779475
     11          7           0       -2.137063    1.121824    0.177464
     12          1           0       -1.828392    2.038149   -0.134898
     13          1           0       -3.056935    0.960983   -0.269177
     14          7           0       -1.917378   -1.201534   -0.377322
     15          1           0       -2.234496   -1.298803    0.585008
     16          1           0       -2.788929   -1.088954   -0.936190
     17          1           0       -4.050848    0.013841   -1.608982
 ---------------------------------------------------------------------

 SCF Done:  E(RHF) =  -1058.59278836     A.U. after    2 cycles

 The electronic state is 1-A.
 Alpha  occ. eigenvalues --  -99.82809 -21.03177 -21.02624 -21.02190 -21.01273
 Alpha  occ. eigenvalues --  -15.92729 -15.91863 -15.60036 -15.59673 -11.49788
 Alpha  occ. eigenvalues --  -11.34370 -10.40361  -9.60546  -9.59461  -9.59394
 Alpha  occ. eigenvalues --   -1.93520  -1.90217  -1.62641  -1.61709  -1.35641
 Alpha  occ. eigenvalues --   -1.26469  -1.12301  -1.10867  -0.92323  -0.84651
 Alpha  occ. eigenvalues --   -0.71666  -0.67085  -0.65828  -0.60511  -0.59565
 Alpha  occ. eigenvalues --   -0.53604  -0.53033  -0.52191  -0.51478  -0.46395
 Alpha  occ. eigenvalues --   -0.45392  -0.44942  -0.42087  -0.39461  -0.29991
 Alpha  occ. eigenvalues --   -0.27271  -0.26600  -0.26125  -0.24189  -0.23407
 Alpha  occ. eigenvalues --   -0.22766  -0.21974  -0.11686
 Alpha virt. eigenvalues --    0.13748   0.15099   0.15833   0.17300   0.17864
 Alpha virt. eigenvalues --    0.19287   0.19597   0.19817   0.21405   0.21730
 Alpha virt. eigenvalues --    0.23310   0.23544   0.24052   0.25158   0.25417

 Mulliken charges:
               1
     1  C    2.103706
     2  C    2.295255
     3  Cl   0.184977
     4  H    1.894432
     5  N    4.904783
     6  O   -3.099608
     7  O   -3.176587
     8  N    4.320852
     9  O   -3.083111
    10  O   -2.847817
    11  N   -2.903763
    12  H    0.544038
    13  H    0.691816
    14  N   -2.920279
    15  H    0.503523
    16  H    0.621034
    17  H   -1.033254
 Sum of Mulliken charges =  -1.00000

 Dipole moment (field-independent basis, Debye):
    X=             12.0669    Y=              0.7802    Z=              4.7390  Tot=             12.9875

 Test job not archived.
 1\1\GINC-SE023\SP\RHF\Aug-CC-pVDZ\C2H6Cl1N4O4(1-)\OHZDE\09-Apr-2025\0\
 \#t hf aug-cc-pvdz iop(5/13=1,5/36=2,99/5=2) pseudo=read geom=check gu
 ess=(read,tcheck) scf=(maxcycle=1)\\title\\-1,1\C,0,-0.669428,-0.06160
 4,-1.47034\C,0,0.181961,-0.031355,-0.198824\Cl,0,-2.370728,-0.264296,-
 1.161769\H,0,1.220921,0.012877,-0.544371\N,0,-0.401666,1.233297,-2.237
 919\O,0,-1.276538,2.07365,-2.330404\O,0,0.736315,1.295003,-2.689975\N,
 0,-0.251948,-1.140096,-2.468584\O,0,-0.786,-1.091312,-3.57085\O,0,0.58
 3342,-1.960231,-2.106189\N,0,-0.091278,-1.16408,0.663979\H,0,0.348279,

 Normal termination of Gaussian 16 at Wed Apr  9 02:52:27 2025.
