 Gaussian 16, Revision C.01,

 ----------------------------------------------------------------------
 #t hf aug-cc-pvdz symm=none int=(grid=ultrafine) guess=(read,tcheck) s
 table=(opt,rrhf)
 ----------------------------------------------------------------------
 -----
 title
 -----
 Symbolic Z-matrix:
 Charge = -1 Multiplicity = 1

 SCF Done:  E(RHF) =  -821.107410432     A.U. after   15 cycles
 Normal termination of Gaussian 16 at Wed Apr  9 02:45:35 2025.
 Gaussian 16:  ES64L-G16RevC.01  3-Jul-2019

 ----------------------------------------------------------------------
 #t hf aug-cc-pvdz iop(5/13=1,5/36=2,99/5=2) pseudo=read geom=check gue
 ss=(read,tcheck) scf=(maxcycle=1)
 ----------------------------------------------------------------------
 -----
 title
 -----
 Structure from the checkpoint file:  "E2SN2_248_mol2.chk"
 Charge = -1 Multiplicity = 1

                         Standard orientation:
 ---------------------------------------------------------------------
 Center     Atomic      Atomic             Coordinates (Angstroms)
 Number     Number       Type             X           Y           Z
 ---------------------------------------------------------------------
      1          6           0       -0.328941   -0.138488   -0.248306
      2          6           0        0.583333    0.684005    0.650888
      3         17           0        0.097063   -1.905917   -0.290913
      4          1           0        0.173680    1.709017    0.331762
      5          1           0       -0.258005    0.255714   -1.257239
      6          1           0        0.413053    0.455153    1.705691
      7          6           0       -1.714387   -0.020635    0.198330
      8          7           0       -2.816361   -0.059232    0.601427
      9          6           0        1.987175    0.528168    0.325234
     10          7           0        3.132060    0.435888    0.074840
     11          9           0       -0.816864    2.336202   -0.680605
 ---------------------------------------------------------------------

 SCF Done:  E(RHF) =  -822.886516917     A.U. after    2 cycles

 The electronic state is 1-A.
 Alpha  occ. eigenvalues --  -99.77859 -28.91418 -15.63954 -15.63911 -11.39095
 Alpha  occ. eigenvalues --  -11.33555 -11.32119 -11.28708 -10.35177  -9.55095
 Alpha  occ. eigenvalues --   -9.54406  -9.54266  -1.27468  -1.17726  -1.15753
 Alpha  occ. eigenvalues --   -1.04716  -0.86984  -0.63061  -0.59904  -0.56122
 Alpha  occ. eigenvalues --   -0.48928  -0.46411  -0.41623  -0.40191  -0.38887
 Alpha  occ. eigenvalues --   -0.36664  -0.33378  -0.32322  -0.31200  -0.29452
 Alpha  occ. eigenvalues --   -0.25330  -0.00958  -0.00350   0.01694
 Alpha virt. eigenvalues --    0.14264   0.16206   0.17340   0.18665   0.19208
 Alpha virt. eigenvalues --    0.20272   0.21091   0.22392   0.23533   0.24060
 Alpha virt. eigenvalues --    0.24660   0.25179   0.25898   0.26780   0.27907

 Mulliken charges:
               1
     1  C   -2.051025
     2  C   -2.404013
     3  Cl  -0.153764
     4  H    1.007666
     5  H    1.586586
     6  H    1.472110
     7  C    3.261583
     8  N   -2.851760
     9  C    2.234203
    10  N   -2.556192
    11  F   -0.545396
 Sum of Mulliken charges =  -1.00000

 Dipole moment (field-independent basis, Debye):
    X=             -0.0006    Y=             -1.7276    Z=              0.3590  Tot=              1.7645

 Test job not archived.
 1\1\GINC-SE112\SP\RHF\Aug-CC-pVDZ\C4H3Cl1F1N2(1-)\OHZDE\09-Apr-2025\0\
 \#t hf aug-cc-pvdz iop(5/13=1,5/36=2,99/5=2) pseudo=read geom=check gu
 ess=(read,tcheck) scf=(maxcycle=1)\\title\\-1,1\C,0,-0.034895,0.006976
 ,0.010933\C,0,-0.567744,-0.22062,-1.396746\Cl,0,1.774975,-0.12379,0.13
 0813\H,0,-1.678428,-0.239097,-1.102901\H,0,-0.476582,-0.736936,0.66658
 6\H,0,-0.305431,0.607473,-2.059642\C,0,-0.422398,1.332106,0.48707\N,0,
 -0.598397,2.433034,0.854909\C,0,-0.130374,-1.47822,-1.969685\N,0,0.193
 572,-2.498551,-2.45544\F,0,-2.581112,-0.205012,0.155441\\Version=ES64L

 Normal termination of Gaussian 16 at Wed Apr  9 02:45:40 2025.
