 Gaussian 16, Revision C.01,

 ----------------------------------------------------------------------
 #t hf aug-cc-pvdz symm=none int=(grid=ultrafine) guess=(read,tcheck) s
 table=(opt,rrhf)
 ----------------------------------------------------------------------
 -----
 title
 -----
 Symbolic Z-matrix:
 Charge = -1 Multiplicity = 1

 SCF Done:  E(RHF) =  -777.179460631     A.U. after   16 cycles
 Normal termination of Gaussian 16 at Wed Apr  9 02:34:49 2025.
 Gaussian 16:  ES64L-G16RevC.01  3-Jul-2019

 ----------------------------------------------------------------------
 #t hf aug-cc-pvdz iop(5/13=1,5/36=2,99/5=2) pseudo=read geom=check gue
 ss=(read,tcheck) scf=(maxcycle=1)
 ----------------------------------------------------------------------
 -----
 title
 -----
 Structure from the checkpoint file:  "E2SN2_122_mol1.chk"
 Charge = -1 Multiplicity = 1

                         Standard orientation:
 ---------------------------------------------------------------------
 Center     Atomic      Atomic             Coordinates (Angstroms)
 Number     Number       Type             X           Y           Z
 ---------------------------------------------------------------------
      1          6           0       -0.521920    0.126527    0.312812
      2          6           0        0.751907   -0.151958    1.069461
      3         17           0       -1.043845   -1.336198   -0.702773
      4          1           0        0.316773    1.735414    2.695218
      5          1           0        0.757730    0.814918    1.854541
      6          1           0        0.598593   -1.008638    1.732595
      7          7           0       -1.617588    0.469409    1.186874
      8          1           0       -1.196521    1.152035    1.850243
      9          1           0       -1.819934   -0.358590    1.741326
     10          6           0        1.940066   -0.312117    0.275476
     11          7           0        2.939313   -0.415855   -0.340452
     12          6           0       -0.326473    1.218632   -0.653053
     13          7           0       -0.174975    2.102692   -1.411416
 ---------------------------------------------------------------------

 SCF Done:  E(RHF) =  -778.913584858     A.U. after    2 cycles

 The electronic state is 1-A.
 Alpha  occ. eigenvalues --  -99.77593 -15.65629 -15.63318 -15.62850 -11.42951
 Alpha  occ. eigenvalues --  -11.34095 -11.32656 -11.28419 -10.34907  -9.54904
 Alpha  occ. eigenvalues --   -9.54146  -9.54096  -1.33943  -1.17354  -1.17084
 Alpha  occ. eigenvalues --   -1.15654  -1.00690  -0.85075  -0.63970  -0.60918
 Alpha  occ. eigenvalues --   -0.54042  -0.50459  -0.48402  -0.45392  -0.41439
 Alpha  occ. eigenvalues --   -0.39765  -0.38437  -0.37544  -0.32337  -0.32159
 Alpha  occ. eigenvalues --   -0.31519  -0.30415  -0.26132  -0.12847
 Alpha virt. eigenvalues --    0.13390   0.15128   0.16063   0.17796   0.18422
 Alpha virt. eigenvalues --    0.19651   0.19920   0.20357   0.21774   0.22461
 Alpha virt. eigenvalues --    0.23483   0.23912   0.24834   0.25792   0.26113

 Mulliken charges:
               1
     1  C    2.361046
     2  C   -2.601537
     3  Cl  -0.189021
     4  H   -0.611133
     5  H    1.346285
     6  H    1.329870
     7  N   -3.330634
     8  H    0.696844
     9  H    0.575918
    10  C    2.420598
    11  N   -2.641662
    12  C    2.287105
    13  N   -2.643680
 Sum of Mulliken charges =  -1.00000

 Dipole moment (field-independent basis, Debye):
    X=             -3.1718    Y=             -5.3637    Z=             -2.7364  Tot=              6.8057

 Test job not archived.
 1\1\GINC-SE108\SP\RHF\Aug-CC-pVDZ\C4H5Cl1N3(1-)\OHZDE\09-Apr-2025\0\\#
 t hf aug-cc-pvdz iop(5/13=1,5/36=2,99/5=2) pseudo=read geom=check gues
 s=(read,tcheck) scf=(maxcycle=1)\\title\\-1,1\C,0,-0.19199313,0.019877
 89,-0.34986555\C,0,-0.12551026,0.03532201,1.15613774\Cl,0,1.49116669,-
 0.18681442,-1.10328057\H,0,-2.58382814,-0.51739673,1.37008842\H,0,-1.3
 3360895,-0.09114026,1.43134227\H,0,0.30863906,-0.90515111,1.50852569\N
 ,0,-1.03284729,-1.03935263,-0.85289236\H,0,-1.88143078,-0.9835274,-0.2
 5278969\H,0,-0.58095646,-1.91539874,-0.60332898\C,0,0.52986336,1.16849

 Normal termination of Gaussian 16 at Wed Apr  9 02:34:54 2025.
