 Gaussian 16, Revision C.01,

 ----------------------------------------------------------------------
 #t hf aug-cc-pvdz symm=none int=(grid=ultrafine) guess=(read,tcheck) s
 table=(opt,rrhf)
 ----------------------------------------------------------------------
 -----
 title
 -----
 Symbolic Z-matrix:
 Charge = -1 Multiplicity = 1

 SCF Done:  E(RHF) =  -763.521141310     A.U. after   16 cycles
 Normal termination of Gaussian 16 at Wed Apr  9 02:33:08 2025.
 Gaussian 16:  ES64L-G16RevC.01  3-Jul-2019

 ----------------------------------------------------------------------
 #t hf aug-cc-pvdz iop(5/13=1,5/36=2,99/5=2) pseudo=read geom=check gue
 ss=(read,tcheck) scf=(maxcycle=1)
 ----------------------------------------------------------------------
 -----
 title
 -----
 Structure from the checkpoint file:  "E2SN2_105_mol2.chk"
 Charge = -1 Multiplicity = 1

                         Standard orientation:
 ---------------------------------------------------------------------
 Center     Atomic      Atomic             Coordinates (Angstroms)
 Number     Number       Type             X           Y           Z
 ---------------------------------------------------------------------
      1          6           0       -0.300881   -0.143147    0.335239
      2          6           0        1.027462    0.607583    0.096622
      3         17           0       -0.663010   -1.296800   -1.025546
      4          1           0        1.043571    1.355255    0.913867
      5          6           0       -0.238210   -0.931208    1.632972
      6          1           0        0.126030   -0.270793    2.427101
      7          1           0       -1.211428   -1.361465    1.880005
      8          1           0        0.506740   -1.714929    1.503361
      9          6           0       -1.414833    0.809010    0.354658
     10          7           0       -2.293507    1.589439    0.382105
     11          6           0        1.072599    1.318083   -1.246150
     12          1           0        1.164792    0.594146   -2.059876
     13          1           0        1.945082    1.977407   -1.266934
     14          1           0        0.181504    1.927680   -1.421896
     15          7           0        2.125413   -0.312140    0.301519
     16          1           0        2.878381   -0.067132   -0.333358
     17          1           0        2.460826   -0.073557    1.273579
     18          1           0        2.475521    0.775967    2.693015
 ---------------------------------------------------------------------

 SCF Done:  E(RHF) =  -765.271417337     A.U. after    2 cycles

 The electronic state is 1-A.
 Alpha  occ. eigenvalues --  -99.77174 -15.65827 -15.57026 -11.40581 -11.34348
 Alpha  occ. eigenvalues --  -11.31584 -11.27647 -11.25575 -10.34548  -9.54540
 Alpha  occ. eigenvalues --   -9.53884  -9.53812  -1.30819  -1.18618  -1.17295
 Alpha  occ. eigenvalues --   -1.02981  -0.95976  -0.84413  -0.73685  -0.61546
 Alpha  occ. eigenvalues --   -0.53686  -0.52840  -0.49776  -0.46555  -0.45043
 Alpha  occ. eigenvalues --   -0.44338  -0.41115  -0.39969  -0.38571  -0.36721
 Alpha  occ. eigenvalues --   -0.35137  -0.33438  -0.31618  -0.30114  -0.21854
 Alpha  occ. eigenvalues --   -0.10659
 Alpha virt. eigenvalues --    0.13212   0.13874   0.14330   0.14825   0.15738
 Alpha virt. eigenvalues --    0.16120   0.16987   0.18415   0.18964   0.19040
 Alpha virt. eigenvalues --    0.20743   0.21565   0.21728   0.22437   0.24115

 Mulliken charges:
               1
     1  C    0.463401
     2  C    0.933901
     3  Cl  -0.153270
     4  H    2.161434
     5  C   -3.821232
     6  H    1.345921
     7  H    1.141236
     8  H    1.348373
     9  C    2.270811
    10  N   -2.664806
    11  C   -4.445055
    12  H    1.198288
    13  H    1.106446
    14  H    1.157080
    15  N   -3.100728
    16  H    0.564169
    17  H    0.545514
    18  H   -1.051482
 Sum of Mulliken charges =  -1.00000

 Dipole moment (field-independent basis, Debye):
    X=             -5.3098    Y=             -2.7159    Z=             -8.2594  Tot=             10.1876

 Test job not archived.
 1\1\GINC-SE365\SP\RHF\Aug-CC-pVDZ\C5H10Cl1N2(1-)\OHZDE\09-Apr-2025\0\\
 #t hf aug-cc-pvdz iop(5/13=1,5/36=2,99/5=2) pseudo=read geom=check gue
 ss=(read,tcheck) scf=(maxcycle=1)\\title\\-1,1\C,0,-0.393996,-0.113397
 ,-1.496793\C,0,0.010812,-0.180765,-0.007961\Cl,0,-2.193921,0.082936,-1
 .685235\H,0,1.087899,-0.435928,-0.051964\C,0,0.293803,1.056567,-2.1803
 1\H,0,1.362154,1.023501,-1.941577\H,0,0.120122,1.040358,-3.258675\H,0,
 -0.10294,1.970586,-1.740842\C,0,-0.061376,-1.376615,-2.161259\N,0,0.22
 6457,-2.391343,-2.680267\C,0,-0.737768,-1.257248,0.760608\H,0,-1.78210

 Normal termination of Gaussian 16 at Wed Apr  9 02:33:15 2025.
