 Gaussian 16, Revision C.01,

 ----------------------------------------------------------------------
 #t hf aug-cc-pvdz symm=none int=(grid=ultrafine) guess=(read,tcheck) s
 table=(opt,rrhf)
 ----------------------------------------------------------------------
 -----
 title
 -----
 Symbolic Z-matrix:
 Charge = -1 Multiplicity = 1

 SCF Done:  E(RHF) =  -419.422137669     A.U. after   17 cycles
 Normal termination of Gaussian 16 at Wed Apr  9 02:49:09 2025.
 Gaussian 16:  ES64L-G16RevC.01  3-Jul-2019

 ----------------------------------------------------------------------
 #t hf aug-cc-pvdz iop(5/13=1,5/36=2,99/5=2) pseudo=read geom=check gue
 ss=(read,tcheck) scf=(maxcycle=1)
 ----------------------------------------------------------------------
 -----
 title
 -----
 Structure from the checkpoint file:  "E2SN2_287_mol1.chk"
 Charge = -1 Multiplicity = 1

                         Standard orientation:
 ---------------------------------------------------------------------
 Center     Atomic      Atomic             Coordinates (Angstroms)
 Number     Number       Type             X           Y           Z
 ---------------------------------------------------------------------
      1          6           0       -0.361681   -0.190305    0.202068
      2          1           0        0.625226   -0.102250   -1.686222
      3          9           0       -0.580323    1.387772    0.719189
      4          1           0       -0.433392   -1.901860   -0.608096
      5          6           0        0.944403   -0.045112   -0.636749
      6          6           0       -1.598744   -0.293448   -0.530539
      7          7           0       -2.650601   -0.156926   -1.053560
      8          6           0       -0.284645   -0.762962    1.607374
      9          1           0       -0.119860   -1.834990    1.613990
     10          1           0        0.541938   -0.267626    2.120378
     11          1           0       -1.209718   -0.517589    2.133561
     12          7           0        1.897985   -1.089530   -0.273017
     13          1           0        2.685189   -0.996705   -0.907571
     14          1           0        1.409607   -1.961602   -0.464097
     15          7           0        1.677954    1.208201   -0.468326
     16          1           0        2.070408    1.170324    0.467964
     17          1           0        0.980145    1.941102   -0.431209
 ---------------------------------------------------------------------

 SCF Done:  E(RHF) =  -421.338964026     A.U. after    2 cycles

 The electronic state is 1-A.
 Alpha  occ. eigenvalues --  -29.01141 -15.58805 -15.58683 -15.57879 -11.41799
 Alpha  occ. eigenvalues --  -11.31765 -11.28454 -11.24365  -1.29059  -1.14295
 Alpha  occ. eigenvalues --   -1.09259  -1.03756  -0.84588  -0.73070  -0.59214
 Alpha  occ. eigenvalues --   -0.56436  -0.55386  -0.45577  -0.44266  -0.41561
 Alpha  occ. eigenvalues --   -0.40195  -0.37509  -0.35636  -0.33806  -0.29722
 Alpha  occ. eigenvalues --   -0.27088  -0.23506  -0.21532  -0.17085  -0.06935
 Alpha  occ. eigenvalues --   -0.06180  -0.05246
 Alpha virt. eigenvalues --    0.13823   0.14495   0.14936   0.15619   0.15792
 Alpha virt. eigenvalues --    0.16548   0.17193   0.18479   0.20428   0.21122
 Alpha virt. eigenvalues --    0.23229   0.24706   0.25051   0.25573   0.26080

 Mulliken charges:
               1
     1  C    3.249830
     2  H    1.807922
     3  F   -0.301473
     4  H   -0.878719
     5  C    0.569179
     6  C    1.549152
     7  N   -2.871510
     8  C   -4.376848
     9  H    1.284619
    10  H    1.229914
    11  H    1.261422
    12  N   -2.815787
    13  H    0.465593
    14  H    0.824304
    15  N   -2.903980
    16  H    0.514922
    17  H    0.391459
 Sum of Mulliken charges =  -1.00000

 Dipole moment (field-independent basis, Debye):
    X=              3.9527    Y=              5.0657    Z=              3.4172  Tot=              7.2775

 Test job not archived.
 1\1\GINC-SE367\SP\RHF\Aug-CC-pVDZ\C4H9F1N3(1-)\OHZDE\09-Apr-2025\0\\#t
  hf aug-cc-pvdz iop(5/13=1,5/36=2,99/5=2) pseudo=read geom=check guess
 =(read,tcheck) scf=(maxcycle=1)\\title\\-1,1\C,0,0.48938116,-0.0064139
 2,-0.06431425\H,0,1.37598343,1.70820841,-0.97061566\F,0,-1.00849395,-0
 .22516696,-0.78129632\H,0,2.32057873,0.06467225,0.41796293\C,0,0.64163
 438,1.54148704,-0.17094822\C,0,1.23719321,-0.80131241,-1.00590374\N,0,
 1.63862201,-1.49215901,-1.87778529\C,0,0.07498567,-0.62465351,1.260378
 89\H,0,0.87422106,-0.61785567,1.99360451\H,0,-0.77033342,-0.04925859,1

 Normal termination of Gaussian 16 at Wed Apr  9 02:49:15 2025.
