 Gaussian 16, Revision C.01,

 ----------------------------------------------------------------------
 #t hf aug-cc-pvdz symm=none int=(grid=ultrafine) guess=(read,tcheck) s
 table=(opt,rrhf)
 ----------------------------------------------------------------------
 -----
 title
 -----
 Symbolic Z-matrix:
 Charge = -1 Multiplicity = 1

 SCF Done:  E(RHF) =  -852.874476962     A.U. after   18 cycles
 Normal termination of Gaussian 16 at Wed Apr  9 03:01:54 2025.
 Gaussian 16:  ES64L-G16RevC.01  3-Jul-2019

 ----------------------------------------------------------------------
 #t hf aug-cc-pvdz iop(5/13=1,5/36=2,99/5=2) pseudo=read geom=check gue
 ss=(read,tcheck) scf=(maxcycle=1)
 ----------------------------------------------------------------------
 -----
 title
 -----
 Structure from the checkpoint file:  "E2SN2_68_mol1.chk"
 Charge = -1 Multiplicity = 1

                         Standard orientation:
 ---------------------------------------------------------------------
 Center     Atomic      Atomic             Coordinates (Angstroms)
 Number     Number       Type             X           Y           Z
 ---------------------------------------------------------------------
      1          6           0       -0.332010    0.117205   -0.055367
      2          6           0        0.906773   -0.591216   -0.433293
      3         17           0       -1.099062   -0.447056    1.489290
      4          1           0       -0.341951   -0.519248   -2.285489
      5          1           0        0.523846   -0.545799   -1.798518
      6          6           0       -0.143032    1.556363    0.045204
      7          7           0        0.003952    2.722318    0.102725
      8          6           0       -1.469679   -0.113057   -1.182070
      9          7           0       -2.652593   -0.025207   -1.301527
     10          6           0        0.873831   -2.091184   -0.223395
     11          1           0       -0.043775   -2.488086   -0.673692
     12          1           0        1.728773   -2.555427   -0.722416
     13          1           0        0.885183   -2.373805    0.833279
     14          6           0        2.151775    0.046088   -0.179593
     15          7           0        3.220932    0.522478   -0.015486
 ---------------------------------------------------------------------

 SCF Done:  E(RHF) =  -854.977674077     A.U. after    2 cycles

 The electronic state is 1-A.
 Alpha  occ. eigenvalues --  -99.78063 -15.65633 -15.62428 -15.59162 -11.44356
 Alpha  occ. eigenvalues --  -11.34526 -11.33769 -11.30804 -11.30022 -11.27067
 Alpha  occ. eigenvalues --  -10.35396  -9.55379  -9.54704  -9.54586  -1.30585
 Alpha  occ. eigenvalues --   -1.17424  -1.17157  -1.13084  -1.07490  -0.94722
 Alpha  occ. eigenvalues --   -0.80646  -0.70263  -0.61619  -0.56931  -0.50102
 Alpha  occ. eigenvalues --   -0.45918  -0.45420  -0.44239  -0.42135  -0.40492
 Alpha  occ. eigenvalues --   -0.39196  -0.37560  -0.35767  -0.33975  -0.32000
 Alpha  occ. eigenvalues --   -0.30933  -0.29757  -0.27438  -0.26137  -0.12971
 Alpha virt. eigenvalues --    0.13068   0.14076   0.15223   0.15834   0.16707
 Alpha virt. eigenvalues --    0.18178   0.18417   0.19567   0.20930   0.21067
 Alpha virt. eigenvalues --    0.22153   0.23155   0.23311   0.23919   0.24723

 Mulliken charges:
               1
     1  C   -0.075405
     2  C    1.169360
     3  Cl  -0.076648
     4  H    0.345156
     5  H    0.754523
     6  C    2.165541
     7  N   -2.634583
     8  C    2.478813
     9  N   -2.811831
    10  C   -4.130003
    11  H    1.344453
    12  H    1.180695
    13  H    1.222746
    14  C    0.498225
    15  N   -2.431043
 Sum of Mulliken charges =  -1.00000

 Dipole moment (field-independent basis, Debye):
    X=              0.7820    Y=             -3.1677    Z=              2.3060  Tot=              3.9955

 Test job not archived.
 1\1\GINC-SE187\SP\RHF\Aug-CC-pVDZ\C6H5Cl1N3(1-)\OHZDE\09-Apr-2025\0\\#
 t hf aug-cc-pvdz iop(5/13=1,5/36=2,99/5=2) pseudo=read geom=check gues
 s=(read,tcheck) scf=(maxcycle=1)\\title\\-1,1\C,0,-0.22709804,0.009192
 34,-0.27057174\C,0,-0.01699194,-0.07721059,1.18807895\Cl,0,1.16899212,
 0.68970616,-1.20895297\H,0,-2.03754494,0.83900568,0.91783289\H,0,-1.36
 739088,0.29588129,1.41114742\C,0,-0.57257151,-1.27478313,-0.86138409\N
 ,0,-0.87574003,-2.30816763,-1.33526994\C,0,-1.45984179,1.00463165,-0.5
 9647284\N,0,-1.89782787,1.62907752,-1.51272111\C,0,0.67007045,1.123098

 Normal termination of Gaussian 16 at Wed Apr  9 03:02:03 2025.
