 Gaussian 16, Revision C.01,

 ----------------------------------------------------------------------
 #t hf aug-cc-pvdz symm=none int=(grid=ultrafine) guess=(read,tcheck) s
 table=(opt,rrhf)
 ----------------------------------------------------------------------
 -----
 title
 -----
 Symbolic Z-matrix:
 Charge = -1 Multiplicity = 1

 SCF Done:  E(RHF) =  -832.192790917     A.U. after   17 cycles
 Normal termination of Gaussian 16 at Wed Apr  9 02:58:22 2025.
 Gaussian 16:  ES64L-G16RevC.01  3-Jul-2019

 ----------------------------------------------------------------------
 #t hf aug-cc-pvdz iop(5/13=1,5/36=2,99/5=2) pseudo=read geom=check gue
 ss=(read,tcheck) scf=(maxcycle=1)
 ----------------------------------------------------------------------
 -----
 title
 -----
 Structure from the checkpoint file:  "E2SN2_395_mol1.chk"
 Charge = -1 Multiplicity = 1

                         Standard orientation:
 ---------------------------------------------------------------------
 Center     Atomic      Atomic             Coordinates (Angstroms)
 Number     Number       Type             X           Y           Z
 ---------------------------------------------------------------------
      1          6           0       -0.532088    0.018573    0.506272
      2          1           0        0.886710    1.309349    1.370181
      3         17           0       -0.141249   -1.565472   -0.747062
      4          1           0       -1.185287    1.634230    1.439286
      5          6           0        0.722773    0.902037    0.367928
      6          7           0       -0.581488   -0.706018    1.758552
      7          1           0       -1.068593   -1.579911    1.600655
      8          1           0       -1.099315   -0.130619    2.409601
      9          6           0       -1.757788    0.485741   -0.107520
     10          7           0       -2.759489    0.627800   -0.719179
     11          7           0        0.509386    1.918574   -0.654875
     12          1           0        1.339114    2.499261   -0.711845
     13          1           0       -0.253438    2.491269   -0.296236
     14          6           0        1.954815    0.156346    0.054091
     15          7           0        3.039558   -0.267032   -0.103956
 ---------------------------------------------------------------------

 SCF Done:  E(RHF) =  -834.207074064     A.U. after    2 cycles

 The electronic state is 1-A.
 Alpha  occ. eigenvalues --  -99.71274 -15.63762 -15.63092 -15.62717 -15.60224
 Alpha  occ. eigenvalues --  -11.45775 -11.36535 -11.32075 -11.30138 -10.28409
 Alpha  occ. eigenvalues --   -9.48421  -9.47928  -9.47768  -1.32932  -1.21907
 Alpha  occ. eigenvalues --   -1.15565  -1.13283  -1.09407  -0.94773  -0.84192
 Alpha  occ. eigenvalues --   -0.63141  -0.59789  -0.56580  -0.54238  -0.49438
 Alpha  occ. eigenvalues --   -0.44069  -0.42009  -0.39058  -0.37352  -0.35673
 Alpha  occ. eigenvalues --   -0.34325  -0.31916  -0.30787  -0.29373  -0.27443
 Alpha  occ. eigenvalues --   -0.26112  -0.25476  -0.15862
 Alpha virt. eigenvalues --    0.13441   0.14553   0.15024   0.16113   0.16151
 Alpha virt. eigenvalues --    0.17953   0.19249   0.20337   0.20864   0.22634
 Alpha virt. eigenvalues --    0.23828   0.24060   0.24624   0.25031   0.25938

 Mulliken charges:
               1
     1  C    1.315808
     2  H    1.921848
     3  Cl  -0.379683
     4  H   -0.793356
     5  C   -0.856512
     6  N   -2.948127
     7  H    0.594417
     8  H    0.681493
     9  C    3.929761
    10  N   -3.023628
    11  N   -2.941972
    12  H    0.662570
    13  H    0.629752
    14  C    3.060216
    15  N   -2.852588
 Sum of Mulliken charges =  -1.00000

 Dipole moment (field-independent basis, Debye):
    X=              1.8566    Y=              0.4612    Z=              1.5364  Tot=              2.4536

 Test job not archived.
 1\1\GINC-SE083\SP\RHF\Aug-CC-pVDZ\C4H6Cl1N4(1-)\OHZDE\09-Apr-2025\0\\#
 t hf aug-cc-pvdz iop(5/13=1,5/36=2,99/5=2) pseudo=read geom=check gues
 s=(read,tcheck) scf=(maxcycle=1)\\title\\-1,1\C,0,0.33651512,-0.086143
 55,-0.05808419\H,0,1.54166391,1.55250916,-0.59461206\Cl,0,-1.6784396,-
 0.29250335,-0.41888206\H,0,2.17739026,-0.00665107,0.65773245\C,0,0.558
 2707,1.43705493,-0.12888933\N,0,0.83563754,-0.78761105,-1.22191292\H,0
 ,0.25564438,-1.60403103,-1.37343242\H,0,1.78422775,-1.06788153,-1.0104
 4267\C,0,0.3910517,-0.71659496,1.24456106\N,0,0.20165937,-1.33016429,2

 Normal termination of Gaussian 16 at Wed Apr  9 02:58:33 2025.
