 Gaussian 16, Revision C.01,

 ----------------------------------------------------------------------
 #t hf aug-cc-pvdz symm=none int=(grid=ultrafine) guess=(read,tcheck) s
 table=(opt,rrhf)
 ----------------------------------------------------------------------
 -----
 title
 -----
 Symbolic Z-matrix:
 Charge = -1 Multiplicity = 1

 SCF Done:  E(RHF) =  -456.176130353     A.U. after   16 cycles
 Normal termination of Gaussian 16 at Wed Apr  9 02:36:04 2025.
 Gaussian 16:  ES64L-G16RevC.01  3-Jul-2019

 ----------------------------------------------------------------------
 #t hf aug-cc-pvdz iop(5/13=1,5/36=2,99/5=2) pseudo=read geom=check gue
 ss=(read,tcheck) scf=(maxcycle=1)
 ----------------------------------------------------------------------
 -----
 title
 -----
 Structure from the checkpoint file:  "E2SN2_136_mol2.chk"
 Charge = -1 Multiplicity = 1

                         Standard orientation:
 ---------------------------------------------------------------------
 Center     Atomic      Atomic             Coordinates (Angstroms)
 Number     Number       Type             X           Y           Z
 ---------------------------------------------------------------------
      1          6           0       -0.459626   -0.465885   -0.104754
      2          6           0        0.583168    0.466989    0.519992
      3          9           0       -0.252598   -0.504108   -1.508339
      4          1           0        0.465022    0.310139    1.602928
      5          7           0       -0.325121   -1.733593    0.469532
      6          1           0       -0.247226   -1.588031    1.550951
      7          1           0       -1.138555   -2.307532    0.272228
      8          6           0       -1.821076    0.137543    0.015563
      9          7           0       -2.911721    0.564298    0.117662
     10          6           0        0.414041    1.933795    0.122903
     11          1           0       -0.526343    2.324403    0.516340
     12          1           0        1.231709    2.529757    0.533802
     13          1           0        0.415588    2.042670   -0.963973
     14          6           0        1.913996   -0.003473    0.141516
     15          7           0        3.015576   -0.276979   -0.161067
     16          1           0       -0.160969   -1.064343    2.908570
 ---------------------------------------------------------------------

 SCF Done:  E(RHF) =  -458.194086557     A.U. after    2 cycles

 The electronic state is 1-A.
 Alpha  occ. eigenvalues --  -29.14753 -15.66353 -15.64045 -15.59628 -11.45516
 Alpha  occ. eigenvalues --  -11.35754 -11.34002 -11.31614 -11.28824  -1.33488
 Alpha  occ. eigenvalues --   -1.18682  -1.17447  -1.08048  -0.94324  -0.85219
 Alpha  occ. eigenvalues --   -0.69687  -0.61811  -0.55348  -0.54294  -0.48749
 Alpha  occ. eigenvalues --   -0.46716  -0.43273  -0.42823  -0.40206  -0.37849
 Alpha  occ. eigenvalues --   -0.35428  -0.34048  -0.31046  -0.30298  -0.26205
 Alpha  occ. eigenvalues --   -0.23755  -0.15869  -0.15380  -0.11129
 Alpha virt. eigenvalues --    0.12967   0.14418   0.14992   0.15297   0.17693
 Alpha virt. eigenvalues --    0.18276   0.19455   0.19820   0.20840   0.21744
 Alpha virt. eigenvalues --    0.22844   0.23138   0.23460   0.24736   0.25048

 Mulliken charges:
               1
     1  C    4.789923
     2  C   -2.718651
     3  F    0.076865
     4  H    1.991754
     5  N   -3.458996
     6  H    0.598783
     7  H    0.506104
     8  C    1.250543
     9  N   -2.481534
    10  C   -3.770031
    11  H    1.176019
    12  H    1.139451
    13  H    1.189525
    14  C    2.368748
    15  N   -2.672122
    16  H   -0.986380
 Sum of Mulliken charges =  -1.00000

 Dipole moment (field-independent basis, Debye):
    X=             -0.0655    Y=              3.5231    Z=            -10.0910  Tot=             10.6886

 Test job not archived.
 1\1\GINC-SE340\SP\RHF\Aug-CC-pVDZ\C5H7F1N3(1-)\OHZDE\09-Apr-2025\0\\#t
  hf aug-cc-pvdz iop(5/13=1,5/36=2,99/5=2) pseudo=read geom=check guess
 =(read,tcheck) scf=(maxcycle=1)\\title\\-1,1\C,0,-0.174453,0.053185,-1
 .458214\C,0,0.025622,-0.052507,0.057299\F,0,-1.536986,0.354704,-1.7169
 88\H,0,1.117788,-0.116555,0.177226\N,0,0.675047,1.047904,-1.952038\H,0
 ,1.658975,0.879055,-1.504714\H,0,0.756959,0.984295,-2.96162\C,0,-0.003
 906,-1.289845,-2.090141\N,0,0.152547,-2.323144,-2.628532\C,0,-0.699856
 ,-1.238741,0.693173\H,0,-0.279029,-2.177378,0.327721\H,0,-0.584012,-1.

 Normal termination of Gaussian 16 at Wed Apr  9 02:36:10 2025.
