 Gaussian 16, Revision C.01,

 ----------------------------------------------------------------------
 #t hf aug-cc-pvdz symm=none int=(grid=ultrafine) guess=(read,tcheck) s
 table=(opt,rrhf)
 ----------------------------------------------------------------------
 -----
 title
 -----
 Symbolic Z-matrix:
 Charge = -1 Multiplicity = 1

 SCF Done:  E(RHF) =  -531.186587347     A.U. after   17 cycles
 Normal termination of Gaussian 16 at Wed Apr  9 02:55:35 2025.
 Gaussian 16:  ES64L-G16RevC.01  3-Jul-2019

 ----------------------------------------------------------------------
 #t hf aug-cc-pvdz iop(5/13=1,5/36=2,99/5=2) pseudo=read geom=check gue
 ss=(read,tcheck) scf=(maxcycle=1)
 ----------------------------------------------------------------------
 -----
 title
 -----
 Structure from the checkpoint file:  "E2SN2_360_mol1.chk"
 Charge = -1 Multiplicity = 1

                         Standard orientation:
 ---------------------------------------------------------------------
 Center     Atomic      Atomic             Coordinates (Angstroms)
 Number     Number       Type             X           Y           Z
 ---------------------------------------------------------------------
      1          6           0       -0.981030   -0.357354   -0.152078
      2          1           0        0.325181    0.277603   -1.757832
      3          9           0       -0.995321    0.403813    1.339224
      4          1           0       -1.011265   -1.330801   -1.832010
      5          6           0        0.210958    0.459036   -0.696328
      6          6           0       -2.356724    0.116958   -0.607039
      7          1           0       -2.742880    0.855971    0.104474
      8          1           0       -2.304762    0.556787   -1.600174
      9          1           0       -3.030335   -0.737588   -0.661215
     10          7           0       -0.703464   -1.641134    0.454027
     11          1           0       -1.023557   -2.349780   -0.184601
     12          1           0       -1.187542   -1.662495    1.343731
     13          7           0        1.491912   -0.131355   -0.097856
     14          8           0        2.075609   -0.991467   -0.751874
     15          8           0        1.885005    0.312376    0.980567
     16          7           0        0.085344    1.854136   -0.414536
     17          1           0        0.904720    2.350544   -0.740495
     18          1           0       -0.012361    1.954803    0.586801
 ---------------------------------------------------------------------

 SCF Done:  E(RHF) =  -533.535409282     A.U. after    2 cycles

 The electronic state is 1-A.
 Alpha  occ. eigenvalues --  -29.00665 -20.94356 -20.94069 -15.82971 -15.61331
 Alpha  occ. eigenvalues --  -15.58280 -11.42381 -11.33137 -11.23356  -1.83285
 Alpha  occ. eigenvalues --   -1.53425  -1.27826  -1.19232  -0.98086  -0.94641
 Alpha  occ. eigenvalues --   -0.76661  -0.68747  -0.58388  -0.56996  -0.55427
 Alpha  occ. eigenvalues --   -0.51173  -0.47740  -0.44678  -0.43379  -0.41512
 Alpha  occ. eigenvalues --   -0.40114  -0.34655  -0.34140  -0.28374  -0.22407
 Alpha  occ. eigenvalues --   -0.19519  -0.17342  -0.15977  -0.15338  -0.07288
 Alpha  occ. eigenvalues --   -0.05875  -0.04404
 Alpha virt. eigenvalues --    0.13436   0.14615   0.14961   0.15238   0.15995
 Alpha virt. eigenvalues --    0.16436   0.17738   0.18101   0.20771   0.22331
 Alpha virt. eigenvalues --    0.24497   0.24794   0.25773   0.26576   0.26896

 Mulliken charges:
               1
     1  C    3.708048
     2  H    2.075096
     3  F   -0.194969
     4  H   -0.983396
     5  C   -0.634813
     6  C   -3.524099
     7  H    1.185204
     8  H    1.257783
     9  H    1.154956
    10  N   -3.387316
    11  H    0.644692
    12  H    0.424523
    13  N    4.531906
    14  O   -2.924256
    15  O   -2.868048
    16  N   -2.515503
    17  H    0.497074
    18  H    0.553118
 Sum of Mulliken charges =  -1.00000

 Dipole moment (field-independent basis, Debye):
    X=              1.2370    Y=              4.5418    Z=              5.9345  Tot=              7.5747

 Test job not archived.
 1\1\GINC-SE250\SP\RHF\Aug-CC-pVDZ\C3H9F1N3O2(1-)\OHZDE\09-Apr-2025\0\\
 #t hf aug-cc-pvdz iop(5/13=1,5/36=2,99/5=2) pseudo=read geom=check gue
 ss=(read,tcheck) scf=(maxcycle=1)\\title\\-1,1\C,0,0.5666075,-0.058972
 01,-0.04223833\H,0,1.53790217,1.85329865,-0.33822383\F,0,-1.09954796,-
 0.22415946,-0.05639449\H,0,2.50477426,0.03473964,0.03130731\C,0,0.5391
 9717,1.48114551,-0.14627347\C,0,0.82945522,-0.79524386,-1.35117323\H,0
 ,-0.12331407,-1.00453798,-1.85110683\H,0,1.46481456,-0.20386499,-2.006
 1974\H,0,1.35311377,-1.72678599,-1.13916746\N,0,0.66019067,-0.64816149

 Normal termination of Gaussian 16 at Wed Apr  9 02:55:44 2025.
