 Gaussian 16, Revision C.01,

 ----------------------------------------------------------------------
 #t hf aug-cc-pvdz symm=none int=(grid=ultrafine) guess=(read,tcheck) s
 table=(opt,rrhf)
 ----------------------------------------------------------------------
 -----
 title
 -----
 Symbolic Z-matrix:
 Charge = -1 Multiplicity = 1

 SCF Done:  E(RHF) =  -473.856482985     A.U. after   17 cycles
 Normal termination of Gaussian 16 at Wed Apr  9 02:59:47 2025.
 Gaussian 16:  ES64L-G16RevC.01  3-Jul-2019

 ----------------------------------------------------------------------
 #t hf aug-cc-pvdz iop(5/13=1,5/36=2,99/5=2) pseudo=read geom=check gue
 ss=(read,tcheck) scf=(maxcycle=1)
 ----------------------------------------------------------------------
 -----
 title
 -----
 Structure from the checkpoint file:  "E2SN2_4_mol2.chk"
 Charge = -1 Multiplicity = 1

                         Standard orientation:
 ---------------------------------------------------------------------
 Center     Atomic      Atomic             Coordinates (Angstroms)
 Number     Number       Type             X           Y           Z
 ---------------------------------------------------------------------
      1          6           0        0.105519    0.305370    0.314376
      2          6           0       -0.885068   -0.788570    0.033612
      3          9           0       -0.071424    1.419099   -0.482278
      4          1           0       -0.721201   -1.445903    0.891207
      5          1           0        0.108240    0.571718    1.370073
      6          1           0       -0.660118   -1.294843   -0.905229
      7          7           0        1.516046   -0.149057    0.016665
      8          8           0        2.403305    0.529241    0.525230
      9          8           0        1.690493   -1.077833   -0.768137
     10          6           0       -2.243340   -0.269929    0.020387
     11          7           0       -3.350492    0.122013    0.017195
     12          1           0        0.143968   -1.506053    2.480424
 ---------------------------------------------------------------------

 SCF Done:  E(RHF) =  -475.838235085     A.U. after    2 cycles

 The electronic state is 1-A.
 Alpha  occ. eigenvalues --  -29.18552 -20.99189 -20.98957 -15.88213 -15.65340
 Alpha  occ. eigenvalues --  -11.42771 -11.34872 -11.30442  -1.88240  -1.58302
 Alpha  occ. eigenvalues --   -1.23894  -1.16157  -0.97258  -0.80151  -0.67062
 Alpha  occ. eigenvalues --   -0.63352  -0.58321  -0.53169  -0.51764  -0.47319
 Alpha  occ. eigenvalues --   -0.45486  -0.40661  -0.34397  -0.32235  -0.29086
 Alpha  occ. eigenvalues --   -0.26340  -0.21533  -0.20761  -0.17434  -0.16860
 Alpha  occ. eigenvalues --   -0.10787
 Alpha virt. eigenvalues --    0.14270   0.17176   0.18135   0.19371   0.21394
 Alpha virt. eigenvalues --    0.21938   0.22581   0.22870   0.23579   0.24665
 Alpha virt. eigenvalues --    0.25254   0.26582   0.26889   0.27697   0.28685

 Mulliken charges:
               1
     1  C   -0.692374
     2  C   -3.108610
     3  F    0.479875
     4  H    1.394236
     5  H    1.727966
     6  H    1.495925
     7  N    4.554851
     8  O   -2.846269
     9  O   -2.856626
    10  C    2.414417
    11  N   -2.590216
    12  H   -0.973176
 Sum of Mulliken charges =  -1.00000

 Dipole moment (field-independent basis, Debye):
    X=              1.0570    Y=              6.1658    Z=             -9.4127  Tot=             11.3019

 Test job not archived.
 1\1\GINC-SE128\SP\RHF\Aug-CC-pVDZ\C3H4F1N2O2(1-)\OHZDE\09-Apr-2025\0\\
 #t hf aug-cc-pvdz iop(5/13=1,5/36=2,99/5=2) pseudo=read geom=check gue
 ss=(read,tcheck) scf=(maxcycle=1)\\title\\-1,1\C,0,-0.209902,0.117204,
 -1.383307\C,0,-0.097508,-0.046811,0.10574\F,0,-1.483457,0.448872,-1.80
 0933\H,0,0.987594,-0.074604,0.232976\H,0,0.525543,0.827729,-1.757095\H
 ,0,-0.561569,-0.97565,0.43777\N,0,0.093616,-1.17994,-2.097463\O,0,0.36
 1279,-1.071135,-3.290137\O,0,-0.036019,-2.239823,-1.490163\C,0,-0.6795
 4,1.090429,0.799995\N,0,-1.131768,2.003638,1.383908\H,0,2.525151,0.193

 Normal termination of Gaussian 16 at Wed Apr  9 02:59:52 2025.
