 Gaussian 16, Revision C.01,

 ----------------------------------------------------------------------
 #t hf aug-cc-pvdz symm=none int=(grid=ultrafine) guess=(read,tcheck) s
 table=(opt,rrhf)
 ----------------------------------------------------------------------
 -----
 title
 -----
 Symbolic Z-matrix:
 Charge = -1 Multiplicity = 1

 SCF Done:  E(RHF) =  -990.239266026     A.U. after   16 cycles
 Normal termination of Gaussian 16 at Wed Apr  9 02:36:58 2025.
 Gaussian 16:  ES64L-G16RevC.01  3-Jul-2019

 ----------------------------------------------------------------------
 #t hf aug-cc-pvdz iop(5/13=1,5/36=2,99/5=2) pseudo=read geom=check gue
 ss=(read,tcheck) scf=(maxcycle=1)
 ----------------------------------------------------------------------
 -----
 title
 -----
 Structure from the checkpoint file:  "E2SN2_133_mol2.chk"
 Charge = -1 Multiplicity = 1

                         Standard orientation:
 ---------------------------------------------------------------------
 Center     Atomic      Atomic             Coordinates (Angstroms)
 Number     Number       Type             X           Y           Z
 ---------------------------------------------------------------------
      1          6           0        0.593718    0.270840    0.296658
      2          6           0       -0.868718   -0.070040   -0.047196
      3         17           0        1.058841    1.803582   -0.488556
      4          1           0       -1.045373    0.183583   -1.093809
      5          7           0        0.903136    0.388308    1.689764
      6          1           0        0.744483   -0.513498    2.125977
      7          1           0        0.210330    1.045994    2.038797
      8          7           0        1.469711   -0.826834   -0.291990
      9          8           0        1.584931   -0.868444   -1.510795
     10          8           0        1.907885   -1.667213    0.491625
     11          7           0       -1.732687    0.786451    0.752688
     12          1           0       -2.649513    0.663079    0.213024
     13          1           0       -1.908366    0.284374    1.621912
     14          6           0       -1.211825   -1.549735    0.117138
     15          1           0       -2.280008   -1.563912   -0.123872
     16          1           0       -0.661931   -2.208729   -0.561892
     17          1           0       -1.050177   -1.888647    1.148556
     18          9           0       -3.651382   -0.079973   -0.684746
 ---------------------------------------------------------------------

 SCF Done:  E(RHF) =  -992.803214427     A.U. after    2 cycles

 The electronic state is 1-A.
 Alpha  occ. eigenvalues --  -99.77785 -28.89658 -20.99403 -20.99224 -15.88460
 Alpha  occ. eigenvalues --  -15.64815 -15.55765 -11.43826 -11.31215 -11.23688
 Alpha  occ. eigenvalues --  -10.35267  -9.55411  -9.54425  -9.54377  -1.88937
 Alpha  occ. eigenvalues --   -1.58976  -1.34656  -1.18989  -1.17147  -1.01759
 Alpha  occ. eigenvalues --   -0.92800  -0.79874  -0.68286  -0.63803  -0.60911
 Alpha  occ. eigenvalues --   -0.56393  -0.54291  -0.50474  -0.48050  -0.44650
 Alpha  occ. eigenvalues --   -0.44107  -0.42148  -0.41705  -0.39539  -0.37073
 Alpha  occ. eigenvalues --   -0.33861  -0.28108  -0.26792  -0.24284  -0.21594
 Alpha  occ. eigenvalues --   -0.20815  -0.20523   0.01280   0.01679   0.03554
 Alpha virt. eigenvalues --    0.13265   0.14543   0.15234   0.15579   0.16380
 Alpha virt. eigenvalues --    0.17107   0.18445   0.18719   0.19672   0.20489
 Alpha virt. eigenvalues --    0.23746   0.24131   0.24786   0.25090   0.25700

 Mulliken charges:
               1
     1  C    2.777534
     2  C    2.919067
     3  Cl  -0.024030
     4  H    1.915148
     5  N   -3.365652
     6  H    0.589203
     7  H    0.583985
     8  N    4.126612
     9  O   -3.191399
    10  O   -2.732582
    11  N   -3.371337
    12  H    0.034669
    13  H    0.493600
    14  C   -4.139191
    15  H    0.851064
    16  H    1.118099
    17  H    1.129008
    18  F   -0.713799
 Sum of Mulliken charges =  -1.00000

 Dipole moment (field-independent basis, Debye):
    X=              7.4520    Y=             -1.3810    Z=              2.4532  Tot=              7.9660

 Test job not archived.
 1\1\GINC-SE188\SP\RHF\Aug-CC-pVDZ\C3H8Cl1F1N3O2(1-)\OHZDE\09-Apr-2025\
 0\\#t hf aug-cc-pvdz iop(5/13=1,5/36=2,99/5=2) pseudo=read geom=check
 guess=(read,tcheck) scf=(maxcycle=1)\\title\\-1,1\C,0,-0.711374,0.0309
 51,-1.553682\C,0,0.117676,0.0146,-0.25539\Cl,0,0.120076,-0.917756,-2.8
 1497\H,0,1.173232,0.100441,-0.51876\N,0,-2.050761,-0.465219,-1.452985\
 H,0,-2.563853,0.136435,-0.817804\H,0,-1.940459,-1.378679,-1.019651\N,0
 ,-0.775947,1.473544,-2.036915\O,0,0.251666,1.969094,-2.482936\O,0,-1.8
 2779,2.078835,-1.83808\N,0,-0.061195,-1.283649,0.378952\H,0,0.765635,-

 Normal termination of Gaussian 16 at Wed Apr  9 02:37:08 2025.
