 Gaussian 16, Revision C.01,

 ----------------------------------------------------------------------
 #t hf aug-cc-pvdz symm=none int=(grid=ultrafine) guess=(read,tcheck) s
 table=(opt,rrhf)
 ----------------------------------------------------------------------
 -----
 title
 -----
 Symbolic Z-matrix:
 Charge = -1 Multiplicity = 1

 SCF Done:  E(RHF) =  -839.454646559     A.U. after   15 cycles
 Normal termination of Gaussian 16 at Wed Apr  9 03:02:44 2025.
 Gaussian 16:  ES64L-G16RevC.01  3-Jul-2019

 ----------------------------------------------------------------------
 #t hf aug-cc-pvdz iop(5/13=1,5/36=2,99/5=2) pseudo=read geom=check gue
 ss=(read,tcheck) scf=(maxcycle=1)
 ----------------------------------------------------------------------
 -----
 title
 -----
 Structure from the checkpoint file:  "E2SN2_9_mol2.chk"
 Charge = -1 Multiplicity = 1

                         Standard orientation:
 ---------------------------------------------------------------------
 Center     Atomic      Atomic             Coordinates (Angstroms)
 Number     Number       Type             X           Y           Z
 ---------------------------------------------------------------------
      1          6           0        0.280952   -0.378542    0.000508
      2          6           0       -0.609262    0.623650   -0.752730
      3         17           0        0.575675    0.170151    1.703076
      4          1           0       -0.698935    0.171485   -1.753282
      5          1           0       -0.374268   -1.297449    0.041006
      6          6           0        1.564545   -0.596914   -0.640577
      7          7           0        2.589195   -0.811333   -1.176030
      8          7           0        0.049238    1.915918   -0.881544
      9          1           0        0.246279    2.260114    0.053267
     10          1           0       -0.642217    2.544695   -1.277263
     11          7           0       -1.956026    0.686786   -0.218569
     12          1           0       -1.887387    0.985238    0.751375
     13          1           0       -2.239106   -0.315505   -0.199726
     14          9           0       -1.820568   -1.963322   -0.253097
 ---------------------------------------------------------------------

 SCF Done:  E(RHF) =  -841.354765903     A.U. after    2 cycles

 The electronic state is 1-A.
 Alpha  occ. eigenvalues --  -99.76491 -28.91465 -15.63708 -15.61133 -15.56998
 Alpha  occ. eigenvalues --  -11.36016 -11.32310 -11.28747 -10.33827  -9.53784
 Alpha  occ. eigenvalues --   -9.53147  -9.53020  -1.31213  -1.20012  -1.15514
 Alpha  occ. eigenvalues --   -1.10325  -0.95258  -0.74878  -0.61556  -0.59750
 Alpha  occ. eigenvalues --   -0.53332  -0.48802  -0.45966  -0.43338  -0.41182
 Alpha  occ. eigenvalues --   -0.38555  -0.36784  -0.36422  -0.31881  -0.31235
 Alpha  occ. eigenvalues --   -0.27054  -0.23993  -0.21048  -0.00638   0.00098
 Alpha  occ. eigenvalues --    0.01705
 Alpha virt. eigenvalues --    0.13300   0.14978   0.15824   0.16256   0.17927
 Alpha virt. eigenvalues --    0.18744   0.19719   0.20859   0.22830   0.23492
 Alpha virt. eigenvalues --    0.24900   0.25178   0.25833   0.25964   0.27337

 Mulliken charges:
               1
     1  C   -1.217918
     2  C    2.333547
     3  Cl  -0.188541
     4  H    1.739774
     5  H    1.337274
     6  C    2.272339
     7  N   -2.554040
     8  N   -3.120515
     9  H    0.514853
    10  H    0.555493
    11  N   -2.911704
    12  H    0.535406
    13  H    0.256035
    14  F   -0.552003
 Sum of Mulliken charges =  -1.00000

 Dipole moment (field-independent basis, Debye):
    X=              0.2294    Y=              3.8870    Z=              1.1152  Tot=              4.0504

 Test job not archived.
 1\1\GINC-SE127\SP\RHF\Aug-CC-pVDZ\C3H6Cl1F1N3(1-)\OHZDE\09-Apr-2025\0\
 \#t hf aug-cc-pvdz iop(5/13=1,5/36=2,99/5=2) pseudo=read geom=check gu
 ess=(read,tcheck) scf=(maxcycle=1)\\title\\-1,1\C,0,-0.126928,0.044412
 ,-1.3689\C,0,0.11592,-0.294477,0.111106\Cl,0,-1.791947,0.718592,-1.613
 556\H,0,1.144397,-0.689227,0.108934\H,0,0.614141,0.877421,-1.5485\C,0,
 0.041447,-1.095524,-2.251217\N,0,0.21715,-2.003783,-2.977019\N,0,-0.78
 624,-1.34413,0.56333\H,0,-1.737971,-1.014611,0.433737\H,0,-0.645345,-1
 .422406,1.565371\N,0,0.139539,0.882696,0.957742\H,0,-0.767383,1.336171

 Normal termination of Gaussian 16 at Wed Apr  9 03:02:50 2025.
