 Gaussian 16, Revision C.01,

 ----------------------------------------------------------------------
 #t hf aug-cc-pvdz symm=none int=(grid=ultrafine) guess=(read,tcheck) s
 table=(opt,rrhf)
 ----------------------------------------------------------------------
 -----
 title
 -----
 Symbolic Z-matrix:
 Charge = -1 Multiplicity = 1

 SCF Done:  E(RHF) =  -515.186785606     A.U. after   18 cycles
 Normal termination of Gaussian 16 at Wed Apr  9 02:57:55 2025.
 Gaussian 16:  ES64L-G16RevC.01  3-Jul-2019

 ----------------------------------------------------------------------
 #t hf aug-cc-pvdz iop(5/13=1,5/36=2,99/5=2) pseudo=read geom=check gue
 ss=(read,tcheck) scf=(maxcycle=1)
 ----------------------------------------------------------------------
 -----
 title
 -----
 Structure from the checkpoint file:  "E2SN2_380_mol2.chk"
 Charge = -1 Multiplicity = 1

                         Standard orientation:
 ---------------------------------------------------------------------
 Center     Atomic      Atomic             Coordinates (Angstroms)
 Number     Number       Type             X           Y           Z
 ---------------------------------------------------------------------
      1          6           0        0.056797   -0.380056    0.413462
      2          6           0       -0.992384    0.217622   -0.496453
      3          9           0       -0.072389    0.044974    1.723536
      4          1           0       -0.498169    0.233232   -1.498254
      5          7           0        0.047919   -1.812147    0.430282
      6          1           0        0.840769   -2.081860    1.008415
      7          1           0        0.313408   -2.075461   -0.516069
      8          7           0        1.412669    0.123420   -0.054058
      9          8           0        1.814343   -0.524312   -1.108965
     10          8           0        1.662704    1.342648    0.117178
     11          6           0       -1.319668    1.656407   -0.116965
     12          1           0       -1.987451    2.088668   -0.871142
     13          1           0       -1.816892    1.705275    0.856472
     14          1           0       -0.403057    2.243464   -0.072929
     15          6           0       -2.256162   -0.628866   -0.596498
     16          1           0       -2.968573   -0.139115   -1.270857
     17          1           0       -2.052097   -1.628090   -0.983078
     18          1           0       -2.732474   -0.744930    0.382753
     19          1           0        0.984040    0.077812   -2.467687
 ---------------------------------------------------------------------

 SCF Done:  E(RHF) =  -517.489431917     A.U. after    2 cycles

 The electronic state is 1-A.
 Alpha  occ. eigenvalues --  -29.12364 -20.94016 -20.84975 -15.70098 -15.61120
 Alpha  occ. eigenvalues --  -11.41195 -11.27976 -11.25572 -11.21731  -1.73431
 Alpha  occ. eigenvalues --   -1.46485  -1.28619  -1.08855  -0.96172  -0.87024
 Alpha  occ. eigenvalues --   -0.76124  -0.73334  -0.57453  -0.54268  -0.51809
 Alpha  occ. eigenvalues --   -0.47770  -0.46339  -0.43399  -0.40811  -0.40715
 Alpha  occ. eigenvalues --   -0.37216  -0.35081  -0.31838  -0.30930  -0.27723
 Alpha  occ. eigenvalues --   -0.24287  -0.19104  -0.18039  -0.13510  -0.11239
 Alpha  occ. eigenvalues --   -0.08801  -0.03038
 Alpha virt. eigenvalues --    0.13270   0.14067   0.14286   0.14487   0.14984
 Alpha virt. eigenvalues --    0.15829   0.17607   0.17847   0.19026   0.20367
 Alpha virt. eigenvalues --    0.21714   0.22893   0.24735   0.24773   0.25561

 Mulliken charges:
               1
     1  C    5.106906
     2  C   -2.049255
     3  F    0.349137
     4  H    2.050811
     5  N   -3.572253
     6  H    0.313068
     7  H    0.664359
     8  N    2.915712
     9  O   -2.338483
    10  O   -2.989377
    11  C   -4.061402
    12  H    1.110387
    13  H    1.262201
    14  H    1.447176
    15  C   -4.063968
    16  H    1.134969
    17  H    1.234364
    18  H    1.298262
    19  H   -0.812615
 Sum of Mulliken charges =  -1.00000

 Dipole moment (field-independent basis, Debye):
    X=             -3.5936    Y=             -1.2549    Z=              7.3405  Tot=              8.2687

 Test job not archived.
 1\1\GINC-SE284\SP\RHF\Aug-CC-pVDZ\C4H10F1N2O2(1-)\OHZDE\09-Apr-2025\0\
 \#t hf aug-cc-pvdz iop(5/13=1,5/36=2,99/5=2) pseudo=read geom=check gu
 ess=(read,tcheck) scf=(maxcycle=1)\\title\\-1,1\C,0,0.004913,-0.019487
 ,-0.004561\C,0,-0.502213,-0.193202,-1.418276\F,0,1.33378,-0.379315,0.1
 30608\H,0,-1.596234,-0.378061,-1.287729\N,0,-0.122965,1.319853,0.48642
 \H,0,0.174529,1.282166,1.458876\H,0,-1.127482,1.477086,0.526687\N,0,-0
 .775549,-0.973341,0.885099\O,0,-1.961643,-0.505574,1.146064\O,0,-0.558
 926,-2.202161,0.738709\C,0,0.099851,-1.420847,-2.090314\H,0,-0.384443,

 Normal termination of Gaussian 16 at Wed Apr  9 02:58:04 2025.
