 Gaussian 16, Revision C.01,

 ----------------------------------------------------------------------
 #t hf aug-cc-pvdz symm=none int=(grid=ultrafine) guess=(read,tcheck) s
 table=(opt,rrhf)
 ----------------------------------------------------------------------
 -----
 title
 -----
 Symbolic Z-matrix:
 Charge = -1 Multiplicity = 1

 SCF Done:  E(RHF) =  -990.266415503     A.U. after   16 cycles
 Normal termination of Gaussian 16 at Wed Apr  9 02:58:05 2025.
 Gaussian 16:  ES64L-G16RevC.01  3-Jul-2019

 ----------------------------------------------------------------------
 #t hf aug-cc-pvdz iop(5/13=1,5/36=2,99/5=2) pseudo=read geom=check gue
 ss=(read,tcheck) scf=(maxcycle=1)
 ----------------------------------------------------------------------
 -----
 title
 -----
 Structure from the checkpoint file:  "E2SN2_381_mol2.chk"
 Charge = -1 Multiplicity = 1

                         Standard orientation:
 ---------------------------------------------------------------------
 Center     Atomic      Atomic             Coordinates (Angstroms)
 Number     Number       Type             X           Y           Z
 ---------------------------------------------------------------------
      1          6           0        0.222632    0.119454    0.174371
      2          6           0       -0.667477   -0.242392   -1.010747
      3         17           0        1.078520    1.814928   -0.241967
      4          1           0       -0.031880   -0.218818   -1.897923
      5          7           0       -0.389847    0.059153    1.364035
      6          1           0        0.161485    0.328719    2.162175
      7          1           0       -1.475571    0.128648    1.401333
      8          7           0        1.521248   -0.736621    0.180434
      9          8           0        2.074492   -0.888374    1.265064
     10          8           0        1.921111   -1.205320   -0.881518
     11          7           0       -1.702459    0.777123   -1.145025
     12          1           0       -2.212438    0.577463   -1.998528
     13          1           0       -2.350598    0.646409   -0.355828
     14          6           0       -1.241318   -1.651155   -0.798696
     15          1           0       -0.474449   -2.397561   -0.572608
     16          1           0       -1.755285   -1.962095   -1.715347
     17          1           0       -1.968186   -1.587730    0.012040
     18          9           0       -2.897595    0.036412    1.224899
 ---------------------------------------------------------------------

 SCF Done:  E(RHF) =  -992.829657274     A.U. after    2 cycles

 The electronic state is 1-A.
 Alpha  occ. eigenvalues --  -99.73344 -28.93671 -20.97513 -20.97307 -15.86271
 Alpha  occ. eigenvalues --  -15.59180 -15.57667 -11.42815 -11.31421 -11.24356
 Alpha  occ. eigenvalues --  -10.30550  -9.50668  -9.49952  -9.49845  -1.86760
 Alpha  occ. eigenvalues --   -1.56879  -1.31050  -1.18313  -1.12647  -0.98637
 Alpha  occ. eigenvalues --   -0.92862  -0.79444  -0.65959  -0.63748  -0.57869
 Alpha  occ. eigenvalues --   -0.57510  -0.51124  -0.49833  -0.47790  -0.45156
 Alpha  occ. eigenvalues --   -0.43822  -0.41297  -0.38796  -0.36595  -0.35857
 Alpha  occ. eigenvalues --   -0.32799  -0.29242  -0.25747  -0.21965  -0.21069
 Alpha  occ. eigenvalues --   -0.19327  -0.18304  -0.02080  -0.01939  -0.00703
 Alpha virt. eigenvalues --    0.13195   0.14640   0.15115   0.15361   0.15657
 Alpha virt. eigenvalues --    0.17961   0.18255   0.19527   0.20719   0.21321
 Alpha virt. eigenvalues --    0.22893   0.23910   0.25312   0.25779   0.26094

 Mulliken charges:
               1
     1  C    2.859021
     2  C    1.919720
     3  Cl  -0.219539
     4  H    1.970626
     5  N   -4.054412
     6  H    0.733280
     7  H    0.134507
     8  N    4.862613
     9  O   -3.051181
    10  O   -3.162283
    11  N   -3.354643
    12  H    0.451631
    13  H    0.471860
    14  C   -3.747344
    15  H    1.232938
    16  H    1.046750
    17  H    1.235405
    18  F   -0.328950
 Sum of Mulliken charges =  -1.00000

 Dipole moment (field-independent basis, Debye):
    X=              2.1615    Y=             -2.3891    Z=             -1.6848  Tot=              3.6357

 Test job not archived.
 1\1\GINC-SE339\SP\RHF\Aug-CC-pVDZ\C3H8Cl1F1N3O2(1-)\OHZDE\09-Apr-2025\
 0\\#t hf aug-cc-pvdz iop(5/13=1,5/36=2,99/5=2) pseudo=read geom=check
 guess=(read,tcheck) scf=(maxcycle=1)\\title\\-1,1\C,0,-0.159288,-0.077
 519,-0.036608\C,0,-0.5152,-0.247593,-1.510423\Cl,0,1.452317,1.006999,0
 .04745\H,0,0.372577,-0.649687,-2.002149\N,0,-1.174427,0.337033,0.73261
 7\H,0,-0.960871,0.494541,1.703825\H,0,-2.011217,0.854138,0.266354\N,0,
 0.47244,-1.376761,0.539757\O,0,0.375892,-1.544214,1.751437\O,0,1.02839
 7,-2.15256,-0.232485\N,0,-0.811852,1.065449,-2.073049\H,0,-0.937912,0.

 Normal termination of Gaussian 16 at Wed Apr  9 02:58:14 2025.
