 Gaussian 16, Revision C.01,

 ----------------------------------------------------------------------
 #t hf aug-cc-pvdz symm=none int=(grid=ultrafine) guess=(read,tcheck) s
 table=(opt,rrhf)
 ----------------------------------------------------------------------
 -----
 title
 -----
 Symbolic Z-matrix:
 Charge = -1 Multiplicity = 1

 SCF Done:  E(RHF) =  -951.237378716     A.U. after   15 cycles
 Normal termination of Gaussian 16 at Wed Apr  9 02:41:43 2025.
 Gaussian 16:  ES64L-G16RevC.01  3-Jul-2019

 ----------------------------------------------------------------------
 #t hf aug-cc-pvdz iop(5/13=1,5/36=2,99/5=2) pseudo=read geom=check gue
 ss=(read,tcheck) scf=(maxcycle=1)
 ----------------------------------------------------------------------
 -----
 title
 -----
 Structure from the checkpoint file:  "E2SN2_205_mol2.chk"
 Charge = -1 Multiplicity = 1

                         Standard orientation:
 ---------------------------------------------------------------------
 Center     Atomic      Atomic             Coordinates (Angstroms)
 Number     Number       Type             X           Y           Z
 ---------------------------------------------------------------------
      1          6           0       -0.527491    0.748821   -0.140591
      2          6           0        0.071359   -0.569351   -0.645784
      3         17           0        0.806870    2.019752   -0.291617
      4          1           0        0.499214   -0.421592   -1.642206
      5          1           0       -1.275528    1.029029   -0.880325
      6          7           0       -1.150057    0.758956    1.121559
      7          1           0       -0.651351    0.156343    1.761646
      8          1           0       -2.100284    0.388347    0.916517
      9          7           0       -0.881976   -1.613604   -0.528273
     10          1           0       -0.872467   -2.192001   -1.356001
     11          1           0       -1.848865   -1.223219   -0.365106
     12          7           0        1.322736   -0.933938    0.162535
     13          8           0        2.351559   -1.174767   -0.472258
     14          8           0        1.229039   -1.008455    1.385165
     15          9           0       -3.156713   -0.351516   -0.150310
 ---------------------------------------------------------------------

 SCF Done:  E(RHF) =  -953.577181049     A.U. after    2 cycles

 The electronic state is 1-A.
 Alpha  occ. eigenvalues --  -99.74471 -28.92791 -20.97076 -20.96686 -15.85278
 Alpha  occ. eigenvalues --  -15.59325 -15.57789 -11.38900 -11.32137 -10.31808
 Alpha  occ. eigenvalues --   -9.51815  -9.51139  -9.50976  -1.85814  -1.56057
 Alpha  occ. eigenvalues --   -1.30246  -1.19501  -1.12852  -0.98191  -0.83240
 Alpha  occ. eigenvalues --   -0.68793  -0.60366  -0.59304  -0.57511  -0.53905
 Alpha  occ. eigenvalues --   -0.48808  -0.46815  -0.44208  -0.42659  -0.41179
 Alpha  occ. eigenvalues --   -0.35333  -0.34857  -0.30360  -0.26345  -0.24335
 Alpha  occ. eigenvalues --   -0.19754  -0.18684  -0.18259  -0.01886  -0.00978
 Alpha  occ. eigenvalues --    0.00459
 Alpha virt. eigenvalues --    0.13873   0.15017   0.16527   0.16841   0.18029
 Alpha virt. eigenvalues --    0.19137   0.20638   0.22056   0.23952   0.24480
 Alpha virt. eigenvalues --    0.24797   0.25536   0.26723   0.26836   0.27430

 Mulliken charges:
               1
     1  C   -0.291509
     2  C    1.488227
     3  Cl  -0.114117
     4  H    1.789812
     5  H    1.906893
     6  N   -2.771423
     7  H    0.725545
     8  H    0.287138
     9  N   -3.013791
    10  H    0.397702
    11  H    0.327694
    12  N    4.527573
    13  O   -2.892515
    14  O   -2.875617
    15  F   -0.491611
 Sum of Mulliken charges =  -1.00000

 Dipole moment (field-independent basis, Debye):
    X=              3.3769    Y=             -0.8772    Z=             -1.0109  Tot=              3.6325

 Test job not archived.
 1\1\GINC-SE334\SP\RHF\Aug-CC-pVDZ\C2H6Cl1F1N3O2(1-)\OHZDE\09-Apr-2025\
 0\\#t hf aug-cc-pvdz iop(5/13=1,5/36=2,99/5=2) pseudo=read geom=check
 guess=(read,tcheck) scf=(maxcycle=1)\\title\\-1,1\C,0,-0.045961,-0.049
 307,-0.065117\C,0,-0.223183,-0.302272,-1.567122\Cl,0,1.773798,0.095382
 ,0.228373\H,0,0.306836,0.468301,-2.135492\H,0,-0.444838,0.948582,0.109
 233\N,0,-0.676212,-0.925188,0.838393\H,0,-0.651917,-1.870826,0.482387\
 H,0,-1.649922,-0.560829,0.876558\N,0,-1.598869,-0.464181,-1.874361\H,0
 ,-1.830328,0.035269,-2.720968\H,0,-2.203925,-0.132073,-1.075919\N,0,0.

 Normal termination of Gaussian 16 at Wed Apr  9 02:41:49 2025.
