 Gaussian 16, Revision C.01,

 ----------------------------------------------------------------------
 #t hf aug-cc-pvdz symm=none int=(grid=ultrafine) guess=(read,tcheck) s
 table=(opt,rrhf)
 ----------------------------------------------------------------------
 -----
 title
 -----
 Symbolic Z-matrix:
 Charge = -1 Multiplicity = 1

 SCF Done:  E(RHF) =  -816.191684242     A.U. after   17 cycles
 Normal termination of Gaussian 16 at Wed Apr  9 03:01:41 2025.
 Gaussian 16:  ES64L-G16RevC.01  3-Jul-2019

 ----------------------------------------------------------------------
 #t hf aug-cc-pvdz iop(5/13=1,5/36=2,99/5=2) pseudo=read geom=check gue
 ss=(read,tcheck) scf=(maxcycle=1)
 ----------------------------------------------------------------------
 -----
 title
 -----
 Structure from the checkpoint file:  "E2SN2_70_mol1.chk"
 Charge = -1 Multiplicity = 1

                         Standard orientation:
 ---------------------------------------------------------------------
 Center     Atomic      Atomic             Coordinates (Angstroms)
 Number     Number       Type             X           Y           Z
 ---------------------------------------------------------------------
      1          6           0        0.295178    0.010690   -0.118218
      2          6           0       -1.169342    0.056404   -0.436303
      3         17           0        0.641191   -0.187850    1.721919
      4          1           0       -2.367187    0.689666   -2.544567
      5          1           0       -1.352942    0.193728   -1.593678
      6          6           0        0.966202   -1.128745   -0.748767
      7          7           0        1.486436   -2.047010   -1.266784
      8          6           0        0.968145    1.252227   -0.501520
      9          7           0        1.534818    2.228273   -0.828882
     10          7           0       -1.736983    1.283868    0.070675
     11          1           0       -2.296499    1.107167    0.897261
     12          1           0       -2.354808    1.596514   -0.690580
     13          6           0       -1.917639   -1.207474   -0.063743
     14          1           0       -2.075799   -1.281813    1.018597
     15          1           0       -2.886762   -1.149858   -0.569592
     16          1           0       -1.411424   -2.116484   -0.403820
 ---------------------------------------------------------------------

 SCF Done:  E(RHF) =  -818.121818795     A.U. after    2 cycles

 The electronic state is 1-A.
 Alpha  occ. eigenvalues --  -99.79790 -15.68273 -15.66996 -15.59830 -11.46898
 Alpha  occ. eigenvalues --  -11.36995 -11.35594 -11.31526 -11.25875 -10.36977
 Alpha  occ. eigenvalues --   -9.56959  -9.56341  -9.56263  -1.33205  -1.20562
 Alpha  occ. eigenvalues --   -1.19238  -1.18240  -1.03318  -0.94932  -0.75543
 Alpha  occ. eigenvalues --   -0.70385  -0.62217  -0.54094  -0.51319  -0.47063
 Alpha  occ. eigenvalues --   -0.45695  -0.44711  -0.43084  -0.42151  -0.39308
 Alpha  occ. eigenvalues --   -0.38267  -0.34927  -0.34427  -0.34249  -0.33096
 Alpha  occ. eigenvalues --   -0.31320  -0.23440  -0.11318
 Alpha virt. eigenvalues --    0.13032   0.14159   0.14624   0.15340   0.16157
 Alpha virt. eigenvalues --    0.16723   0.17785   0.19450   0.19806   0.20541
 Alpha virt. eigenvalues --    0.21255   0.22152   0.22721   0.23406   0.23743

 Mulliken charges:
               1
     1  C   -0.171385
     2  C    2.234299
     3  Cl  -0.044483
     4  H   -0.770921
     5  H    1.699152
     6  C    2.143714
     7  N   -2.597227
     8  C    2.376607
     9  N   -2.615337
    10  N   -3.170238
    11  H    0.547777
    12  H    0.477690
    13  C   -4.660435
    14  H    1.170517
    15  H    1.198467
    16  H    1.181803
 Sum of Mulliken charges =  -1.00000

 Dipole moment (field-independent basis, Debye):
    X=              3.3779    Y=             -2.6860    Z=              8.1563  Tot=              9.2277

 Test job not archived.
 1\1\GINC-SE336\SP\RHF\Aug-CC-pVDZ\C5H7Cl1N3(1-)\OHZDE\09-Apr-2025\0\\#
 t hf aug-cc-pvdz iop(5/13=1,5/36=2,99/5=2) pseudo=read geom=check gues
 s=(read,tcheck) scf=(maxcycle=1)\\title\\-1,1\C,0,-0.14526511,-0.02435
 653,-0.44071407\C,0,-0.29979051,0.00710977,1.0503319\Cl,0,1.65449797,0
 .00341755,-0.99328105\H,0,-2.32304214,0.39205384,2.4782337\H,0,-1.4371
 7708,0.00138572,1.3640265\C,0,-0.69785798,-1.24564183,-1.03171357\N,0,
 -1.15059735,-2.23074223,-1.48646703\C,0,-0.75599375,1.14712271,-1.0698
 9084\N,0,-1.26600597,2.06415951,-1.59893052\N,0,0.10823671,1.29837441,

 Normal termination of Gaussian 16 at Wed Apr  9 03:01:48 2025.
