 Gaussian 16, Revision C.01,

 ----------------------------------------------------------------------
 #t hf aug-cc-pvdz symm=none int=(grid=ultrafine) guess=(read,tcheck) s
 table=(opt,rrhf)
 ----------------------------------------------------------------------
 -----
 title
 -----
 Symbolic Z-matrix:
 Charge = -1 Multiplicity = 1

 SCF Done:  E(RHF) =  -364.434571158     A.U. after   16 cycles
 Normal termination of Gaussian 16 at Wed Apr  9 02:34:44 2025.
 Gaussian 16:  ES64L-G16RevC.01  3-Jul-2019

 ----------------------------------------------------------------------
 #t hf aug-cc-pvdz iop(5/13=1,5/36=2,99/5=2) pseudo=read geom=check gue
 ss=(read,tcheck) scf=(maxcycle=1)
 ----------------------------------------------------------------------
 -----
 title
 -----
 Structure from the checkpoint file:  "E2SN2_11_mol2.chk"
 Charge = -1 Multiplicity = 1

                         Standard orientation:
 ---------------------------------------------------------------------
 Center     Atomic      Atomic             Coordinates (Angstroms)
 Number     Number       Type             X           Y           Z
 ---------------------------------------------------------------------
      1          6           0        0.772643   -0.448894   -0.340031
      2          6           0       -0.299053    0.453963    0.264144
      3          9           0        0.691760   -1.715419    0.267257
      4          1           0       -0.096251    0.546436    1.344784
      5          1           0        0.557336   -0.597482   -1.403460
      6          6           0        2.158485    0.106699   -0.129704
      7          1           0        2.902344   -0.592728   -0.521537
      8          1           0        2.241860    1.064797   -0.641109
      9          1           0        2.333483    0.282661    0.932902
     10          6           0       -1.614189   -0.165149    0.078712
     11          7           0       -2.668840   -0.649249   -0.108167
     12          7           0       -0.199621    1.776355   -0.349585
     13          1           0        0.222066    2.347512    0.451213
     14          1           0       -1.134645    2.147959   -0.484629
     15          1           0        0.719881    2.670154    1.882053
 ---------------------------------------------------------------------

 SCF Done:  E(RHF) =  -366.058613671     A.U. after    2 cycles

 The electronic state is 1-A.
 Alpha  occ. eigenvalues --  -29.12999 -15.63962 -15.57951 -11.37531 -11.33759
 Alpha  occ. eigenvalues --  -11.30354 -11.25469  -1.27162  -1.15172  -1.08503
 Alpha  occ. eigenvalues --   -0.89985  -0.78917  -0.62108  -0.60599  -0.50372
 Alpha  occ. eigenvalues --   -0.47046  -0.44883  -0.43434  -0.40068  -0.39861
 Alpha  occ. eigenvalues --   -0.35949  -0.32070  -0.30357  -0.25011  -0.22167
 Alpha  occ. eigenvalues --   -0.13525  -0.12835  -0.10801
 Alpha virt. eigenvalues --    0.12904   0.14696   0.15640   0.16019   0.16771
 Alpha virt. eigenvalues --    0.17498   0.19475   0.20021   0.21196   0.23070
 Alpha virt. eigenvalues --    0.23135   0.23745   0.24866   0.25237   0.26528

 Mulliken charges:
               1
     1  C   -0.093829
     2  C   -1.943076
     3  F    0.139971
     4  H    1.948643
     5  H    1.683018
     6  C   -4.367711
     7  H    1.036198
     8  H    1.342949
     9  H    1.319686
    10  C    2.671112
    11  N   -2.628360
    12  N   -2.326085
    13  H    0.597103
    14  H    0.594099
    15  H   -0.973719
 Sum of Mulliken charges =  -1.00000

 Dipole moment (field-independent basis, Debye):
    X=              0.2492    Y=             -9.2257    Z=             -5.2990  Tot=             10.6421

 Test job not archived.
 1\1\GINC-SE051\SP\RHF\Aug-CC-pVDZ\C4H8F1N2(1-)\OHZDE\09-Apr-2025\0\\#t
  hf aug-cc-pvdz iop(5/13=1,5/36=2,99/5=2) pseudo=read geom=check guess
 =(read,tcheck) scf=(maxcycle=1)\\title\\-1,1\C,0,-0.544751,-0.02969,-1
 .4605\C,0,-0.033311,-0.173522,-0.029958\F,0,-0.430548,-1.273202,-2.108
 622\H,0,1.027873,-0.472156,-0.076543\H,0,-1.612259,0.213505,-1.436007\
 C,0,0.238311,0.999561,-2.2357\H,0,-0.115339,1.033547,-3.270028\H,0,0.1
 11861,1.974277,-1.766255\H,0,1.301788,0.756345,-2.211629\C,0,-0.793221
 ,-1.224429,0.652243\N,0,-1.432926,-2.041382,1.204448\N,0,-0.129783,1.1

 Normal termination of Gaussian 16 at Wed Apr  9 02:34:49 2025.
