 Gaussian 16, Revision C.01,

 ----------------------------------------------------------------------
 #t hf aug-cc-pvdz symm=none int=(grid=ultrafine) guess=(read,tcheck) s
 table=(opt,rrhf)
 ----------------------------------------------------------------------
 -----
 title
 -----
 Symbolic Z-matrix:
 Charge = -1 Multiplicity = 1

 SCF Done:  E(RHF) =  -1384.65937565     A.U. after   17 cycles
 Normal termination of Gaussian 16 at Wed Apr  9 02:40:39 2025.
 Gaussian 16:  ES64L-G16RevC.01  3-Jul-2019

 ----------------------------------------------------------------------
 #t hf aug-cc-pvdz iop(5/13=1,5/36=2,99/5=2) pseudo=read geom=check gue
 ss=(read,tcheck) scf=(maxcycle=1)
 ----------------------------------------------------------------------
 -----
 title
 -----
 Structure from the checkpoint file:  "E2SN2_176_mol1.chk"
 Charge = -1 Multiplicity = 1

                         Standard orientation:
 ---------------------------------------------------------------------
 Center     Atomic      Atomic             Coordinates (Angstroms)
 Number     Number       Type             X           Y           Z
 ---------------------------------------------------------------------
      1          6           0       -0.726316   -0.123417    0.444016
      2          1           0       -0.334817    1.017302   -1.324311
      3         17           0        1.043785   -1.146961    1.599912
      4         17           0       -2.532820    1.087675   -0.177468
      5          6           0        0.219423    0.657043   -0.455166
      6          1           0       -0.919294    0.226325    1.439139
      7          6           0       -1.275239   -1.379352    0.026340
      8          7           0       -1.754402   -2.410289   -0.278914
      9          7           0        1.327091   -0.170126   -1.090704
     10          8           0        2.467900    0.268359   -1.054366
     11          8           0        0.942527   -1.159914   -1.697005
     12          6           0        0.781039    1.794631    0.260123
     13          7           0        1.183146    2.752308    0.807148
 ---------------------------------------------------------------------

 SCF Done:  E(RHF) =  -1387.19218293     A.U. after    2 cycles

 The electronic state is 1-A.
 Alpha  occ. eigenvalues --  -99.71833 -99.69184 -21.00991 -21.00547 -15.91132
 Alpha  occ. eigenvalues --  -15.68845 -15.66687 -11.49576 -11.44493 -11.36739
 Alpha  occ. eigenvalues --  -11.35330 -10.28793 -10.26171  -9.48852  -9.48353
 Alpha  occ. eigenvalues --   -9.48252  -9.46237  -9.45824  -9.45690  -1.90539
 Alpha  occ. eigenvalues --   -1.60597  -1.28089  -1.20282  -1.15761  -1.09155
 Alpha  occ. eigenvalues --   -1.06591  -0.97110  -0.82850  -0.69116  -0.64216
 Alpha  occ. eigenvalues --   -0.63824  -0.60155  -0.51089  -0.50784  -0.46271
 Alpha  occ. eigenvalues --   -0.44061  -0.42357  -0.37571  -0.36465  -0.35861
 Alpha  occ. eigenvalues --   -0.35304  -0.34292  -0.33653  -0.32914  -0.30840
 Alpha  occ. eigenvalues --   -0.29617  -0.25867  -0.22439  -0.21846
 Alpha virt. eigenvalues --    0.13683   0.14814   0.15233   0.18475   0.19296
 Alpha virt. eigenvalues --    0.20040   0.20925   0.21003   0.22044   0.22228
 Alpha virt. eigenvalues --    0.23087   0.23390   0.23725   0.24330   0.25678

 Mulliken charges:
               1
     1  C   -0.441257
     2  H    1.796234
     3  Cl  -0.667952
     4  Cl  -0.475815
     5  C   -2.234039
     6  H    1.709887
     7  C    2.059967
     8  N   -2.657828
     9  N    5.008636
    10  O   -2.921774
    11  O   -3.090337
    12  C    3.788326
    13  N   -2.874047
 Sum of Mulliken charges =  -1.00000

 Dipole moment (field-independent basis, Debye):
    X=              1.7975    Y=              0.6501    Z=             -2.8218  Tot=              3.4083

 Test job not archived.
 1\1\GINC-SE083\SP\RHF\Aug-CC-pVDZ\C4H2Cl2N3O2(1-)\OHZDE\09-Apr-2025\0\
 \#t hf aug-cc-pvdz iop(5/13=1,5/36=2,99/5=2) pseudo=read geom=check gu
 ess=(read,tcheck) scf=(maxcycle=1)\\title\\-1,1\C,0,0.59359356,-0.0601
 747,0.05546833\H,0,1.70192696,1.73979027,0.39194258\Cl,0,-1.75301594,-
 0.03287423,0.15384186\Cl,0,2.76297914,-0.29978517,-0.53849708\C,0,0.68
 377531,1.45644034,0.11723731\H,0,0.35697784,-0.53858093,-0.87456931\C,
 0,0.70604864,-0.85614832,1.24160573\N,0,0.79983305,-1.54864979,2.18884
 127\N,0,-0.14589188,2.10285704,1.21671116\O,0,-0.83396692,3.07108034,0

 Normal termination of Gaussian 16 at Wed Apr  9 02:40:49 2025.
