 Gaussian 16, Revision C.01,

 ----------------------------------------------------------------------
 #t hf aug-cc-pvdz symm=none int=(grid=ultrafine) guess=(read,tcheck) s
 table=(opt,rrhf)
 ----------------------------------------------------------------------
 -----
 title
 -----
 Symbolic Z-matrix:
 Charge = -1 Multiplicity = 1

 SCF Done:  E(RHF) =  -825.788513856     A.U. after   13 cycles
 Normal termination of Gaussian 16 at Wed Apr  9 02:55:31 2025.
 Gaussian 16:  ES64L-G16RevC.01  3-Jul-2019

 ----------------------------------------------------------------------
 #t hf aug-cc-pvdz iop(5/13=1,5/36=2,99/5=2) pseudo=read geom=check gue
 ss=(read,tcheck) scf=(maxcycle=1)
 ----------------------------------------------------------------------
 -----
 title
 -----
 Structure from the checkpoint file:  "E2SN2_355_mol2.chk"
 Charge = -1 Multiplicity = 1

                         Standard orientation:
 ---------------------------------------------------------------------
 Center     Atomic      Atomic             Coordinates (Angstroms)
 Number     Number       Type             X           Y           Z
 ---------------------------------------------------------------------
      1          6           0       -0.596449    0.323359    0.117073
      2          6           0        0.354278   -0.371977   -0.901087
      3         17           0       -2.180476   -0.605570    0.086761
      4          1           0       -0.278912   -0.653928   -1.754673
      5          6           0       -0.058259    0.304497    1.533248
      6          1           0        1.007945    0.571975    1.510280
      7          1           0       -0.113579   -0.709203    1.929304
      8          1           0       -0.639620    0.974244    2.175723
      9          6           0       -0.949871    1.736839   -0.320501
     10          1           0       -0.078112    2.382442   -0.194646
     11          1           0       -1.270391    1.761659   -1.366720
     12          1           0       -1.760941    2.129891    0.296837
     13          7           0        0.897653   -1.573435   -0.286847
     14          1           0        1.667937   -1.213737    0.303143
     15          1           0        1.356066   -2.081861   -1.037077
     16          7           0        1.445603    0.466501   -1.386434
     17          1           0        2.110064    0.552697   -0.592302
     18          1           0        1.116900    1.375712   -1.687079
     19          9           0        2.783305    0.110781    0.898093
 ---------------------------------------------------------------------

 SCF Done:  E(RHF) =  -827.726529073     A.U. after    2 cycles

 The electronic state is 1-A.
 Alpha  occ. eigenvalues --  -99.72865 -28.89723 -15.55322 -15.55148 -11.33648
 Alpha  occ. eigenvalues --  -11.29319 -11.26512 -11.21539 -10.30247  -9.50273
 Alpha  occ. eigenvalues --   -9.49587  -9.49528  -1.28566  -1.16943  -1.06326
 Alpha  occ. eigenvalues --   -1.01690  -0.88432  -0.79797  -0.64610  -0.56265
 Alpha  occ. eigenvalues --   -0.52251  -0.50398  -0.48060  -0.44581  -0.42587
 Alpha  occ. eigenvalues --   -0.40580  -0.39253  -0.35834  -0.35628  -0.34424
 Alpha  occ. eigenvalues --   -0.31627  -0.29824  -0.25886  -0.20316  -0.18668
 Alpha  occ. eigenvalues --    0.01180   0.02015   0.03275
 Alpha virt. eigenvalues --    0.13269   0.14185   0.14680   0.15144   0.15330
 Alpha virt. eigenvalues --    0.16386   0.16828   0.17034   0.18308   0.20184
 Alpha virt. eigenvalues --    0.20587   0.21335   0.23055   0.24617   0.25141

 Mulliken charges:
               1
     1  C    1.102377
     2  C    3.263056
     3  Cl  -0.382085
     4  H    1.709856
     5  C   -3.620000
     6  H    1.043647
     7  H    1.198029
     8  H    1.099001
     9  C   -4.248909
    10  H    1.353036
    11  H    1.150449
    12  H    1.095940
    13  N   -3.455516
    14  H    0.401659
    15  H    0.460737
    16  N   -2.961877
    17  H    0.144764
    18  H    0.465112
    19  F   -0.819277
 Sum of Mulliken charges =  -1.00000

 Dipole moment (field-independent basis, Debye):
    X=             -4.3170    Y=              2.0110    Z=             -1.5484  Tot=              5.0078

 Test job not archived.
 1\1\GINC-SE060\SP\RHF\Aug-CC-pVDZ\C4H11Cl1F1N2(1-)\OHZDE\09-Apr-2025\0
 \\#t hf aug-cc-pvdz iop(5/13=1,5/36=2,99/5=2) pseudo=read geom=check g
 uess=(read,tcheck) scf=(maxcycle=1)\\title\\-1,1\C,0,-0.009158,-0.0219
 68,0.02285\C,0,-0.572453,0.131293,-1.420492\Cl,0,1.737213,0.544564,-0.
 024054\H,0,0.245381,-0.166964,-2.092225\C,0,-0.756743,0.81702,1.039103
 \H,0,-1.836342,0.711629,0.859599\H,0,-0.519805,1.869583,0.88587\H,0,-0
 .476182,0.529465,2.057884\C,0,0.051921,-1.48102,0.449159\H,0,-0.960852
 ,-1.846771,0.631155\H,0,0.527978,-2.1005,-0.317351\H,0,0.624378,-1.578

 Normal termination of Gaussian 16 at Wed Apr  9 02:55:40 2025.
