 Gaussian 16, Revision C.01,

 ----------------------------------------------------------------------
 #t hf aug-cc-pvdz symm=none int=(grid=ultrafine) guess=(read,tcheck) s
 table=(opt,rrhf)
 ----------------------------------------------------------------------
 -----
 title
 -----
 Symbolic Z-matrix:
 Charge = -1 Multiplicity = 1

 SCF Done:  E(RHF) =  -1136.33056164     A.U. after   18 cycles
 Normal termination of Gaussian 16 at Wed Apr  9 02:40:39 2025.
 Gaussian 16:  ES64L-G16RevC.01  3-Jul-2019

 ----------------------------------------------------------------------
 #t hf aug-cc-pvdz iop(5/13=1,5/36=2,99/5=2) pseudo=read geom=check gue
 ss=(read,tcheck) scf=(maxcycle=1)
 ----------------------------------------------------------------------
 -----
 title
 -----
 Structure from the checkpoint file:  "E2SN2_175_mol1.chk"
 Charge = -1 Multiplicity = 1

                         Standard orientation:
 ---------------------------------------------------------------------
 Center     Atomic      Atomic             Coordinates (Angstroms)
 Number     Number       Type             X           Y           Z
 ---------------------------------------------------------------------
      1          6           0        0.830417   -0.519584    0.374879
      2          1           0       -0.347342   -0.714073   -1.423737
      3          9           0       -0.324163   -0.134424    1.935479
      4         17           0        2.129580   -0.977850   -1.180664
      5          6           0       -0.403168   -0.234554   -0.449756
      6          1           0        0.834091   -1.500869    0.818378
      7          6           0        1.624376    0.493231    1.025904
      8          7           0        2.403242    1.233316    1.503152
      9          7           0       -0.680792    1.202093   -0.756152
     10          8           0       -1.305574    1.376385   -1.803613
     11          8           0       -0.317408    2.075496    0.018508
     12          7           0       -1.645071   -0.828259    0.173721
     13          8           0       -2.619229   -0.116096    0.348367
     14          8           0       -1.585733   -2.040333    0.325004
 ---------------------------------------------------------------------

 SCF Done:  E(RHF) =  -1139.38374340     A.U. after    2 cycles

 The electronic state is 1-A.
 Alpha  occ. eigenvalues --  -99.74462 -28.96461 -21.01061 -21.00051 -20.99853
 Alpha  occ. eigenvalues --  -20.99205 -15.90601 -15.90470 -15.63765 -11.49194
 Alpha  occ. eigenvalues --  -11.41894 -11.33404 -10.31509  -9.51571  -9.51072
 Alpha  occ. eigenvalues --   -9.50870  -1.91142  -1.88271  -1.60129  -1.59704
 Alpha  occ. eigenvalues --   -1.25957  -1.16620  -1.12724  -0.98566  -0.90611
 Alpha  occ. eigenvalues --   -0.75134  -0.66690  -0.64870  -0.63924  -0.57607
 Alpha  occ. eigenvalues --   -0.54301  -0.52123  -0.50844  -0.49473  -0.47138
 Alpha  occ. eigenvalues --   -0.40412  -0.38671  -0.37532  -0.34281  -0.32765
 Alpha  occ. eigenvalues --   -0.29344  -0.27288  -0.24664  -0.23906  -0.21921
 Alpha  occ. eigenvalues --   -0.20898  -0.19756  -0.06587  -0.04074  -0.03551
 Alpha virt. eigenvalues --    0.14392   0.15308   0.18481   0.19695   0.21196
 Alpha virt. eigenvalues --    0.22313   0.23024   0.23652   0.24311   0.24556
 Alpha virt. eigenvalues --    0.24716   0.24905   0.25495   0.26251   0.26763

 Mulliken charges:
               1
     1  C   -0.731359
     2  H    2.209981
     3  F   -0.489603
     4  Cl  -0.457542
     5  C   -1.003581
     6  H    1.622973
     7  C    3.089004
     8  N   -2.934065
     9  N    3.680491
    10  O   -2.754269
    11  O   -2.679040
    12  N    5.687929
    13  O   -2.965136
    14  O   -3.275782
 Sum of Mulliken charges =  -1.00000

 Dipole moment (field-independent basis, Debye):
    X=             -6.2924    Y=              0.1267    Z=              2.3438  Tot=              6.7159

 Test job not archived.
 1\1\GINC-SE029\SP\RHF\Aug-CC-pVDZ\C3H2Cl1F1N3O4(1-)\OHZDE\09-Apr-2025\
 0\\#t hf aug-cc-pvdz iop(5/13=1,5/36=2,99/5=2) pseudo=read geom=check
 guess=(read,tcheck) scf=(maxcycle=1)\\title\\-1,1\C,0,0.78314757,-0.05
 729167,0.06378102\H,0,1.65124916,1.88078488,-0.32379892\F,0,-1.1749783
 3,-0.02259146,-0.22154658\Cl,0,2.83648944,-0.22250528,0.3358842\C,0,0.
 6975903,1.44819275,-0.03209309\H,0,0.75546656,-0.55149255,-0.89257834\
 C,0,0.35305908,-0.82435104,1.20686663\N,0,0.14113365,-1.53794003,2.116
 81328\N,0,0.32580576,2.17416113,1.22076546\O,0,0.76939059,3.32194719,1

 Normal termination of Gaussian 16 at Wed Apr  9 02:40:47 2025.
