 Gaussian 16, Revision C.01,

 ----------------------------------------------------------------------
 #t hf aug-cc-pvdz symm=none int=(grid=ultrafine) guess=(read,tcheck) s
 table=(opt,rrhf)
 ----------------------------------------------------------------------
 -----
 title
 -----
 Symbolic Z-matrix:
 Charge = -1 Multiplicity = 1

 SCF Done:  E(RHF) =  -825.755704660     A.U. after   14 cycles
 Normal termination of Gaussian 16 at Wed Apr  9 02:55:39 2025.
 Gaussian 16:  ES64L-G16RevC.01  3-Jul-2019

 ----------------------------------------------------------------------
 #t hf aug-cc-pvdz iop(5/13=1,5/36=2,99/5=2) pseudo=read geom=check gue
 ss=(read,tcheck) scf=(maxcycle=1)
 ----------------------------------------------------------------------
 -----
 title
 -----
 Structure from the checkpoint file:  "E2SN2_354_mol1.chk"
 Charge = -1 Multiplicity = 1

                         Standard orientation:
 ---------------------------------------------------------------------
 Center     Atomic      Atomic             Coordinates (Angstroms)
 Number     Number       Type             X           Y           Z
 ---------------------------------------------------------------------
      1          6           0       -0.017509   -0.486047    0.028305
      2          1           0        0.210045    1.271710   -1.104355
      3          9           0       -2.047162   -1.108135    0.460493
      4         17           0        2.283091    0.186490   -0.223693
      5          6           0       -0.494912    0.928410   -0.341994
      6          6           0        0.030298   -1.480397   -1.091325
      7          1           0       -0.940396   -1.972987   -1.084018
      8          1           0        0.189741   -0.977322   -2.044528
      9          1           0        0.832303   -2.200376   -0.928121
     10          6           0        0.260168   -0.935894    1.437758
     11          1           0        1.100377   -1.629183    1.445761
     12          1           0        0.490113   -0.091958    2.082086
     13          1           0       -0.650541   -1.420155    1.780318
     14          7           0       -0.426389    1.795816    0.846069
     15          1           0       -0.755280    2.712729    0.558796
     16          1           0        0.562029    1.902305    1.064505
     17          7           0       -1.797759    0.901435   -0.972448
     18          1           0       -2.141832    1.851195   -1.054711
     19          1           0       -2.383885    0.319739   -0.369201
 ---------------------------------------------------------------------

 SCF Done:  E(RHF) =  -827.685078150     A.U. after    2 cycles

 The electronic state is 1-A.
 Alpha  occ. eigenvalues --  -99.64107 -28.91944 -15.59361 -15.56908 -11.38621
 Alpha  occ. eigenvalues --  -11.30872 -11.24296 -11.22293 -10.21096  -9.41219
 Alpha  occ. eigenvalues --   -9.40784  -9.40719  -1.27950  -1.09300  -1.08079
 Alpha  occ. eigenvalues --   -0.99958  -0.88940  -0.80650  -0.63486  -0.55759
 Alpha  occ. eigenvalues --   -0.53271  -0.49801  -0.48095  -0.45625  -0.42181
 Alpha  occ. eigenvalues --   -0.40460  -0.39629  -0.33999  -0.30842  -0.29825
 Alpha  occ. eigenvalues --   -0.28605  -0.28067  -0.26627  -0.23430  -0.20256
 Alpha  occ. eigenvalues --   -0.02975  -0.00418   0.01129
 Alpha virt. eigenvalues --    0.13296   0.14562   0.15022   0.15513   0.15929
 Alpha virt. eigenvalues --    0.16389   0.17062   0.17432   0.17839   0.18321
 Alpha virt. eigenvalues --    0.19350   0.22576   0.23469   0.24084   0.24750

 Mulliken charges:
               1
     1  C    6.527631
     2  H    1.497874
     3  F   -0.994479
     4  Cl  -0.912405
     5  C    1.357739
     6  C   -5.506096
     7  H    1.109096
     8  H    1.179241
     9  H    1.072606
    10  C   -5.321099
    11  H    1.182793
    12  H    1.174717
    13  H    1.024885
    14  N   -3.151278
    15  H    0.475110
    16  H    0.631936
    17  N   -3.145083
    18  H    0.512629
    19  H    0.284180
 Sum of Mulliken charges =  -1.00000

 Dipole moment (field-independent basis, Debye):
    X=             -3.8739    Y=              0.8298    Z=              0.5778  Tot=              4.0037

 Test job not archived.
 1\1\GINC-SE208\SP\RHF\Aug-CC-pVDZ\C4H11Cl1F1N2(1-)\OHZDE\09-Apr-2025\0
 \\#t hf aug-cc-pvdz iop(5/13=1,5/36=2,99/5=2) pseudo=read geom=check g
 uess=(read,tcheck) scf=(maxcycle=1)\\title\\-1,1\C,0,0.66656712,-0.021
 09726,-0.00326658\H,0,1.5713306,1.80130395,-0.53681035\F,0,-1.47347995
 ,-0.16926714,-0.30578097\Cl,0,3.01005708,0.07054396,0.5519169\C,0,0.60
 819999,1.51239613,-0.10678226\C,0,0.88182151,-0.76130816,-1.28792308\H
 ,0,-0.11463019,-0.97883706,-1.66833004\H,0,1.42957577,-0.1439112,-1.99
 918137\H,0,1.43866977,-1.68124416,-1.1094427\C,0,0.38876224,-0.7879859

 Normal termination of Gaussian 16 at Wed Apr  9 02:55:48 2025.
