 Gaussian 16, Revision C.01,

 ----------------------------------------------------------------------
 #t hf aug-cc-pvdz symm=none int=(grid=ultrafine) guess=(read,tcheck) s
 table=(opt,rrhf)
 ----------------------------------------------------------------------
 -----
 title
 -----
 Symbolic Z-matrix:
 Charge = -1 Multiplicity = 1

 SCF Done:  E(RHF) =  -567.935770778     A.U. after   16 cycles
 Normal termination of Gaussian 16 at Wed Apr  9 02:35:31 2025.
 Gaussian 16:  ES64L-G16RevC.01  3-Jul-2019

 ----------------------------------------------------------------------
 #t hf aug-cc-pvdz iop(5/13=1,5/36=2,99/5=2) pseudo=read geom=check gue
 ss=(read,tcheck) scf=(maxcycle=1)
 ----------------------------------------------------------------------
 -----
 title
 -----
 Structure from the checkpoint file:  "E2SN2_125_mol1.chk"
 Charge = -1 Multiplicity = 1

                         Standard orientation:
 ---------------------------------------------------------------------
 Center     Atomic      Atomic             Coordinates (Angstroms)
 Number     Number       Type             X           Y           Z
 ---------------------------------------------------------------------
      1          6           0       -0.160468   -0.531501   -0.133211
      2          6           0        0.786053    0.490296    0.464521
      3          9           0        0.038526   -0.713701   -1.483929
      4          1           0        0.589738   -0.404611    2.840775
      5          1           0        0.709860    0.208184    1.670753
      6          7           0       -0.163560   -1.799067    0.506994
      7          1           0       -0.029051   -1.607266    1.515372
      8          1           0        0.662649   -2.290931    0.183015
      9          7           0       -1.576279    0.049622   -0.013207
     10          8           0       -2.046497    0.618121   -0.995106
     11          8           0       -2.111730   -0.052129    1.082990
     12          6           0        0.465012    1.957033    0.209935
     13          1           0       -0.465977    2.223850    0.717754
     14          1           0        1.256464    2.578709    0.636175
     15          1           0        0.364417    2.197942   -0.852945
     16          6           0        2.130447    0.136937    0.086030
     17          7           0        3.240514   -0.154426   -0.182681
 ---------------------------------------------------------------------

 SCF Done:  E(RHF) =  -570.405031430     A.U. after    2 cycles

 The electronic state is 1-A.
 Alpha  occ. eigenvalues --  -29.16744 -20.98363 -20.98056 -15.86976 -15.63326
 Alpha  occ. eigenvalues --  -15.62393 -11.47973 -11.34231 -11.30633 -11.27055
 Alpha  occ. eigenvalues --   -1.87678  -1.57894  -1.33140  -1.18102  -1.08382
 Alpha  occ. eigenvalues --   -0.99637  -0.86420  -0.78907  -0.65806  -0.61600
 Alpha  occ. eigenvalues --   -0.57068  -0.52497  -0.51021  -0.48858  -0.46800
 Alpha  occ. eigenvalues --   -0.45165  -0.43837  -0.41400  -0.37701  -0.32624
 Alpha  occ. eigenvalues --   -0.30793  -0.28575  -0.26401  -0.24305  -0.21815
 Alpha  occ. eigenvalues --   -0.19935  -0.16124  -0.14207  -0.10325
 Alpha virt. eigenvalues --    0.13449   0.14770   0.15020   0.15931   0.18248
 Alpha virt. eigenvalues --    0.19288   0.19663   0.19800   0.21234   0.21991
 Alpha virt. eigenvalues --    0.22950   0.23976   0.24367   0.25342   0.26229

 Mulliken charges:
               1
     1  C    3.906921
     2  C   -1.421301
     3  F    0.508842
     4  H   -0.478762
     5  H    2.016341
     6  N   -3.653367
     7  H    0.622641
     8  H    0.523397
     9  N    3.830699
    10  O   -2.843075
    11  O   -2.947746
    12  C   -4.047364
    13  H    1.125782
    14  H    1.172133
    15  H    1.361186
    16  C    2.048762
    17  N   -2.725091
 Sum of Mulliken charges =  -1.00000

 Dipole moment (field-independent basis, Debye):
    X=             -2.8506    Y=              1.3684    Z=             -9.1356  Tot=              9.6674

 Test job not archived.
 1\1\GINC-SE250\SP\RHF\Aug-CC-pVDZ\C4H7F1N3O2(1-)\OHZDE\09-Apr-2025\0\\
 #t hf aug-cc-pvdz iop(5/13=1,5/36=2,99/5=2) pseudo=read geom=check gue
 ss=(read,tcheck) scf=(maxcycle=1)\\title\\-1,1\C,0,-0.05721212,-0.1199
 0265,-0.35711479\C,0,-0.09296099,-0.01699322,1.15463484\F,0,1.21496166
 ,-0.31919796,-0.84608276\H,0,-2.5452254,-0.67498532,1.35319926\H,0,-1.
 29326767,-0.23819031,1.37985574\N,0,-0.92385986,-1.09578222,-0.9167356
 \H,0,-1.77289215,-1.09342039,-0.32441391\H,0,-0.47160664,-1.99490994,-
 0.78808741\N,0,-0.48624525,1.24781044,-0.90658518\O,0,0.39725428,2.034

 Normal termination of Gaussian 16 at Wed Apr  9 02:35:40 2025.
