 Gaussian 16, Revision C.01,

 ----------------------------------------------------------------------
 #t hf aug-cc-pvdz symm=none int=(grid=ultrafine) guess=(read,tcheck) s
 table=(opt,rrhf)
 ----------------------------------------------------------------------
 -----
 title
 -----
 Symbolic Z-matrix:
 Charge = -1 Multiplicity = 1

 SCF Done:  E(RHF) =  -987.894217051     A.U. after   16 cycles
 Normal termination of Gaussian 16 at Wed Apr  9 02:41:58 2025.
 Gaussian 16:  ES64L-G16RevC.01  3-Jul-2019

 ----------------------------------------------------------------------
 #t hf aug-cc-pvdz iop(5/13=1,5/36=2,99/5=2) pseudo=read geom=check gue
 ss=(read,tcheck) scf=(maxcycle=1)
 ----------------------------------------------------------------------
 -----
 title
 -----
 Structure from the checkpoint file:  "E2SN2_203_mol1.chk"
 Charge = -1 Multiplicity = 1

                         Standard orientation:
 ---------------------------------------------------------------------
 Center     Atomic      Atomic             Coordinates (Angstroms)
 Number     Number       Type             X           Y           Z
 ---------------------------------------------------------------------
      1          6           0        0.787075    0.219788    0.531531
      2          1           0        0.137915   -0.388115   -1.445819
      3          9           0       -0.763313    0.622105    1.678591
      4         17           0        2.495457   -0.534923   -0.579700
      5          6           0       -0.293790   -0.020969   -0.510335
      6          1           0        0.930134   -0.555682    1.261839
      7          7           0        1.233616    1.560343    0.671211
      8          1           0        2.192374    1.561913    0.988888
      9          1           0        0.609892    1.944772    1.373395
     10          6           0       -1.074523    1.179443   -0.792234
     11          7           0       -1.665249    2.132302   -1.138596
     12          7           0       -1.205662   -1.136624   -0.064541
     13          8           0       -2.397502   -1.047621   -0.332863
     14          8           0       -0.661844   -2.106111    0.447736
 ---------------------------------------------------------------------

 SCF Done:  E(RHF) =  -990.375140423     A.U. after    2 cycles

 The electronic state is 1-A.
 Alpha  occ. eigenvalues --  -99.69160 -28.95941 -20.98128 -20.97848 -15.88235
 Alpha  occ. eigenvalues --  -15.64770 -15.62597 -11.45792 -11.38756 -11.32869
 Alpha  occ. eigenvalues --  -10.26221  -9.46315  -9.45771  -9.45655  -1.87917
 Alpha  occ. eigenvalues --   -1.57731  -1.28974  -1.18862  -1.10699  -1.06933
 Alpha  occ. eigenvalues --   -0.85262  -0.78521  -0.66205  -0.61534  -0.58526
 Alpha  occ. eigenvalues --   -0.55517  -0.51707  -0.48300  -0.44943  -0.41492
 Alpha  occ. eigenvalues --   -0.37829  -0.34968  -0.33454  -0.32641  -0.32286
 Alpha  occ. eigenvalues --   -0.30636  -0.27129  -0.23587  -0.20073  -0.19341
 Alpha  occ. eigenvalues --   -0.06011  -0.04347  -0.03526
 Alpha virt. eigenvalues --    0.14107   0.14861   0.16061   0.17599   0.19643
 Alpha virt. eigenvalues --    0.20286   0.22515   0.23037   0.23940   0.24595
 Alpha virt. eigenvalues --    0.25163   0.25635   0.25968   0.27384   0.27901

 Mulliken charges:
               1
     1  C    1.709891
     2  H    1.828199
     3  F   -0.579890
     4  Cl  -0.564893
     5  C   -4.482380
     6  H    1.680229
     7  N   -3.000350
     8  H    0.612603
     9  H    0.518113
    10  C    4.872831
    11  N   -3.077118
    12  N    5.731832
    13  O   -3.105565
    14  O   -3.143501
 Sum of Mulliken charges =  -1.00000

 Dipole moment (field-independent basis, Debye):
    X=             -2.9762    Y=             -0.2208    Z=              3.5093  Tot=              4.6067

 Test job not archived.
 1\1\GINC-SE051\SP\RHF\Aug-CC-pVDZ\C3H4Cl1F1N3O2(1-)\OHZDE\09-Apr-2025\
 0\\#t hf aug-cc-pvdz iop(5/13=1,5/36=2,99/5=2) pseudo=read geom=check
 guess=(read,tcheck) scf=(maxcycle=1)\\title\\-1,1\C,0,0.78116161,-0.07
 389647,0.0348922\H,0,1.70394877,1.88548092,-0.06595242\F,0,-1.18249646
 ,0.08343048,0.05950167\Cl,0,2.91054065,-0.30607446,-0.33229731\C,0,0.7
 0727422,1.44472152,0.02713471\H,0,0.57507521,-0.56859932,-0.89675558\N
 ,0,0.74367475,-0.69538111,1.31095986\H,0,1.24403885,-1.57182606,1.2707
 2807\H,0,-0.24739702,-0.84153012,1.47312189\C,0,0.06736155,1.97847799,

 Normal termination of Gaussian 16 at Wed Apr  9 02:42:05 2025.
