 Gaussian 16, Revision C.01,

 ----------------------------------------------------------------------
 #t hf aug-cc-pvdz symm=none int=(grid=ultrafine) guess=(read,tcheck) s
 table=(opt,rrhf)
 ----------------------------------------------------------------------
 -----
 title
 -----
 Symbolic Z-matrix:
 Charge = -1 Multiplicity = 1

 SCF Done:  E(RHF) =  -611.812158156     A.U. after   16 cycles
 Normal termination of Gaussian 16 at Wed Apr  9 02:40:17 2025.
 Gaussian 16:  ES64L-G16RevC.01  3-Jul-2019

 ----------------------------------------------------------------------
 #t hf aug-cc-pvdz iop(5/13=1,5/36=2,99/5=2) pseudo=read geom=check gue
 ss=(read,tcheck) scf=(maxcycle=1)
 ----------------------------------------------------------------------
 -----
 title
 -----
 Structure from the checkpoint file:  "E2SN2_186_mol1.chk"
 Charge = -1 Multiplicity = 1

                         Standard orientation:
 ---------------------------------------------------------------------
 Center     Atomic      Atomic             Coordinates (Angstroms)
 Number     Number       Type             X           Y           Z
 ---------------------------------------------------------------------
      1          6           0       -1.106424    0.230591    0.375948
      2          1           0       -0.116879    0.427767   -1.501251
      3          9           0       -0.168357   -0.658803    1.661219
      4          9           0       -1.874165    1.364911   -0.737749
      5          6           0        0.162938    0.327460   -0.452192
      6          1           0       -1.265986    0.953906    1.152221
      7          6           0       -2.101997   -0.866354    0.115769
      8          1           0       -3.079019   -0.523546    0.461100
      9          1           0       -2.181838   -1.052549   -0.954835
     10          1           0       -1.814524   -1.775861    0.635153
     11          7           0        1.017219   -0.917446   -0.401136
     12          8           0        2.167252   -0.844761    0.010873
     13          8           0        0.497077   -1.919397   -0.880594
     14          6           0        0.953951    1.484724   -0.049848
     15          7           0        1.564995    2.441739    0.246290
 ---------------------------------------------------------------------

 SCF Done:  E(RHF) =  -614.328208548     A.U. after    2 cycles

 The electronic state is 1-A.
 Alpha  occ. eigenvalues --  -28.98551 -28.96034 -20.97192 -20.96578 -15.87055
 Alpha  occ. eigenvalues --  -15.64891 -11.44470 -11.37790 -11.32608 -11.25416
 Alpha  occ. eigenvalues --   -1.86727  -1.56674  -1.22633  -1.13649  -1.01098
 Alpha  occ. eigenvalues --   -0.83614  -0.75211  -0.64983  -0.61506  -0.56814
 Alpha  occ. eigenvalues --   -0.51477  -0.47660  -0.46430  -0.44401  -0.40562
 Alpha  occ. eigenvalues --   -0.38419  -0.37073  -0.33213  -0.32175  -0.30944
 Alpha  occ. eigenvalues --   -0.23476  -0.19316  -0.18728  -0.13773  -0.05446
 Alpha  occ. eigenvalues --   -0.04864  -0.03365  -0.02794   0.04001
 Alpha virt. eigenvalues --    0.14180   0.14903   0.15613   0.16140   0.17074
 Alpha virt. eigenvalues --    0.19245   0.21967   0.22769   0.23467   0.23663
 Alpha virt. eigenvalues --    0.24189   0.25371   0.26802   0.27462   0.27952

 Mulliken charges:
               1
     1  C    2.230575
     2  H    1.806797
     3  F   -0.775686
     4  F   -0.469282
     5  C   -4.480003
     6  H    1.486768
     7  C   -4.643305
     8  H    1.005828
     9  H    1.303842
    10  H    1.089934
    11  N    5.763969
    12  O   -2.982790
    13  O   -3.286166
    14  C    3.748630
    15  N   -2.799112
 Sum of Mulliken charges =  -1.00000

 Dipole moment (field-independent basis, Debye):
    X=             -0.3838    Y=             -1.8598    Z=             -0.7956  Tot=              2.0589

 Test job not archived.
 1\1\GINC-SE457\SP\RHF\Aug-CC-pVDZ\C4H5F2N2O2(1-)\OHZDE\09-Apr-2025\0\\
 #t hf aug-cc-pvdz iop(5/13=1,5/36=2,99/5=2) pseudo=read geom=check gue
 ss=(read,tcheck) scf=(maxcycle=1)\\title\\-1,1\C,0,0.57930548,-0.05095
 404,0.05877823\H,0,1.63031794,1.73185136,0.56763079\F,0,-1.23722579,0.
 05891435,0.16392804\F,0,2.29365129,-0.06950812,-0.36205765\C,0,0.65468
 568,1.4623559,0.16217272\H,0,0.38457784,-0.48798422,-0.9016016\C,0,0.7
 5953326,-0.90646959,1.28260793\H,0,1.1094515,-1.88833572,0.95882098\H,
 0,1.52999596,-0.4817835,1.92546563\H,0,-0.17575618,-0.99839071,1.82702

 Normal termination of Gaussian 16 at Wed Apr  9 02:40:24 2025.
