 Gaussian 16, Revision C.01,

 ----------------------------------------------------------------------
 #t hf aug-cc-pvdz symm=none int=(grid=ultrafine) guess=(read,tcheck) s
 table=(opt,rrhf)
 ----------------------------------------------------------------------
 -----
 title
 -----
 Symbolic Z-matrix:
 Charge = -1 Multiplicity = 1

 SCF Done:  E(RHF) =  -479.357217335     A.U. after   15 cycles
 Normal termination of Gaussian 16 at Wed Apr  9 02:41:53 2025.
 Gaussian 16:  ES64L-G16RevC.01  3-Jul-2019

 ----------------------------------------------------------------------
 #t hf aug-cc-pvdz iop(5/13=1,5/36=2,99/5=2) pseudo=read geom=check gue
 ss=(read,tcheck) scf=(maxcycle=1)
 ----------------------------------------------------------------------
 -----
 title
 -----
 Structure from the checkpoint file:  "E2SN2_206_mol1.chk"
 Charge = -1 Multiplicity = 1

                         Standard orientation:
 ---------------------------------------------------------------------
 Center     Atomic      Atomic             Coordinates (Angstroms)
 Number     Number       Type             X           Y           Z
 ---------------------------------------------------------------------
      1          6           0        0.707587    0.164603   -0.397948
      2          1           0       -0.240733    0.925512    1.330240
      3          9           0        0.229295   -1.387200   -1.133356
      4          9           0        1.174500    1.864100    0.103346
      5          6           0       -0.428358    0.113112    0.629053
      6          1           0        0.559441    0.602109   -1.370757
      7          7           0        1.967514   -0.349684    0.059008
      8          1           0        2.604355    0.433326    0.028593
      9          1           0        2.235569   -1.075566   -0.589624
     10          7           0       -0.523389   -1.143524    1.370826
     11          1           0        0.382156   -1.230609    1.823640
     12          1           0       -0.507359   -1.846787    0.636198
     13          6           0       -1.709913    0.388222   -0.032847
     14          7           0       -2.741766    0.622393   -0.540942
 ---------------------------------------------------------------------

 SCF Done:  E(RHF) =  -481.358406111     A.U. after    2 cycles

 The electronic state is 1-A.
 Alpha  occ. eigenvalues --  -28.97258 -28.95180 -15.61663 -15.59513 -15.59291
 Alpha  occ. eigenvalues --  -11.41528 -11.33129 -11.27755  -1.28007  -1.18519
 Alpha  occ. eigenvalues --   -1.13385  -0.93978  -0.77444  -0.63888  -0.58634
 Alpha  occ. eigenvalues --   -0.52997  -0.46612  -0.45444  -0.43397  -0.36911
 Alpha  occ. eigenvalues --   -0.36133  -0.32062  -0.29103  -0.27930  -0.25429
 Alpha  occ. eigenvalues --   -0.23075  -0.13084  -0.04771  -0.04518  -0.02431
 Alpha  occ. eigenvalues --   -0.01704   0.04220
 Alpha virt. eigenvalues --    0.14214   0.15346   0.16543   0.16731   0.16882
 Alpha virt. eigenvalues --    0.17896   0.20334   0.23517   0.23869   0.24923
 Alpha virt. eigenvalues --    0.25699   0.27225   0.27833   0.28037   0.29872

 Mulliken charges:
               1
     1  C    1.188972
     2  H    1.553983
     3  F   -0.549721
     4  F   -0.648831
     5  C    0.387489
     6  H    1.592592
     7  N   -3.349378
     8  H    0.461618
     9  H    0.562263
    10  N   -2.762962
    11  H    0.582320
    12  H    0.421952
    13  C    2.211413
    14  N   -2.651712
 Sum of Mulliken charges =  -1.00000

 Dipole moment (field-independent basis, Debye):
    X=              2.3511    Y=             -1.8101    Z=              0.3161  Tot=              2.9839

 Test job not archived.
 1\1\GINC-SE029\SP\RHF\Aug-CC-pVDZ\C3H6F2N3(1-)\OHZDE\09-Apr-2025\0\\#t
  hf aug-cc-pvdz iop(5/13=1,5/36=2,99/5=2) pseudo=read geom=check guess
 =(read,tcheck) scf=(maxcycle=1)\\title\\-1,1\C,0,0.6859667,0.02502293,
 0.07026225\H,0,1.73793621,1.85501702,-0.02675414\F,0,-1.07266338,-0.04
 086181,0.35409108\F,0,2.44424843,-0.07445751,-0.43584293\C,0,0.6907206
 2,1.55513241,-0.01033542\H,0,0.50648418,-0.57813555,-0.80363868\N,0,0.
 99480956,-0.51923402,1.36220441\H,0,1.84544314,-1.04814718,1.23464947\
 H,0,0.21953523,-1.11327357,1.61823165\N,0,0.02068273,2.22654974,1.1026

 Normal termination of Gaussian 16 at Wed Apr  9 02:41:59 2025.
