 Gaussian 16, Revision C.01,

 ----------------------------------------------------------------------
 #t hf aug-cc-pvdz symm=none int=(grid=ultrafine) guess=(read,tcheck) s
 table=(opt,rrhf)
 ----------------------------------------------------------------------
 -----
 title
 -----
 Symbolic Z-matrix:
 Charge = -1 Multiplicity = 1

 SCF Done:  E(RHF) =  -528.913805886     A.U. after   17 cycles
 Normal termination of Gaussian 16 at Wed Apr  9 02:35:57 2025.
 Gaussian 16:  ES64L-G16RevC.01  3-Jul-2019

 ----------------------------------------------------------------------
 #t hf aug-cc-pvdz iop(5/13=1,5/36=2,99/5=2) pseudo=read geom=check gue
 ss=(read,tcheck) scf=(maxcycle=1)
 ----------------------------------------------------------------------
 -----
 title
 -----
 Structure from the checkpoint file:  "E2SN2_135_mol2.chk"
 Charge = -1 Multiplicity = 1

                         Standard orientation:
 ---------------------------------------------------------------------
 Center     Atomic      Atomic             Coordinates (Angstroms)
 Number     Number       Type             X           Y           Z
 ---------------------------------------------------------------------
      1          6           0       -0.424925    0.549673    0.176397
      2          6           0        0.815169    0.853101   -0.671116
      3          9           0       -0.057670    0.594406    1.486644
      4          1           0        0.972757    1.928354   -0.545576
      5          1           0        0.562854    0.691183   -1.720615
      6          7           0       -1.531355    1.375611   -0.050221
      7          1           0       -1.933424    1.131878   -0.949301
      8          1           0       -1.134091    2.375584   -0.159652
      9          7           0       -0.836613   -0.913696   -0.095751
     10          8           0       -1.213391   -1.148658   -1.243608
     11          8           0       -0.764414   -1.730520    0.812822
     12          6           0        1.982459    0.059905   -0.309856
     13          7           0        2.929060   -0.578025   -0.032575
     14          1           0       -0.290488    3.593468   -0.481089
 ---------------------------------------------------------------------

 SCF Done:  E(RHF) =  -531.167890467     A.U. after    2 cycles

 The electronic state is 1-A.
 Alpha  occ. eigenvalues --  -29.17089 -21.00277 -20.99394 -15.88285 -15.66109
 Alpha  occ. eigenvalues --  -15.60763 -11.45859 -11.36063 -11.31469  -1.89025
 Alpha  occ. eigenvalues --   -1.59386  -1.33007  -1.19850  -1.06850  -0.96887
 Alpha  occ. eigenvalues --   -0.82027  -0.65135  -0.63804  -0.60306  -0.54022
 Alpha  occ. eigenvalues --   -0.52867  -0.48592  -0.48006  -0.46849  -0.41579
 Alpha  occ. eigenvalues --   -0.34114  -0.32846  -0.31081  -0.26493  -0.24356
 Alpha  occ. eigenvalues --   -0.22902  -0.21850  -0.16235  -0.15090  -0.12403
 Alpha virt. eigenvalues --    0.14306   0.15432   0.17111   0.18565   0.19767
 Alpha virt. eigenvalues --    0.20846   0.20955   0.21900   0.22756   0.23453
 Alpha virt. eigenvalues --    0.24660   0.24827   0.25318   0.26668   0.27121

 Mulliken charges:
               1
     1  C    4.427442
     2  C   -3.107334
     3  F    0.596336
     4  H    1.506631
     5  H    1.623598
     6  N   -3.625381
     7  H    0.450274
     8  H    0.640218
     9  N    3.574724
    10  O   -3.010939
    11  O   -2.710252
    12  C    2.115190
    13  N   -2.513248
    14  H   -0.967261
 Sum of Mulliken charges =  -1.00000

 Dipole moment (field-independent basis, Debye):
    X=             -0.3092    Y=             -8.7953    Z=              2.5025  Tot=              9.1496

 Test job not archived.
 1\1\GINC-SE398\SP\RHF\Aug-CC-pVDZ\C3H5F1N3O2(1-)\OHZDE\09-Apr-2025\0\\
 #t hf aug-cc-pvdz iop(5/13=1,5/36=2,99/5=2) pseudo=read geom=check gue
 ss=(read,tcheck) scf=(maxcycle=1)\\title\\-1,1\C,0,-0.185929,0.014104,
 -1.45975\C,0,0.003676,0.058245,0.060211\F,0,-0.099157,1.288985,-1.9296
 13\H,0,1.072798,0.247148,0.194584\H,0,-0.193982,-0.937642,0.460798\N,0
 ,0.690828,-0.824911,-2.156218\H,0,0.427559,-1.787056,-1.970812\H,0,1.6
 59608,-0.684318,-1.696392\N,0,-1.634425,-0.441012,-1.742111\O,0,-1.902
 465,-1.589331,-1.389603\O,0,-2.409094,0.339786,-2.278918\C,0,-0.83744,

 Normal termination of Gaussian 16 at Wed Apr  9 02:36:03 2025.
