 Gaussian 16, Revision C.01,

 ----------------------------------------------------------------------
 #t hf aug-cc-pvdz symm=none int=(grid=ultrafine) guess=(read,tcheck) s
 table=(opt,rrhf)
 ----------------------------------------------------------------------
 -----
 title
 -----
 Symbolic Z-matrix:
 Charge = -1 Multiplicity = 1

 SCF Done:  E(RHF) =  -1292.94449723     A.U. after   16 cycles
 Normal termination of Gaussian 16 at Wed Apr  9 02:38:44 2025.
 Gaussian 16:  ES64L-G16RevC.01  3-Jul-2019

 ----------------------------------------------------------------------
 #t hf aug-cc-pvdz iop(5/13=1,5/36=2,99/5=2) pseudo=read geom=check gue
 ss=(read,tcheck) scf=(maxcycle=1)
 ----------------------------------------------------------------------
 -----
 title
 -----
 Structure from the checkpoint file:  "E2SN2_170_mol1.chk"
 Charge = -1 Multiplicity = 1

                         Standard orientation:
 ---------------------------------------------------------------------
 Center     Atomic      Atomic             Coordinates (Angstroms)
 Number     Number       Type             X           Y           Z
 ---------------------------------------------------------------------
      1          6           0        0.067649    0.000848   -0.205150
      2          1           0       -0.851639    0.906355    1.505642
      3         17           0        0.032004   -2.281696   -0.436618
      4         17           0        0.124711    2.281989   -0.438210
      5          6           0       -0.976052    0.021088    0.883964
      6          1           0       -0.102236    0.004483   -1.262363
      7          1           0       -0.880975   -0.864585    1.510141
      8          7           0        1.473139   -0.028143    0.235215
      9          8           0        1.668430   -0.028213    1.448994
     10          8           0        2.333207   -0.049061   -0.633865
     11          6           0       -2.313101    0.041578    0.300314
     12          7           0       -3.403623    0.054698   -0.131951
 ---------------------------------------------------------------------

 SCF Done:  E(RHF) =  -1295.09464905     A.U. after    2 cycles

 The electronic state is 1-A.
 Alpha  occ. eigenvalues --  -99.69248 -99.69208 -20.98593 -20.98341 -15.89469
 Alpha  occ. eigenvalues --  -15.65902 -11.45653 -11.37249 -11.32534 -10.26232
 Alpha  occ. eigenvalues --  -10.26167  -9.46272  -9.46227  -9.45786  -9.45713
 Alpha  occ. eigenvalues --   -9.45694  -9.45636  -1.88376  -1.58217  -1.22995
 Alpha  occ. eigenvalues --   -1.15641  -1.06488  -1.03963  -0.97962  -0.74114
 Alpha  occ. eigenvalues --   -0.64289  -0.59561  -0.57741  -0.53637  -0.53619
 Alpha  occ. eigenvalues --   -0.46625  -0.41184  -0.38247  -0.34360  -0.34260
 Alpha  occ. eigenvalues --   -0.33611  -0.32761  -0.32215  -0.30901  -0.29898
 Alpha  occ. eigenvalues --   -0.25166  -0.20349  -0.19939
 Alpha virt. eigenvalues --    0.14402   0.15450   0.16283   0.16594   0.18795
 Alpha virt. eigenvalues --    0.19865   0.20905   0.21754   0.23293   0.24326
 Alpha virt. eigenvalues --    0.24503   0.26329   0.27146   0.27189   0.27463

 Mulliken charges:
               1
     1  C   -1.372502
     2  H    1.415728
     3  Cl  -0.553007
     4  Cl  -0.553807
     5  C   -1.787536
     6  H    1.872159
     7  H    1.415868
     8  N    5.109244
     9  O   -2.964394
    10  O   -3.208652
    11  C    2.211468
    12  N   -2.584569
 Sum of Mulliken charges =  -1.00000

 Dipole moment (field-independent basis, Debye):
    X=              1.3657    Y=             -0.0150    Z=              2.5638  Tot=              2.9049

 Test job not archived.
 1\1\GINC-SE332\SP\RHF\Aug-CC-pVDZ\C3H3Cl2N2O2(1-)\OHZDE\09-Apr-2025\0\
 \#t hf aug-cc-pvdz iop(5/13=1,5/36=2,99/5=2) pseudo=read geom=check gu
 ess=(read,tcheck) scf=(maxcycle=1)\\title\\-1,1\C,0,0.60150494,-0.0326
 9298,0.012893\H,0,1.36426821,1.90664929,0.51187833\Cl,0,-1.6608017,-0.
 41123778,0.0723121\Cl,0,2.86344563,0.00747771,-0.36550667\C,0,0.467386
 31,1.46858243,0.07672319\H,0,0.57403257,-0.6466765,-0.86394361\H,0,-0.
 39033472,1.74214682,0.68912107\N,0,0.78963279,-0.72854355,1.29763578\O
 ,0,0.8252653,-0.0233719,2.30404599\O,0,0.89610212,-1.94637535,1.265919

 Normal termination of Gaussian 16 at Wed Apr  9 02:38:50 2025.
