 Gaussian 16, Revision C.01,

 ----------------------------------------------------------------------
 #t hf aug-cc-pvdz symm=none int=(grid=ultrafine) guess=(read,tcheck) s
 table=(opt,rrhf)
 ----------------------------------------------------------------------
 -----
 title
 -----
 Symbolic Z-matrix:
 Charge = -1 Multiplicity = 1

 SCF Done:  E(RHF) =  -931.247012711     A.U. after   15 cycles
 Normal termination of Gaussian 16 at Wed Apr  9 02:52:53 2025.
 Gaussian 16:  ES64L-G16RevC.01  3-Jul-2019

 ----------------------------------------------------------------------
 #t hf aug-cc-pvdz iop(5/13=1,5/36=2,99/5=2) pseudo=read geom=check gue
 ss=(read,tcheck) scf=(maxcycle=1)
 ----------------------------------------------------------------------
 -----
 title
 -----
 Structure from the checkpoint file:  "E2SN2_313_mol2.chk"
 Charge = -1 Multiplicity = 1

                         Standard orientation:
 ---------------------------------------------------------------------
 Center     Atomic      Atomic             Coordinates (Angstroms)
 Number     Number       Type             X           Y           Z
 ---------------------------------------------------------------------
      1          6           0        0.691109   -0.454018   -0.473058
      2          6           0        0.353731    0.587216    0.593473
      3          9           0        2.000153   -0.193994   -0.921874
      4          1           0       -0.687166    0.401386    0.893071
      5          6           0        0.783417   -1.804631    0.143558
      6          7           0        0.844334   -2.915183    0.520995
      7          7           0       -0.206423   -0.349511   -1.556723
      8          1           0       -1.167340   -0.256024   -1.199289
      9          1           0       -0.150647   -1.163787   -2.155219
     10          6           0        0.430861    1.930683   -0.011150
     11          7           0        0.570323    3.036984   -0.380932
     12          7           0        1.248142    0.429130    1.730937
     13          1           0        2.163266    0.795714    1.498333
     14          1           0        0.885598    0.952011    2.517620
     15         17           0       -2.929084   -0.114635    0.177969
 ---------------------------------------------------------------------

 SCF Done:  E(RHF) =  -933.525560618     A.U. after    2 cycles

 The electronic state is 1-A.
 Alpha  occ. eigenvalues --  -99.62704 -29.16876 -15.66840 -15.66119 -15.65777
 Alpha  occ. eigenvalues --  -15.63519 -11.46884 -11.38702 -11.34652 -11.32227
 Alpha  occ. eigenvalues --  -10.19410  -9.39473  -9.39156  -9.38957  -1.37323
 Alpha  occ. eigenvalues --   -1.25155  -1.18481  -1.17559  -1.01658  -0.98749
 Alpha  occ. eigenvalues --   -0.90525  -0.72337  -0.63711  -0.61177  -0.59387
 Alpha  occ. eigenvalues --   -0.52782  -0.47906  -0.45487  -0.43843  -0.42169
 Alpha  occ. eigenvalues --   -0.36534  -0.35049  -0.33557  -0.32685  -0.29148
 Alpha  occ. eigenvalues --   -0.27922  -0.27619  -0.26515  -0.26427  -0.24228
 Alpha  occ. eigenvalues --   -0.17310  -0.16916
 Alpha virt. eigenvalues --    0.12438   0.14202   0.14739   0.17630   0.18107
 Alpha virt. eigenvalues --    0.18723   0.19762   0.20218   0.21108   0.22076
 Alpha virt. eigenvalues --    0.22754   0.23682   0.24859   0.24961   0.25525

 Mulliken charges:
               1
     1  C    4.691701
     2  C   -1.700941
     3  F    0.050428
     4  H    1.633474
     5  C    1.420618
     6  N   -2.582759
     7  N   -3.495209
     8  H    0.508836
     9  H    0.580164
    10  C    3.303926
    11  N   -2.826130
    12  N   -2.823554
    13  H    0.609764
    14  H    0.576119
    15  Cl  -0.946436
 Sum of Mulliken charges =  -1.00000

 Dipole moment (field-independent basis, Debye):
    X=             10.5716    Y=              0.8635    Z=             -0.7266  Tot=             10.6317

 Test job not archived.
 1\1\GINC-SE015\SP\RHF\Aug-CC-pVDZ\C4H5Cl1F1N4(1-)\OHZDE\09-Apr-2025\0\
 \#t hf aug-cc-pvdz iop(5/13=1,5/36=2,99/5=2) pseudo=read geom=check gu
 ess=(read,tcheck) scf=(maxcycle=1)\\title\\-1,1\C,0,0.02259,0.037541,0
 .006812\C,0,-0.524784,-0.09288,-1.414051\F,0,1.418508,-0.135281,-0.057
 922\H,0,-1.617743,-0.007973,-1.336655\C,0,-0.145333,1.433646,0.492181\
 N,0,-0.262381,2.493333,0.984988\N,0,-0.535867,-0.957316,0.836992\H,0,-
 1.549668,-1.016618,0.668021\H,0,-0.371859,-0.750161,1.813999\C,0,-0.19
 7989,-1.436178,-1.929004\N,0,0.109,-2.440704,-2.4551\N,0,0.012485,0.97

 Normal termination of Gaussian 16 at Wed Apr  9 02:53:00 2025.
