 Gaussian 16, Revision C.01,

 ----------------------------------------------------------------------
 #t hf aug-cc-pvdz symm=none int=(grid=ultrafine) guess=(read,tcheck) s
 table=(opt,rrhf)
 ----------------------------------------------------------------------
 -----
 title
 -----
 Symbolic Z-matrix:
 Charge = -1 Multiplicity = 1

 SCF Done:  E(RHF) =  -931.211296057     A.U. after   16 cycles
 Normal termination of Gaussian 16 at Wed Apr  9 02:59:48 2025.
 Gaussian 16:  ES64L-G16RevC.01  3-Jul-2019

 ----------------------------------------------------------------------
 #t hf aug-cc-pvdz iop(5/13=1,5/36=2,99/5=2) pseudo=read geom=check gue
 ss=(read,tcheck) scf=(maxcycle=1)
 ----------------------------------------------------------------------
 -----
 title
 -----
 Structure from the checkpoint file:  "E2SN2_417_mol2.chk"
 Charge = -1 Multiplicity = 1

                         Standard orientation:
 ---------------------------------------------------------------------
 Center     Atomic      Atomic             Coordinates (Angstroms)
 Number     Number       Type             X           Y           Z
 ---------------------------------------------------------------------
      1          6           0       -0.553214    0.554117   -0.041028
      2          6           0        0.294274   -0.750570   -0.028020
      3         17           0        0.568566    1.980536    0.056097
      4          1           0       -0.552875   -1.500825   -0.100435
      5          7           0       -1.237394    0.555709   -1.298548
      6          1           0       -1.817037   -0.297319   -1.224022
      7          1           0       -1.862881    1.355827   -1.284191
      8          7           0       -1.460999    0.621750    1.071332
      9          1           0       -0.954975    0.583084    1.950468
     10          1           0       -2.015852   -0.239981    0.949612
     11          6           0        0.999333   -0.925735    1.234313
     12          7           0        1.540298   -1.069223    2.267598
     13          6           0        1.209003   -0.869027   -1.155482
     14          7           0        1.965695   -1.009982   -2.043062
     15          9           0       -2.201287   -1.701155   -0.142778
 ---------------------------------------------------------------------

 SCF Done:  E(RHF) =  -933.501039118     A.U. after    2 cycles

 The electronic state is 1-A.
 Alpha  occ. eigenvalues --  -99.75969 -28.94836 -15.66056 -15.65081 -15.61082
 Alpha  occ. eigenvalues --  -15.60619 -11.42009 -11.37834 -11.34907 -11.31624
 Alpha  occ. eigenvalues --  -10.33438  -9.53472  -9.52656  -9.52586  -1.37067
 Alpha  occ. eigenvalues --   -1.21346  -1.17412  -1.15560  -1.13402  -1.03919
 Alpha  occ. eigenvalues --   -0.76529  -0.66730  -0.65908  -0.57087  -0.54164
 Alpha  occ. eigenvalues --   -0.51342  -0.47324  -0.44488  -0.42661  -0.40648
 Alpha  occ. eigenvalues --   -0.37924  -0.36993  -0.35463  -0.33719  -0.33041
 Alpha  occ. eigenvalues --   -0.32125  -0.28775  -0.26086  -0.23870  -0.03679
 Alpha  occ. eigenvalues --   -0.03322  -0.01609
 Alpha virt. eigenvalues --    0.14260   0.15241   0.16586   0.17635   0.17922
 Alpha virt. eigenvalues --    0.18375   0.19607   0.20318   0.22086   0.23207
 Alpha virt. eigenvalues --    0.23963   0.24168   0.24682   0.24921   0.25687

 Mulliken charges:
               1
     1  C    6.373064
     2  C    0.051270
     3  Cl  -0.224133
     4  H    1.375357
     5  N   -4.019258
     6  H    0.308421
     7  H    0.593992
     8  N   -3.626258
     9  H    0.658681
    10  H    0.211887
    11  C    1.726914
    12  N   -2.609381
    13  C    1.459313
    14  N   -2.587257
    15  F   -0.692613
 Sum of Mulliken charges =  -1.00000

 Dipole moment (field-independent basis, Debye):
    X=             -1.3500    Y=              2.2151    Z=              0.7056  Tot=              2.6883

 Test job not archived.
 1\1\GINC-SE453\SP\RHF\Aug-CC-pVDZ\C4H5Cl1F1N4(1-)\OHZDE\09-Apr-2025\0\
 \#t hf aug-cc-pvdz iop(5/13=1,5/36=2,99/5=2) pseudo=read geom=check gu
 ess=(read,tcheck) scf=(maxcycle=1)\\title\\-1,1\C,0,-0.009419,0.003407
 ,0.0071\C,0,-0.540726,0.199878,-1.441943\Cl,0,1.807332,-0.012076,-0.03
 377\H,0,-1.651727,0.190255,-1.215287\N,0,-0.471593,1.140675,0.743631\H
 ,0,-1.497722,1.032872,0.675549\H,0,-0.208402,0.982189,1.711744\N,0,-0.
 454946,-1.235255,0.584348\H,0,-0.145152,-2.023797,0.025183\H,0,-1.4812
 63,-1.145163,0.522594\C,0,-0.204331,-0.928159,-2.299641\N,0,0.049204,-

 Normal termination of Gaussian 16 at Wed Apr  9 02:59:56 2025.
