 Gaussian 16, Revision C.01,

 ----------------------------------------------------------------------
 #t hf aug-cc-pvdz symm=none int=(grid=ultrafine) guess=(read,tcheck) s
 table=(opt,rrhf)
 ----------------------------------------------------------------------
 -----
 title
 -----
 Symbolic Z-matrix:
 Charge = -1 Multiplicity = 1

 SCF Done:  E(RHF) =  -417.131243086     A.U. after   16 cycles
 Normal termination of Gaussian 16 at Wed Apr  9 02:36:45 2025.
 Gaussian 16:  ES64L-G16RevC.01  3-Jul-2019

 ----------------------------------------------------------------------
 #t hf aug-cc-pvdz iop(5/13=1,5/36=2,99/5=2) pseudo=read geom=check gue
 ss=(read,tcheck) scf=(maxcycle=1)
 ----------------------------------------------------------------------
 -----
 title
 -----
 Structure from the checkpoint file:  "E2SN2_145_mol1.chk"
 Charge = -1 Multiplicity = 1

                         Standard orientation:
 ---------------------------------------------------------------------
 Center     Atomic      Atomic             Coordinates (Angstroms)
 Number     Number       Type             X           Y           Z
 ---------------------------------------------------------------------
      1          6           0       -0.565958   -0.324349    0.024283
      2          6           0        0.730275   -0.611095   -0.703215
      3          9           0       -1.590604   -0.960972   -0.736552
      4          1           0        0.851755   -2.995872    0.107427
      5          1           0        0.883492   -1.851521   -0.411910
      6          1           0        0.597697   -0.488171   -1.780016
      7          7           0       -0.474381   -0.821966    1.336883
      8          1           0       -0.088950   -1.771570    1.274502
      9          1           0       -1.376869   -0.821321    1.795087
     10          6           0       -0.985642    1.103639    0.034012
     11          7           0       -1.299571    2.235807    0.016685
     12          6           0        1.850145    0.139796   -0.211996
     13          7           0        2.813295    0.690340    0.187200
 ---------------------------------------------------------------------

 SCF Done:  E(RHF) =  -418.955940367     A.U. after    2 cycles

 The electronic state is 1-A.
 Alpha  occ. eigenvalues --  -29.13982 -15.66182 -15.62816 -15.61919 -11.43962
 Alpha  occ. eigenvalues --  -11.33467 -11.31767 -11.27249  -1.33187  -1.17953
 Alpha  occ. eigenvalues --   -1.16011  -1.02423  -0.89084  -0.69221  -0.62110
 Alpha  occ. eigenvalues --   -0.55226  -0.51411  -0.47991  -0.43584  -0.41165
 Alpha  occ. eigenvalues --   -0.37863  -0.34202  -0.33877  -0.31729  -0.30025
 Alpha  occ. eigenvalues --   -0.28546  -0.21741  -0.14841  -0.13670  -0.11433
 Alpha virt. eigenvalues --    0.13677   0.15119   0.17637   0.18401   0.19675
 Alpha virt. eigenvalues --    0.20036   0.20717   0.21472   0.22417   0.23216
 Alpha virt. eigenvalues --    0.24584   0.25174   0.25888   0.26084   0.27180

 Mulliken charges:
               1
     1  C    3.386856
     2  C   -3.004333
     3  F    0.246413
     4  H   -0.422836
     5  H    1.394221
     6  H    1.224587
     7  N   -3.181102
     8  H    0.604174
     9  H    0.521809
    10  C    1.056927
    11  N   -2.364698
    12  C    2.086877
    13  N   -2.548895
 Sum of Mulliken charges =  -1.00000

 Dipole moment (field-independent basis, Debye):
    X=             -6.3608    Y=              2.7105    Z=             -1.9219  Tot=              7.1764

 Test job not archived.
 1\1\GINC-SE149\SP\RHF\Aug-CC-pVDZ\C4H5F1N3(1-)\OHZDE\09-Apr-2025\0\\#t
  hf aug-cc-pvdz iop(5/13=1,5/36=2,99/5=2) pseudo=read geom=check guess
 =(read,tcheck) scf=(maxcycle=1)\\title\\-1,1\C,0,-0.21901157,-0.092159
 99,-0.3414746\C,0,0.05139466,0.15859682,1.12675497\F,0,0.54504798,-1.2
 453384,-0.68853488\H,0,-1.43329819,-1.72979394,1.89403835\H,0,-0.62247
 568,-0.80120662,1.64797091\H,0,1.11448121,0.03713819,1.34420203\N,0,-1
 .60082807,-0.27907606,-0.52741059\H,0,-1.91863372,-0.93123183,0.199148
 4\H,0,-1.80344236,-0.63385748,-1.45343008\C,0,0.29749697,0.95105632,-1

 Normal termination of Gaussian 16 at Wed Apr  9 02:36:49 2025.
