 Gaussian 16, Revision C.01,

 ----------------------------------------------------------------------
 #t hf aug-cc-pvdz symm=none int=(grid=ultrafine) guess=(read,tcheck) s
 table=(opt,rrhf)
 ----------------------------------------------------------------------
 -----
 title
 -----
 Symbolic Z-matrix:
 Charge = -1 Multiplicity = 1

 SCF Done:  E(RHF) =  -777.190975107     A.U. after   16 cycles
 Normal termination of Gaussian 16 at Wed Apr  9 02:46:53 2025.
 Gaussian 16:  ES64L-G16RevC.01  3-Jul-2019

 ----------------------------------------------------------------------
 #t hf aug-cc-pvdz iop(5/13=1,5/36=2,99/5=2) pseudo=read geom=check gue
 ss=(read,tcheck) scf=(maxcycle=1)
 ----------------------------------------------------------------------
 -----
 title
 -----
 Structure from the checkpoint file:  "E2SN2_260_mol2.chk"
 Charge = -1 Multiplicity = 1

                         Standard orientation:
 ---------------------------------------------------------------------
 Center     Atomic      Atomic             Coordinates (Angstroms)
 Number     Number       Type             X           Y           Z
 ---------------------------------------------------------------------
      1          6           0        0.562322   -0.360271    0.483000
      2          6           0       -0.871535    0.156827    0.719113
      3         17           0        0.669007   -1.321005   -1.025710
      4          1           0       -0.807968    0.670756    1.687271
      5          1           0        0.678204   -1.058723    1.382053
      6          6           0        1.554060    0.694683    0.467037
      7          7           0        2.354726    1.556322    0.504688
      8          7           0       -1.847654   -0.903429    0.874502
      9          1           0       -1.457778   -1.465474    1.649270
     10          1           0       -1.821829   -1.482674    0.041259
     11          6           0       -1.288720    1.127885   -0.302016
     12          7           0       -1.618753    1.894692   -1.128073
     13          1           0        0.081246   -1.754645    2.716591
 ---------------------------------------------------------------------

 SCF Done:  E(RHF) =  -778.909833209     A.U. after    2 cycles

 The electronic state is 1-A.
 Alpha  occ. eigenvalues --  -99.78735 -15.66238 -15.65852 -15.61855 -11.40381
 Alpha  occ. eigenvalues --  -11.36728 -11.33667 -11.31807 -10.36090  -9.56043
 Alpha  occ. eigenvalues --   -9.55366  -9.55203  -1.32353  -1.21693  -1.17805
 Alpha  occ. eigenvalues --   -1.16964  -0.99717  -0.85661  -0.65741  -0.62476
 Alpha  occ. eigenvalues --   -0.54401  -0.51874  -0.49382  -0.45312  -0.43056
 Alpha  occ. eigenvalues --   -0.40345  -0.39243  -0.38341  -0.33952  -0.32958
 Alpha  occ. eigenvalues --   -0.32192  -0.32101  -0.25670  -0.13174
 Alpha virt. eigenvalues --    0.14161   0.15411   0.16836   0.17277   0.18198
 Alpha virt. eigenvalues --    0.19284   0.19749   0.20192   0.21718   0.22632
 Alpha virt. eigenvalues --    0.23506   0.24030   0.24433   0.25102   0.25914

 Mulliken charges:
               1
     1  C   -1.901685
     2  C    0.919622
     3  Cl  -0.102038
     4  H    1.672973
     5  H    1.820476
     6  C    2.269796
     7  N   -2.490165
     8  N   -2.847362
     9  H    0.698487
    10  H    0.560340
    11  C    1.845961
    12  N   -2.413257
    13  H   -1.033147
 Sum of Mulliken charges =  -1.00000

 Dipole moment (field-independent basis, Debye):
    X=             -0.9438    Y=              1.9096    Z=             -5.7947  Tot=              6.1738

 Test job not archived.
 1\1\GINC-SE292\SP\RHF\Aug-CC-pVDZ\C4H5Cl1N3(1-)\OHZDE\09-Apr-2025\0\\#
 t hf aug-cc-pvdz iop(5/13=1,5/36=2,99/5=2) pseudo=read geom=check gues
 s=(read,tcheck) scf=(maxcycle=1)\\title\\-1,1\C,0,-0.117501,0.130316,0
 .023048\C,0,-0.588304,0.306087,-1.435217\Cl,0,1.572493,-0.460604,0.096
 06\H,0,-1.638133,0.611849,-1.335916\H,0,-0.822137,-0.70358,0.36607\C,0
 ,-0.253599,1.334398,0.815759\N,0,-0.414755,2.305614,1.460486\N,0,-0.58
 4932,-0.928873,-2.194136\H,0,-1.175867,-1.554234,-1.621525\H,0,0.35652
 3,-1.308203,-2.178103\C,0,0.146998,1.369703,-2.133611\N,0,0.74671,2.21

 Normal termination of Gaussian 16 at Wed Apr  9 02:46:58 2025.
