 Gaussian 16, Revision C.01,

 ----------------------------------------------------------------------
 #t hf aug-cc-pvdz symm=none int=(grid=ultrafine) guess=(read,tcheck) s
 table=(opt,rrhf)
 ----------------------------------------------------------------------
 -----
 title
 -----
 Symbolic Z-matrix:
 Charge = -1 Multiplicity = 1

 SCF Done:  E(RHF) =  -591.186789058     A.U. after   15 cycles
 Normal termination of Gaussian 16 at Wed Apr  9 02:41:13 2025.
 Gaussian 16:  ES64L-G16RevC.01  3-Jul-2019

 ----------------------------------------------------------------------
 #t hf aug-cc-pvdz iop(5/13=1,5/36=2,99/5=2) pseudo=read geom=check gue
 ss=(read,tcheck) scf=(maxcycle=1)
 ----------------------------------------------------------------------
 -----
 title
 -----
 Structure from the checkpoint file:  "E2SN2_194_mol2.chk"
 Charge = -1 Multiplicity = 1

                         Standard orientation:
 ---------------------------------------------------------------------
 Center     Atomic      Atomic             Coordinates (Angstroms)
 Number     Number       Type             X           Y           Z
 ---------------------------------------------------------------------
      1          6           0        0.366477    1.029999    0.354977
      2          6           0       -0.045619   -0.366594   -0.095964
      3          9           0       -0.397819    1.942859   -0.437100
      4          1           0        0.260027   -0.509895   -1.130824
      5          1           0        0.002141    1.205385    1.374900
      6          7           0        1.741834    1.224764    0.191498
      7          1           0        2.179338    1.599248    1.017255
      8          1           0        2.244615    0.373404   -0.163799
      9          7           0       -1.552134   -0.416989   -0.092072
     10          8           0       -2.142298   -0.614772   -1.151936
     11          8           0       -2.104084   -0.273947    0.999441
     12          7           0        0.459544   -1.445853    0.692540
     13          1           0        0.487811   -1.161915    1.665773
     14          1           0        1.435437   -1.551364    0.330999
     15          9           0        2.719133   -1.093859   -0.559810
 ---------------------------------------------------------------------

 SCF Done:  E(RHF) =  -593.613590845     A.U. after    2 cycles

 The electronic state is 1-A.
 Alpha  occ. eigenvalues --  -29.10739 -28.92746 -20.96787 -20.96150 -15.85146
 Alpha  occ. eigenvalues --  -15.58812 -15.58243 -11.39175 -11.31079  -1.85587
 Alpha  occ. eigenvalues --   -1.55660  -1.29384  -1.18477  -1.00555  -0.87876
 Alpha  occ. eigenvalues --   -0.71666  -0.61932  -0.58768  -0.57022  -0.54073
 Alpha  occ. eigenvalues --   -0.50710  -0.48187  -0.46501  -0.41661  -0.38408
 Alpha  occ. eigenvalues --   -0.30615  -0.27575  -0.25317  -0.21550  -0.19383
 Alpha  occ. eigenvalues --   -0.18560  -0.17103  -0.11900  -0.10899  -0.01654
 Alpha  occ. eigenvalues --   -0.00894   0.00912
 Alpha virt. eigenvalues --    0.13707   0.15141   0.15565   0.17399   0.18816
 Alpha virt. eigenvalues --    0.20650   0.21426   0.23109   0.23852   0.25570
 Alpha virt. eigenvalues --    0.26016   0.26575   0.27286   0.29170   0.30095

 Mulliken charges:
               1
     1  C    0.032149
     2  C    0.597504
     3  F    0.262941
     4  H    1.931033
     5  H    1.908126
     6  N   -2.610981
     7  H    0.415768
     8  H    0.317348
     9  N    4.362150
    10  O   -2.741836
    11  O   -2.968318
    12  N   -2.851165
    13  H    0.457938
    14  H    0.308447
    15  F   -0.421103
 Sum of Mulliken charges =  -1.00000

 Dipole moment (field-independent basis, Debye):
    X=             -4.4180    Y=              3.4723    Z=              1.0911  Tot=              5.7242

 Test job not archived.
 1\1\GINC-SE229\SP\RHF\Aug-CC-pVDZ\C2H6F2N3O2(1-)\OHZDE\09-Apr-2025\0\\
 #t hf aug-cc-pvdz iop(5/13=1,5/36=2,99/5=2) pseudo=read geom=check gue
 ss=(read,tcheck) scf=(maxcycle=1)\\title\\-1,1\C,0,0.168159,0.028207,-
 0.010715\C,0,-0.354527,0.801042,-1.216189\F,0,1.418637,-0.535808,-0.41
 4496\H,0,-0.566573,0.10058,-2.021968\H,0,0.447091,0.734405,0.781261\N,
 0,-0.742132,-0.956183,0.387546\H,0,-0.928809,-0.931665,1.376522\H,0,-1
 .62861,-0.957606,-0.176362\N,0,0.76513,1.681769,-1.708965\O,0,1.206265
 ,1.503044,-2.842182\O,0,1.159199,2.554683,-0.934858\N,0,-1.512124,1.60

 Normal termination of Gaussian 16 at Wed Apr  9 02:41:20 2025.
