 Gaussian 16, Revision C.01,

 ----------------------------------------------------------------------
 #t hf aug-cc-pvdz symm=none int=(grid=ultrafine) guess=(read,tcheck) s
 table=(opt,rrhf)
 ----------------------------------------------------------------------
 -----
 title
 -----
 Symbolic Z-matrix:
 Charge = -1 Multiplicity = 1

 SCF Done:  E(RHF) =  -366.720987539     A.U. after   16 cycles
 Normal termination of Gaussian 16 at Wed Apr  9 02:33:37 2025.
 Gaussian 16:  ES64L-G16RevC.01  3-Jul-2019

 ----------------------------------------------------------------------
 #t hf aug-cc-pvdz iop(5/13=1,5/36=2,99/5=2) pseudo=read geom=check gue
 ss=(read,tcheck) scf=(maxcycle=1)
 ----------------------------------------------------------------------
 -----
 title
 -----
 Structure from the checkpoint file:  "E2SN2_112_mol1.chk"
 Charge = -1 Multiplicity = 1

                         Standard orientation:
 ---------------------------------------------------------------------
 Center     Atomic      Atomic             Coordinates (Angstroms)
 Number     Number       Type             X           Y           Z
 ---------------------------------------------------------------------
      1          6           0        0.593387    0.029416    0.040522
      2          6           0       -0.853715    0.019513    0.217021
      3          9           0        1.011410   -0.033264   -1.422287
      4          1           0       -1.565128   -0.619889    2.500572
      5          1           0       -1.194613   -0.280269    1.711881
      6          6           0        1.253798    1.299880    0.534025
      7          1           0        0.760556    2.155821    0.077291
      8          1           0        1.143311    1.378785    1.620253
      9          1           0        2.318991    1.295644    0.278665
     10          6           0        1.256847   -1.208261    0.618761
     11          1           0        2.342011   -1.163171    0.480240
     12          1           0        1.025347   -1.286798    1.686218
     13          1           0        0.886468   -2.108085    0.125474
     14          7           0       -1.537202   -1.140528   -0.330228
     15          1           0       -1.735493   -1.811731    0.415481
     16          1           0       -0.980596   -1.603603   -1.041184
     17          7           0       -1.516397    1.275310   -0.098574
     18          1           0       -2.321012    1.347079    0.522975
     19          1           0       -1.909239    1.208834   -1.037635
 ---------------------------------------------------------------------

 SCF Done:  E(RHF) =  -368.459300896     A.U. after    2 cycles

 The electronic state is 1-A.
 Alpha  occ. eigenvalues --  -29.03590 -15.55176 -15.54986 -11.32349 -11.24891
 Alpha  occ. eigenvalues --  -11.24190 -11.18529  -1.23146  -1.06876  -1.05219
 Alpha  occ. eigenvalues --   -0.86813  -0.76667  -0.64730  -0.52582  -0.50422
 Alpha  occ. eigenvalues --   -0.46537  -0.45360  -0.43502  -0.40189  -0.36898
 Alpha  occ. eigenvalues --   -0.35976  -0.35660  -0.33010  -0.30366  -0.20844
 Alpha  occ. eigenvalues --   -0.17620  -0.16371  -0.07557  -0.06554  -0.01340
 Alpha virt. eigenvalues --    0.13947   0.14683   0.14991   0.15277   0.15639
 Alpha virt. eigenvalues --    0.16066   0.16150   0.17074   0.17972   0.18820
 Alpha virt. eigenvalues --    0.19346   0.22445   0.23730   0.25549   0.26397

 Mulliken charges:
               1
     1  C    4.643321
     2  C    0.994585
     3  F   -0.475350
     4  H    0.350101
     5  H   -0.336111
     6  C   -4.741585
     7  H    1.298710
     8  H    1.156436
     9  H    1.101965
    10  C   -4.513588
    11  H    1.163785
    12  H    1.219503
    13  H    1.176894
    14  N   -2.607779
    15  H    0.466537
    16  H    0.583990
    17  N   -3.347075
    18  H    0.465971
    19  H    0.399688
 Sum of Mulliken charges =  -1.00000

 Dipole moment (field-independent basis, Debye):
    X=              4.7528    Y=              0.6352    Z=             -6.4647  Tot=              8.0489

 Test job not archived.
 1\1\GINC-SE090\SP\RHF\Aug-CC-pVDZ\C4H12F1N2(1-)\OHZDE\09-Apr-2025\0\\#
 t hf aug-cc-pvdz iop(5/13=1,5/36=2,99/5=2) pseudo=read geom=check gues
 s=(read,tcheck) scf=(maxcycle=1)\\title\\-1,1\C,0,-0.18580768,0.003038
 23,-0.35329606\C,0,-0.27974229,-0.14309445,1.09417657\F,0,1.24612017,0
 .18559302,-0.83779598\H,0,-2.5468765,0.29837032,1.98566954\H,0,-1.7653
 121,0.04053501,1.54144623\C,0,-0.6550464,-1.21848915,-1.1158265\H,0,-0
 .13063241,-2.09442452,-0.73865806\H,0,-1.72820427,-1.36594734,-0.95798
 818\H,0,-0.46135694,-1.09278891,-2.18659566\C,0,-0.85929855,1.26896656

 Normal termination of Gaussian 16 at Wed Apr  9 02:33:44 2025.
