 Gaussian 16, Revision C.01,

 ----------------------------------------------------------------------
 #t hf aug-cc-pvdz symm=none int=(grid=ultrafine) guess=(read,tcheck) s
 table=(opt,rrhf)
 ----------------------------------------------------------------------
 -----
 title
 -----
 Symbolic Z-matrix:
 Charge = -1 Multiplicity = 1

 SCF Done:  E(RHF) =  -784.417843905     A.U. after   15 cycles
 Normal termination of Gaussian 16 at Wed Apr  9 02:38:31 2025.
 Gaussian 16:  ES64L-G16RevC.01  3-Jul-2019

 ----------------------------------------------------------------------
 #t hf aug-cc-pvdz iop(5/13=1,5/36=2,99/5=2) pseudo=read geom=check gue
 ss=(read,tcheck) scf=(maxcycle=1)
 ----------------------------------------------------------------------
 -----
 title
 -----
 Structure from the checkpoint file:  "E2SN2_167_mol2.chk"
 Charge = -1 Multiplicity = 1

                         Standard orientation:
 ---------------------------------------------------------------------
 Center     Atomic      Atomic             Coordinates (Angstroms)
 Number     Number       Type             X           Y           Z
 ---------------------------------------------------------------------
      1          6           0       -0.308516    0.541127   -0.774852
      2          6           0        0.054320   -0.826791   -0.197149
      3         17           0        0.347296    1.881242    0.234451
      4          1           0       -0.389530   -1.530108   -0.910414
      5          1           0        0.092048    0.685045   -1.780383
      6          1           0       -1.406975    0.543841   -0.734874
      7          7           0       -0.562190   -1.125802    1.084087
      8          1           0       -0.335801   -0.366905    1.719905
      9          1           0       -1.572974   -1.035023    0.817011
     10          6           0        1.511345   -1.043725   -0.173999
     11          7           0        2.673732   -1.212006   -0.176728
     12          9           0       -2.734943   -0.659664   -0.285825
 ---------------------------------------------------------------------

 SCF Done:  E(RHF) =  -786.065691448     A.U. after    2 cycles

 The electronic state is 1-A.
 Alpha  occ. eigenvalues --  -99.75285 -28.90440 -15.63479 -15.57184 -11.34957
 Alpha  occ. eigenvalues --  -11.31444 -11.28039 -10.32634  -9.52563  -9.51884
 Alpha  occ. eigenvalues --   -9.51796  -1.27006  -1.17372  -1.14281  -0.94339
 Alpha  occ. eigenvalues --   -0.79613  -0.61163  -0.53831  -0.49472  -0.47035
 Alpha  occ. eigenvalues --   -0.46559  -0.40979  -0.37871  -0.36186  -0.35423
 Alpha  occ. eigenvalues --   -0.30319  -0.29987  -0.27392  -0.21662   0.00274
 Alpha  occ. eigenvalues --    0.00823   0.02448
 Alpha virt. eigenvalues --    0.14224   0.15636   0.16701   0.17711   0.18687
 Alpha virt. eigenvalues --    0.19376   0.20015   0.23125   0.23593   0.24569
 Alpha virt. eigenvalues --    0.25210   0.25784   0.27599   0.27782   0.28053

 Mulliken charges:
               1
     1  C   -2.983212
     2  C    1.055102
     3  Cl  -0.185096
     4  H    1.585163
     5  H    1.531013
     6  H    1.115651
     7  N   -2.962728
     8  H    0.551998
     9  H    0.258608
    10  C    2.259849
    11  N   -2.447383
    12  F   -0.778964
 Sum of Mulliken charges =  -1.00000

 Dipole moment (field-independent basis, Debye):
    X=              2.1012    Y=              1.7858    Z=             -0.8234  Tot=              2.8779

 Test job not archived.
 1\1\GINC-SE016\SP\RHF\Aug-CC-pVDZ\C3H5Cl1F1N2(1-)\OHZDE\09-Apr-2025\0\
 \#t hf aug-cc-pvdz iop(5/13=1,5/36=2,99/5=2) pseudo=read geom=check gu
 ess=(read,tcheck) scf=(maxcycle=1)\\title\\-1,1\C,0,-0.088991,0.174947
 ,-0.005237\C,0,-0.665196,0.151502,-1.420874\Cl,0,1.607526,-0.429481,0.
 029212\H,0,-1.676365,0.552751,-1.290718\H,0,-0.068485,1.181916,0.41648
 4\H,0,-0.74532,-0.517034,0.541218\N,0,-0.839564,-1.17747,-1.981664\H,0
 ,0.053514,-1.657285,-1.921404\H,0,-1.478989,-1.589601,-1.258795\C,0,0.
 076389,1.042611,-2.329991\N,0,0.664546,1.769403,-3.040846\F,0,-2.27828

 Normal termination of Gaussian 16 at Wed Apr  9 02:38:36 2025.
