 Gaussian 16, Revision C.01,

 ----------------------------------------------------------------------
 #t hf aug-cc-pvdz symm=none int=(grid=ultrafine) guess=(read,tcheck) s
 table=(opt,rrhf)
 ----------------------------------------------------------------------
 -----
 title
 -----
 Symbolic Z-matrix:
 Charge = -1 Multiplicity = 1

 SCF Done:  E(RHF) =  -779.524304200     A.U. after   16 cycles
 Normal termination of Gaussian 16 at Wed Apr  9 02:33:43 2025.
 Gaussian 16:  ES64L-G16RevC.01  3-Jul-2019

 ----------------------------------------------------------------------
 #t hf aug-cc-pvdz iop(5/13=1,5/36=2,99/5=2) pseudo=read geom=check gue
 ss=(read,tcheck) scf=(maxcycle=1)
 ----------------------------------------------------------------------
 -----
 title
 -----
 Structure from the checkpoint file:  "E2SN2_114_mol1.chk"
 Charge = -1 Multiplicity = 1

                         Standard orientation:
 ---------------------------------------------------------------------
 Center     Atomic      Atomic             Coordinates (Angstroms)
 Number     Number       Type             X           Y           Z
 ---------------------------------------------------------------------
      1          6           0        0.589740    0.112893    0.379458
      2          6           0       -0.720919    0.724219   -0.061546
      3         17           0        1.082765   -1.273731   -0.779442
      4          1           0       -0.690648    2.471966    1.746108
      5          1           0       -0.833520    1.592477    0.844696
      6          6           0        1.706919    1.130910    0.347707
      7          1           0        1.888991    1.490696   -0.665053
      8          1           0        1.392432    1.970548    0.979297
      9          1           0        2.617168    0.677612    0.741953
     10          7           0        0.512550   -0.457899    1.706501
     11          1           0       -0.260089   -1.118169    1.725129
     12          1           0        0.238443    0.329450    2.302043
     13          7           0       -0.759293    1.455478   -1.310277
     14          1           0       -0.173186    1.010615   -2.008890
     15          1           0       -0.412852    2.393296   -1.133969
     16          6           0       -1.819136   -0.207009    0.061421
     17          7           0       -2.712311   -0.959171    0.226198
 ---------------------------------------------------------------------

 SCF Done:  E(RHF) =  -781.339522992     A.U. after    2 cycles

 The electronic state is 1-A.
 Alpha  occ. eigenvalues --  -99.73997 -15.61466 -15.61453 -15.61289 -11.38240
 Alpha  occ. eigenvalues --  -11.32761 -11.28826 -11.25163 -10.31335  -9.51392
 Alpha  occ. eigenvalues --   -9.50658  -9.50608  -1.32421  -1.19831  -1.13868
 Alpha  occ. eigenvalues --   -1.12819  -0.97085  -0.89260  -0.71287  -0.60942
 Alpha  occ. eigenvalues --   -0.56174  -0.53855  -0.50644  -0.47257  -0.43227
 Alpha  occ. eigenvalues --   -0.42177  -0.39642  -0.38480  -0.36560  -0.35606
 Alpha  occ. eigenvalues --   -0.33109  -0.29776  -0.29392  -0.28390  -0.20772
 Alpha  occ. eigenvalues --   -0.11229
 Alpha virt. eigenvalues --    0.13433   0.14406   0.15269   0.15816   0.16351
 Alpha virt. eigenvalues --    0.16971   0.17354   0.18399   0.19525   0.20264
 Alpha virt. eigenvalues --    0.21938   0.23145   0.23594   0.24800   0.25435

 Mulliken charges:
               1
     1  C    4.219530
     2  C    0.293653
     3  Cl  -0.437334
     4  H   -0.323383
     5  H    1.510794
     6  C   -4.186386
     7  H    1.170582
     8  H    1.193331
     9  H    1.068170
    10  N   -3.732127
    11  H    0.599927
    12  H    0.647063
    13  N   -2.936317
    14  H    0.534597
    15  H    0.410883
    16  C    1.567843
    17  N   -2.600826
 Sum of Mulliken charges =  -1.00000

 Dipole moment (field-independent basis, Debye):
    X=              4.5425    Y=             -2.7294    Z=             -3.6141  Tot=              6.4145

 Test job not archived.
 1\1\GINC-SE127\SP\RHF\Aug-CC-pVDZ\C4H9Cl1N3(1-)\OHZDE\09-Apr-2025\0\\#
 t hf aug-cc-pvdz iop(5/13=1,5/36=2,99/5=2) pseudo=read geom=check gues
 s=(read,tcheck) scf=(maxcycle=1)\\title\\-1,1\C,0,-0.17932808,-0.01144
 487,-0.32455971\C,0,-0.0911844,0.04327476,1.18383895\Cl,0,1.53257285,-
 0.15741201,-1.07084286\H,0,-2.58751938,0.09807646,1.48125605\H,0,-1.32
 161064,0.14241154,1.43691804\C,0,-0.96384917,-1.21938543,-0.78375524\H
 ,0,-0.47058871,-2.14766785,-0.49519695\H,0,-1.94634831,-1.16557093,-0.
 29940097\H,0,-1.07152781,-1.18653424,-1.86855417\N,0,-0.7803266,1.1792

 Normal termination of Gaussian 16 at Wed Apr  9 02:33:50 2025.
