 Gaussian 16, Revision C.01,

 ----------------------------------------------------------------------
 #t hf aug-cc-pvdz symm=none int=(grid=ultrafine) guess=(read,tcheck) s
 table=(opt,rrhf)
 ----------------------------------------------------------------------
 -----
 title
 -----
 Symbolic Z-matrix:
 Charge = -1 Multiplicity = 1

 SCF Done:  E(RHF) =  -987.868552404     A.U. after   17 cycles
 Normal termination of Gaussian 16 at Wed Apr  9 02:47:34 2025.
 Gaussian 16:  ES64L-G16RevC.01  3-Jul-2019

 ----------------------------------------------------------------------
 #t hf aug-cc-pvdz iop(5/13=1,5/36=2,99/5=2) pseudo=read geom=check gue
 ss=(read,tcheck) scf=(maxcycle=1)
 ----------------------------------------------------------------------
 -----
 title
 -----
 Structure from the checkpoint file:  "E2SN2_265_mol1.chk"
 Charge = -1 Multiplicity = 1

                         Standard orientation:
 ---------------------------------------------------------------------
 Center     Atomic      Atomic             Coordinates (Angstroms)
 Number     Number       Type             X           Y           Z
 ---------------------------------------------------------------------
      1          6           0        0.141929    0.017743   -0.035448
      2          1           0        0.719576    0.897697   -1.913095
      3          9           0        1.162329   -1.491885    0.522040
      4         17           0       -1.270333    1.627443   -0.521756
      5          6           0        1.041444    0.091139   -1.257526
      6          1           0        0.902873   -0.864551   -1.769395
      7          6           0        0.515433    0.597236    1.228955
      8          7           0        0.814856    1.092028    2.252463
      9          7           0       -0.968326   -0.989813    0.002175
     10          8           0       -1.223064   -1.563937   -1.047905
     11          8           0       -1.545993   -1.145913    1.065939
     12          7           0        2.408986    0.354117   -0.823164
     13          1           0        3.000065    0.434426   -1.641284
     14          1           0        2.683194   -0.459378   -0.285228
 ---------------------------------------------------------------------

 SCF Done:  E(RHF) =  -990.365358910     A.U. after    2 cycles

 The electronic state is 1-A.
 Alpha  occ. eigenvalues --  -99.70680 -28.98768 -20.96952 -20.96746 -15.88148
 Alpha  occ. eigenvalues --  -15.63746 -15.61383 -11.49555 -11.33651 -11.30995
 Alpha  occ. eigenvalues --  -10.27704  -9.47794  -9.47260  -9.47207  -1.87250
 Alpha  occ. eigenvalues --   -1.57123  -1.27039  -1.17770  -1.11595  -1.05169
 Alpha  occ. eigenvalues --   -0.87193  -0.79615  -0.63955  -0.61063  -0.57856
 Alpha  occ. eigenvalues --   -0.52366  -0.48679  -0.45712  -0.44273  -0.42490
 Alpha  occ. eigenvalues --   -0.39507  -0.34400  -0.34127  -0.33216  -0.31531
 Alpha  occ. eigenvalues --   -0.28888  -0.25693  -0.23146  -0.19320  -0.18557
 Alpha  occ. eigenvalues --   -0.08851  -0.05276  -0.05005
 Alpha virt. eigenvalues --    0.12655   0.14957   0.15495   0.17135   0.19876
 Alpha virt. eigenvalues --    0.20858   0.21964   0.22735   0.23972   0.24924
 Alpha virt. eigenvalues --    0.25645   0.25834   0.26558   0.26832   0.28347

 Mulliken charges:
               1
     1  C    0.087660
     2  H    1.255688
     3  F   -0.263462
     4  Cl  -0.632507
     5  C   -1.968814
     6  H    1.402447
     7  C    4.541087
     8  N   -3.328663
     9  N    5.837020
    10  O   -3.304629
    11  O   -3.309662
    12  N   -2.505165
    13  H    0.626865
    14  H    0.562134
 Sum of Mulliken charges =  -1.00000

 Dipole moment (field-independent basis, Debye):
    X=              4.2698    Y=             -5.9331    Z=             -2.0773  Tot=              7.5992

 Test job not archived.
 1\1\GINC-SE459\SP\RHF\Aug-CC-pVDZ\C3H4Cl1F1N3O2(1-)\OHZDE\09-Apr-2025\
 0\\#t hf aug-cc-pvdz iop(5/13=1,5/36=2,99/5=2) pseudo=read geom=check
 guess=(read,tcheck) scf=(maxcycle=1)\\title\\-1,1\C,0,0.78489324,0.027
 32994,-0.02333299\H,0,1.63509781,2.0033184,0.05524837\F,0,-1.11863236,
 -0.05641854,-0.0470694\Cl,0,2.96673493,-0.15218021,0.14829082\C,0,0.65
 197091,1.54055271,-0.00145185\H,0,0.09703098,1.7632363,0.91342981\C,0,
 0.72257254,-0.73146654,-1.24578007\N,0,0.69417102,-1.34405591,-2.24876
 074\N,0,0.58824232,-0.74752362,1.24559522\O,0,0.53553739,-0.09836021,2

 Normal termination of Gaussian 16 at Wed Apr  9 02:47:40 2025.
