 Gaussian 16, Revision C.01,

 ----------------------------------------------------------------------
 #t hf aug-cc-pvdz symm=none int=(grid=ultrafine) guess=(read,tcheck) s
 table=(opt,rrhf)
 ----------------------------------------------------------------------
 -----
 title
 -----
 Symbolic Z-matrix:
 Charge = -1 Multiplicity = 1

 SCF Done:  E(RHF) =  -1259.23630533     A.U. after   16 cycles
 Normal termination of Gaussian 16 at Wed Apr  9 02:50:06 2025.
 Gaussian 16:  ES64L-G16RevC.01  3-Jul-2019

 ----------------------------------------------------------------------
 #t hf aug-cc-pvdz iop(5/13=1,5/36=2,99/5=2) pseudo=read geom=check gue
 ss=(read,tcheck) scf=(maxcycle=1)
 ----------------------------------------------------------------------
 -----
 title
 -----
 Structure from the checkpoint file:  "E2SN2_284_mol1.chk"
 Charge = -1 Multiplicity = 1

                         Standard orientation:
 ---------------------------------------------------------------------
 Center     Atomic      Atomic             Coordinates (Angstroms)
 Number     Number       Type             X           Y           Z
 ---------------------------------------------------------------------
      1          6           0       -0.380911   -0.240957   -0.288729
      2          1           0       -0.558995    1.807226    0.259889
      3         17           0        1.811211   -1.252808   -0.582236
      4         17           0       -2.567512    0.466174    0.201594
      5          6           0        0.249502    1.146066   -0.057441
      6          6           0       -0.489509   -1.141313    0.827432
      7          7           0       -0.608808   -1.871524    1.744770
      8          6           0       -0.806415   -0.677718   -1.682371
      9          1           0       -1.509431    0.036895   -2.104889
     10          1           0        0.056984   -0.782798   -2.333073
     11          1           0       -1.309143   -1.641447   -1.605613
     12          6           0        0.865806    1.756957   -1.318002
     13          1           0        1.689646    1.144262   -1.677977
     14          1           0        0.105593    1.850196   -2.095922
     15          1           0        1.235477    2.758177   -1.082986
     16          6           0        1.207034    1.160851    1.050328
     17          7           0        1.933656    1.325373    1.958685
 ---------------------------------------------------------------------

 SCF Done:  E(RHF) =  -1261.36633767     A.U. after    2 cycles

 The electronic state is 1-A.
 Alpha  occ. eigenvalues --  -99.68681 -99.66905 -15.64377 -15.63977 -11.48363
 Alpha  occ. eigenvalues --  -11.38515 -11.33897 -11.32719 -11.30337 -11.28637
 Alpha  occ. eigenvalues --  -10.25689 -10.23930  -9.45778  -9.45326  -9.45295
 Alpha  occ. eigenvalues --   -9.43977  -9.43614  -9.43599  -1.26621  -1.17753
 Alpha  occ. eigenvalues --   -1.12433  -1.05947  -1.04378  -1.00489  -0.89905
 Alpha  occ. eigenvalues --   -0.80588  -0.64819  -0.59211  -0.51491  -0.50943
 Alpha  occ. eigenvalues --   -0.47247  -0.45501  -0.45336  -0.43979  -0.40494
 Alpha  occ. eigenvalues --   -0.39010  -0.37723  -0.34134  -0.32451  -0.32056
 Alpha  occ. eigenvalues --   -0.31711  -0.30480  -0.30387  -0.29839  -0.28074
 Alpha  occ. eigenvalues --   -0.25975
 Alpha virt. eigenvalues --    0.12319   0.13624   0.14343   0.14828   0.15365
 Alpha virt. eigenvalues --    0.15948   0.16281   0.16621   0.19730   0.19956
 Alpha virt. eigenvalues --    0.21265   0.21840   0.22248   0.22918   0.23283

 Mulliken charges:
               1
     1  C    4.314542
     2  H    1.358970
     3  Cl  -0.733264
     4  Cl  -0.606938
     5  C   -2.478381
     6  C    1.332358
     7  N   -2.728730
     8  C   -4.854097
     9  H    1.237637
    10  H    1.173413
    11  H    1.115953
    12  C   -3.657071
    13  H    1.329408
    14  H    1.402129
    15  H    1.127678
    16  C    2.380983
    17  N   -2.714591
 Sum of Mulliken charges =  -1.00000

 Dipole moment (field-independent basis, Debye):
    X=             -0.3658    Y=              3.0522    Z=             -4.6225  Tot=              5.5513

 Test job not archived.
 1\1\GINC-SE228\SP\RHF\Aug-CC-pVDZ\C6H7Cl2N2(1-)\OHZDE\09-Apr-2025\0\\#
 t hf aug-cc-pvdz iop(5/13=1,5/36=2,99/5=2) pseudo=read geom=check gues
 s=(read,tcheck) scf=(maxcycle=1)\\title\\-1,1\C,0,0.63620695,-0.076502
 49,0.01917347\H,0,1.67212977,1.77585033,-0.13380703\Cl,0,-1.79281691,-
 0.14315715,-0.08468717\Cl,0,2.97452291,-0.25876288,-0.12482404\C,0,0.6
 3237253,1.46404121,-0.01901536\C,0,0.56692656,-0.79500877,-1.22469097\
 N,0,0.54106271,-1.38883889,-2.24235785\C,0,0.63354082,-0.82020528,1.34
 618289\H,0,1.4800853,-0.51071698,1.95528472\H,0,-0.29567206,-0.6482253

 Normal termination of Gaussian 16 at Wed Apr  9 02:50:16 2025.
