 Gaussian 16, Revision C.01,

 ----------------------------------------------------------------------
 #t hf aug-cc-pvdz symm=none int=(grid=ultrafine) guess=(read,tcheck) s
 table=(opt,rrhf)
 ----------------------------------------------------------------------
 -----
 title
 -----
 Symbolic Z-matrix:
 Charge = -1 Multiplicity = 1

 SCF Done:  E(RHF) =  -614.213522662     A.U. after   16 cycles
 Normal termination of Gaussian 16 at Wed Apr  9 02:55:54 2025.
 Gaussian 16:  ES64L-G16RevC.01  3-Jul-2019

 ----------------------------------------------------------------------
 #t hf aug-cc-pvdz iop(5/13=1,5/36=2,99/5=2) pseudo=read geom=check gue
 ss=(read,tcheck) scf=(maxcycle=1)
 ----------------------------------------------------------------------
 -----
 title
 -----
 Structure from the checkpoint file:  "E2SN2_359_mol2.chk"
 Charge = -1 Multiplicity = 1

                         Standard orientation:
 ---------------------------------------------------------------------
 Center     Atomic      Atomic             Coordinates (Angstroms)
 Number     Number       Type             X           Y           Z
 ---------------------------------------------------------------------
      1          6           0       -0.675926   -0.413012   -0.564708
      2          6           0        0.245347   -0.019190    0.625114
      3          9           0        0.094405   -1.232906   -1.419398
      4          1           0       -0.301148    0.828550    1.072204
      5          6           0       -1.866288   -1.200102   -0.062306
      6          1           0       -1.567131   -2.148494    0.386702
      7          1           0       -2.512372   -1.393114   -0.920618
      8          1           0       -2.373664   -0.546193    0.651133
      9          7           0       -1.162258    0.710130   -1.302959
     10          1           0       -0.367575    1.290704   -1.553156
     11          1           0       -1.673876    1.231768   -0.556653
     12          7           0        1.532099    0.477018    0.058297
     13          8           0        2.531447   -0.243146    0.125458
     14          8           0        1.531214    1.586543   -0.483536
     15          6           0        0.525779   -1.124024    1.621502
     16          1           0        1.301534   -0.816589    2.326064
     17          1           0       -0.386244   -1.320398    2.185730
     18          1           0        0.859015   -2.038050    1.126961
     19          9           0       -2.032425    1.498749    1.101763
 ---------------------------------------------------------------------

 SCF Done:  E(RHF) =  -616.799549635     A.U. after    2 cycles

 The electronic state is 1-A.
 Alpha  occ. eigenvalues --  -29.11043 -28.90456 -20.96333 -20.96010 -15.85347
 Alpha  occ. eigenvalues --  -15.56215 -11.39263 -11.32877 -11.27649 -11.23479
 Alpha  occ. eigenvalues --   -1.85589  -1.55369  -1.27550  -1.09997  -0.96955
 Alpha  occ. eigenvalues --   -0.90300  -0.80283  -0.71049  -0.60001  -0.57741
 Alpha  occ. eigenvalues --   -0.53144  -0.51540  -0.47969  -0.46125  -0.43977
 Alpha  occ. eigenvalues --   -0.42655  -0.41767  -0.40536  -0.36957  -0.36594
 Alpha  occ. eigenvalues --   -0.28167  -0.24266  -0.21073  -0.20429  -0.18263
 Alpha  occ. eigenvalues --   -0.17292  -0.11961  -0.11308   0.00825   0.00957
 Alpha  occ. eigenvalues --    0.02636
 Alpha virt. eigenvalues --    0.13425   0.13987   0.14731   0.14982   0.16364
 Alpha virt. eigenvalues --    0.17075   0.18040   0.18590   0.20027   0.21007
 Alpha virt. eigenvalues --    0.22845   0.23794   0.24982   0.25245   0.25625

 Mulliken charges:
               1
     1  C    5.585721
     2  C   -0.647020
     3  F   -0.096074
     4  H    1.355243
     5  C   -3.862635
     6  H    1.155966
     7  H    1.048111
     8  H    0.814639
     9  N   -4.236230
    10  H    0.728164
    11  H    0.137827
    12  N    3.927741
    13  O   -2.838248
    14  O   -3.068843
    15  C   -3.616858
    16  H    1.090932
    17  H    1.289585
    18  H    1.247208
    19  F   -1.015229
 Sum of Mulliken charges =  -1.00000

 Dipole moment (field-independent basis, Debye):
    X=              4.4777    Y=             -4.5380    Z=             -1.6105  Tot=              6.5755

 Test job not archived.
 1\1\GINC-SE367\SP\RHF\Aug-CC-pVDZ\C4H9F2N2O2(1-)\OHZDE\09-Apr-2025\0\\
 #t hf aug-cc-pvdz iop(5/13=1,5/36=2,99/5=2) pseudo=read geom=check gue
 ss=(read,tcheck) scf=(maxcycle=1)\\title\\-1,1\C,0,-0.003207,0.00605,0
 .009198\C,0,-0.471264,-0.100123,-1.470385\F,0,1.406655,-0.084703,-0.00
 4404\H,0,-1.546907,-0.318905,-1.359309\C,0,-0.40876,1.343653,0.588184\
 H,0,0.082545,2.173814,0.078279\H,0,-0.119147,1.342094,1.640562\H,0,-1.
 496797,1.387789,0.497362\N,0,-0.532688,-1.022982,0.848081\H,0,-0.34629
 3,-1.917557,0.405161\H,0,-1.558477,-0.858706,0.740363\N,0,0.204886,-1.

 Normal termination of Gaussian 16 at Wed Apr  9 02:56:03 2025.
