 Gaussian 16, Revision C.01,

 ----------------------------------------------------------------------
 #t hf aug-cc-pvdz symm=none int=(grid=ultrafine) guess=(read,tcheck) s
 table=(opt,rrhf)
 ----------------------------------------------------------------------
 -----
 title
 -----
 Symbolic Z-matrix:
 Charge = -1 Multiplicity = 1

 SCF Done:  E(RHF) =  -836.223019784     A.U. after   17 cycles
 Normal termination of Gaussian 16 at Wed Apr  9 02:56:10 2025.
 Gaussian 16:  ES64L-G16RevC.01  3-Jul-2019

 ----------------------------------------------------------------------
 #t hf aug-cc-pvdz iop(5/13=1,5/36=2,99/5=2) pseudo=read geom=check gue
 ss=(read,tcheck) scf=(maxcycle=1)
 ----------------------------------------------------------------------
 -----
 title
 -----
 Structure from the checkpoint file:  "E2SN2_36_mol1.chk"
 Charge = -1 Multiplicity = 1

                         Standard orientation:
 ---------------------------------------------------------------------
 Center     Atomic      Atomic             Coordinates (Angstroms)
 Number     Number       Type             X           Y           Z
 ---------------------------------------------------------------------
      1          6           0       -0.137110   -0.202951    0.440535
      2          6           0       -0.206099    1.164276    0.992783
      3         17           0       -1.630493   -0.705045   -0.603492
      4          1           0        2.168348    1.761315    1.764048
      5          1           0        0.904979    1.362768    1.456651
      6          1           0       -0.906709    1.157785    1.835580
      7          7           0        1.020879   -0.292964   -0.533358
      8          8           0        1.974414   -1.001904   -0.212708
      9          8           0        0.973717    0.404024   -1.543647
     10          6           0        0.015848   -1.238315    1.524232
     11          1           0        0.145607   -2.238262    1.111475
     12          1           0        0.889713   -0.974634    2.125761
     13          1           0       -0.879174   -1.218714    2.147511
     14          7           0       -0.425405    2.284829    0.106869
     15          1           0       -0.883093    1.987303   -0.745538
     16          1           0        0.489509    2.650132   -0.145163
 ---------------------------------------------------------------------

 SCF Done:  E(RHF) =  -838.211887542     A.U. after    2 cycles

 The electronic state is 1-A.
 Alpha  occ. eigenvalues --  -99.76833 -20.97287 -20.96754 -15.86409 -15.58838
 Alpha  occ. eigenvalues --  -11.40823 -11.29951 -11.25180 -10.34059  -9.54121
 Alpha  occ. eigenvalues --   -9.53408  -9.53330  -1.86464  -1.56394  -1.26394
 Alpha  occ. eigenvalues --   -1.16700  -1.06725  -0.91789  -0.83155  -0.66373
 Alpha  occ. eigenvalues --   -0.59866  -0.56696  -0.53746  -0.50853  -0.48471
 Alpha  occ. eigenvalues --   -0.44257  -0.43939  -0.41548  -0.40001  -0.38998
 Alpha  occ. eigenvalues --   -0.36542  -0.35133  -0.25171  -0.20972  -0.18611
 Alpha  occ. eigenvalues --   -0.17421  -0.09349
 Alpha virt. eigenvalues --    0.13077   0.14259   0.14974   0.15767   0.16412
 Alpha virt. eigenvalues --    0.16905   0.18759   0.19984   0.20775   0.22749
 Alpha virt. eigenvalues --    0.23531   0.24044   0.24938   0.25077   0.26043

 Mulliken charges:
               1
     1  C    1.708557
     2  C   -1.377952
     3  Cl  -0.257577
     4  H   -0.382363
     5  H    1.056092
     6  H    1.138393
     7  N    4.318567
     8  O   -2.761577
     9  O   -3.140795
    10  C   -3.623045
    11  H    1.248753
    12  H    1.363198
    13  H    1.139288
    14  N   -2.658713
    15  H    0.676676
    16  H    0.552498
 Sum of Mulliken charges =  -1.00000

 Dipole moment (field-independent basis, Debye):
    X=             -5.5114    Y=             -5.8825    Z=             -3.8874  Tot=              8.9494

 Test job not archived.
 1\1\GINC-SE368\SP\RHF\Aug-CC-pVDZ\C3H8Cl1N2O2(1-)\OHZDE\09-Apr-2025\0\
 \#t hf aug-cc-pvdz iop(5/13=1,5/36=2,99/5=2) pseudo=read geom=check gu
 ess=(read,tcheck) scf=(maxcycle=1)\\title\\-1,1\C,0,-0.18528704,0.0599
 8108,-0.28577714\C,0,-0.2163275,0.08876498,1.18977494\Cl,0,1.52740611,
 -0.23116843,-1.0302227\H,0,-2.67754615,-0.1639056,1.87377858\H,0,-1.40
 390617,0.09009819,1.47034866\H,0,0.19054844,1.0507706,1.5217404\N,0,-0
 .99172554,-1.12375618,-0.78169069\O,0,-2.03398897,-0.88183171,-1.38980
 38\O,0,-0.5998418,-2.24850938,-0.48159767\C,0,-0.71825066,1.33641489,-

 Normal termination of Gaussian 16 at Wed Apr  9 02:56:16 2025.
