 Gaussian 16, Revision C.01,

 ----------------------------------------------------------------------
 #t hf aug-cc-pvdz symm=none int=(grid=ultrafine) guess=(read,tcheck) s
 table=(opt,rrhf)
 ----------------------------------------------------------------------
 -----
 title
 -----
 Symbolic Z-matrix:
 Charge = -1 Multiplicity = 1

 SCF Done:  E(RHF) =  -1044.62512558     A.U. after   16 cycles
 Normal termination of Gaussian 16 at Wed Apr  9 02:42:07 2025.
 Gaussian 16:  ES64L-G16RevC.01  3-Jul-2019

 ----------------------------------------------------------------------
 #t hf aug-cc-pvdz iop(5/13=1,5/36=2,99/5=2) pseudo=read geom=check gue
 ss=(read,tcheck) scf=(maxcycle=1)
 ----------------------------------------------------------------------
 -----
 title
 -----
 Structure from the checkpoint file:  "E2SN2_212_mol1.chk"
 Charge = -1 Multiplicity = 1

                         Standard orientation:
 ---------------------------------------------------------------------
 Center     Atomic      Atomic             Coordinates (Angstroms)
 Number     Number       Type             X           Y           Z
 ---------------------------------------------------------------------
      1          6           0       -0.345251    0.074833   -0.263136
      2          1           0        0.747509    1.096451    1.319580
      3          9           0        0.479946   -1.619593   -0.713296
      4         17           0       -1.359876    1.875204    0.059022
      5          6           0        0.762058    0.169778    0.744783
      6          1           0       -0.186146    0.245084   -1.308500
      7          1           0        0.745303   -0.696215    1.392981
      8          7           0       -1.483676   -0.809289    0.062379
      9          8           0       -1.591706   -1.196137    1.222080
     10          8           0       -2.264002   -1.055961   -0.846651
     11          7           0        2.083934    0.159247    0.057780
     12          8           0        3.008766   -0.389665    0.651084
     13          8           0        2.195574    0.783660   -0.991359
 ---------------------------------------------------------------------

 SCF Done:  E(RHF) =  -1047.29204651     A.U. after    2 cycles

 The electronic state is 1-A.
 Alpha  occ. eigenvalues --  -99.72270 -28.95980 -20.97457 -20.97251 -20.96759
 Alpha  occ. eigenvalues --  -20.96536 -15.87628 -15.87325 -11.45612 -11.34093
 Alpha  occ. eigenvalues --  -10.29323  -9.49384  -9.48859  -9.48724  -1.87934
 Alpha  occ. eigenvalues --   -1.85799  -1.56942  -1.56487  -1.20055  -1.08963
 Alpha  occ. eigenvalues --   -1.01197  -0.77850  -0.72412  -0.63528  -0.60753
 Alpha  occ. eigenvalues --   -0.57605  -0.56614  -0.52606  -0.48161  -0.45360
 Alpha  occ. eigenvalues --   -0.43407  -0.40159  -0.35722  -0.35274  -0.32409
 Alpha  occ. eigenvalues --   -0.24814  -0.24059  -0.19898  -0.19059  -0.18644
 Alpha  occ. eigenvalues --   -0.18256  -0.05857  -0.03460  -0.03372
 Alpha virt. eigenvalues --    0.14839   0.16270   0.16654   0.19232   0.22449
 Alpha virt. eigenvalues --    0.23363   0.23985   0.24507   0.25327   0.26052
 Alpha virt. eigenvalues --    0.27000   0.27258   0.27837   0.29037   0.29108

 Mulliken charges:
               1
     1  C   -2.009183
     2  H    1.560775
     3  F   -0.549474
     4  Cl  -0.449665
     5  C   -1.333453
     6  H    1.636614
     7  H    1.444704
     8  N    5.890104
     9  O   -3.164504
    10  O   -3.246037
    11  N    5.151193
    12  O   -2.946676
    13  O   -2.984399
 Sum of Mulliken charges =  -1.00000

 Dipole moment (field-independent basis, Debye):
    X=              3.1469    Y=             -3.6990    Z=             -0.2779  Tot=              4.8644

 Test job not archived.
 1\1\GINC-SE365\SP\RHF\Aug-CC-pVDZ\C2H3Cl1F1N2O4(1-)\OHZDE\09-Apr-2025\
 0\\#t hf aug-cc-pvdz iop(5/13=1,5/36=2,99/5=2) pseudo=read geom=check
 guess=(read,tcheck) scf=(maxcycle=1)\\title\\-1,1\C,0,0.7121799,-0.059
 11442,0.0172291\H,0,1.83484275,1.79804885,0.19995822\F,0,-1.18028418,0
 .27863829,-0.22603978\Cl,0,2.70611281,-0.6242645,0.29904398\C,0,0.8185
 8857,1.43732097,0.03738823\H,0,0.33947356,-0.61940434,0.85044717\H,0,0
 .39466224,1.84892256,-0.86884382\N,0,0.5477261,-0.70891899,-1.29971903
 \O,0,0.77323777,-0.03484705,-2.30021841\O,0,0.23876911,-1.89238284,-1.

 Normal termination of Gaussian 16 at Wed Apr  9 02:42:12 2025.
