 Gaussian 16, Revision C.01,

 ----------------------------------------------------------------------
 #t hf aug-cc-pvdz symm=none int=(grid=ultrafine) guess=(read,tcheck) s
 table=(opt,rrhf)
 ----------------------------------------------------------------------
 -----
 title
 -----
 Symbolic Z-matrix:
 Charge = -1 Multiplicity = 1

 SCF Done:  E(RHF) =  -419.477065823     A.U. after   15 cycles
 Normal termination of Gaussian 16 at Wed Apr  9 02:33:58 2025.
 Gaussian 16:  ES64L-G16RevC.01  3-Jul-2019

 ----------------------------------------------------------------------
 #t hf aug-cc-pvdz iop(5/13=1,5/36=2,99/5=2) pseudo=read geom=check gue
 ss=(read,tcheck) scf=(maxcycle=1)
 ----------------------------------------------------------------------
 -----
 title
 -----
 Structure from the checkpoint file:  "E2SN2_116_mol2.chk"
 Charge = -1 Multiplicity = 1

                         Standard orientation:
 ---------------------------------------------------------------------
 Center     Atomic      Atomic             Coordinates (Angstroms)
 Number     Number       Type             X           Y           Z
 ---------------------------------------------------------------------
      1          6           0        0.415345    0.331899    0.336004
      2          6           0       -1.078538    0.025449    0.193657
      3          9           0        0.827706   -0.195768    1.607599
      4          1           0       -1.552937    0.654458    0.957081
      5          6           0        1.206876   -0.466118   -0.633884
      6          7           0        1.880533   -1.091045   -1.365816
      7          7           0        0.672249    1.700786    0.268159
      8          1           0       -0.141038    2.303546   -0.023158
      9          1           0        1.509739    1.942070   -0.239494
     10          6           0       -1.390204   -1.436895    0.467923
     11          1           0       -2.473434   -1.594429    0.433781
     12          1           0       -1.026867   -1.742913    1.449152
     13          1           0       -0.931704   -2.067735   -0.298901
     14          7           0       -1.463806    0.388283   -1.162209
     15          1           0       -2.400702    0.033455   -1.329240
     16          1           0       -1.536124    1.422413   -1.183713
     17          1           0       -1.440001    3.098860   -0.597038
 ---------------------------------------------------------------------

 SCF Done:  E(RHF) =  -421.365133267     A.U. after    2 cycles

 The electronic state is 1-A.
 Alpha  occ. eigenvalues --  -29.12111 -15.64681 -15.59372 -15.58109 -11.43012
 Alpha  occ. eigenvalues --  -11.33329 -11.30687 -11.26129  -1.32616  -1.18478
 Alpha  occ. eigenvalues --   -1.16044  -1.00139  -0.91738  -0.76578  -0.66221
 Alpha  occ. eigenvalues --   -0.57512  -0.54410  -0.52335  -0.47803  -0.45679
 Alpha  occ. eigenvalues --   -0.41819  -0.39503  -0.38280  -0.34788  -0.33130
 Alpha  occ. eigenvalues --   -0.31515  -0.26370  -0.23635  -0.18974  -0.13705
 Alpha  occ. eigenvalues --   -0.12695  -0.10766
 Alpha virt. eigenvalues --    0.12773   0.14213   0.14981   0.15502   0.15853
 Alpha virt. eigenvalues --    0.16403   0.18430   0.20420   0.20682   0.21413
 Alpha virt. eigenvalues --    0.22225   0.22648   0.23516   0.24554   0.25060

 Mulliken charges:
               1
     1  C    4.105792
     2  C   -0.095982
     3  F   -0.025774
     4  H    1.841725
     5  C    1.514440
     6  N   -2.576601
     7  N   -3.648027
     8  H    0.704848
     9  H    0.536980
    10  C   -3.744050
    11  H    0.992917
    12  H    1.083200
    13  H    1.246134
    14  N   -3.173036
    15  H    0.581024
    16  H    0.713818
    17  H   -1.057408
 Sum of Mulliken charges =  -1.00000

 Dipole moment (field-independent basis, Debye):
    X=              2.1576    Y=             -9.0108    Z=              4.7986  Tot=             10.4344

 Test job not archived.
 1\1\GINC-SE329\SP\RHF\Aug-CC-pVDZ\C4H9F1N3(1-)\OHZDE\09-Apr-2025\0\\#t
  hf aug-cc-pvdz iop(5/13=1,5/36=2,99/5=2) pseudo=read geom=check guess
 =(read,tcheck) scf=(maxcycle=1)\\title\\-1,1\C,0,-0.25807,-0.02139,-1.
 402708\C,0,0.026215,-0.257342,0.083687\F,0,-0.278982,-1.313638,-2.0312
 67\H,0,1.059397,-0.625767,0.101594\C,0,-1.644814,0.471663,-1.597323\N,
 0,-2.739867,0.841596,-1.807277\N,0,0.707984,0.793385,-1.99206\H,0,1.38
 502,1.251635,-1.327793\H,0,0.342735,1.455011,-2.660014\C,0,-0.901137,-
 1.301749,0.683722\H,0,-0.612342,-1.496518,1.722005\H,0,-0.854043,-2.23

 Normal termination of Gaussian 16 at Wed Apr  9 02:34:05 2025.
