 Gaussian 16, Revision C.01,

 ----------------------------------------------------------------------
 #t hf aug-cc-pvdz symm=none int=(grid=ultrafine) guess=(read,tcheck) s
 table=(opt,rrhf)
 ----------------------------------------------------------------------
 -----
 title
 -----
 Symbolic Z-matrix:
 Charge = -1 Multiplicity = 1

 SCF Done:  E(RHF) =  -1006.22657096     A.U. after   17 cycles
 Normal termination of Gaussian 16 at Wed Apr  9 02:49:52 2025.
 Gaussian 16:  ES64L-G16RevC.01  3-Jul-2019

 ----------------------------------------------------------------------
 #t hf aug-cc-pvdz iop(5/13=1,5/36=2,99/5=2) pseudo=read geom=check gue
 ss=(read,tcheck) scf=(maxcycle=1)
 ----------------------------------------------------------------------
 -----
 title
 -----
 Structure from the checkpoint file:  "E2SN2_28_mol1.chk"
 Charge = -1 Multiplicity = 1

                         Standard orientation:
 ---------------------------------------------------------------------
 Center     Atomic      Atomic             Coordinates (Angstroms)
 Number     Number       Type             X           Y           Z
 ---------------------------------------------------------------------
      1          6           0        0.275865   -0.031273    0.449815
      2          6           0       -1.036525   -0.362951   -0.075917
      3         17           0        1.745021   -1.365667   -0.459288
      4          9           0       -3.061449    1.043028    0.134751
      5          1           0       -1.836201    0.561126    0.137971
      6          7           0        0.938184    1.222432   -0.071144
      7          8           0        1.804996    1.721568    0.642575
      8          8           0        0.576444    1.668458   -1.153418
      9          7           0       -1.614864   -1.426679    0.749445
     10          1           0       -1.583755   -2.272058    0.187522
     11          1           0       -2.589328   -1.156595    0.848986
     12          7           0       -1.147873   -0.624954   -1.494982
     13          1           0       -0.252830   -0.533744   -1.955031
     14          1           0       -1.788434    0.062680   -1.872650
     15          7           0        0.424119   -0.122882    1.792979
     16          1           0        1.365761   -0.005823    2.129643
     17          1           0       -0.112033   -0.916794    2.127970
 ---------------------------------------------------------------------

 SCF Done:  E(RHF) =  -1008.84669058     A.U. after    2 cycles

 The electronic state is 1-A.
 Alpha  occ. eigenvalues --  -99.71219 -28.94183 -20.98900 -20.98540 -15.88730
 Alpha  occ. eigenvalues --  -15.66308 -15.59545 -15.58958 -11.46709 -11.28214
 Alpha  occ. eigenvalues --  -10.28207  -9.48341  -9.47757  -9.47727  -1.88484
 Alpha  occ. eigenvalues --   -1.58335  -1.34612  -1.22825  -1.11008  -1.09056
 Alpha  occ. eigenvalues --   -1.00103  -0.82737  -0.67647  -0.64715  -0.60559
 Alpha  occ. eigenvalues --   -0.56595  -0.56404  -0.50242  -0.49205  -0.45054
 Alpha  occ. eigenvalues --   -0.44325  -0.42927  -0.40989  -0.35646  -0.34733
 Alpha  occ. eigenvalues --   -0.29319  -0.27401  -0.25209  -0.23767  -0.21683
 Alpha  occ. eigenvalues --   -0.19868  -0.18773  -0.02463  -0.02389   0.00154
 Alpha virt. eigenvalues --    0.13191   0.14552   0.15621   0.16327   0.16884
 Alpha virt. eigenvalues --    0.17502   0.18900   0.20061   0.20999   0.24083
 Alpha virt. eigenvalues --    0.24554   0.25914   0.26115   0.26798   0.27894

 Mulliken charges:
               1
     1  C    3.581977
     2  C    2.848086
     3  Cl  -0.501026
     4  F    0.155306
     5  H    0.607890
     6  N    4.261615
     7  O   -2.927749
     8  O   -3.043688
     9  N   -2.830280
    10  H    0.558243
    11  H    0.453688
    12  N   -3.027258
    13  H    0.684735
    14  H    0.457860
    15  N   -3.698604
    16  H    0.771056
    17  H    0.648148
 Sum of Mulliken charges =  -1.00000

 Dipole moment (field-independent basis, Debye):
    X=             -0.1806    Y=              1.1900    Z=              1.5619  Tot=              1.9719

 Test job not archived.
 1\1\GINC-SE460\SP\RHF\Aug-CC-pVDZ\C2H7Cl1F1N4O2(1-)\OHZDE\09-Apr-2025\
 0\\#t hf aug-cc-pvdz iop(5/13=1,5/36=2,99/5=2) pseudo=read geom=check
 guess=(read,tcheck) scf=(maxcycle=1)\\title\\-1,1\C,0,-0.38708653,0.10
 119001,-0.25821095\C,0,-0.35048255,0.15063755,1.19264669\Cl,0,1.591650
 63,-0.46846477,-0.98318439\F,0,-2.33054254,0.24017329,2.67346418\H,0,-
 1.50082567,0.13235386,1.65689284\N,0,-1.07609966,-1.08137361,-0.897464
 17\O,0,-1.47457475,-0.92667604,-2.04949781\O,0,-1.20370547,-2.10848356
 ,-0.24181669\N,0,0.09298616,1.48555085,1.60320526\H,0,1.04059374,1.376

 Normal termination of Gaussian 16 at Wed Apr  9 02:50:00 2025.
