 Gaussian 16, Revision C.01,

 ----------------------------------------------------------------------
 #t hf aug-cc-pvdz symm=none int=(grid=ultrafine) guess=(read,tcheck) s
 table=(opt,rrhf)
 ----------------------------------------------------------------------
 -----
 title
 -----
 Symbolic Z-matrix:
 Charge = -1 Multiplicity = 1

 SCF Done:  E(RHF) =  -682.849429958     A.U. after   16 cycles
 Normal termination of Gaussian 16 at Wed Apr  9 02:59:43 2025.
 Gaussian 16:  ES64L-G16RevC.01  3-Jul-2019

 ----------------------------------------------------------------------
 #t hf aug-cc-pvdz iop(5/13=1,5/36=2,99/5=2) pseudo=read geom=check gue
 ss=(read,tcheck) scf=(maxcycle=1)
 ----------------------------------------------------------------------
 -----
 title
 -----
 Structure from the checkpoint file:  "E2SN2_409_mol1.chk"
 Charge = -1 Multiplicity = 1

                         Standard orientation:
 ---------------------------------------------------------------------
 Center     Atomic      Atomic             Coordinates (Angstroms)
 Number     Number       Type             X           Y           Z
 ---------------------------------------------------------------------
      1          6           0       -1.010089    0.062171    0.101850
      2          1           0        0.205085   -0.223016   -1.634964
      3          9           0       -0.334884    1.071003    1.432057
      4          9           0       -1.676139   -0.952728   -1.191238
      5          6           0        0.361021    0.091679   -0.606401
      6          7           0       -1.876513    1.139749   -0.279676
      7          1           0       -2.032775    1.708255    0.538924
      8          1           0       -2.721329    0.736906   -0.655796
      9          7           0       -1.252777   -0.983191    1.048858
     10          1           0       -2.031318   -1.531409    0.719600
     11          1           0       -1.402031   -0.559134    1.950668
     12          7           0        1.265088   -0.950711   -0.013650
     13          8           0        1.219715   -2.059774   -0.540172
     14          8           0        1.969286   -0.646415    0.942587
     15          6           0        1.029771    1.388869   -0.581633
     16          7           0        1.619252    2.393741   -0.725248
 ---------------------------------------------------------------------

 SCF Done:  E(RHF) =  -685.684964309     A.U. after    2 cycles

 The electronic state is 1-A.
 Alpha  occ. eigenvalues --  -28.98580 -28.97233 -20.96518 -20.96248 -15.86343
 Alpha  occ. eigenvalues --  -15.63438 -15.60914 -15.60326 -11.53304 -11.37736
 Alpha  occ. eigenvalues --  -11.31505  -1.85914  -1.55771  -1.32318  -1.18387
 Alpha  occ. eigenvalues --   -1.15030  -1.08697  -0.83182  -0.74956  -0.71036
 Alpha  occ. eigenvalues --   -0.59925  -0.57551  -0.55623  -0.52933  -0.49307
 Alpha  occ. eigenvalues --   -0.46310  -0.44957  -0.39994  -0.38060  -0.34211
 Alpha  occ. eigenvalues --   -0.31595  -0.30723  -0.28440  -0.22342  -0.21614
 Alpha  occ. eigenvalues --   -0.18524  -0.17951  -0.14856  -0.05786  -0.05444
 Alpha  occ. eigenvalues --   -0.03946  -0.03271   0.00705
 Alpha virt. eigenvalues --    0.13797   0.14255   0.15160   0.16229   0.17134
 Alpha virt. eigenvalues --    0.20139   0.22019   0.22858   0.23636   0.24849
 Alpha virt. eigenvalues --    0.25098   0.25926   0.26253   0.26975   0.28357

 Mulliken charges:
               1
     1  C    6.176278
     2  H    1.901287
     3  F   -0.366421
     4  F   -0.453517
     5  C   -1.866534
     6  N   -3.753325
     7  H    0.435518
     8  H    0.434315
     9  N   -3.995822
    10  H    0.504782
    11  H    0.540033
    12  N    4.566310
    13  O   -2.871947
    14  O   -2.914215
    15  C    3.635047
    16  N   -2.971787
 Sum of Mulliken charges =  -1.00000

 Dipole moment (field-independent basis, Debye):
    X=             -1.9257    Y=             -1.8893    Z=              1.4195  Tot=              3.0484

 Test job not archived.
 1\1\GINC-SE024\SP\RHF\Aug-CC-pVDZ\C3H5F2N4O2(1-)\OHZDE\09-Apr-2025\0\\
 #t hf aug-cc-pvdz iop(5/13=1,5/36=2,99/5=2) pseudo=read geom=check gue
 ss=(read,tcheck) scf=(maxcycle=1)\\title\\-1,1\C,0,0.68166904,-0.10068
 227,-0.01644032\H,0,1.52800099,1.83648182,-0.34143171\F,0,-1.10620086,
 -0.26136715,-0.16064968\F,0,2.44086168,0.04990656,0.15173075\C,0,0.544
 2454,1.43351925,-0.11529426\N,0,0.84515334,-0.74538984,-1.2872872\H,0,
 0.03914526,-1.33374162,-1.43532778\H,0,1.71529306,-1.25507814,-1.26409
 06\N,0,0.60751406,-0.69782286,1.282185\H,0,1.48278097,-1.16193863,1.46

 Normal termination of Gaussian 16 at Wed Apr  9 02:59:52 2025.
