 Gaussian 16, Revision C.01,

 ----------------------------------------------------------------------
 #t hf aug-cc-pvdz symm=none int=(grid=ultrafine) guess=(read,tcheck) s
 table=(opt,rrhf)
 ----------------------------------------------------------------------
 -----
 title
 -----
 Symbolic Z-matrix:
 Charge = -1 Multiplicity = 1

 SCF Done:  E(RHF) =  -974.230569556     A.U. after   16 cycles
 Normal termination of Gaussian 16 at Wed Apr  9 02:55:27 2025.
 Gaussian 16:  ES64L-G16RevC.01  3-Jul-2019

 ----------------------------------------------------------------------
 #t hf aug-cc-pvdz iop(5/13=1,5/36=2,99/5=2) pseudo=read geom=check gue
 ss=(read,tcheck) scf=(maxcycle=1)
 ----------------------------------------------------------------------
 -----
 title
 -----
 Structure from the checkpoint file:  "E2SN2_345_mol1.chk"
 Charge = -1 Multiplicity = 1

                         Standard orientation:
 ---------------------------------------------------------------------
 Center     Atomic      Atomic             Coordinates (Angstroms)
 Number     Number       Type             X           Y           Z
 ---------------------------------------------------------------------
      1          6           0        0.935600   -0.051168   -0.102425
      2          1           0       -0.063363   -1.643588    0.811456
      3         17           0       -0.028029    2.020639   -0.404648
      4          9           0        1.710553   -1.930781    0.280586
      5          6           0       -0.275223   -0.584320    0.673975
      6          6           0        2.109188    0.502145    0.676956
      7          1           0        2.494826    1.393937    0.183995
      8          1           0        1.810017    0.753936    1.691640
      9          1           0        2.857925   -0.284631    0.702819
     10          6           0        1.134302   -0.293565   -1.579495
     11          1           0        1.392918   -1.341112   -1.701806
     12          1           0        0.253254   -0.049488   -2.163782
     13          1           0        1.957336    0.339445   -1.917707
     14          7           0       -1.559737   -0.598052   -0.180999
     15          8           0       -2.570954   -0.073808    0.281635
     16          8           0       -1.530636   -1.239887   -1.228584
     17          7           0       -0.478870    0.065235    1.917768
     18          1           0       -1.243220   -0.376162    2.409668
     19          1           0       -0.718425    1.034552    1.741592
 ---------------------------------------------------------------------

 SCF Done:  E(RHF) =  -976.738597917     A.U. after    2 cycles

 The electronic state is 1-A.
 Alpha  occ. eigenvalues --  -99.66194 -28.92876 -20.96186 -20.95855 -15.84884
 Alpha  occ. eigenvalues --  -15.62165 -11.42943 -11.35055 -11.25287 -11.23799
 Alpha  occ. eigenvalues --  -10.23282  -9.43404  -9.43021  -9.42933  -1.85258
 Alpha  occ. eigenvalues --   -1.55392  -1.27414  -1.10940  -1.02284  -0.96963
 Alpha  occ. eigenvalues --   -0.89589  -0.77015  -0.66068  -0.60066  -0.56817
 Alpha  occ. eigenvalues --   -0.53253  -0.51245  -0.49650  -0.46103  -0.43605
 Alpha  occ. eigenvalues --   -0.43140  -0.41627  -0.35970  -0.34872  -0.32079
 Alpha  occ. eigenvalues --   -0.31300  -0.30020  -0.28757  -0.27823  -0.20937
 Alpha  occ. eigenvalues --   -0.18062  -0.16854  -0.03126  -0.01028  -0.00290
 Alpha virt. eigenvalues --    0.13606   0.14643   0.14818   0.15461   0.16302
 Alpha virt. eigenvalues --    0.16611   0.17299   0.17559   0.18064   0.21300
 Alpha virt. eigenvalues --    0.22564   0.22955   0.24301   0.25031   0.26294

 Mulliken charges:
               1
     1  C    6.652642
     2  H    1.281994
     3  Cl  -0.964536
     4  F   -0.939726
     5  C    0.250639
     6  C   -5.018847
     7  H    1.171089
     8  H    1.159104
     9  H    0.973642
    10  C   -5.073131
    11  H    0.919136
    12  H    1.258507
    13  H    1.134057
    14  N    4.311153
    15  O   -2.856231
    16  O   -3.098436
    17  N   -3.248727
    18  H    0.611543
    19  H    0.476128
 Sum of Mulliken charges =  -1.00000

 Dipole moment (field-independent basis, Debye):
    X=              0.0474    Y=             -3.1418    Z=              1.5169  Tot=              3.4891

 Test job not archived.
 1\1\GINC-SE080\SP\RHF\Aug-CC-pVDZ\C4H9Cl1F1N2O2(1-)\OHZDE\09-Apr-2025\
 0\\#t hf aug-cc-pvdz iop(5/13=1,5/36=2,99/5=2) pseudo=read geom=check
 guess=(read,tcheck) scf=(maxcycle=1)\\title\\-1,1\C,0,0.5218134,-0.069
 59182,0.0076964\H,0,1.77066188,1.60091709,0.14438508\Cl,0,-1.77742311,
 0.087859,-0.02433175\F,0,2.5905214,-0.07626766,-0.01673596\C,0,0.70123
 331,1.45385976,0.00109612\C,0,0.58505405,-0.81194442,-1.30980537\H,0,-
 0.17482033,-1.59237665,-1.33296611\H,0,0.42445109,-0.12985719,-2.14133
 906\H,0,1.58304903,-1.23632647,-1.37460769\C,0,0.5552925,-0.8939141,1.

 Normal termination of Gaussian 16 at Wed Apr  9 02:55:38 2025.
