 Gaussian 16, Revision C.01,

 ----------------------------------------------------------------------
 #t hf aug-cc-pvdz symm=none int=(grid=ultrafine) guess=(read,tcheck) s
 table=(opt,rrhf)
 ----------------------------------------------------------------------
 -----
 title
 -----
 Symbolic Z-matrix:
 Charge = -1 Multiplicity = 1

 SCF Done:  E(RHF) =  -627.800133869     A.U. after   16 cycles
 Normal termination of Gaussian 16 at Wed Apr  9 02:47:14 2025.
 Gaussian 16:  ES64L-G16RevC.01  3-Jul-2019

 ----------------------------------------------------------------------
 #t hf aug-cc-pvdz iop(5/13=1,5/36=2,99/5=2) pseudo=read geom=check gue
 ss=(read,tcheck) scf=(maxcycle=1)
 ----------------------------------------------------------------------
 -----
 title
 -----
 Structure from the checkpoint file:  "E2SN2_264_mol1.chk"
 Charge = -1 Multiplicity = 1

                         Standard orientation:
 ---------------------------------------------------------------------
 Center     Atomic      Atomic             Coordinates (Angstroms)
 Number     Number       Type             X           Y           Z
 ---------------------------------------------------------------------
      1          6           0       -0.104896    0.008498    0.087911
      2          1           0       -1.113547   -1.031514    1.633644
      3          9           0       -0.390467   -0.299989   -1.581040
      4          9           0        0.461135    0.396743    1.753369
      5          6           0       -1.059650   -1.071705    0.549786
      6          1           0       -0.596986   -2.015571    0.241429
      7          6           0       -0.520655    1.390860   -0.028343
      8          7           0       -0.888700    2.499633   -0.145912
      9          7           0        1.340505   -0.305633   -0.157718
     10          8           0        1.699781   -1.462470    0.023014
     11          8           0        2.055188    0.609301   -0.538753
     12          7           0       -2.390059   -0.837064   -0.012962
     13          1           0       -3.000222   -1.591117    0.278602
     14          1           0       -2.286038   -0.871705   -1.018704
 ---------------------------------------------------------------------

 SCF Done:  E(RHF) =  -630.381313542     A.U. after    2 cycles

 The electronic state is 1-A.
 Alpha  occ. eigenvalues --  -29.02781 -28.99027 -20.95864 -20.95648 -15.86700
 Alpha  occ. eigenvalues --  -15.62788 -15.61270 -11.50907 -11.32853 -11.30197
 Alpha  occ. eigenvalues --   -1.86107  -1.56021  -1.26612  -1.17226  -1.10038
 Alpha  occ. eigenvalues --   -0.86936  -0.79390  -0.69244  -0.60403  -0.57874
 Alpha  occ. eigenvalues --   -0.51082  -0.48157  -0.45964  -0.44395  -0.41532
 Alpha  occ. eigenvalues --   -0.38829  -0.36307  -0.31111  -0.29187  -0.25483
 Alpha  occ. eigenvalues --   -0.23254  -0.18925  -0.17787  -0.16792  -0.07984
 Alpha  occ. eigenvalues --   -0.07597  -0.05012  -0.04032   0.00291
 Alpha virt. eigenvalues --    0.12625   0.15073   0.15703   0.17107   0.20288
 Alpha virt. eigenvalues --    0.21409   0.23224   0.24439   0.24792   0.25482
 Alpha virt. eigenvalues --    0.26143   0.26863   0.27357   0.29072   0.29538

 Mulliken charges:
               1
     1  C    2.441815
     2  H    1.078997
     3  F   -0.359768
     4  F   -0.582127
     5  C   -1.970741
     6  H    1.319564
     7  C    2.774956
     8  N   -3.124258
     9  N    5.309131
    10  O   -3.340979
    11  O   -3.349713
    12  N   -2.326085
    13  H    0.574467
    14  H    0.554741
 Sum of Mulliken charges =  -1.00000

 Dipole moment (field-independent basis, Debye):
    X=             -0.7702    Y=             -4.2189    Z=             -0.5291  Tot=              4.3211

 Test job not archived.
 1\1\GINC-SE069\SP\RHF\Aug-CC-pVDZ\C3H4F2N3O2(1-)\OHZDE\09-Apr-2025\0\\
 #t hf aug-cc-pvdz iop(5/13=1,5/36=2,99/5=2) pseudo=read geom=check gue
 ss=(read,tcheck) scf=(maxcycle=1)\\title\\-1,1\C,0,0.66755466,0.008871
 23,-0.03213924\H,0,1.6967571,1.86017078,-0.07366013\F,0,-1.0487851,-0.
 10292977,-0.09371414\F,0,2.4510095,-0.11357457,0.1896095\C,0,0.6652349
 8,1.52270496,-0.03696811\H,0,0.21947653,1.81270024,0.92075075\C,0,0.82
 729403,-0.75442358,-1.25245083\N,0,0.92605049,-1.35239929,-2.2580996\N
 ,0,0.615769,-0.74947256,1.26031134\O,0,0.56352359,-0.09224272,2.292461

 Normal termination of Gaussian 16 at Wed Apr  9 02:47:20 2025.
