 Gaussian 16, Revision C.01,

 ----------------------------------------------------------------------
 #t hf aug-cc-pvdz symm=none int=(grid=ultrafine) guess=(read,tcheck) s
 table=(opt,rrhf)
 ----------------------------------------------------------------------
 -----
 title
 -----
 Symbolic Z-matrix:
 Charge = -1 Multiplicity = 1

 SCF Done:  E(RHF) =  -761.112297981     A.U. after   17 cycles
 Normal termination of Gaussian 16 at Wed Apr  9 03:01:14 2025.
 Gaussian 16:  ES64L-G16RevC.01  3-Jul-2019

 ----------------------------------------------------------------------
 #t hf aug-cc-pvdz iop(5/13=1,5/36=2,99/5=2) pseudo=read geom=check gue
 ss=(read,tcheck) scf=(maxcycle=1)
 ----------------------------------------------------------------------
 -----
 title
 -----
 Structure from the checkpoint file:  "E2SN2_67_mol1.chk"
 Charge = -1 Multiplicity = 1

                         Standard orientation:
 ---------------------------------------------------------------------
 Center     Atomic      Atomic             Coordinates (Angstroms)
 Number     Number       Type             X           Y           Z
 ---------------------------------------------------------------------
      1          6           0        0.066130   -0.205254   -0.134821
      2          6           0       -1.063472   -0.954391   -0.649010
      3         17           0       -0.134554    0.549196    1.566002
      4          1           0       -0.610617    0.446658   -2.384301
      5          1           0       -0.878875   -0.390073   -1.939455
      6          6           0        1.257605   -1.033188   -0.065949
      7          7           0        2.218424   -1.713018   -0.046848
      8          6           0        0.435862    1.091817   -1.015610
      9          7           0        1.141741    2.050609   -1.025064
     10          6           0       -2.432816   -0.398479   -0.352767
     11          1           0       -2.484343    0.639300   -0.708858
     12          1           0       -3.199529   -0.970707   -0.886120
     13          1           0       -2.684630   -0.391600    0.713557
     14          1           0       -0.955598   -2.036079   -0.604523
 ---------------------------------------------------------------------

 SCF Done:  E(RHF) =  -762.827438086     A.U. after    2 cycles

 The electronic state is 1-A.
 Alpha  occ. eigenvalues --  -99.75350 -15.64105 -15.58172 -11.41165 -11.32466
 Alpha  occ. eigenvalues --  -11.28326 -11.26922 -11.22274 -10.32589  -9.52537
 Alpha  occ. eigenvalues --   -9.51929  -9.51845  -1.26316  -1.15279  -1.11340
 Alpha  occ. eigenvalues --   -1.04981  -0.91676  -0.72459  -0.65812  -0.56519
 Alpha  occ. eigenvalues --   -0.49613  -0.46142  -0.42435  -0.41408  -0.39718
 Alpha  occ. eigenvalues --   -0.37670  -0.37400  -0.35603  -0.32963  -0.30272
 Alpha  occ. eigenvalues --   -0.29061  -0.26379  -0.25656  -0.10735
 Alpha virt. eigenvalues --    0.13161   0.14571   0.14965   0.16167   0.16566
 Alpha virt. eigenvalues --    0.17775   0.19337   0.19837   0.20859   0.21612
 Alpha virt. eigenvalues --    0.23125   0.24109   0.24214   0.25193   0.25546

 Mulliken charges:
               1
     1  C    0.503256
     2  C   -1.991396
     3  Cl  -0.047668
     4  H    0.191866
     5  H    0.447863
     6  C    1.919505
     7  N   -2.683294
     8  C    2.144300
     9  N   -2.661278
    10  C   -3.954147
    11  H    1.323644
    12  H    1.128351
    13  H    1.253612
    14  H    1.425388
 Sum of Mulliken charges =  -1.00000

 Dipole moment (field-independent basis, Debye):
    X=             -2.9056    Y=             -2.3604    Z=              2.8047  Tot=              4.6777

 Test job not archived.
 1\1\GINC-SE015\SP\RHF\Aug-CC-pVDZ\C5H6Cl1N2(1-)\OHZDE\09-Apr-2025\0\\#
 t hf aug-cc-pvdz iop(5/13=1,5/36=2,99/5=2) pseudo=read geom=check gues
 s=(read,tcheck) scf=(maxcycle=1)\\title\\-1,1\C,0,-0.23715583,0.030770
 29,-0.26574131\C,0,-0.03004602,-0.06396761,1.16594561\Cl,0,1.16933356,
 0.75034492,-1.26886968\H,0,-2.05036445,0.97830803,1.05999708\H,0,-1.36
 123446,0.36770516,1.40961434\C,0,-0.5131834,-1.27293183,-0.84366878\N,
 0,-0.76491508,-2.33409449,-1.28669595\C,0,-1.45231873,1.00388211,-0.67
 964407\N,0,-1.97846716,1.49907711,-1.62599861\C,0,0.70198314,1.0804406

 Normal termination of Gaussian 16 at Wed Apr  9 03:01:20 2025.
