 Gaussian 16, Revision C.01,

 ----------------------------------------------------------------------
 #t hf aug-cc-pvdz symm=none int=(grid=ultrafine) guess=(read,tcheck) s
 table=(opt,rrhf)
 ----------------------------------------------------------------------
 -----
 title
 -----
 Symbolic Z-matrix:
 Charge = -1 Multiplicity = 1

 SCF Done:  E(RHF) =  -1238.60678914     A.U. after   15 cycles
 Normal termination of Gaussian 16 at Wed Apr  9 03:01:36 2025.
 Gaussian 16:  ES64L-G16RevC.01  3-Jul-2019

 ----------------------------------------------------------------------
 #t hf aug-cc-pvdz iop(5/13=1,5/36=2,99/5=2) pseudo=read geom=check gue
 ss=(read,tcheck) scf=(maxcycle=1)
 ----------------------------------------------------------------------
 -----
 title
 -----
 Structure from the checkpoint file:  "E2SN2_58_mol2.chk"
 Charge = -1 Multiplicity = 1

                         Standard orientation:
 ---------------------------------------------------------------------
 Center     Atomic      Atomic             Coordinates (Angstroms)
 Number     Number       Type             X           Y           Z
 ---------------------------------------------------------------------
      1          6           0        1.184334    0.002370    0.332468
      2          6           0       -0.334010    0.045023    0.073616
      3         17           0        1.841656   -1.600904   -0.202949
      4          1           0       -0.786338   -0.732990    0.708282
      5          6           0        1.862744    1.032680   -0.456044
      6          7           0        2.428846    1.890760   -1.024588
      7          6           0        1.506872    0.166384    1.810317
      8          1           0        1.109687    1.124226    2.142202
      9          1           0        2.584085    0.114124    1.978457
     10          1           0        1.016242   -0.633459    2.368618
     11          7           0       -0.622482   -0.133459   -1.340283
     12          1           0       -1.642074   -0.109018   -1.390308
     13          1           0       -0.349089   -1.067899   -1.626994
     14          7           0       -0.823540    1.321610    0.551196
     15          1           0       -0.719416    1.979011   -0.217924
     16          1           0       -1.827724    1.188776    0.682072
     17         17           0       -3.699584   -0.216384    0.055254
 ---------------------------------------------------------------------

 SCF Done:  E(RHF) =  -1240.62570108     A.U. after    2 cycles

 The electronic state is 1-A.
 Alpha  occ. eigenvalues --  -99.79536 -99.61496 -15.66774 -15.60178 -15.59963
 Alpha  occ. eigenvalues --  -11.41679 -11.36158 -11.33569 -11.29667 -10.36923
 Alpha  occ. eigenvalues --  -10.18163  -9.56910  -9.56223  -9.56135  -9.38153
 Alpha  occ. eigenvalues --   -9.37838  -9.37749  -1.35040  -1.23415  -1.18728
 Alpha  occ. eigenvalues --   -1.11239  -1.05143  -0.97255  -0.88128  -0.78315
 Alpha  occ. eigenvalues --   -0.61973  -0.58612  -0.55217  -0.54177  -0.48426
 Alpha  occ. eigenvalues --   -0.47051  -0.44853  -0.43549  -0.41990  -0.40934
 Alpha  occ. eigenvalues --   -0.38453  -0.36671  -0.33416  -0.31595  -0.26543
 Alpha  occ. eigenvalues --   -0.26230  -0.25279  -0.24443  -0.23233
 Alpha virt. eigenvalues --    0.12111   0.13751   0.14209   0.15093   0.16077
 Alpha virt. eigenvalues --    0.16386   0.16935   0.17955   0.18789   0.19691
 Alpha virt. eigenvalues --    0.20402   0.20928   0.22520   0.23677   0.24322

 Mulliken charges:
               1
     1  C    0.534927
     2  C    2.111067
     3  Cl  -0.118498
     4  H    1.777669
     5  C    2.507954
     6  N   -2.703856
     7  C   -3.918708
     8  H    1.448025
     9  H    1.181961
    10  H    1.176538
    11  N   -3.116064
    12  H    0.499269
    13  H    0.555524
    14  N   -2.996012
    15  H    0.603410
    16  H    0.433154
    17  Cl  -0.976359
 Sum of Mulliken charges =  -1.00000

 Dipole moment (field-independent basis, Debye):
    X=              9.9451    Y=             -0.4754    Z=              1.6546  Tot=             10.0930

 Test job not archived.
 1\1\GINC-SE021\SP\RHF\Aug-CC-pVDZ\C4H8Cl2N3(1-)\OHZDE\09-Apr-2025\0\\#
 t hf aug-cc-pvdz iop(5/13=1,5/36=2,99/5=2) pseudo=read geom=check gues
 s=(read,tcheck) scf=(maxcycle=1)\\title\\-1,1\C,0,-0.522203,0.069401,-
 1.584398\C,0,0.210179,-0.020291,-0.231711\Cl,0,-0.290287,-1.479693,-2.
 498595\H,0,1.283341,-0.120225,-0.457637\C,0,-1.961378,0.234736,-1.3723
 39\N,0,-3.111127,0.433648,-1.23622\C,0,0.021517,1.201419,-2.443393\H,0
 ,-0.107628,2.135414,-1.899022\H,0,-0.494123,1.23848,-3.404711\H,0,1.08
 713,1.034248,-2.612773\N,0,-0.309546,-1.119598,0.56553\H,0,0.254194,-1

 Normal termination of Gaussian 16 at Wed Apr  9 03:01:45 2025.
