 Gaussian 16, Revision C.01,

 ----------------------------------------------------------------------
 #t hf aug-cc-pvdz symm=none int=(grid=ultrafine) guess=(read,tcheck) s
 table=(opt,rrhf)
 ----------------------------------------------------------------------
 -----
 title
 -----
 Symbolic Z-matrix:
 Charge = -1 Multiplicity = 1

 SCF Done:  E(RHF) =  -403.489028661     A.U. after   15 cycles
 Normal termination of Gaussian 16 at Wed Apr  9 02:34:08 2025.
 Gaussian 16:  ES64L-G16RevC.01  3-Jul-2019

 ----------------------------------------------------------------------
 #t hf aug-cc-pvdz iop(5/13=1,5/36=2,99/5=2) pseudo=read geom=check gue
 ss=(read,tcheck) scf=(maxcycle=1)
 ----------------------------------------------------------------------
 -----
 title
 -----
 Structure from the checkpoint file:  "E2SN2_115_mol2.chk"
 Charge = -1 Multiplicity = 1

                         Standard orientation:
 ---------------------------------------------------------------------
 Center     Atomic      Atomic             Coordinates (Angstroms)
 Number     Number       Type             X           Y           Z
 ---------------------------------------------------------------------
      1          6           0        0.770784   -0.229071    0.084517
      2          6           0       -0.462375    0.520256   -0.436818
      3          9           0        0.624879   -0.396883    1.488023
      4          1           0       -0.265846    0.640638   -1.513335
      5          6           0        0.869360   -1.628597   -0.496288
      6          1           0       -0.002353   -2.237256   -0.243459
      7          1           0        1.763585   -2.116015   -0.095511
      8          1           0        0.967673   -1.536971   -1.581238
      9          7           0        1.902694    0.598788   -0.168419
     10          1           0        1.824837    0.885672   -1.179025
     11          1           0        2.743667    0.034941   -0.085769
     12          6           0       -0.602562    1.912773    0.181801
     13          1           0        0.256590    2.512011   -0.114542
     14          1           0       -1.515891    2.395337   -0.176415
     15          1           0       -0.633790    1.847022    1.270998
     16          6           0       -1.679007   -0.258019   -0.224931
     17          7           0       -2.675980   -0.857346   -0.054491
     18          1           0        1.273412    1.052424   -2.763217
 ---------------------------------------------------------------------

 SCF Done:  E(RHF) =  -405.328126936     A.U. after    2 cycles

 The electronic state is 1-A.
 Alpha  occ. eigenvalues --  -29.11089 -15.63513 -15.57997 -11.38532 -11.34379
 Alpha  occ. eigenvalues --  -11.30619 -11.26845 -11.24727  -1.29718  -1.17562
 Alpha  occ. eigenvalues --   -1.05540  -0.97751  -0.83888  -0.78787  -0.63544
 Alpha  occ. eigenvalues --   -0.53737  -0.51632  -0.49593  -0.45814  -0.44308
 Alpha  occ. eigenvalues --   -0.43161  -0.40968  -0.39711  -0.37206  -0.35581
 Alpha  occ. eigenvalues --   -0.30351  -0.29195  -0.24070  -0.20923  -0.12464
 Alpha  occ. eigenvalues --   -0.12068  -0.10243
 Alpha virt. eigenvalues --    0.13387   0.14107   0.14825   0.15078   0.15692
 Alpha virt. eigenvalues --    0.16737   0.17349   0.18073   0.19529   0.20198
 Alpha virt. eigenvalues --    0.21462   0.22361   0.22501   0.24271   0.25221

 Mulliken charges:
               1
     1  C    5.174513
     2  C   -2.033323
     3  F   -0.141446
     4  H    1.921130
     5  C   -4.547842
     6  H    1.205085
     7  H    1.127574
     8  H    1.174949
     9  N   -3.535502
    10  H    0.546426
    11  H    0.477361
    12  C   -4.176704
    13  H    1.383199
    14  H    1.168470
    15  H    1.273547
    16  C    1.584999
    17  N   -2.540950
    18  H   -1.061484
 Sum of Mulliken charges =  -1.00000

 Dipole moment (field-independent basis, Debye):
    X=             -1.2788    Y=             -2.7475    Z=              9.9449  Tot=             10.3964

 Test job not archived.
 1\1\GINC-SE024\SP\RHF\Aug-CC-pVDZ\C5H10F1N2(1-)\OHZDE\09-Apr-2025\0\\#
 t hf aug-cc-pvdz iop(5/13=1,5/36=2,99/5=2) pseudo=read geom=check gues
 s=(read,tcheck) scf=(maxcycle=1)\\title\\-1,1\C,0,-0.236121,-0.029684,
 -1.467709\C,0,-0.026708,0.064993,0.049243\F,0,-1.61774,-0.257726,-1.70
 9377\H,0,1.059173,0.20848,0.160056\C,0,0.101395,1.274921,-2.167576\H,0
 ,-0.519884,2.100779,-1.81227\H,0,-0.062215,1.152469,-3.242785\H,0,1.15
 8315,1.489609,-1.988674\N,0,0.506784,-1.156736,-1.924211\H,0,1.469956,
 -1.048305,-1.511622\H,0,0.609012,-1.092679,-2.932891\C,0,-0.414134,-1.

 Normal termination of Gaussian 16 at Wed Apr  9 02:34:15 2025.
