 Gaussian 16, Revision C.01,

 ----------------------------------------------------------------------
 #t hf aug-cc-pvdz symm=none int=(grid=ultrafine) guess=(read,tcheck) s
 table=(opt,rrhf)
 ----------------------------------------------------------------------
 -----
 title
 -----
 Symbolic Z-matrix:
 Charge = -1 Multiplicity = 1

 SCF Done:  E(RHF) =  -1292.98736935     A.U. after   16 cycles
 Normal termination of Gaussian 16 at Wed Apr  9 02:38:47 2025.
 Gaussian 16:  ES64L-G16RevC.01  3-Jul-2019

 ----------------------------------------------------------------------
 #t hf aug-cc-pvdz iop(5/13=1,5/36=2,99/5=2) pseudo=read geom=check gue
 ss=(read,tcheck) scf=(maxcycle=1)
 ----------------------------------------------------------------------
 -----
 title
 -----
 Structure from the checkpoint file:  "E2SN2_170_mol2.chk"
 Charge = -1 Multiplicity = 1

                         Standard orientation:
 ---------------------------------------------------------------------
 Center     Atomic      Atomic             Coordinates (Angstroms)
 Number     Number       Type             X           Y           Z
 ---------------------------------------------------------------------
      1          6           0       -0.275647   -0.300877   -0.193220
      2          6           0       -0.524963    0.746030    0.870579
      3         17           0       -1.783934   -1.112943   -0.695450
      4          1           0        0.447581    1.215919    1.056825
      5          1           0        0.229125    0.111104   -1.062861
      6          1           0       -0.904175    0.274633    1.778392
      7          7           0        0.633860   -1.383498    0.335257
      8          8           0        1.174442   -2.086265   -0.507182
      9          8           0        0.724655   -1.513226    1.552627
     10          6           0       -1.470274    1.756451    0.410128
     11          7           0       -2.242591    2.573370    0.073886
     12         17           0        2.367529    1.445622   -0.453070
 ---------------------------------------------------------------------

 SCF Done:  E(RHF) =  -1295.10955664     A.U. after    2 cycles

 The electronic state is 1-A.
 Alpha  occ. eigenvalues --  -99.81052 -99.61823 -20.99734 -20.99534 -15.89422
 Alpha  occ. eigenvalues --  -15.66312 -11.42338 -11.36493 -11.32314 -10.38457
 Alpha  occ. eigenvalues --  -10.18495  -9.58410  -9.57633  -9.57514  -9.38513
 Alpha  occ. eigenvalues --   -9.38176  -9.38092  -1.89079  -1.59128  -1.29539
 Alpha  occ. eigenvalues --   -1.20213  -1.09288  -0.97684  -0.97094  -0.74917
 Alpha  occ. eigenvalues --   -0.64434  -0.62999  -0.59291  -0.54199  -0.52651
 Alpha  occ. eigenvalues --   -0.48088  -0.46248  -0.42749  -0.41515  -0.40657
 Alpha  occ. eigenvalues --   -0.33491  -0.33040  -0.26285  -0.25711  -0.25587
 Alpha  occ. eigenvalues --   -0.25090  -0.21476  -0.20857
 Alpha virt. eigenvalues --    0.13489   0.14768   0.16788   0.17670   0.18894
 Alpha virt. eigenvalues --    0.19109   0.21807   0.22058   0.23258   0.23709
 Alpha virt. eigenvalues --    0.24220   0.24659   0.26006   0.26305   0.26683

 Mulliken charges:
               1
     1  C   -1.974198
     2  C   -1.325103
     3  Cl   0.038501
     4  H    1.315320
     5  H    1.978018
     6  H    1.503197
     7  N    4.782547
     8  O   -2.921482
     9  O   -2.876185
    10  C    1.949624
    11  N   -2.518461
    12  Cl  -0.951778
 Sum of Mulliken charges =  -1.00000

 Dipole moment (field-independent basis, Debye):
    X=             -5.8611    Y=             -5.7686    Z=              2.3839  Tot=              8.5622

 Test job not archived.
 1\1\GINC-SE398\SP\RHF\Aug-CC-pVDZ\C3H3Cl2N2O2(1-)\OHZDE\09-Apr-2025\0\
 \#t hf aug-cc-pvdz iop(5/13=1,5/36=2,99/5=2) pseudo=read geom=check gu
 ess=(read,tcheck) scf=(maxcycle=1)\\title\\-1,1\C,0,-0.11777,-0.020914
 ,0.003506\C,0,-0.52758,0.014963,-1.452725\Cl,0,1.632753,0.261088,0.210
 289\H,0,-1.616729,-0.107775,-1.456603\H,0,-0.679652,0.68882,0.604642\H
 ,0,-0.047142,-0.799212,-1.997188\N,0,-0.402287,-1.378885,0.598084\O,0,
 -0.436165,-1.431468,1.819518\O,0,-0.525902,-2.327719,-0.171004\C,0,-0.
 182148,1.290002,-2.070408\N,0,0.100756,2.298652,-2.599064\Cl,0,-3.2444

 Normal termination of Gaussian 16 at Wed Apr  9 02:38:53 2025.
