 Gaussian 16, Revision C.01,

 ----------------------------------------------------------------------
 #t hf aug-cc-pvdz symm=none int=(grid=ultrafine) guess=(read,tcheck) s
 table=(opt,rrhf)
 ----------------------------------------------------------------------
 -----
 title
 -----
 Symbolic Z-matrix:
 Charge = -1 Multiplicity = 1

 SCF Done:  E(RHF) =  -479.339659261     A.U. after   15 cycles
 Normal termination of Gaussian 16 at Wed Apr  9 02:51:02 2025.
 Gaussian 16:  ES64L-G16RevC.01  3-Jul-2019

 ----------------------------------------------------------------------
 #t hf aug-cc-pvdz iop(5/13=1,5/36=2,99/5=2) pseudo=read geom=check gue
 ss=(read,tcheck) scf=(maxcycle=1)
 ----------------------------------------------------------------------
 -----
 title
 -----
 Structure from the checkpoint file:  "E2SN2_301_mol1.chk"
 Charge = -1 Multiplicity = 1

                         Standard orientation:
 ---------------------------------------------------------------------
 Center     Atomic      Atomic             Coordinates (Angstroms)
 Number     Number       Type             X           Y           Z
 ---------------------------------------------------------------------
      1          6           0       -0.189586   -0.300544    0.181061
      2          1           0        0.903312   -1.375060   -1.291228
      3          9           0        0.663704    0.475003    1.542015
      4          9           0       -1.193535   -0.942520   -1.239316
      5          6           0        1.121702   -0.783423   -0.405748
      6          1           0        1.548022   -1.426936    0.374615
      7          6           0       -0.731075    1.004685   -0.196671
      8          7           0       -1.210793    2.053447   -0.422159
      9          7           0       -0.912142   -1.168910    1.068957
     10          1           0       -1.798032   -1.346027    0.618296
     11          1           0       -1.024451   -0.668973    1.939624
     12          7           0        1.971733    0.351116   -0.765415
     13          1           0        2.858472    0.001407   -1.108795
     14          1           0        2.133322    0.849364    0.101662
 ---------------------------------------------------------------------

 SCF Done:  E(RHF) =  -481.349064350     A.U. after    2 cycles

 The electronic state is 1-A.
 Alpha  occ. eigenvalues --  -28.98056 -28.95118 -15.59750 -15.59531 -15.58848
 Alpha  occ. eigenvalues --  -11.45082 -11.28956 -11.26071  -1.27852  -1.17486
 Alpha  occ. eigenvalues --   -1.12528  -0.93198  -0.78436  -0.64605  -0.56496
 Alpha  occ. eigenvalues --   -0.53433  -0.47738  -0.42050  -0.39804  -0.38363
 Alpha  occ. eigenvalues --   -0.37330  -0.33478  -0.27406  -0.25811  -0.23786
 Alpha  occ. eigenvalues --   -0.22473  -0.12835  -0.04862  -0.04329  -0.01977
 Alpha  occ. eigenvalues --   -0.01710   0.02644
 Alpha virt. eigenvalues --    0.13448   0.15117   0.15457   0.16383   0.17645
 Alpha virt. eigenvalues --    0.18032   0.21047   0.22359   0.23857   0.24872
 Alpha virt. eigenvalues --    0.25997   0.26301   0.28667   0.28972   0.29056

 Mulliken charges:
               1
     1  C    4.468780
     2  H    1.147948
     3  F   -0.423829
     4  F   -0.648085
     5  C   -2.318950
     6  H    1.388790
     7  C    2.870156
     8  N   -3.221667
     9  N   -3.896513
    10  H    0.439677
    11  H    0.477436
    12  N   -2.420718
    13  H    0.593221
    14  H    0.543755
 Sum of Mulliken charges =  -1.00000

 Dipole moment (field-independent basis, Debye):
    X=              2.7442    Y=             -2.4971    Z=              1.5422  Tot=              4.0181

 Test job not archived.
 1\1\GINC-SE042\SP\RHF\Aug-CC-pVDZ\C3H6F2N3(1-)\OHZDE\09-Apr-2025\0\\#t
  hf aug-cc-pvdz iop(5/13=1,5/36=2,99/5=2) pseudo=read geom=check guess
 =(read,tcheck) scf=(maxcycle=1)\\title\\-1,1\C,0,0.67326184,-0.0115432
 9,0.01038046\H,0,1.73470807,1.82859564,0.07255516\F,0,-1.11029248,-0.0
 1683016,-0.01569704\F,0,2.51853463,-0.15732835,-0.09559824\C,0,0.69917
 878,1.50381808,0.00930354\H,0,0.16533724,1.78537832,0.92612497\C,0,0.6
 7364239,-0.75066021,-1.25184841\N,0,0.63532018,-1.41268397,-2.22196791
 \N,0,0.70267018,-0.70352046,1.26927218\H,0,1.54916264,-1.25363811,1.25

 Normal termination of Gaussian 16 at Wed Apr  9 02:51:07 2025.
