 Gaussian 16, Revision C.01,

 ----------------------------------------------------------------------
 #t hf aug-cc-pvdz symm=none int=(grid=ultrafine) guess=(read,tcheck) s
 table=(opt,rrhf)
 ----------------------------------------------------------------------
 -----
 title
 -----
 Symbolic Z-matrix:
 Charge = -1 Multiplicity = 1

 SCF Done:  E(RHF) =  -833.911209931     A.U. after   17 cycles
 Normal termination of Gaussian 16 at Wed Apr  9 02:57:45 2025.
 Gaussian 16:  ES64L-G16RevC.01  3-Jul-2019

 ----------------------------------------------------------------------
 #t hf aug-cc-pvdz iop(5/13=1,5/36=2,99/5=2) pseudo=read geom=check gue
 ss=(read,tcheck) scf=(maxcycle=1)
 ----------------------------------------------------------------------
 -----
 title
 -----
 Structure from the checkpoint file:  "E2SN2_3_mol2.chk"
 Charge = -1 Multiplicity = 1

                         Standard orientation:
 ---------------------------------------------------------------------
 Center     Atomic      Atomic             Coordinates (Angstroms)
 Number     Number       Type             X           Y           Z
 ---------------------------------------------------------------------
      1          6           0        0.136297   -0.017815    0.402909
      2          6           0       -0.847057   -1.023036   -0.147904
      3         17           0       -0.119255    1.643480   -0.208273
      4          1           0       -0.650579   -1.881565    0.503814
      5          1           0        0.128234   -0.055981    1.495971
      6          1           0       -0.639175   -1.249362   -1.193663
      7          7           0        1.547058   -0.399040    0.019683
      8          8           0        2.439266    0.119391    0.677875
      9          8           0        1.709916   -1.147256   -0.940452
     10          6           0       -2.225362   -0.586696    0.012328
     11          7           0       -3.351692   -0.276248    0.131046
     12          1           0        0.244564   -2.037030    2.176028
 ---------------------------------------------------------------------

 SCF Done:  E(RHF) =  -835.810211685     A.U. after    2 cycles

 The electronic state is 1-A.
 Alpha  occ. eigenvalues --  -99.79960 -20.98763 -20.98566 -15.88425 -15.65308
 Alpha  occ. eigenvalues --  -11.40899 -11.34991 -11.30785 -10.37345  -9.57303
 Alpha  occ. eigenvalues --   -9.56533  -9.56395  -1.88121  -1.58022  -1.28141
 Alpha  occ. eigenvalues --   -1.19201  -1.08277  -0.95745  -0.73367  -0.62902
 Alpha  occ. eigenvalues --   -0.62190  -0.57965  -0.52981  -0.51305  -0.47036
 Alpha  occ. eigenvalues --   -0.44692  -0.41391  -0.40576  -0.39279  -0.32386
 Alpha  occ. eigenvalues --   -0.31818  -0.24564  -0.20538  -0.19948  -0.11857
 Alpha virt. eigenvalues --    0.14208   0.15335   0.17346   0.18115   0.19189
 Alpha virt. eigenvalues --    0.19800   0.21926   0.22501   0.23977   0.24434
 Alpha virt. eigenvalues --    0.24646   0.25437   0.25689   0.26400   0.26926

 Mulliken charges:
               1
     1  C   -1.622656
     2  C   -2.023018
     3  Cl   0.036378
     4  H    1.472878
     5  H    1.947840
     6  H    1.469480
     7  N    4.760477
     8  O   -2.880254
     9  O   -2.840447
    10  C    2.177827
    11  N   -2.530636
    12  H   -0.967869
 Sum of Mulliken charges =  -1.00000

 Dipole moment (field-independent basis, Debye):
    X=              1.3101    Y=              5.3202    Z=             -7.1273  Tot=              8.9899

 Test job not archived.
 1\1\GINC-SE227\SP\RHF\Aug-CC-pVDZ\C3H4Cl1N2O2(1-)\OHZDE\09-Apr-2025\0\
 \#t hf aug-cc-pvdz iop(5/13=1,5/36=2,99/5=2) pseudo=read geom=check gu
 ess=(read,tcheck) scf=(maxcycle=1)\\title\\-1,1\C,0,-0.181222,0.05487,
 -1.39699\C,0,-0.081873,-0.065175,0.105198\Cl,0,-1.828431,0.440074,-1.9
 77566\H,0,1.005452,-0.081011,0.238939\H,0,0.557545,0.776021,-1.758199\
 H,0,-0.549616,-0.982908,0.461614\N,0,0.206927,-1.248658,-2.054711\O,0,
 0.500201,-1.183155,-3.241186\O,0,0.154572,-2.2783,-1.387399\C,0,-0.646
 378,1.089465,0.786322\N,0,-1.082858,2.007359,1.37458\H,0,2.440916,0.40

 Normal termination of Gaussian 16 at Wed Apr  9 02:57:51 2025.
