 Gaussian 16, Revision C.01,

 ----------------------------------------------------------------------
 #t hf aug-cc-pvdz symm=none int=(grid=ultrafine) guess=(read,tcheck) s
 table=(opt,rrhf)
 ----------------------------------------------------------------------
 -----
 title
 -----
 Symbolic Z-matrix:
 Charge = -1 Multiplicity = 1

 SCF Done:  E(RHF) =  -891.284299664     A.U. after   16 cycles
 Normal termination of Gaussian 16 at Wed Apr  9 03:00:44 2025.
 Gaussian 16:  ES64L-G16RevC.01  3-Jul-2019

 ----------------------------------------------------------------------
 #t hf aug-cc-pvdz iop(5/13=1,5/36=2,99/5=2) pseudo=read geom=check gue
 ss=(read,tcheck) scf=(maxcycle=1)
 ----------------------------------------------------------------------
 -----
 title
 -----
 Structure from the checkpoint file:  "E2SN2_47_mol2.chk"
 Charge = -1 Multiplicity = 1

                         Standard orientation:
 ---------------------------------------------------------------------
 Center     Atomic      Atomic             Coordinates (Angstroms)
 Number     Number       Type             X           Y           Z
 ---------------------------------------------------------------------
      1          6           0       -0.091806    0.183542    0.284353
      2          6           0        1.203083   -0.369372   -0.339946
      3         17           0       -0.434537    1.849133   -0.414709
      4          1           0        1.201169   -0.127844   -1.407619
      5          7           0       -1.325883   -0.598450   -0.150047
      6          8           0       -1.386961   -0.934366   -1.327643
      7          8           0       -2.190844   -0.815501    0.695677
      8          7           0        0.002701    0.174018    1.676472
      9          1           0        0.910775    0.599551    1.865832
     10          1           0       -0.758011    0.669383    2.120233
     11          6           0        1.285749   -1.884366   -0.160907
     12          1           0        1.293600   -2.140858    0.902275
     13          1           0        0.468036   -2.418416   -0.649712
     14          1           0        2.223808   -2.213447   -0.613748
     15          7           0        2.304914    0.329673    0.298401
     16          1           0        2.904737   -0.358190    0.745031
     17          1           0        2.899896    0.716060   -0.515269
     18          1           0        3.611284    0.921933   -1.816022
 ---------------------------------------------------------------------

 SCF Done:  E(RHF) =  -893.528091347     A.U. after    2 cycles

 The electronic state is 1-A.
 Alpha  occ. eigenvalues --  -99.77462 -20.99788 -20.99413 -15.88828 -15.64952
 Alpha  occ. eigenvalues --  -15.56713 -11.43835 -11.32672 -11.26132 -10.34819
 Alpha  occ. eigenvalues --   -9.54930  -9.54109  -9.53996  -1.89175  -1.59161
 Alpha  occ. eigenvalues --   -1.35122  -1.19044  -1.17045  -1.01566  -0.94526
 Alpha  occ. eigenvalues --   -0.81071  -0.67620  -0.64478  -0.61160  -0.56023
 Alpha  occ. eigenvalues --   -0.55019  -0.50554  -0.47457  -0.47325  -0.45136
 Alpha  occ. eigenvalues --   -0.43165  -0.40945  -0.39738  -0.34734  -0.34039
 Alpha  occ. eigenvalues --   -0.29491  -0.25452  -0.22588  -0.21401  -0.20541
 Alpha  occ. eigenvalues --   -0.09939
 Alpha virt. eigenvalues --    0.12653   0.13793   0.14421   0.15345   0.15466
 Alpha virt. eigenvalues --    0.17127   0.17332   0.17854   0.19091   0.21343
 Alpha virt. eigenvalues --    0.22475   0.22954   0.23729   0.24668   0.24899

 Mulliken charges:
               1
     1  C    2.764362
     2  C    0.467319
     3  Cl  -0.035053
     4  H    2.032088
     5  N    4.487529
     6  O   -3.238703
     7  O   -2.876881
     8  N   -3.485095
     9  H    0.573956
    10  H    0.739883
    11  C   -3.601930
    12  H    1.183697
    13  H    1.332228
    14  H    1.078317
    15  N   -2.646649
    16  H    0.518275
    17  H    0.642392
    18  H   -0.935733
 Sum of Mulliken charges =  -1.00000

 Dipole moment (field-independent basis, Debye):
    X=            -10.5519    Y=             -4.3625    Z=              7.5791  Tot=             13.7046

 Test job not archived.
 1\1\GINC-SE220\SP\RHF\Aug-CC-pVDZ\C3H9Cl1N3O2(1-)\OHZDE\09-Apr-2025\0\
 \#t hf aug-cc-pvdz iop(5/13=1,5/36=2,99/5=2) pseudo=read geom=check gu
 ess=(read,tcheck) scf=(maxcycle=1)\\title\\-1,1\C,0,-0.611699,-0.10303
 ,-1.499735\C,0,0.101372,-0.110845,-0.134572\Cl,0,0.381326,0.882309,-2.
 692779\H,0,1.175033,-0.235825,-0.307481\N,0,-0.619541,-1.477397,-2.158
 684\O,0,0.411221,-2.137159,-2.084222\O,0,-1.642584,-1.823028,-2.745575
 \N,0,-1.92189,0.354928,-1.355883\H,0,-1.827374,1.204263,-0.798003\H,0,
 -2.373913,0.522344,-2.243937\C,0,-0.410733,-1.256748,0.73649\H,0,-1.48

 Normal termination of Gaussian 16 at Wed Apr  9 03:00:54 2025.
