 Gaussian 16, Revision C.01,

 ----------------------------------------------------------------------
 #t hf aug-cc-pvdz symm=none int=(grid=ultrafine) guess=(read,tcheck) s
 table=(opt,rrhf)
 ----------------------------------------------------------------------
 -----
 title
 -----
 Symbolic Z-matrix:
 Charge = -1 Multiplicity = 1

 SCF Done:  E(RHF) =  -1220.22574526     A.U. after   15 cycles
 Normal termination of Gaussian 16 at Wed Apr  9 02:48:21 2025.
 Gaussian 16:  ES64L-G16RevC.01  3-Jul-2019

 ----------------------------------------------------------------------
 #t hf aug-cc-pvdz iop(5/13=1,5/36=2,99/5=2) pseudo=read geom=check gue
 ss=(read,tcheck) scf=(maxcycle=1)
 ----------------------------------------------------------------------
 -----
 title
 -----
 Structure from the checkpoint file:  "E2SN2_271_mol2.chk"
 Charge = -1 Multiplicity = 1

                         Standard orientation:
 ---------------------------------------------------------------------
 Center     Atomic      Atomic             Coordinates (Angstroms)
 Number     Number       Type             X           Y           Z
 ---------------------------------------------------------------------
      1          6           0        0.471245    0.180672   -0.043593
      2          6           0        0.211148   -0.696288   -1.275392
      3         17           0        2.296514    0.313010    0.165210
      4          1           0        0.839035   -0.299008   -2.078840
      5          1           0       -0.840139   -0.548357   -1.522563
      6          6           0        0.010352    1.555742   -0.247909
      7          7           0       -0.177885    2.694141   -0.470802
      8          6           0       -0.006950   -0.395803    1.216229
      9          7           0       -0.129861   -0.905869    2.268784
     10          6           0        0.483832   -2.169689   -1.018449
     11          1           0        1.492556   -2.343807   -0.636043
     12          1           0       -0.240559   -2.559047   -0.300902
     13          1           0        0.370451   -2.730465   -1.949756
     14         17           0       -2.677978   -0.012129   -0.040685
 ---------------------------------------------------------------------

 SCF Done:  E(RHF) =  -1222.12644102     A.U. after    2 cycles

 The electronic state is 1-A.
 Alpha  occ. eigenvalues --  -99.80146 -99.60939 -15.65914 -15.65272 -11.45985
 Alpha  occ. eigenvalues --  -11.35198 -11.34499 -11.32061 -11.26910 -10.37441
 Alpha  occ. eigenvalues --  -10.17685  -9.57402  -9.56719  -9.56697  -9.37682
 Alpha  occ. eigenvalues --   -9.37377  -9.37306  -1.31777  -1.17579  -1.17157
 Alpha  occ. eigenvalues --   -1.09359  -0.97151  -0.96561  -0.80151  -0.69854
 Alpha  occ. eigenvalues --   -0.60752  -0.54375  -0.50641  -0.45488  -0.44423
 Alpha  occ. eigenvalues --   -0.43127  -0.41680  -0.39428  -0.38819  -0.37573
 Alpha  occ. eigenvalues --   -0.33631  -0.33257  -0.31751  -0.30716  -0.24753
 Alpha  occ. eigenvalues --   -0.24512  -0.24002
 Alpha virt. eigenvalues --    0.12190   0.13564   0.14029   0.15052   0.16081
 Alpha virt. eigenvalues --    0.16798   0.18862   0.19940   0.20205   0.22552
 Alpha virt. eigenvalues --    0.22768   0.23447   0.23736   0.24374   0.24826

 Mulliken charges:
               1
     1  C    0.299809
     2  C   -3.100246
     3  Cl   0.128934
     4  H    1.275197
     5  H    1.440086
     6  C    2.413848
     7  N   -2.748052
     8  C    2.967646
     9  N   -2.864408
    10  C   -3.595972
    11  H    1.300437
    12  H    1.352597
    13  H    1.058255
    14  Cl  -0.928130
 Sum of Mulliken charges =  -1.00000

 Dipole moment (field-independent basis, Debye):
    X=              8.3787    Y=             -2.2616    Z=             -2.4780  Tot=              9.0254

 Test job not archived.
 1\1\GINC-SE403\SP\RHF\Aug-CC-pVDZ\C5H5Cl2N2(1-)\OHZDE\09-Apr-2025\0\\#
 t hf aug-cc-pvdz iop(5/13=1,5/36=2,99/5=2) pseudo=read geom=check gues
 s=(read,tcheck) scf=(maxcycle=1)\\title\\-1,1\C,0,-0.078757,0.015557,-
 0.000203\C,0,-0.487698,0.168479,-1.47106\Cl,0,1.762049,0.011463,0.0641
 13\H,0,0.088077,1.009923,-1.868623\H,0,-1.547521,0.422816,-1.454657\C,
 0,-0.485479,1.172531,0.800405\N,0,-0.63445,2.169633,1.404278\C,0,-0.47
 5415,-1.259336,0.604326\N,0,-0.533016,-2.340504,1.063569\C,0,-0.26869,
 -1.100616,-2.27897\H,0,0.759081,-1.464887,-2.207776\H,0,-0.947471,-1.8

 Normal termination of Gaussian 16 at Wed Apr  9 02:48:27 2025.
