 Gaussian 16, Revision C.01,

 ----------------------------------------------------------------------
 #t hf aug-cc-pvdz symm=none int=(grid=ultrafine) guess=(read,tcheck) s
 table=(opt,rrhf)
 ----------------------------------------------------------------------
 -----
 title
 -----
 Symbolic Z-matrix:
 Charge = -1 Multiplicity = 1

 SCF Done:  E(RHF) =  -380.427341263     A.U. after   16 cycles
 Normal termination of Gaussian 16 at Wed Apr  9 02:43:53 2025.
 Gaussian 16:  ES64L-G16RevC.01  3-Jul-2019

 ----------------------------------------------------------------------
 #t hf aug-cc-pvdz iop(5/13=1,5/36=2,99/5=2) pseudo=read geom=check gue
 ss=(read,tcheck) scf=(maxcycle=1)
 ----------------------------------------------------------------------
 -----
 title
 -----
 Structure from the checkpoint file:  "E2SN2_22_mol1.chk"
 Charge = -1 Multiplicity = 1

                         Standard orientation:
 ---------------------------------------------------------------------
 Center     Atomic      Atomic             Coordinates (Angstroms)
 Number     Number       Type             X           Y           Z
 ---------------------------------------------------------------------
      1          6           0        0.814635   -0.517240   -0.381826
      2          6           0       -0.313595    0.461047   -0.194819
      3          9           0        0.849221   -1.468934    0.658932
      4          1           0        0.109425    2.315736   -1.748101
      5          1           0       -0.180594    1.278083   -1.163064
      6          1           0        0.672507   -1.086423   -1.307847
      7          7           0        2.096960    0.136061   -0.408139
      8          1           0        2.055317    0.793222    0.369554
      9          1           0        2.087242    0.726847   -1.238673
     10          7           0       -0.058921    1.391964    0.897080
     11          1           0       -0.692602    1.251376    1.671910
     12          1           0       -0.190105    2.330754    0.510057
     13          6           0       -1.624029   -0.127865   -0.206293
     14          7           0       -2.718930   -0.568716   -0.249883
 ---------------------------------------------------------------------

 SCF Done:  E(RHF) =  -382.117114804     A.U. after    2 cycles

 The electronic state is 1-A.
 Alpha  occ. eigenvalues --  -29.10583 -15.61311 -15.60321 -15.59640 -11.36078
 Alpha  occ. eigenvalues --  -11.31161 -11.25671  -1.29388  -1.17992  -1.12953
 Alpha  occ. eigenvalues --   -0.94990  -0.80314  -0.61337  -0.60131  -0.53114
 Alpha  occ. eigenvalues --   -0.47690  -0.45395  -0.41317  -0.39484  -0.37182
 Alpha  occ. eigenvalues --   -0.30864  -0.29670  -0.24944  -0.23304  -0.21328
 Alpha  occ. eigenvalues --   -0.13422  -0.11660  -0.07591
 Alpha virt. eigenvalues --    0.14363   0.15464   0.15687   0.16929   0.17387
 Alpha virt. eigenvalues --    0.19014   0.19991   0.20871   0.22728   0.24445
 Alpha virt. eigenvalues --    0.25029   0.25164   0.26622   0.27152   0.27900

 Mulliken charges:
               1
     1  C   -0.805189
     2  C   -0.196434
     3  F    0.310331
     4  H   -0.309436
     5  H    1.429670
     6  H    1.648863
     7  N   -2.579260
     8  H    0.588377
     9  H    0.565015
    10  N   -2.267673
    11  H    0.611556
    12  H    0.421418
    13  C    2.185562
    14  N   -2.602800
 Sum of Mulliken charges =  -1.00000

 Dipole moment (field-independent basis, Debye):
    X=              1.8730    Y=             -5.4525    Z=              6.0695  Tot=              8.3711

 Test job not archived.
 1\1\GINC-SE114\SP\RHF\Aug-CC-pVDZ\C3H7F1N3(1-)\OHZDE\09-Apr-2025\0\\#t
  hf aug-cc-pvdz iop(5/13=1,5/36=2,99/5=2) pseudo=read geom=check guess
 =(read,tcheck) scf=(maxcycle=1)\\title\\-1,1\C,0,-0.02462382,0.0036549
 1,-0.45899158\C,0,-0.16771381,-0.00204575,1.03914475\F,0,1.33150955,-0
 .01504571,-0.84712648\H,0,-2.50587675,0.5779984,1.51668432\H,0,-1.4245
 3403,0.07530671,1.23190012\H,0,-0.4740488,-0.90062014,-0.88559184\N,0,
 -0.6248918,1.16863051,-1.0542738\H,0,-0.31068635,1.93738713,-0.4637730
 2\H,0,-1.6226904,1.09291871,-0.86043257\N,0,0.21089879,1.2739717,1.632

 Normal termination of Gaussian 16 at Wed Apr  9 02:43:58 2025.
