 Gaussian 16, Revision C.01,

 ----------------------------------------------------------------------
 #t hf aug-cc-pvdz symm=none int=(grid=ultrafine) guess=(read,tcheck) s
 table=(opt,rrhf)
 ----------------------------------------------------------------------
 -----
 title
 -----
 Symbolic Z-matrix:
 Charge = -1 Multiplicity = 1

 SCF Done:  E(RHF) =  -417.130342471     A.U. after   16 cycles
 Normal termination of Gaussian 16 at Wed Apr  9 03:02:03 2025.
 Gaussian 16:  ES64L-G16RevC.01  3-Jul-2019

 ----------------------------------------------------------------------
 #t hf aug-cc-pvdz iop(5/13=1,5/36=2,99/5=2) pseudo=read geom=check gue
 ss=(read,tcheck) scf=(maxcycle=1)
 ----------------------------------------------------------------------
 -----
 title
 -----
 Structure from the checkpoint file:  "E2SN2_86_mol1.chk"
 Charge = -1 Multiplicity = 1

                         Standard orientation:
 ---------------------------------------------------------------------
 Center     Atomic      Atomic             Coordinates (Angstroms)
 Number     Number       Type             X           Y           Z
 ---------------------------------------------------------------------
      1          6           0       -0.397555    0.232678    0.078664
      2          6           0        0.560093   -0.846421   -0.377889
      3          9           0       -0.260674    1.406311   -0.681424
      4          1           0        0.016270   -2.229322    1.674899
      5          1           0        0.356642   -1.685332    0.525991
      6          7           0       -0.254165    0.586815    1.463873
      7          1           0        0.692093    0.945135    1.570809
      8          1           0       -0.274388   -0.319824    1.959604
      9          6           0        1.927369   -0.407764   -0.300230
     10          7           0        3.052545   -0.078738   -0.179155
     11          6           0       -1.786113   -0.236154   -0.157055
     12          7           0       -2.881675   -0.589916   -0.384040
     13          1           0        0.315743   -1.248621   -1.364169
 ---------------------------------------------------------------------

 SCF Done:  E(RHF) =  -418.951378191     A.U. after    2 cycles

 The electronic state is 1-A.
 Alpha  occ. eigenvalues --  -29.15120 -15.65784 -15.63248 -15.62010 -11.43492
 Alpha  occ. eigenvalues --  -11.33140 -11.32813 -11.28121  -1.32911  -1.17518
 Alpha  occ. eigenvalues --   -1.17001  -1.02906  -0.89945  -0.70750  -0.57852
 Alpha  occ. eigenvalues --   -0.56861  -0.50477  -0.48976  -0.46222  -0.41485
 Alpha  occ. eigenvalues --   -0.38700  -0.33687  -0.33019  -0.31070  -0.30698
 Alpha  occ. eigenvalues --   -0.26886  -0.25162  -0.16467  -0.15568  -0.10614
 Alpha virt. eigenvalues --    0.14122   0.15862   0.17952   0.18643   0.18904
 Alpha virt. eigenvalues --    0.19532   0.20779   0.21149   0.22874   0.23086
 Alpha virt. eigenvalues --    0.23768   0.24590   0.25812   0.26946   0.27272

 Mulliken charges:
               1
     1  C    3.961668
     2  C   -3.426867
     3  F    0.160507
     4  H   -0.592768
     5  H    1.437076
     6  N   -3.260393
     7  H    0.558064
     8  H    0.677299
     9  C    2.216616
    10  N   -2.566242
    11  C    0.908336
    12  N   -2.421529
    13  H    1.348234
 Sum of Mulliken charges =  -1.00000

 Dipole moment (field-independent basis, Debye):
    X=              0.0897    Y=              7.5172    Z=             -5.1579  Tot=              9.1171

 Test job not archived.
 1\1\GINC-SE109\SP\RHF\Aug-CC-pVDZ\C4H5F1N3(1-)\OHZDE\09-Apr-2025\0\\#t
  hf aug-cc-pvdz iop(5/13=1,5/36=2,99/5=2) pseudo=read geom=check guess
 =(read,tcheck) scf=(maxcycle=1)\\title\\-1,1\C,0,-0.09885161,0.0954608
 7,-0.38770352\C,0,-0.08891982,0.02422359,1.12385569\F,0,1.20100648,0.1
 8256486,-0.91369529\H,0,-2.59662218,0.38528956,1.18003374\H,0,-1.31773
 19,0.11558936,1.33322744\N,0,-0.85960076,1.19637301,-0.91118412\H,0,-0
 .41469918,2.04250885,-0.56283242\H,0,-1.76845304,1.12962952,-0.4236536
 9\C,0,0.56348917,1.16736487,1.70306752\N,0,1.03940481,2.13095071,2.186

 Normal termination of Gaussian 16 at Wed Apr  9 03:02:08 2025.
