 Gaussian 16, Revision C.01,

 ----------------------------------------------------------------------
 #t hf aug-cc-pvdz symm=none int=(grid=ultrafine) guess=(read,tcheck) s
 table=(opt,rrhf)
 ----------------------------------------------------------------------
 -----
 title
 -----
 Symbolic Z-matrix:
 Charge = -1 Multiplicity = 1

 SCF Done:  E(RHF) =  -364.437719439     A.U. after   16 cycles
 Normal termination of Gaussian 16 at Wed Apr  9 02:40:18 2025.
 Gaussian 16:  ES64L-G16RevC.01  3-Jul-2019

 ----------------------------------------------------------------------
 #t hf aug-cc-pvdz iop(5/13=1,5/36=2,99/5=2) pseudo=read geom=check gue
 ss=(read,tcheck) scf=(maxcycle=1)
 ----------------------------------------------------------------------
 -----
 title
 -----
 Structure from the checkpoint file:  "E2SN2_190_mol2.chk"
 Charge = -1 Multiplicity = 1

                         Standard orientation:
 ---------------------------------------------------------------------
 Center     Atomic      Atomic             Coordinates (Angstroms)
 Number     Number       Type             X           Y           Z
 ---------------------------------------------------------------------
      1          6           0        1.003664    0.183849    0.100110
      2          6           0       -0.449326    0.472699    0.450469
      3          9           0        1.140317    0.151074   -1.305140
      4          1           0       -0.445368    0.612124    1.546686
      5          1           0        1.559605    1.050898    0.464966
      6          6           0        1.546976   -1.110031    0.655846
      7          1           0        1.493384   -1.086655    1.746938
      8          1           0        2.591514   -1.236639    0.360960
      9          1           0        0.972434   -1.962111    0.285233
     10          6           0       -1.316259   -0.653397    0.075012
     11          7           0       -1.982782   -1.574341   -0.223562
     12          7           0       -0.943466    1.730795   -0.081792
     13          1           0       -0.554578    2.408668    0.603656
     14          1           0       -0.500464    1.888740   -0.980551
     15          1           0        0.394026    2.511410    2.167235
 ---------------------------------------------------------------------

 SCF Done:  E(RHF) =  -366.060571646     A.U. after    2 cycles

 The electronic state is 1-A.
 Alpha  occ. eigenvalues --  -29.12978 -15.63436 -15.58766 -11.37365 -11.33819
 Alpha  occ. eigenvalues --  -11.30146 -11.26699  -1.27250  -1.15108  -1.09107
 Alpha  occ. eigenvalues --   -0.88602  -0.82005  -0.63840  -0.54745  -0.52743
 Alpha  occ. eigenvalues --   -0.50137  -0.44244  -0.42385  -0.41783  -0.40866
 Alpha  occ. eigenvalues --   -0.36849  -0.30657  -0.30134  -0.24680  -0.22463
 Alpha  occ. eigenvalues --   -0.14371  -0.13490  -0.10050
 Alpha virt. eigenvalues --    0.12844   0.14641   0.15218   0.15773   0.17003
 Alpha virt. eigenvalues --    0.17698   0.19186   0.19991   0.21035   0.22406
 Alpha virt. eigenvalues --    0.23636   0.24516   0.25015   0.25164   0.25982

 Mulliken charges:
               1
     1  C   -0.244715
     2  C   -0.155362
     3  F   -0.011417
     4  H    1.989661
     5  H    1.601063
     6  C   -4.007146
     7  H    1.216480
     8  H    1.134936
     9  H    1.209658
    10  C    1.223491
    11  N   -2.322798
    12  N   -2.671681
    13  H    0.571510
    14  H    0.492461
    15  H   -1.026141
 Sum of Mulliken charges =  -1.00000

 Dipole moment (field-independent basis, Debye):
    X=              2.3379    Y=             -6.7357    Z=             -8.2913  Tot=             10.9353

 Test job not archived.
 1\1\GINC-SE126\SP\RHF\Aug-CC-pVDZ\C4H8F1N2(1-)\OHZDE\09-Apr-2025\0\\#t
  hf aug-cc-pvdz iop(5/13=1,5/36=2,99/5=2) pseudo=read geom=check guess
 =(read,tcheck) scf=(maxcycle=1)\\title\\-1,1\C,0,-0.113537,-0.071019,0
 .043285\C,0,-0.657848,-0.191279,-1.37327\F,0,1.266592,0.222282,-0.0175
 16\H,0,-1.750726,-0.28714,-1.240693\H,0,-0.617393,0.801561,0.466012\C,
 0,-0.296044,-1.299253,0.901357\H,0,-1.362173,-1.517319,0.999931\H,0,0.
 11785,-1.126607,1.897817\H,0,0.208107,-2.160493,0.456846\C,0,-0.112376
 ,-1.377272,-2.048927\N,0,0.329537,-2.339566,-2.559067\N,0,-0.484997,1.

 Normal termination of Gaussian 16 at Wed Apr  9 02:40:23 2025.
