 Gaussian 16, Revision C.01,

 ----------------------------------------------------------------------
 #t hf aug-cc-pvdz symm=none int=(grid=ultrafine) guess=(read,tcheck) s
 table=(opt,rrhf)
 ----------------------------------------------------------------------
 -----
 title
 -----
 Symbolic Z-matrix:
 Charge = -1 Multiplicity = 1

 SCF Done:  E(RHF) =  -1332.02550180     A.U. after   17 cycles
 Normal termination of Gaussian 16 at Wed Apr  9 02:50:06 2025.
 Gaussian 16:  ES64L-G16RevC.01  3-Jul-2019

 ----------------------------------------------------------------------
 #t hf aug-cc-pvdz iop(5/13=1,5/36=2,99/5=2) pseudo=read geom=check gue
 ss=(read,tcheck) scf=(maxcycle=1)
 ----------------------------------------------------------------------
 -----
 title
 -----
 Structure from the checkpoint file:  "E2SN2_277_mol2.chk"
 Charge = -1 Multiplicity = 1

                         Standard orientation:
 ---------------------------------------------------------------------
 Center     Atomic      Atomic             Coordinates (Angstroms)
 Number     Number       Type             X           Y           Z
 ---------------------------------------------------------------------
      1          6           0        0.388410   -0.759625   -0.203743
      2          6           0       -0.148516    0.642201   -0.428068
      3         17           0        2.072384   -0.855801   -0.880137
      4          1           0       -1.171476    0.713763   -0.018366
      5          1           0       -0.188887    0.850463   -1.495411
      6          6           0        0.475318   -1.152124    1.204417
      7          7           0        0.531564   -1.582593    2.295882
      8          6           0       -0.499840   -1.748420   -0.951040
      9          1           0       -0.469306   -1.524732   -2.019081
     10          1           0       -1.528206   -1.625681   -0.598674
     11          1           0       -0.146741   -2.767348   -0.786012
     12          7           0        0.699638    1.703385    0.169235
     13          8           0        1.121765    1.529255    1.309997
     14          8           0        0.895864    2.709258   -0.511644
     15         17           0       -3.398682    0.132724   -0.087774
 ---------------------------------------------------------------------

 SCF Done:  E(RHF) =  -1334.35439920     A.U. after    2 cycles

 The electronic state is 1-A.
 Alpha  occ. eigenvalues --  -99.80675 -99.62252 -20.99780 -20.99515 -15.89361
 Alpha  occ. eigenvalues --  -15.67092 -11.43856 -11.37159 -11.34820 -11.30069
 Alpha  occ. eigenvalues --  -10.38044 -10.18906  -9.58037  -9.57337  -9.57253
 Alpha  occ. eigenvalues --   -9.38943  -9.38635  -9.38461  -1.89077  -1.58935
 Alpha  occ. eigenvalues --   -1.31812  -1.18980  -1.12728  -1.03019  -0.97981
 Alpha  occ. eigenvalues --   -0.86321  -0.77013  -0.65858  -0.61450  -0.58911
 Alpha  occ. eigenvalues --   -0.56331  -0.50388  -0.49845  -0.47480  -0.45944
 Alpha  occ. eigenvalues --   -0.45394  -0.41999  -0.40158  -0.38934  -0.33793
 Alpha  occ. eigenvalues --   -0.33523  -0.26454  -0.25933  -0.25919  -0.24364
 Alpha  occ. eigenvalues --   -0.21631  -0.21164
 Alpha virt. eigenvalues --    0.12527   0.14111   0.14343   0.15450   0.17245
 Alpha virt. eigenvalues --    0.17949   0.19329   0.20077   0.20685   0.22068
 Alpha virt. eigenvalues --    0.23038   0.23419   0.24196   0.24932   0.25084

 Mulliken charges:
               1
     1  C    0.383202
     2  C   -1.788805
     3  Cl  -0.093342
     4  H    1.394294
     5  H    1.669823
     6  C    2.634707
     7  N   -2.643382
     8  C   -3.740085
     9  H    1.198269
    10  H    1.170787
    11  H    1.221042
    12  N    4.057419
    13  O   -2.795513
    14  O   -2.717799
    15  Cl  -0.950618
 Sum of Mulliken charges =  -1.00000

 Dipole moment (field-independent basis, Debye):
    X=              9.3718    Y=             -1.0074    Z=             -2.4407  Tot=              9.7367

 Test job not archived.
 1\1\GINC-SE097\SP\RHF\Aug-CC-pVDZ\C4H5Cl2N2O2(1-)\OHZDE\09-Apr-2025\0\
 \#t hf aug-cc-pvdz iop(5/13=1,5/36=2,99/5=2) pseudo=read geom=check gu
 ess=(read,tcheck) scf=(maxcycle=1)\\title\\-1,1\C,0,0.040331,0.021538,
 0.019768\C,0,-0.605111,-0.205778,-1.335024\Cl,0,1.832705,-0.234537,-0.
 136274\H,0,-1.695324,-0.050252,-1.25335\H,0,-0.425739,-1.229715,-1.656
 898\C,0,-0.148833,1.370548,0.557272\N,0,-0.290076,2.402768,1.099798\C,
 0,-0.519175,-0.999041,1.004922\H,0,-0.273193,-2.005248,0.660363\H,0,-1
 .607978,-0.895905,1.030124\H,0,-0.08635,-0.840867,1.993745\N,0,-0.0591

 Normal termination of Gaussian 16 at Wed Apr  9 02:50:14 2025.
