 Gaussian 16, Revision C.01,

 ----------------------------------------------------------------------
 #t hf aug-cc-pvdz symm=none int=(grid=ultrafine) guess=(read,tcheck) s
 table=(opt,rrhf)
 ----------------------------------------------------------------------
 -----
 title
 -----
 Symbolic Z-matrix:
 Charge = -1 Multiplicity = 1

 SCF Done:  E(RHF) =  -1136.40982250     A.U. after   16 cycles
 Normal termination of Gaussian 16 at Wed Apr  9 02:40:46 2025.
 Gaussian 16:  ES64L-G16RevC.01  3-Jul-2019

 ----------------------------------------------------------------------
 #t hf aug-cc-pvdz iop(5/13=1,5/36=2,99/5=2) pseudo=read geom=check gue
 ss=(read,tcheck) scf=(maxcycle=1)
 ----------------------------------------------------------------------
 -----
 title
 -----
 Structure from the checkpoint file:  "E2SN2_175_mol2.chk"
 Charge = -1 Multiplicity = 1

                         Standard orientation:
 ---------------------------------------------------------------------
 Center     Atomic      Atomic             Coordinates (Angstroms)
 Number     Number       Type             X           Y           Z
 ---------------------------------------------------------------------
      1          6           0        0.412882    0.670852    0.815743
      2          6           0       -0.249721   -0.155608   -0.272540
      3          9           0       -0.551638    1.076063    1.731798
      4          1           0        0.414755   -0.295384   -1.122705
      5          1           0        1.159334    0.051182    1.307816
      6          6           0        1.036779    1.878462    0.262176
      7          7           0        1.479144    2.903712   -0.098747
      8          7           0       -1.515223    0.526944   -0.707701
      9          8           0       -2.575086    0.170106   -0.205924
     10          8           0       -1.360412    1.433688   -1.520654
     11          7           0       -0.637214   -1.516586    0.211256
     12          8           0       -1.080887   -2.258109   -0.658302
     13          8           0       -0.514679   -1.776817    1.401708
     14         17           0        2.656034   -1.044237   -0.504226
 ---------------------------------------------------------------------

 SCF Done:  E(RHF) =  -1139.43889337     A.U. after    2 cycles

 The electronic state is 1-A.
 Alpha  occ. eigenvalues --  -99.63460 -29.19741 -21.02738 -21.02548 -21.01737
 Alpha  occ. eigenvalues --  -21.01241 -15.92551 -15.91650 -15.68390 -11.49393
 Alpha  occ. eigenvalues --  -11.42550 -11.35283 -10.20182  -9.40255  -9.39864
 Alpha  occ. eigenvalues --   -9.39795  -1.93143  -1.89804  -1.62363  -1.61034
 Alpha  occ. eigenvalues --   -1.28869  -1.19555  -1.07397  -0.99604  -0.92176
 Alpha  occ. eigenvalues --   -0.76386  -0.71438  -0.67702  -0.65337  -0.61307
 Alpha  occ. eigenvalues --   -0.59917  -0.54520  -0.52385  -0.52332  -0.48277
 Alpha  occ. eigenvalues --   -0.44114  -0.37183  -0.35999  -0.31607  -0.29977
 Alpha  occ. eigenvalues --   -0.28035  -0.27337  -0.27253  -0.26094  -0.25371
 Alpha  occ. eigenvalues --   -0.24448  -0.22688  -0.21845  -0.18144  -0.18005
 Alpha virt. eigenvalues --    0.16041   0.16718   0.18457   0.20116   0.20240
 Alpha virt. eigenvalues --    0.20960   0.21629   0.22322   0.23150   0.23637
 Alpha virt. eigenvalues --    0.24564   0.24740   0.25290   0.26496   0.27124

 Mulliken charges:
               1
     1  C    0.452664
     2  C   -0.616181
     3  F    0.087946
     4  H    2.311807
     5  H    1.573600
     6  C    1.526339
     7  N   -2.549964
     8  N    4.612572
     9  O   -2.913993
    10  O   -2.987493
    11  N    4.318472
    12  O   -2.978573
    13  O   -2.911215
    14  Cl  -0.925982
 Sum of Mulliken charges =  -1.00000

 Dipole moment (field-independent basis, Debye):
    X=             -9.6868    Y=              1.9453    Z=              4.0331  Tot=             10.6716

 Test job not archived.
 1\1\GINC-SE049\SP\RHF\Aug-CC-pVDZ\C3H2Cl1F1N3O4(1-)\OHZDE\09-Apr-2025\
 0\\#t hf aug-cc-pvdz iop(5/13=1,5/36=2,99/5=2) pseudo=read geom=check
 guess=(read,tcheck) scf=(maxcycle=1)\\title\\-1,1\C,0,-0.033837,-0.017
 756,0.012515\C,0,-0.500153,-0.244787,-1.414875\F,0,1.332131,0.242587,0
 .010165\H,0,-1.498844,-0.675825,-1.44072\H,0,-0.576352,0.833851,0.4171
 88\C,0,-0.259236,-1.207278,0.842117\N,0,-0.328762,-2.149284,1.53845\N,
 0,0.475152,-1.148709,-2.113762\O,0,1.356324,-0.641459,-2.798348\O,0,0.
 318289,-2.346442,-1.894962\N,0,-0.549577,1.027039,-2.200041\O,0,-1.019

 Normal termination of Gaussian 16 at Wed Apr  9 02:40:57 2025.
