 Gaussian 16, Revision C.01,

 ----------------------------------------------------------------------
 #t hf aug-cc-pvdz symm=none int=(grid=ultrafine) guess=(read,tcheck) s
 table=(opt,rrhf)
 ----------------------------------------------------------------------
 -----
 title
 -----
 Symbolic Z-matrix:
 Charge = -1 Multiplicity = 1

 SCF Done:  E(RHF) =  -380.463388254     A.U. after   14 cycles
 Normal termination of Gaussian 16 at Wed Apr  9 02:58:52 2025.
 Gaussian 16:  ES64L-G16RevC.01  3-Jul-2019

 ----------------------------------------------------------------------
 #t hf aug-cc-pvdz iop(5/13=1,5/36=2,99/5=2) pseudo=read geom=check gue
 ss=(read,tcheck) scf=(maxcycle=1)
 ----------------------------------------------------------------------
 -----
 title
 -----
 Structure from the checkpoint file:  "E2SN2_412_mol2.chk"
 Charge = -1 Multiplicity = 1

                         Standard orientation:
 ---------------------------------------------------------------------
 Center     Atomic      Atomic             Coordinates (Angstroms)
 Number     Number       Type             X           Y           Z
 ---------------------------------------------------------------------
      1          6           0       -0.687560   -0.127875   -0.007462
      2          6           0        0.440259    0.627663   -0.722571
      3          9           0       -0.473037   -1.496866   -0.226257
      4          1           0        0.235963    1.692793   -0.517751
      5          1           0        0.375987    0.436076   -1.796043
      6          7           0       -0.726695    0.070287    1.414312
      7          1           0       -0.926678    1.075791    1.518577
      8          1           0        0.185659   -0.123720    1.817153
      9          7           0       -1.911436    0.266961   -0.628342
     10          1           0       -1.955873    1.287999   -0.443156
     11          1           0       -2.650261   -0.143514   -0.062772
     12          6           0        1.756705    0.248752   -0.227908
     13          7           0        2.815274   -0.053176    0.181768
     14          1           0       -1.303883    2.766630    0.493782
 ---------------------------------------------------------------------

 SCF Done:  E(RHF) =  -382.146241710     A.U. after    2 cycles

 The electronic state is 1-A.
 Alpha  occ. eigenvalues --  -29.11850 -15.64228 -15.59471 -15.58912 -11.38753
 Alpha  occ. eigenvalues --  -11.33523 -11.28357  -1.34056  -1.18217  -1.11570
 Alpha  occ. eigenvalues --   -1.00580  -0.83133  -0.63715  -0.56581  -0.54108
 Alpha  occ. eigenvalues --   -0.50320  -0.46156  -0.44583  -0.43266  -0.38316
 Alpha  occ. eigenvalues --   -0.31870  -0.31033  -0.25426  -0.24616  -0.22105
 Alpha  occ. eigenvalues --   -0.13036  -0.12543  -0.11705
 Alpha virt. eigenvalues --    0.14407   0.15158   0.16153   0.17739   0.18559
 Alpha virt. eigenvalues --    0.19212   0.20006   0.20488   0.22010   0.22867
 Alpha virt. eigenvalues --    0.24005   0.24705   0.26063   0.27602   0.27810

 Mulliken charges:
               1
     1  C    4.468787
     2  C   -3.415748
     3  F    0.468783
     4  H    1.686118
     5  H    1.365442
     6  N   -3.207905
     7  H    0.611586
     8  H    0.565247
     9  N   -3.401030
    10  H    0.708047
    11  H    0.484292
    12  C    2.359035
    13  N   -2.516412
    14  H   -1.176242
 Sum of Mulliken charges =  -1.00000

 Dipole moment (field-independent basis, Debye):
    X=              1.9890    Y=             -9.2837    Z=             -1.9987  Tot=              9.7025

 Test job not archived.
 1\1\GINC-SE228\SP\RHF\Aug-CC-pVDZ\C3H7F1N3(1-)\OHZDE\09-Apr-2025\0\\#t
  hf aug-cc-pvdz iop(5/13=1,5/36=2,99/5=2) pseudo=read geom=check guess
 =(read,tcheck) scf=(maxcycle=1)\\title\\-1,1\C,0,-0.011939,0.002768,-0
 .007691\C,0,-0.441029,0.004558,-1.480808\F,0,1.390678,-0.009809,0.0154
 22\H,0,-1.544168,0.02241,-1.449915\H,0,-0.096849,-0.9169,-1.955818\N,0
 ,-0.435021,1.156444,0.735459\H,0,-1.463613,1.095245,0.723008\H,0,-0.15
 3382,2.003971,0.251013\N,0,-0.507976,-1.206076,0.568421\H,0,-1.537755,
 -1.114397,0.46873\H,0,-0.324313,-1.129595,1.565737\C,0,0.075235,1.1590

 Normal termination of Gaussian 16 at Wed Apr  9 02:58:56 2025.
