 Gaussian 16, Revision C.01,

 ----------------------------------------------------------------------
 #t hf aug-cc-pvdz symm=none int=(grid=ultrafine) guess=(read,tcheck) s
 table=(opt,rrhf)
 ----------------------------------------------------------------------
 -----
 title
 -----
 Symbolic Z-matrix:
 Charge = -1 Multiplicity = 1

 SCF Done:  E(RHF) =  -935.228970439     A.U. after   16 cycles
 Normal termination of Gaussian 16 at Wed Apr  9 02:35:24 2025.
 Gaussian 16:  ES64L-G16RevC.01  3-Jul-2019

 ----------------------------------------------------------------------
 #t hf aug-cc-pvdz iop(5/13=1,5/36=2,99/5=2) pseudo=read geom=check gue
 ss=(read,tcheck) scf=(maxcycle=1)
 ----------------------------------------------------------------------
 -----
 title
 -----
 Structure from the checkpoint file:  "E2SN2_121_mol2.chk"
 Charge = -1 Multiplicity = 1

                         Standard orientation:
 ---------------------------------------------------------------------
 Center     Atomic      Atomic             Coordinates (Angstroms)
 Number     Number       Type             X           Y           Z
 ---------------------------------------------------------------------
      1          6           0        0.519487    0.698820   -0.488611
      2          6           0        0.088655   -0.638295    0.134626
      3         17           0       -0.583793    2.025125    0.099380
      4          1           0        0.746116   -1.355396   -0.368161
      5          1           0        0.332755    0.640089   -1.561139
      6          7           0        1.885487    1.038516   -0.242914
      7          1           0        2.386201    0.110963   -0.383738
      8          1           0        1.977819    1.255535    0.745042
      9          7           0       -1.322155   -0.916420   -0.250519
     10          8           0       -2.172634   -1.081602    0.626497
     11          8           0       -1.565865   -0.956628   -1.459076
     12          6           0        0.334887   -0.754205    1.617879
     13          1           0       -0.126475   -1.662072    2.007865
     14          1           0        1.415352   -0.852003    1.717943
     15          1           0       -0.049120    0.099103    2.180471
     16          9           0        2.616481   -1.450011   -0.388494
 ---------------------------------------------------------------------

 SCF Done:  E(RHF) =  -937.520403714     A.U. after    2 cycles

 The electronic state is 1-A.
 Alpha  occ. eigenvalues --  -99.75050 -28.91509 -20.96966 -20.96435 -15.85923
 Alpha  occ. eigenvalues --  -15.57612 -11.36915 -11.31887 -11.25394 -10.32442
 Alpha  occ. eigenvalues --   -9.52438  -9.51770  -9.51659  -1.86060  -1.55797
 Alpha  occ. eigenvalues --   -1.28108  -1.12812  -1.09569  -0.90117  -0.81474
 Alpha  occ. eigenvalues --   -0.68241  -0.59817  -0.58205  -0.56113  -0.50010
 Alpha  occ. eigenvalues --   -0.47722  -0.45308  -0.43133  -0.41365  -0.40185
 Alpha  occ. eigenvalues --   -0.39220  -0.35376  -0.34492  -0.29110  -0.23772
 Alpha  occ. eigenvalues --   -0.20394  -0.18911  -0.18109  -0.00659   0.00028
 Alpha  occ. eigenvalues --    0.01742
 Alpha virt. eigenvalues --    0.14145   0.14794   0.15953   0.16198   0.16848
 Alpha virt. eigenvalues --    0.17801   0.18831   0.20029   0.22870   0.23922
 Alpha virt. eigenvalues --    0.24305   0.25133   0.25519   0.26388   0.26888

 Mulliken charges:
               1
     1  C   -0.776142
     2  C    1.947459
     3  Cl  -0.081100
     4  H    1.042127
     5  H    1.856889
     6  N   -2.666431
     7  H    0.248579
     8  H    0.528555
     9  N    3.545344
    10  O   -2.728196
    11  O   -2.963332
    12  C   -3.778188
    13  H    1.178426
    14  H    1.201273
    15  H    1.148379
    16  F   -0.703642
 Sum of Mulliken charges =  -1.00000

 Dipole moment (field-independent basis, Debye):
    X=             -3.6736    Y=              1.0082    Z=              1.7475  Tot=              4.1911

 Test job not archived.
 1\1\GINC-SE094\SP\RHF\Aug-CC-pVDZ\C3H7Cl1F1N2O2(1-)\OHZDE\09-Apr-2025\
 0\\#t hf aug-cc-pvdz iop(5/13=1,5/36=2,99/5=2) pseudo=read geom=check
 guess=(read,tcheck) scf=(maxcycle=1)\\title\\-1,1\C,0,-0.063838,-0.037
 597,-1.485609\C,0,0.058927,-0.114965,0.044378\Cl,0,-1.820753,0.115769,
 -1.945798\H,0,1.127515,-0.308505,0.185606\H,0,0.244538,-1.001099,-1.89
 2058\N,0,0.701628,1.015073,-2.075241\H,0,1.618683,0.966129,-1.539036\H
 ,0,0.27246,1.896465,-1.809454\N,0,-0.717969,-1.287933,0.530849\O,0,-1.
 621721,-1.122574,1.352825\O,0,-0.409262,-2.386341,0.061997\C,0,-0.2743

 Normal termination of Gaussian 16 at Wed Apr  9 02:35:32 2025.
