 Gaussian 16, Revision C.01,

 ----------------------------------------------------------------------
 #t hf aug-cc-pvdz symm=none int=(grid=ultrafine) guess=(read,tcheck) s
 table=(opt,rrhf)
 ----------------------------------------------------------------------
 -----
 title
 -----
 Symbolic Z-matrix:
 Charge = -1 Multiplicity = 1

 SCF Done:  E(RHF) =  -739.643322076     A.U. after   16 cycles
 Normal termination of Gaussian 16 at Wed Apr  9 02:45:39 2025.
 Gaussian 16:  ES64L-G16RevC.01  3-Jul-2019

 ----------------------------------------------------------------------
 #t hf aug-cc-pvdz iop(5/13=1,5/36=2,99/5=2) pseudo=read geom=check gue
 ss=(read,tcheck) scf=(maxcycle=1)
 ----------------------------------------------------------------------
 -----
 title
 -----
 Structure from the checkpoint file:  "E2SN2_241_mol2.chk"
 Charge = -1 Multiplicity = 1

                         Standard orientation:
 ---------------------------------------------------------------------
 Center     Atomic      Atomic             Coordinates (Angstroms)
 Number     Number       Type             X           Y           Z
 ---------------------------------------------------------------------
      1          6           0        0.416709   -0.036764    0.415638
      2          6           0       -0.637735   -0.024287   -0.669694
      3          9           0        0.240487   -1.135994    1.270538
      4          1           0       -0.440054   -0.784896   -1.415557
      5          1           0       -0.642044    1.016735   -1.063539
      6          7           0        1.793269   -0.517294   -0.264418
      7          8           0        2.820280   -0.062763    0.233566
      8          8           0        1.764220   -1.342181   -1.174169
      9          7           0        0.541956    1.143631    1.069813
     10          1           0        0.332542    1.940540    0.373667
     11          1           0        1.421614    1.210553    1.562500
     12          7           0       -1.978634   -0.338636   -0.115848
     13          8           0       -2.626334   -1.216947   -0.694252
     14          8           0       -2.386654    0.304858    0.845205
     15          9           0       -0.064279    2.636630   -0.875246
 ---------------------------------------------------------------------

 SCF Done:  E(RHF) =  -742.650166749     A.U. after    2 cycles

 The electronic state is 1-A.
 Alpha  occ. eigenvalues --  -29.16534 -28.94031 -20.98858 -20.98662 -20.97624
 Alpha  occ. eigenvalues --  -20.97381 -15.87331 -15.86558 -15.59918 -11.47148
 Alpha  occ. eigenvalues --  -11.31778  -1.88045  -1.86129  -1.57916  -1.56567
 Alpha  occ. eigenvalues --   -1.31924  -1.09612  -0.99595  -0.80008  -0.77506
 Alpha  occ. eigenvalues --   -0.64406  -0.62080  -0.59219  -0.57534  -0.54464
 Alpha  occ. eigenvalues --   -0.51001  -0.50112  -0.48901  -0.45473  -0.42258
 Alpha  occ. eigenvalues --   -0.33192  -0.30639  -0.27828  -0.24900  -0.21683
 Alpha  occ. eigenvalues --   -0.21620  -0.19689  -0.18857  -0.18320  -0.16010
 Alpha  occ. eigenvalues --   -0.15021  -0.02635  -0.01867  -0.00219
 Alpha virt. eigenvalues --    0.14687   0.15957   0.18019   0.19910   0.20065
 Alpha virt. eigenvalues --    0.21854   0.23043   0.24161   0.24881   0.25313
 Alpha virt. eigenvalues --    0.25985   0.26648   0.27298   0.27920   0.28953

 Mulliken charges:
               1
     1  C    4.141246
     2  C   -1.786233
     3  F    0.488177
     4  H    1.642632
     5  H    1.062012
     6  N    4.185937
     7  O   -2.908060
     8  O   -2.964965
     9  N   -3.493695
    10  H   -0.038637
    11  H    0.452067
    12  N    4.221631
    13  O   -2.753954
    14  O   -2.837855
    15  F   -0.410304
 Sum of Mulliken charges =  -1.00000

 Dipole moment (field-independent basis, Debye):
    X=              0.6364    Y=             -5.0689    Z=              2.6416  Tot=              5.7513

 Test job not archived.
 1\1\GINC-SE042\SP\RHF\Aug-CC-pVDZ\C2H4F2N3O4(1-)\OHZDE\09-Apr-2025\0\\
 #t hf aug-cc-pvdz iop(5/13=1,5/36=2,99/5=2) pseudo=read geom=check gue
 ss=(read,tcheck) scf=(maxcycle=1)\\title\\-1,1\C,0,-0.039965,0.045409,
 0.003047\C,0,-0.687954,0.195678,-1.356175\F,0,1.352079,-0.086829,-0.11
 9193\H,0,-0.512578,1.183271,-1.76583\H,0,-1.761273,-0.053892,-1.199459
 \N,0,-0.053516,1.495781,0.699137\O,0,-0.128804,1.497211,1.925378\O,0,0
 .077563,2.50174,0.006465\N,0,-0.608982,-0.910455,0.777325\H,0,-1.66276
 9,-0.947552,0.54996\H,0,-0.373937,-0.794937,1.753249\N,0,-0.106286,-0.

 Normal termination of Gaussian 16 at Wed Apr  9 02:45:46 2025.
