 Gaussian 16, Revision C.01,

 ----------------------------------------------------------------------
 #t hf aug-cc-pvdz symm=none int=(grid=ultrafine) guess=(read,tcheck) s
 table=(opt,rrhf)
 ----------------------------------------------------------------------
 -----
 title
 -----
 Symbolic Z-matrix:
 Charge = -1 Multiplicity = 1

 SCF Done:  E(RHF) =  -531.245514651     A.U. after   17 cycles
 Normal termination of Gaussian 16 at Wed Apr  9 02:58:44 2025.
 Gaussian 16:  ES64L-G16RevC.01  3-Jul-2019

 ----------------------------------------------------------------------
 #t hf aug-cc-pvdz iop(5/13=1,5/36=2,99/5=2) pseudo=read geom=check gue
 ss=(read,tcheck) scf=(maxcycle=1)
 ----------------------------------------------------------------------
 -----
 title
 -----
 Structure from the checkpoint file:  "E2SN2_39_mol2.chk"
 Charge = -1 Multiplicity = 1

                         Standard orientation:
 ---------------------------------------------------------------------
 Center     Atomic      Atomic             Coordinates (Angstroms)
 Number     Number       Type             X           Y           Z
 ---------------------------------------------------------------------
      1          6           0        0.135489    0.507510    0.102486
      2          6           0       -1.089878   -0.262177   -0.362317
      3          9           0        0.071872    0.671295    1.469642
      4          1           0       -1.007348   -0.393192   -1.445079
      5          7           0        1.361516   -0.346007   -0.162994
      6          8           0        2.014914   -0.756417    0.786955
      7          8           0        1.615174   -0.542236   -1.348129
      8          6           0        0.335675    1.854473   -0.540421
      9          1           0       -0.563984    2.439495   -0.359701
     10          1           0        0.475374    1.733558   -1.613582
     11          1           0        1.210123    2.347275   -0.107167
     12          7           0       -2.272141    0.554338   -0.126849
     13          1           0       -2.454952    0.530483    0.873936
     14          1           0       -3.019063   -0.026383   -0.559833
     15          7           0       -1.068085   -1.597260    0.215099
     16          1           0       -1.908715   -2.029713   -0.193743
     17          1           0       -1.247493   -1.506194    1.211667
     18          1           0       -3.608237   -1.624108   -1.219175
 ---------------------------------------------------------------------

 SCF Done:  E(RHF) =  -533.566348294     A.U. after    2 cycles

 The electronic state is 1-A.
 Alpha  occ. eigenvalues --  -29.17293 -20.98959 -20.98393 -15.87912 -15.58733
 Alpha  occ. eigenvalues --  -15.58363 -11.43526 -11.34211 -11.28509  -1.88383
 Alpha  occ. eigenvalues --   -1.58476  -1.31577  -1.16585  -1.09845  -0.93615
 Alpha  occ. eigenvalues --   -0.83159  -0.78118  -0.62916  -0.60267  -0.57217
 Alpha  occ. eigenvalues --   -0.53344  -0.49741  -0.46962  -0.46128  -0.45653
 Alpha  occ. eigenvalues --   -0.43376  -0.40092  -0.38035  -0.30539  -0.29333
 Alpha  occ. eigenvalues --   -0.24105  -0.22123  -0.21055  -0.19608  -0.15862
 Alpha  occ. eigenvalues --   -0.14886  -0.10670
 Alpha virt. eigenvalues --    0.12204   0.13971   0.14271   0.15084   0.16066
 Alpha virt. eigenvalues --    0.17390   0.19041   0.19532   0.20393   0.22030
 Alpha virt. eigenvalues --    0.22903   0.23204   0.24079   0.24914   0.25087

 Mulliken charges:
               1
     1  C    2.950055
     2  C    0.902438
     3  F    0.253868
     4  H    1.916635
     5  N    3.477307
     6  O   -2.691979
     7  O   -3.073201
     8  C   -4.149169
     9  H    1.222105
    10  H    1.264432
    11  H    1.217711
    12  N   -2.806328
    13  H    0.460167
    14  H    0.691650
    15  N   -2.723184
    16  H    0.662695
    17  H    0.487583
    18  H   -1.062787
 Sum of Mulliken charges =  -1.00000

 Dipole moment (field-independent basis, Debye):
    X=             10.6178    Y=              6.8101    Z=              7.0386  Tot=             14.4450

 Test job not archived.
 1\1\GINC-SE165\SP\RHF\Aug-CC-pVDZ\C3H9F1N3O2(1-)\OHZDE\09-Apr-2025\0\\
 #t hf aug-cc-pvdz iop(5/13=1,5/36=2,99/5=2) pseudo=read geom=check gue
 ss=(read,tcheck) scf=(maxcycle=1)\\title\\-1,1\C,0,-0.578951,-0.037003
 ,-1.469588\C,0,0.233457,0.03501,-0.187094\F,0,-1.897606,-0.284299,-1.1
 53386\H,0,1.270042,0.248169,-0.463507\N,0,-0.552456,1.330611,-2.126126
 \O,0,-1.596385,1.962024,-2.222562\O,0,0.546491,1.691701,-2.537615\C,0,
 -0.11772,-1.062946,-2.470796\H,0,-0.120153,-2.030134,-1.971958\H,0,0.8
 94761,-0.830237,-2.797201\H,0,-0.790939,-1.071145,-3.33215\N,0,0.22828

 Normal termination of Gaussian 16 at Wed Apr  9 02:58:53 2025.
