 Gaussian 16, Revision C.01,

 ----------------------------------------------------------------------
 #t hf aug-cc-pvdz symm=none int=(grid=ultrafine) guess=(read,tcheck) s
 table=(opt,rrhf)
 ----------------------------------------------------------------------
 -----
 title
 -----
 Symbolic Z-matrix:
 Charge = -1 Multiplicity = 1

 SCF Done:  E(RHF) =  -1423.72501272     A.U. after   17 cycles
 Normal termination of Gaussian 16 at Wed Apr  9 02:46:18 2025.
 Gaussian 16:  ES64L-G16RevC.01  3-Jul-2019

 ----------------------------------------------------------------------
 #t hf aug-cc-pvdz iop(5/13=1,5/36=2,99/5=2) pseudo=read geom=check gue
 ss=(read,tcheck) scf=(maxcycle=1)
 ----------------------------------------------------------------------
 -----
 title
 -----
 Structure from the checkpoint file:  "E2SN2_227_mol2.chk"
 Charge = -1 Multiplicity = 1

                         Standard orientation:
 ---------------------------------------------------------------------
 Center     Atomic      Atomic             Coordinates (Angstroms)
 Number     Number       Type             X           Y           Z
 ---------------------------------------------------------------------
      1          6           0       -0.763490   -0.227662    0.135799
      2          6           0        0.276526    0.806213   -0.312551
      3         17           0       -2.278799   -0.120087   -0.791125
      4          1           0        1.216448    0.619070    0.261030
      5          7           0       -0.161246   -1.636728   -0.069642
      6          8           0        0.401531   -2.109931    0.906288
      7          8           0       -0.264734   -2.127464   -1.182464
      8          6           0       -1.089848   -0.091171    1.551915
      9          7           0       -1.392674    0.064286    2.676973
     10          6           0       -0.245082    2.129729    0.012359
     11          7           0       -0.666440    3.202473    0.242359
     12          6           0        0.676797    0.710361   -1.783519
     13          1           0       -0.179344    0.821881   -2.451450
     14          1           0        1.186074   -0.234219   -1.961211
     15          1           0        1.405525    1.498500   -1.972006
     16         17           0        3.319390    0.109433    0.247667
 ---------------------------------------------------------------------

 SCF Done:  E(RHF) =  -1426.44648860     A.U. after    2 cycles

 The electronic state is 1-A.
 Alpha  occ. eigenvalues --  -99.84264 -99.61914 -21.02961 -21.02479 -15.92733
 Alpha  occ. eigenvalues --  -15.70863 -15.67451 -11.51898 -11.40866 -11.38288
 Alpha  occ. eigenvalues --  -11.34906 -11.29851 -10.41692 -10.18605  -9.61756
 Alpha  occ. eigenvalues --   -9.60892  -9.60819  -9.38662  -9.38209  -9.38191
 Alpha  occ. eigenvalues --   -1.92236  -1.62552  -1.35813  -1.22734  -1.21997
 Alpha  occ. eigenvalues --   -1.13914  -1.04569  -0.97785  -0.89586  -0.81721
 Alpha  occ. eigenvalues --   -0.69540  -0.66790  -0.64755  -0.58070  -0.54718
 Alpha  occ. eigenvalues --   -0.52370  -0.49280  -0.47486  -0.46867  -0.46219
 Alpha  occ. eigenvalues --   -0.43299  -0.42752  -0.40897  -0.37796  -0.36444
 Alpha  occ. eigenvalues --   -0.34664  -0.33105  -0.27839  -0.26038  -0.25772
 Alpha  occ. eigenvalues --   -0.24996  -0.23936  -0.23045
 Alpha virt. eigenvalues --    0.12147   0.13718   0.14884   0.16043   0.16626
 Alpha virt. eigenvalues --    0.18416   0.18658   0.19504   0.19605   0.21031
 Alpha virt. eigenvalues --    0.21515   0.22120   0.22454   0.22980   0.23632

 Mulliken charges:
               1
     1  C    1.184228
     2  C    0.884898
     3  Cl   0.040112
     4  H    1.660841
     5  N    4.111605
     6  O   -2.685811
     7  O   -3.010440
     8  C    2.265086
     9  N   -2.610883
    10  C    1.224842
    11  N   -2.504689
    12  C   -4.190150
    13  H    1.210143
    14  H    1.299107
    15  H    1.033426
    16  Cl  -0.912318
 Sum of Mulliken charges =  -1.00000

 Dipole moment (field-independent basis, Debye):
    X=             -9.0385    Y=             -2.7562    Z=             -3.4461  Tot=             10.0581

 Test job not archived.
 1\1\GINC-SE092\SP\RHF\Aug-CC-pVDZ\C5H4Cl2N3O2(1-)\OHZDE\09-Apr-2025\0\
 \#t hf aug-cc-pvdz iop(5/13=1,5/36=2,99/5=2) pseudo=read geom=check gu
 ess=(read,tcheck) scf=(maxcycle=1)\\title\\-1,1\C,0,0.214557,-0.062259
 ,0.017933\C,0,-0.560779,0.132227,-1.290722\Cl,0,1.968671,0.156781,-0.1
 87077\H,0,-1.6507,0.055956,-1.058931\N,0,-0.29454,0.981264,1.038841\O,
 0,-1.191429,0.596163,1.773937\O,0,0.208873,2.092346,0.994391\C,0,-0.01
 1192,-1.385239,0.591766\N,0,-0.149251,-2.473022,1.015196\C,0,-0.172907
 ,-0.941279,-2.19983\N,0,0.152662,-1.783787,-2.951765\C,0,-0.382164,1.5

 Normal termination of Gaussian 16 at Wed Apr  9 02:46:29 2025.
