 Gaussian 16, Revision C.01,

 ----------------------------------------------------------------------
 #t hf aug-cc-pvdz symm=none int=(grid=ultrafine) guess=(read,tcheck) s
 table=(opt,rrhf)
 ----------------------------------------------------------------------
 -----
 title
 -----
 Symbolic Z-matrix:
 Charge = -1 Multiplicity = 1

 SCF Done:  E(RHF) =  -528.897703063     A.U. after   16 cycles
 Normal termination of Gaussian 16 at Wed Apr  9 02:51:08 2025.
 Gaussian 16:  ES64L-G16RevC.01  3-Jul-2019

 ----------------------------------------------------------------------
 #t hf aug-cc-pvdz iop(5/13=1,5/36=2,99/5=2) pseudo=read geom=check gue
 ss=(read,tcheck) scf=(maxcycle=1)
 ----------------------------------------------------------------------
 -----
 title
 -----
 Structure from the checkpoint file:  "E2SN2_303_mol2.chk"
 Charge = -1 Multiplicity = 1

                         Standard orientation:
 ---------------------------------------------------------------------
 Center     Atomic      Atomic             Coordinates (Angstroms)
 Number     Number       Type             X           Y           Z
 ---------------------------------------------------------------------
      1          6           0        0.737672    0.251491    0.135346
      2          6           0       -0.345358   -0.386938   -0.732451
      3          9           0        0.455492   -0.036266    1.500257
      4          1           0       -0.327081    0.168452   -1.707098
      5          1           0       -0.197317   -1.457641   -0.844542
      6          6           0        2.012408   -0.486818   -0.106023
      7          7           0        3.036008   -1.025146   -0.316036
      8          7           0        0.822120    1.623198   -0.096383
      9          1           0        1.742301    1.989025    0.109606
     10          1           0        0.550454    1.826170   -1.108592
     11          7           0       -1.692108   -0.224895   -0.150696
     12          8           0       -2.391993   -1.241879   -0.077165
     13          8           0       -2.057315    0.899290    0.177978
     14          1           0        0.136202    1.662585   -2.597626
 ---------------------------------------------------------------------

 SCF Done:  E(RHF) =  -531.144820500     A.U. after    2 cycles

 The electronic state is 1-A.
 Alpha  occ. eigenvalues --  -29.15096 -20.97486 -20.97117 -15.87135 -15.67331
 Alpha  occ. eigenvalues --  -15.60728 -11.46352 -11.34972 -11.32293  -1.86638
 Alpha  occ. eigenvalues --   -1.56439  -1.32792  -1.18564  -1.09045  -0.95343
 Alpha  occ. eigenvalues --   -0.76093  -0.68663  -0.62443  -0.58381  -0.55181
 Alpha  occ. eigenvalues --   -0.52180  -0.49349  -0.45219  -0.43289  -0.41798
 Alpha  occ. eigenvalues --   -0.35696  -0.34941  -0.27799  -0.24400  -0.23197
 Alpha  occ. eigenvalues --   -0.19951  -0.18290  -0.15617  -0.15381  -0.11808
 Alpha virt. eigenvalues --    0.14213   0.15378   0.17885   0.18303   0.20255
 Alpha virt. eigenvalues --    0.20596   0.21506   0.22134   0.22786   0.23682
 Alpha virt. eigenvalues --    0.24355   0.24975   0.25064   0.26735   0.27356

 Mulliken charges:
               1
     1  C    3.010915
     2  C   -2.415170
     3  F    0.191294
     4  H    1.515679
     5  H    1.502126
     6  C    1.781725
     7  N   -2.561968
     8  N   -3.140946
     9  H    0.522409
    10  H    0.690139
    11  N    4.489616
    12  O   -2.791526
    13  O   -2.785572
    14  H   -1.008721
 Sum of Mulliken charges =  -1.00000

 Dipole moment (field-independent basis, Debye):
    X=             -1.1670    Y=             -3.8689    Z=              9.3391  Tot=             10.1759

 Test job not archived.
 1\1\GINC-SE364\SP\RHF\Aug-CC-pVDZ\C3H5F1N3O2(1-)\OHZDE\09-Apr-2025\0\\
 #t hf aug-cc-pvdz iop(5/13=1,5/36=2,99/5=2) pseudo=read geom=check gue
 ss=(read,tcheck) scf=(maxcycle=1)\\title\\-1,1\C,0,-0.004223,-0.030658
 ,0.071408\C,0,-0.515632,-0.032578,-1.368062\F,0,1.366499,-0.413439,0.0
 6785\H,0,-1.631729,-0.123551,-1.298917\H,0,-0.188794,0.846835,-1.91641
 9\C,0,0.044933,1.386388,0.538178\N,0,0.047561,2.490813,0.940543\N,0,-0
 .772287,-0.868824,0.877613\H,0,-0.752284,-0.587373,1.84889\H,0,-1.7738
 57,-0.890345,0.508881\N,0,-0.019059,-1.19265,-2.13362\O,0,0.474744,-0.

 Normal termination of Gaussian 16 at Wed Apr  9 02:51:14 2025.
