 Gaussian 16, Revision C.01,

 ----------------------------------------------------------------------
 #t hf aug-cc-pvdz symm=none int=(grid=ultrafine) guess=(read,tcheck) s
 table=(opt,rrhf)
 ----------------------------------------------------------------------
 -----
 title
 -----
 Symbolic Z-matrix:
 Charge = -1 Multiplicity = 1

 SCF Done:  E(RHF) =  -1079.68238888     A.U. after   16 cycles
 Normal termination of Gaussian 16 at Wed Apr  9 02:46:01 2025.
 Gaussian 16:  ES64L-G16RevC.01  3-Jul-2019

 ----------------------------------------------------------------------
 #t hf aug-cc-pvdz iop(5/13=1,5/36=2,99/5=2) pseudo=read geom=check gue
 ss=(read,tcheck) scf=(maxcycle=1)
 ----------------------------------------------------------------------
 -----
 title
 -----
 Structure from the checkpoint file:  "E2SN2_228_mol2.chk"
 Charge = -1 Multiplicity = 1

                         Standard orientation:
 ---------------------------------------------------------------------
 Center     Atomic      Atomic             Coordinates (Angstroms)
 Number     Number       Type             X           Y           Z
 ---------------------------------------------------------------------
      1          6           0       -1.096264    0.160143   -0.112057
      2          6           0        0.417360    0.356311   -0.220622
      3          9           0       -1.718155    0.607289   -1.231990
      4          1           0        0.909457   -0.014313    0.687455
      5          7           0       -1.353480   -1.343812   -0.003135
      6          8           0       -1.959172   -1.877886   -0.915098
      7          8           0       -0.915587   -1.856588    1.016329
      8          6           0       -1.702082    0.792520    1.065314
      9          7           0       -2.197476    1.320373    1.990478
     10          6           0        0.661941    1.805640   -0.327442
     11          7           0        0.818747    2.960205   -0.478919
     12          7           0        0.898071   -0.439878   -1.322429
     13          1           0        1.856542   -0.700903   -1.062938
     14          1           0        0.907988    0.094405   -2.181521
     15         17           0        3.408277   -0.654994    0.535409
 ---------------------------------------------------------------------

 SCF Done:  E(RHF) =  -1082.53100528     A.U. after    2 cycles

 The electronic state is 1-A.
 Alpha  occ. eigenvalues --  -99.62489 -29.24208 -21.03565 -21.03066 -15.93207
 Alpha  occ. eigenvalues --  -15.72842 -15.68118 -15.64342 -11.54601 -11.42222
 Alpha  occ. eigenvalues --  -11.39431 -11.35104 -10.19180  -9.39188  -9.38861
 Alpha  occ. eigenvalues --   -9.38723  -1.93016  -1.63401  -1.36491  -1.25579
 Alpha  occ. eigenvalues --   -1.19586  -1.17999  -0.98401  -0.95988  -0.87965
 Alpha  occ. eigenvalues --   -0.78092  -0.70254  -0.65702  -0.62192  -0.56596
 Alpha  occ. eigenvalues --   -0.53306  -0.52113  -0.48435  -0.47096  -0.43509
 Alpha  occ. eigenvalues --   -0.40436  -0.39387  -0.38044  -0.36116  -0.33031
 Alpha  occ. eigenvalues --   -0.30058  -0.28725  -0.27025  -0.26527  -0.26205
 Alpha  occ. eigenvalues --   -0.25752  -0.24764  -0.21619  -0.20126
 Alpha virt. eigenvalues --    0.13964   0.15897   0.16940   0.18317   0.18652
 Alpha virt. eigenvalues --    0.18863   0.19474   0.20794   0.21328   0.21989
 Alpha virt. eigenvalues --    0.22798   0.23178   0.23402   0.24700   0.25092

 Mulliken charges:
               1
     1  C    2.729617
     2  C   -0.617789
     3  F    0.423789
     4  H    1.882905
     5  N    4.072998
     6  O   -2.748165
     7  O   -3.121523
     8  C    1.336181
     9  N   -2.508739
    10  C    2.538611
    11  N   -2.522321
    12  N   -2.497473
    13  H    0.401564
    14  H    0.589104
    15  Cl  -0.958760
 Sum of Mulliken charges =  -1.00000

 Dipole moment (field-independent basis, Debye):
    X=            -11.2659    Y=              0.5638    Z=             -5.8060  Tot=             12.6865

 Test job not archived.
 1\1\GINC-SE165\SP\RHF\Aug-CC-pVDZ\C4H3Cl1F1N4O2(1-)\OHZDE\09-Apr-2025\
 0\\#t hf aug-cc-pvdz iop(5/13=1,5/36=2,99/5=2) pseudo=read geom=check
 guess=(read,tcheck) scf=(maxcycle=1)\\title\\-1,1\C,0,0.185499,-0.1363
 06,0.086138\C,0,-0.665481,0.254773,-1.12391\F,0,1.504816,-0.115196,-0.
 229922\H,0,-1.729148,0.240113,-0.85461\N,0,-0.052769,0.917037,1.169468
 \O,0,0.892156,1.614448,1.492745\O,0,-1.194063,0.940129,1.606402\C,0,-0
 .154615,-1.441277,0.664489\N,0,-0.402778,-2.497521,1.114752\C,0,-0.432
 388,-0.760422,-2.166423\N,0,-0.17345,-1.547253,-2.999731\N,0,-0.335739

 Normal termination of Gaussian 16 at Wed Apr  9 02:46:14 2025.
