 Gaussian 16, Revision C.01,

 ----------------------------------------------------------------------
 #t hf aug-cc-pvdz symm=none int=(grid=ultrafine) guess=(read,tcheck) s
 table=(opt,rrhf)
 ----------------------------------------------------------------------
 -----
 title
 -----
 Symbolic Z-matrix:
 Charge = -1 Multiplicity = 1

 SCF Done:  E(RHF) =  -763.526917510     A.U. after   16 cycles
 Normal termination of Gaussian 16 at Wed Apr  9 02:42:23 2025.
 Gaussian 16:  ES64L-G16RevC.01  3-Jul-2019

 ----------------------------------------------------------------------
 #t hf aug-cc-pvdz iop(5/13=1,5/36=2,99/5=2) pseudo=read geom=check gue
 ss=(read,tcheck) scf=(maxcycle=1)
 ----------------------------------------------------------------------
 -----
 title
 -----
 Structure from the checkpoint file:  "E2SN2_20_mol1.chk"
 Charge = -1 Multiplicity = 1

                         Standard orientation:
 ---------------------------------------------------------------------
 Center     Atomic      Atomic             Coordinates (Angstroms)
 Number     Number       Type             X           Y           Z
 ---------------------------------------------------------------------
      1          6           0        0.614963    0.101120    0.367542
      2          6           0       -0.740892    0.690783    0.049973
      3         17           0        1.093749   -1.190913   -0.893839
      4          1           0       -0.693855    2.152619    2.120925
      5          1           0       -0.848916    1.424929    1.060563
      6          7           0        0.640528   -0.554620    1.658679
      7          1           0       -0.092460   -1.259283    1.669061
      8          1           0        0.341411    0.181440    2.309617
      9          6           0       -1.787064   -0.294049    0.119998
     10          7           0       -2.667343   -1.072666    0.224733
     11          6           0       -0.837325    1.578925   -1.179585
     12          1           0       -0.413650    1.104289   -2.071843
     13          1           0       -1.882670    1.824402   -1.385266
     14          1           0       -0.313096    2.521038   -0.992630
     15          6           0        1.693477    1.162442    0.346730
     16          1           0        1.829041    1.579685   -0.651487
     17          1           0        1.378320    1.952522    1.038793
     18          1           0        2.630895    0.719562    0.685706
 ---------------------------------------------------------------------

 SCF Done:  E(RHF) =  -765.295744698     A.U. after    2 cycles

 The electronic state is 1-A.
 Alpha  occ. eigenvalues --  -99.73595 -15.61584 -15.60453 -11.38027 -11.32328
 Alpha  occ. eigenvalues --  -11.28859 -11.26850 -11.24438 -10.30940  -9.50993
 Alpha  occ. eigenvalues --   -9.50262  -9.50227  -1.30639  -1.15971  -1.12392
 Alpha  occ. eigenvalues --   -1.04389  -0.94888  -0.83674  -0.70252  -0.59764
 Alpha  occ. eigenvalues --   -0.55545  -0.50351  -0.48607  -0.44879  -0.42890
 Alpha  occ. eigenvalues --   -0.41684  -0.40809  -0.38987  -0.37458  -0.35490
 Alpha  occ. eigenvalues --   -0.34634  -0.32305  -0.28980  -0.28497  -0.23215
 Alpha  occ. eigenvalues --   -0.10832
 Alpha virt. eigenvalues --    0.13550   0.14147   0.14697   0.15012   0.16106
 Alpha virt. eigenvalues --    0.16447   0.17282   0.17524   0.18883   0.20096
 Alpha virt. eigenvalues --    0.20524   0.21582   0.23111   0.23167   0.24982

 Mulliken charges:
               1
     1  C    4.394842
     2  C   -0.856387
     3  Cl  -0.419405
     4  H   -0.404497
     5  H    1.694844
     6  N   -3.796520
     7  H    0.622182
     8  H    0.609844
     9  C    1.340310
    10  N   -2.660269
    11  C   -4.326912
    12  H    1.213661
    13  H    1.195388
    14  H    1.255730
    15  C   -4.340572
    16  H    1.218232
    17  H    1.200597
    18  H    1.058930
 Sum of Mulliken charges =  -1.00000

 Dipole moment (field-independent basis, Debye):
    X=              3.4782    Y=             -1.9504    Z=             -4.8252  Tot=              6.2597

 Test job not archived.
 1\1\GINC-SE329\SP\RHF\Aug-CC-pVDZ\C5H10Cl1N2(1-)\OHZDE\09-Apr-2025\0\\
 #t hf aug-cc-pvdz iop(5/13=1,5/36=2,99/5=2) pseudo=read geom=check gue
 ss=(read,tcheck) scf=(maxcycle=1)\\title\\-1,1\C,0,-0.12970637,0.05242
 837,-0.39859433\C,0,-0.08977438,0.00717918,1.1124489\Cl,0,1.59550692,0
 .13325155,-1.11047735\H,0,-2.62004382,0.01706315,1.2726237\H,0,-1.3259
 0209,0.05070737,1.31744849\N,0,-0.83499078,1.21584477,-0.89530216\H,0,
 -0.39459607,2.04348738,-0.50161445\H,0,-1.75980816,1.14449749,-0.45417
 017\C,0,0.48148067,1.20254625,1.67284192\N,0,0.89640362,2.19594889,2.1

 Normal termination of Gaussian 16 at Wed Apr  9 02:42:32 2025.
