 Gaussian 16, Revision C.01,

 ----------------------------------------------------------------------
 #t hf aug-cc-pvdz symm=none int=(grid=ultrafine) guess=(read,tcheck) s
 table=(opt,rrhf)
 ----------------------------------------------------------------------
 -----
 title
 -----
 Symbolic Z-matrix:
 Charge = -1 Multiplicity = 1

 SCF Done:  E(RHF) =  -740.465436406     A.U. after   17 cycles
 Normal termination of Gaussian 16 at Wed Apr  9 02:56:00 2025.
 Gaussian 16:  ES64L-G16RevC.01  3-Jul-2019

 ----------------------------------------------------------------------
 #t hf aug-cc-pvdz iop(5/13=1,5/36=2,99/5=2) pseudo=read geom=check gue
 ss=(read,tcheck) scf=(maxcycle=1)
 ----------------------------------------------------------------------
 -----
 title
 -----
 Structure from the checkpoint file:  "E2SN2_369_mol1.chk"
 Charge = -1 Multiplicity = 1

                         Standard orientation:
 ---------------------------------------------------------------------
 Center     Atomic      Atomic             Coordinates (Angstroms)
 Number     Number       Type             X           Y           Z
 ---------------------------------------------------------------------
      1          6           0       -0.559700    0.570286   -0.591949
      2          1           0        0.931094    1.798031    0.263899
      3         17           0       -1.204114   -1.354477   -0.040838
      4          1           0        0.151322    2.164979   -1.737544
      5          6           0        0.686585    0.740275    0.285621
      6          1           0       -0.391707    0.286117   -1.614649
      7          7           0       -1.705906    1.339333   -0.190768
      8          1           0       -2.534922    0.843076   -0.495349
      9          1           0       -1.619876    2.202736   -0.711462
     10          6           0        1.813479    0.026606   -0.358300
     11          7           0        2.730629   -0.582660   -0.769223
     12          7           0        0.500792    0.363819    1.685673
     13          1           0        1.389008    0.473243    2.160836
     14          1           0        0.224222   -0.608519    1.736506
 ---------------------------------------------------------------------

 SCF Done:  E(RHF) =  -742.069131982     A.U. after    2 cycles

 The electronic state is 1-A.
 Alpha  occ. eigenvalues --  -99.69884 -15.63211 -15.62058 -15.60899 -11.39466
 Alpha  occ. eigenvalues --  -11.34698 -11.29371 -10.26978  -9.46992  -9.46562
 Alpha  occ. eigenvalues --   -9.46379  -1.29432  -1.19263  -1.14758  -1.07834
 Alpha  occ. eigenvalues --   -0.93914  -0.74934  -0.61410  -0.57829  -0.54205
 Alpha  occ. eigenvalues --   -0.47660  -0.45716  -0.42348  -0.39525  -0.35601
 Alpha  occ. eigenvalues --   -0.33788  -0.33072  -0.30338  -0.29570  -0.25425
 Alpha  occ. eigenvalues --   -0.23775  -0.13281
 Alpha virt. eigenvalues --    0.13618   0.14632   0.15922   0.16476   0.16874
 Alpha virt. eigenvalues --    0.17823   0.19739   0.20049   0.21576   0.23456
 Alpha virt. eigenvalues --    0.24169   0.24513   0.25743   0.26696   0.26974

 Mulliken charges:
               1
     1  C   -0.768794
     2  H    1.782031
     3  Cl  -0.513187
     4  H   -0.912556
     5  C    0.511855
     6  H    1.930552
     7  N   -2.693075
     8  H    0.549536
     9  H    0.697490
    10  C    2.789761
    11  N   -2.678584
    12  N   -2.838032
    13  H    0.610657
    14  H    0.532345
 Sum of Mulliken charges =  -1.00000

 Dipole moment (field-independent basis, Debye):
    X=             -1.2581    Y=             -1.6824    Z=              4.7703  Tot=              5.2124

 Test job not archived.
 1\1\GINC-SE273\SP\RHF\Aug-CC-pVDZ\C3H7Cl1N3(1-)\OHZDE\09-Apr-2025\0\\#
 t hf aug-cc-pvdz iop(5/13=1,5/36=2,99/5=2) pseudo=read geom=check gues
 s=(read,tcheck) scf=(maxcycle=1)\\title\\-1,1\C,0,0.36183118,-0.064835
 23,-0.11869875\H,0,1.67673896,1.57005458,-0.36457379\Cl,0,-1.73682696,
 -0.13914983,-0.23623725\H,0,2.31083164,-0.27804064,0.60027928\C,0,0.61
 846537,1.44681403,-0.15487659\H,0,0.38374384,-0.53257528,0.84858081\N,
 0,0.70234712,-0.77700665,-1.31995889\H,0,0.10473673,-1.59303047,-1.377
 17661\H,0,1.65943351,-1.07020399,-1.17160422\C,0,0.38371464,1.99412234

 Normal termination of Gaussian 16 at Wed Apr  9 02:56:06 2025.
