 Gaussian 16, Revision C.01,

 ----------------------------------------------------------------------
 #t hf aug-cc-pvdz symm=none int=(grid=ultrafine) guess=(read,tcheck) s
 table=(opt,rrhf)
 ----------------------------------------------------------------------
 -----
 title
 -----
 Symbolic Z-matrix:
 Charge = -1 Multiplicity = 1

 SCF Done:  E(RHF) =  -935.293060044     A.U. after   15 cycles
 Normal termination of Gaussian 16 at Wed Apr  9 02:55:54 2025.
 Gaussian 16:  ES64L-G16RevC.01  3-Jul-2019

 ----------------------------------------------------------------------
 #t hf aug-cc-pvdz iop(5/13=1,5/36=2,99/5=2) pseudo=read geom=check gue
 ss=(read,tcheck) scf=(maxcycle=1)
 ----------------------------------------------------------------------
 -----
 title
 -----
 Structure from the checkpoint file:  "E2SN2_356_mol2.chk"
 Charge = -1 Multiplicity = 1

                         Standard orientation:
 ---------------------------------------------------------------------
 Center     Atomic      Atomic             Coordinates (Angstroms)
 Number     Number       Type             X           Y           Z
 ---------------------------------------------------------------------
      1          6           0        0.145215    1.025315    0.078574
      2          6           0        0.460160   -0.258703   -0.704728
      3          9           0        1.382436    1.682874    0.234858
      4          1           0        0.738398   -0.038980   -1.733532
      5          1           0       -0.416989   -0.911511   -0.653266
      6          6           0       -0.760280    1.903439   -0.755002
      7          1           0       -1.694240    1.373013   -0.950734
      8          1           0       -0.966305    2.811448   -0.186223
      9          1           0       -0.270284    2.168150   -1.694608
     10          7           0       -0.415073    0.840730    1.379756
     11          1           0        0.127688    0.137603    1.869090
     12          1           0       -1.346797    0.444763    1.243566
     13          7           0        1.628015   -0.970006   -0.127686
     14          8           0        1.556370   -1.343195    1.043926
     15          8           0        2.609489   -1.145710   -0.850329
     16         17           0       -2.911849   -0.960852   -0.119667
 ---------------------------------------------------------------------

 SCF Done:  E(RHF) =  -937.578263957     A.U. after    2 cycles

 The electronic state is 1-A.
 Alpha  occ. eigenvalues --  -99.61976 -29.13453 -20.98738 -20.98239 -15.88003
 Alpha  occ. eigenvalues --  -15.60336 -11.40757 -11.33837 -11.26219 -10.18625
 Alpha  occ. eigenvalues --   -9.38667  -9.38346  -9.38293  -1.87855  -1.57682
 Alpha  occ. eigenvalues --   -1.29805  -1.09449  -0.99507  -0.97690  -0.82990
 Alpha  occ. eigenvalues --   -0.75454  -0.62200  -0.58953  -0.57805  -0.54361
 Alpha  occ. eigenvalues --   -0.49962  -0.48362  -0.44169  -0.43248  -0.40966
 Alpha  occ. eigenvalues --   -0.39602  -0.28518  -0.26034  -0.25832  -0.25680
 Alpha  occ. eigenvalues --   -0.23366  -0.22159  -0.20870  -0.20072  -0.14065
 Alpha  occ. eigenvalues --   -0.13894
 Alpha virt. eigenvalues --    0.13169   0.14213   0.15043   0.16396   0.17102
 Alpha virt. eigenvalues --    0.17472   0.19159   0.19856   0.21929   0.23771
 Alpha virt. eigenvalues --    0.23995   0.24849   0.25746   0.25792   0.26569

 Mulliken charges:
               1
     1  C    4.197647
     2  C   -2.747732
     3  F    0.113834
     4  H    1.616728
     5  H    1.227407
     6  C   -3.880506
     7  H    1.077954
     8  H    1.136259
     9  H    1.126466
    10  N   -3.630524
    11  H    0.689549
    12  H    0.418421
    13  N    4.187828
    14  O   -2.822316
    15  O   -2.724299
    16  Cl  -0.986715
 Sum of Mulliken charges =  -1.00000

 Dipole moment (field-independent basis, Debye):
    X=              9.4607    Y=              4.3022    Z=             -0.2319  Tot=             10.3956

 Test job not archived.
 1\1\GINC-SE116\SP\RHF\Aug-CC-pVDZ\C3H7Cl1F1N2O2(1-)\OHZDE\09-Apr-2025\
 0\\#t hf aug-cc-pvdz iop(5/13=1,5/36=2,99/5=2) pseudo=read geom=check
 guess=(read,tcheck) scf=(maxcycle=1)\\title\\-1,1\C,0,-0.007183,0.0062
 05,0.011486\C,0,-0.43645,0.131632,-1.458702\F,0,1.40087,-0.05956,-0.01
 2729\H,0,-0.165338,1.101516,-1.870959\H,0,-1.515478,-0.044137,-1.51346
 2\C,0,-0.413981,1.258877,0.753915\H,0,-1.499849,1.364328,0.712496\H,0,
 -0.094877,1.154199,1.792015\H,0,0.069174,2.133667,0.313085\N,0,-0.4833
 24,-1.149112,0.704018\H,0,-0.328541,-1.96339,0.119707\H,0,-1.495568,-1

 Normal termination of Gaussian 16 at Wed Apr  9 02:56:01 2025.
