 Gaussian 16, Revision C.01,

 ----------------------------------------------------------------------
 #t hf aug-cc-pvdz symm=none int=(grid=ultrafine) guess=(read,tcheck) s
 table=(opt,rrhf)
 ----------------------------------------------------------------------
 -----
 title
 -----
 Symbolic Z-matrix:
 Charge = -1 Multiplicity = 1

 SCF Done:  E(RHF) =  -1063.61876907     A.U. after   18 cycles
 Normal termination of Gaussian 16 at Wed Apr  9 02:44:37 2025.
 Gaussian 16:  ES64L-G16RevC.01  3-Jul-2019

 ----------------------------------------------------------------------
 #t hf aug-cc-pvdz iop(5/13=1,5/36=2,99/5=2) pseudo=read geom=check gue
 ss=(read,tcheck) scf=(maxcycle=1)
 ----------------------------------------------------------------------
 -----
 title
 -----
 Structure from the checkpoint file:  "E2SN2_226_mol2.chk"
 Charge = -1 Multiplicity = 1

                         Standard orientation:
 ---------------------------------------------------------------------
 Center     Atomic      Atomic             Coordinates (Angstroms)
 Number     Number       Type             X           Y           Z
 ---------------------------------------------------------------------
      1          6           0        0.177366    0.078707    0.188508
      2          6           0       -0.939535   -0.536189   -0.672197
      3         17           0        0.069940   -0.576469    1.891328
      4          1           0       -0.574856   -0.245544   -1.672126
      5          7           0        1.569793   -0.336703   -0.279704
      6          8           0        2.495189    0.336103    0.143064
      7          8           0        1.664282   -1.377281   -0.914682
      8          6           0        0.122514    1.531571    0.280657
      9          7           0       -0.019494    2.645605    0.633686
     10          6           0       -2.187789    0.178187   -0.414883
     11          7           0       -3.239035    0.669433   -0.228608
     12          6           0       -1.191594   -2.037080   -0.506600
     13          1           0       -1.641650   -2.265682    0.460402
     14          1           0       -0.262225   -2.589512   -0.615911
     15          1           0       -1.883346   -2.354611   -1.290903
     16          9           0        0.648078    1.049469   -1.887958
 ---------------------------------------------------------------------

 SCF Done:  E(RHF) =  -1066.43791651     A.U. after    2 cycles

 The electronic state is 1-A.
 Alpha  occ. eigenvalues --  -99.80456 -28.92685 -20.97948 -20.97643 -15.88869
 Alpha  occ. eigenvalues --  -15.65516 -15.63948 -11.48748 -11.38213 -11.33974
 Alpha  occ. eigenvalues --  -11.32949 -11.29239 -10.37784  -9.57821  -9.57164
 Alpha  occ. eigenvalues --   -9.57033  -1.88125  -1.58236  -1.31399  -1.20312
 Alpha  occ. eigenvalues --   -1.16667  -1.10862  -1.02804  -0.87661  -0.78585
 Alpha  occ. eigenvalues --   -0.67123  -0.65353  -0.60274  -0.55430  -0.50950
 Alpha  occ. eigenvalues --   -0.49177  -0.47497  -0.45937  -0.43647  -0.43111
 Alpha  occ. eigenvalues --   -0.41841  -0.39486  -0.38270  -0.36260  -0.33030
 Alpha  occ. eigenvalues --   -0.31945  -0.31447  -0.26362  -0.23887  -0.20473
 Alpha  occ. eigenvalues --   -0.19371  -0.02652  -0.01049  -0.00153
 Alpha virt. eigenvalues --    0.12558   0.13767   0.14613   0.15942   0.18270
 Alpha virt. eigenvalues --    0.18973   0.19716   0.20976   0.21134   0.22768
 Alpha virt. eigenvalues --    0.23169   0.23789   0.24205   0.24906   0.25481

 Mulliken charges:
               1
     1  C   -2.236789
     2  C    0.991442
     3  Cl  -0.222400
     4  H    0.834562
     5  N    6.075978
     6  O   -3.355373
     7  O   -3.279254
     8  C    6.586815
     9  N   -3.706343
    10  C    1.333766
    11  N   -2.637524
    12  C   -4.232807
    13  H    1.322264
    14  H    1.352784
    15  H    1.067852
    16  F   -0.894973
 Sum of Mulliken charges =  -1.00000

 Dipole moment (field-independent basis, Debye):
    X=              1.3271    Y=             -4.4933    Z=             -2.4192  Tot=              5.2729

 Test job not archived.
 1\1\GINC-SE461\SP\RHF\Aug-CC-pVDZ\C5H4Cl1F1N3O2(1-)\OHZDE\09-Apr-2025\
 0\\#t hf aug-cc-pvdz iop(5/13=1,5/36=2,99/5=2) pseudo=read geom=check
 guess=(read,tcheck) scf=(maxcycle=1)\\title\\-1,1\C,0,-0.103338,0.0392
 85,0.010704\C,0,-0.594094,0.15581,-1.442554\Cl,0,1.705693,0.293084,0.0
 68888\H,0,-1.679167,0.234379,-1.258798\N,0,-0.660123,1.144667,0.904439
 \O,0,-0.572333,0.951512,2.105581\O,0,-1.014751,2.18232,0.363658\C,0,-0
 .378229,-1.251731,0.627167\N,0,-0.304046,-2.333012,1.086726\C,0,-0.337
 352,-1.104847,-2.135021\N,0,-0.121953,-2.06693,-2.774659\C,0,-0.013329

 Normal termination of Gaussian 16 at Wed Apr  9 02:44:47 2025.
