 Gaussian 16, Revision C.01,

 ----------------------------------------------------------------------
 #t hf aug-cc-pvdz symm=none int=(grid=ultrafine) guess=(read,tcheck) s
 table=(opt,rrhf)
 ----------------------------------------------------------------------
 -----
 title
 -----
 Symbolic Z-matrix:
 Charge = -1 Multiplicity = 1

 SCF Done:  E(RHF) =  -740.488578791     A.U. after   15 cycles
 Normal termination of Gaussian 16 at Wed Apr  9 02:32:39 2025.
 Gaussian 16:  ES64L-G16RevC.01  3-Jul-2019

 ----------------------------------------------------------------------
 #t hf aug-cc-pvdz iop(5/13=1,5/36=2,99/5=2) pseudo=read geom=check gue
 ss=(read,tcheck) scf=(maxcycle=1)
 ----------------------------------------------------------------------
 -----
 title
 -----
 Structure from the checkpoint file:  "E2SN2_107_mol2.chk"
 Charge = -1 Multiplicity = 1

                         Standard orientation:
 ---------------------------------------------------------------------
 Center     Atomic      Atomic             Coordinates (Angstroms)
 Number     Number       Type             X           Y           Z
 ---------------------------------------------------------------------
      1          6           0        0.306336    0.149074    0.529071
      2          6           0       -0.863401   -0.800321    0.213397
      3         17           0        0.237847    1.664239   -0.427251
      4          1           0       -0.717434   -1.613955    0.946274
      5          1           0        0.107787    0.418733    1.618994
      6          6           0        1.589733   -0.491793    0.325029
      7          7           0        2.603072   -1.072430    0.174945
      8          7           0       -0.846369   -1.243197   -1.173033
      9          1           0       -0.016841   -1.801015   -1.345480
     10          1           0       -1.660633   -1.834095   -1.298294
     11          7           0       -2.153151   -0.225330    0.503841
     12          1           0       -2.247166    0.609327   -0.067728
     13          1           0       -2.086920    0.084114    1.484126
     14          1           0       -0.843072    0.489769    2.980111
 ---------------------------------------------------------------------

 SCF Done:  E(RHF) =  -742.077916890     A.U. after    2 cycles

 The electronic state is 1-A.
 Alpha  occ. eigenvalues --  -99.76330 -15.64907 -15.61981 -15.59029 -11.36934
 Alpha  occ. eigenvalues --  -11.33486 -11.29642 -10.33689  -9.53643  -9.52972
 Alpha  occ. eigenvalues --   -9.52786  -1.32323  -1.20844  -1.16404  -1.11333
 Alpha  occ. eigenvalues --   -0.95618  -0.75184  -0.60457  -0.59197  -0.56892
 Alpha  occ. eigenvalues --   -0.49346  -0.45433  -0.42694  -0.41284  -0.38569
 Alpha  occ. eigenvalues --   -0.36413  -0.36224  -0.32300  -0.31034  -0.25519
 Alpha  occ. eigenvalues --   -0.23167  -0.11229
 Alpha virt. eigenvalues --    0.13061   0.15269   0.15438   0.15877   0.17663
 Alpha virt. eigenvalues --    0.18379   0.19342   0.20929   0.21389   0.22829
 Alpha virt. eigenvalues --    0.24344   0.24695   0.24947   0.25388   0.26553

 Mulliken charges:
               1
     1  C   -1.595059
     2  C    1.788082
     3  Cl  -0.099093
     4  H    1.658660
     5  H    2.063119
     6  C    2.323051
     7  N   -2.520766
     8  N   -2.990532
     9  H    0.597257
    10  H    0.517392
    11  N   -2.878847
    12  H    0.503018
    13  H    0.702196
    14  H   -1.068477
 Sum of Mulliken charges =  -1.00000

 Dipole moment (field-independent basis, Debye):
    X=              0.3145    Y=             -2.1834    Z=             -8.7183  Tot=              8.9930

 Test job not archived.
 1\1\GINC-SE341\SP\RHF\Aug-CC-pVDZ\C3H7Cl1N3(1-)\OHZDE\09-Apr-2025\0\\#
 t hf aug-cc-pvdz iop(5/13=1,5/36=2,99/5=2) pseudo=read geom=check gues
 s=(read,tcheck) scf=(maxcycle=1)\\title\\-1,1\C,0,-0.096055,-0.042949,
 -1.378718\C,0,0.026125,-0.227652,0.144516\Cl,0,-1.631928,0.751623,-1.8
 52761\H,0,1.048884,-0.629844,0.256857\H,0,0.752821,0.685427,-1.599961\
 C,0,0.033584,-1.301153,-2.085519\N,0,0.179294,-2.345762,-2.609046\N,0,
 -1.013291,-1.099129,0.672493\H,0,-0.90127,-2.034582,0.29647\H,0,-0.875
 255,-1.139399,1.676087\N,0,0.003129,1.018367,0.869317\H,0,-0.883984,1.

 Normal termination of Gaussian 16 at Wed Apr  9 02:32:44 2025.
