 Gaussian 16, Revision C.01,

 ----------------------------------------------------------------------
 #t hf aug-cc-pvdz symm=none int=(grid=ultrafine) guess=(read,tcheck) s
 table=(opt,rrhf)
 ----------------------------------------------------------------------
 -----
 title
 -----
 Symbolic Z-matrix:
 Charge = -1 Multiplicity = 1

 SCF Done:  E(RHF) =  -825.790282893     A.U. after   14 cycles
 Normal termination of Gaussian 16 at Wed Apr  9 02:38:23 2025.
 Gaussian 16:  ES64L-G16RevC.01  3-Jul-2019

 ----------------------------------------------------------------------
 #t hf aug-cc-pvdz iop(5/13=1,5/36=2,99/5=2) pseudo=read geom=check gue
 ss=(read,tcheck) scf=(maxcycle=1)
 ----------------------------------------------------------------------
 -----
 title
 -----
 Structure from the checkpoint file:  "E2SN2_151_mol2.chk"
 Charge = -1 Multiplicity = 1

                         Standard orientation:
 ---------------------------------------------------------------------
 Center     Atomic      Atomic             Coordinates (Angstroms)
 Number     Number       Type             X           Y           Z
 ---------------------------------------------------------------------
      1          6           0       -0.030582   -0.465609    0.039166
      2          6           0        0.156068    1.063311   -0.004670
      3         17           0       -1.842971   -0.857907   -0.130640
      4          1           0        1.255298    1.133219    0.030730
      5          7           0        0.658083   -0.994658   -1.106339
      6          1           0        0.582990   -2.008012   -1.079445
      7          1           0        1.666134   -0.741685   -0.866654
      8          6           0        0.435760   -1.081543    1.347421
      9          1           0        0.308909   -2.167788    1.304516
     10          1           0       -0.101666   -0.704611    2.220208
     11          1           0        1.504961   -0.842976    1.380747
     12          6           0       -0.461634    1.814826    1.161841
     13          1           0       -1.540681    1.636828    1.221190
     14          1           0       -0.010931    1.532096    2.114717
     15          1           0       -0.298047    2.883619    1.005918
     16          7           0       -0.293456    1.664646   -1.261063
     17          1           0       -1.293935    1.494716   -1.332839
     18          1           0        0.125695    1.099358   -1.994234
     19          9           0        2.886857   -0.156241   -0.052745
 ---------------------------------------------------------------------

 SCF Done:  E(RHF) =  -827.731656397     A.U. after    2 cycles

 The electronic state is 1-A.
 Alpha  occ. eigenvalues --  -99.72475 -28.89636 -15.57963 -15.55478 -11.34173
 Alpha  occ. eigenvalues --  -11.28468 -11.24740 -11.22024 -10.29850  -9.49888
 Alpha  occ. eigenvalues --   -9.49287  -9.49139  -1.29312  -1.16138  -1.10653
 Alpha  occ. eigenvalues --   -0.96910  -0.91155  -0.78582  -0.65717  -0.55522
 Alpha  occ. eigenvalues --   -0.52491  -0.49283  -0.47330  -0.45375  -0.43077
 Alpha  occ. eigenvalues --   -0.40634  -0.38556  -0.36908  -0.34547  -0.33752
 Alpha  occ. eigenvalues --   -0.32433  -0.30701  -0.25888  -0.20519  -0.20400
 Alpha  occ. eigenvalues --    0.01518   0.01668   0.03382
 Alpha virt. eigenvalues --    0.13800   0.14249   0.14845   0.15007   0.15147
 Alpha virt. eigenvalues --    0.15982   0.17092   0.17651   0.18275   0.19369
 Alpha virt. eigenvalues --    0.20617   0.21192   0.24138   0.24410   0.25144

 Mulliken charges:
               1
     1  C    4.599659
     2  C    1.960919
     3  Cl  -0.489822
     4  H    1.096641
     5  N   -3.939786
     6  H    0.566354
     7  H    0.000355
     8  C   -3.950585
     9  H    1.074233
    10  H    1.277232
    11  H    0.925998
    12  C   -4.239855
    13  H    1.129274
    14  H    1.217737
    15  H    1.101024
    16  N   -3.581434
    17  H    0.494094
    18  H    0.583481
    19  F   -0.825516
 Sum of Mulliken charges =  -1.00000

 Dipole moment (field-independent basis, Debye):
    X=             -4.0559    Y=              0.3091    Z=              1.3349  Tot=              4.2811

 Test job not archived.
 1\1\GINC-SE059\SP\RHF\Aug-CC-pVDZ\C4H11Cl1F1N2(1-)\OHZDE\09-Apr-2025\0
 \\#t hf aug-cc-pvdz iop(5/13=1,5/36=2,99/5=2) pseudo=read geom=check g
 uess=(read,tcheck) scf=(maxcycle=1)\\title\\-1,1\C,0,0.069296,0.020797
 ,-1.477247\C,0,-0.001192,-0.020109,0.06149\Cl,0,-1.646057,0.280466,-2.
 153725\H,0,1.069306,-0.101643,0.310152\N,0,0.870624,1.164023,-1.819652
 \H,0,0.965317,1.191404,-2.83135\H,0,1.814552,0.872891,-1.417343\C,0,0.
 592839,-1.27171,-2.080331\H,0,0.650802,-1.168973,-3.168423\H,0,-0.0258
 67,-2.140943,-1.847308\H,0,1.605596,-1.358547,-1.670456\C,0,-0.770426,

 Normal termination of Gaussian 16 at Wed Apr  9 02:38:32 2025.
