 Gaussian 16, Revision C.01,

 ----------------------------------------------------------------------
 #t hf aug-cc-pvdz symm=none int=(grid=ultrafine) guess=(read,tcheck) s
 table=(opt,rrhf)
 ----------------------------------------------------------------------
 -----
 title
 -----
 Symbolic Z-matrix:
 Charge = -1 Multiplicity = 1

 SCF Done:  E(RHF) =  -888.927032692     A.U. after   18 cycles
 Normal termination of Gaussian 16 at Wed Apr  9 02:34:05 2025.
 Gaussian 16:  ES64L-G16RevC.01  3-Jul-2019

 ----------------------------------------------------------------------
 #t hf aug-cc-pvdz iop(5/13=1,5/36=2,99/5=2) pseudo=read geom=check gue
 ss=(read,tcheck) scf=(maxcycle=1)
 ----------------------------------------------------------------------
 -----
 title
 -----
 Structure from the checkpoint file:  "E2SN2_118_mol2.chk"
 Charge = -1 Multiplicity = 1

                         Standard orientation:
 ---------------------------------------------------------------------
 Center     Atomic      Atomic             Coordinates (Angstroms)
 Number     Number       Type             X           Y           Z
 ---------------------------------------------------------------------
      1          6           0       -0.594968   -0.037544    0.219730
      2          6           0        0.577589   -0.680748   -0.506936
      3         17           0       -2.026347   -1.066908   -0.188155
      4          1           0        0.488297   -0.473182   -1.585522
      5          1           0        0.587585   -1.763466   -0.396208
      6          7           0       -0.521797    0.033239    1.670471
      7          1           0       -0.289984   -0.896318    2.007400
      8          1           0        0.265316    0.643120    1.875760
      9          6           0       -0.893502    1.317997   -0.271957
     10          7           0       -1.189929    2.408369   -0.591135
     11          7           0        1.830247   -0.165275   -0.074971
     12          8           0        2.847364   -0.854563   -0.283965
     13          8           0        1.868493    1.017062    0.346466
     14          1           0        0.305461   -0.205264   -2.878379
 ---------------------------------------------------------------------

 SCF Done:  E(RHF) =  -891.084056136     A.U. after    2 cycles

 The electronic state is 1-A.
 Alpha  occ. eigenvalues --  -99.78956 -20.96682 -20.96090 -15.85872 -15.66133
 Alpha  occ. eigenvalues --  -15.65211 -11.44062 -11.33659 -11.31184 -10.36336
 Alpha  occ. eigenvalues --   -9.56355  -9.55537  -9.55460  -1.84840  -1.55195
 Alpha  occ. eigenvalues --   -1.35153  -1.17719  -1.16906  -1.09869  -0.90548
 Alpha  occ. eigenvalues --   -0.74851  -0.65602  -0.60541  -0.57300  -0.55734
 Alpha  occ. eigenvalues --   -0.52839  -0.48886  -0.45559  -0.43159  -0.41535
 Alpha  occ. eigenvalues --   -0.39348  -0.37769  -0.32337  -0.31877  -0.30097
 Alpha  occ. eigenvalues --   -0.23060  -0.18997  -0.18536  -0.10380
 Alpha virt. eigenvalues --    0.12553   0.14636   0.15144   0.16111   0.19016
 Alpha virt. eigenvalues --    0.20389   0.21252   0.21761   0.22331   0.23182
 Alpha virt. eigenvalues --    0.23532   0.24376   0.25193   0.25358   0.26709

 Mulliken charges:
               1
     1  C    1.202297
     2  C   -1.408046
     3  Cl  -0.083275
     4  H    1.792541
     5  H    1.444738
     6  N   -3.056152
     7  H    0.575326
     8  H    0.646761
     9  C    2.499983
    10  N   -2.730550
    11  N    3.943936
    12  O   -2.737807
    13  O   -2.652496
    14  H   -0.437256
 Sum of Mulliken charges =  -1.00000

 Dipole moment (field-independent basis, Debye):
    X=              0.0416    Y=             -1.8350    Z=             10.0634  Tot=             10.2294

 Test job not archived.
 1\1\GINC-SE341\SP\RHF\Aug-CC-pVDZ\C3H5Cl1N3O2(1-)\OHZDE\09-Apr-2025\0\
 \#t hf aug-cc-pvdz iop(5/13=1,5/36=2,99/5=2) pseudo=read geom=check gu
 ess=(read,tcheck) scf=(maxcycle=1)\\title\\-1,1\C,0,-0.503239,0.076617
 ,-1.426278\C,0,-0.001643,-0.001357,0.008632\Cl,0,-0.152677,-1.549456,-
 2.138879\H,0,1.100142,0.020071,0.004858\H,0,-0.295124,-0.92804,0.49829
 2\N,0,-1.921636,0.330288,-1.623289\H,0,-2.430513,-0.332309,-1.04593\H,
 0,-2.088307,1.260603,-1.248616\C,0,0.235736,1.061729,-2.233645\N,0,0.7
 6015,1.835456,-2.944272\N,0,-0.447522,1.094006,0.797828\O,0,-0.448316,

 Normal termination of Gaussian 16 at Wed Apr  9 02:34:11 2025.
