 Gaussian 16, Revision C.01,

 ----------------------------------------------------------------------
 #t hf aug-cc-pvdz symm=none int=(grid=ultrafine) guess=(read,tcheck) s
 table=(opt,rrhf)
 ----------------------------------------------------------------------
 -----
 title
 -----
 Symbolic Z-matrix:
 Charge = -1 Multiplicity = 1

 SCF Done:  E(RHF) =  -1099.74366570     A.U. after   15 cycles
 Normal termination of Gaussian 16 at Wed Apr  9 02:43:04 2025.
 Gaussian 16:  ES64L-G16RevC.01  3-Jul-2019

 ----------------------------------------------------------------------
 #t hf aug-cc-pvdz iop(5/13=1,5/36=2,99/5=2) pseudo=read geom=check gue
 ss=(read,tcheck) scf=(maxcycle=1)
 ----------------------------------------------------------------------
 -----
 title
 -----
 Structure from the checkpoint file:  "E2SN2_214_mol2.chk"
 Charge = -1 Multiplicity = 1

                         Standard orientation:
 ---------------------------------------------------------------------
 Center     Atomic      Atomic             Coordinates (Angstroms)
 Number     Number       Type             X           Y           Z
 ---------------------------------------------------------------------
      1          6           0        0.041045   -0.584102    0.559584
      2          6           0        0.158781    0.765662   -0.148763
      3          9           0       -0.403873   -0.390754    1.831293
      4          1           0        0.831022    1.353927    0.473597
      5          1           0        1.029351   -1.049038    0.555475
      6          7           0       -0.918435   -1.526936   -0.118317
      7          8           0       -0.576040   -1.905257   -1.237052
      8          8           0       -1.934814   -1.862150    0.474161
      9          7           0       -1.187751    1.441966   -0.084401
     10          8           0       -1.291279    2.474972    0.571276
     11          8           0       -2.092538    0.908169   -0.725332
     12          7           0        0.618744    0.783671   -1.495898
     13          1           0        1.630520    0.665674   -1.436005
     14          1           0        0.232857    0.000156   -2.007526
     15         17           0        3.310683   -0.021180    0.158458
 ---------------------------------------------------------------------

 SCF Done:  E(RHF) =  -1102.64495099     A.U. after    2 cycles

 The electronic state is 1-A.
 Alpha  occ. eigenvalues --  -99.63405 -29.20035 -21.01151 -21.00369 -21.00250
 Alpha  occ. eigenvalues --  -20.99613 -15.90345 -15.88812 -15.63938 -11.47020
 Alpha  occ. eigenvalues --  -11.37644 -10.20087  -9.40136  -9.39814  -9.39685
 Alpha  occ. eigenvalues --   -1.90392  -1.89024  -1.60614  -1.59258  -1.30915
 Alpha  occ. eigenvalues --   -1.17088  -1.00873  -0.99180  -0.85381  -0.74972
 Alpha  occ. eigenvalues --   -0.67344  -0.65959  -0.62507  -0.59440  -0.55616
 Alpha  occ. eigenvalues --   -0.53334  -0.50937  -0.49822  -0.46849  -0.44414
 Alpha  occ. eigenvalues --   -0.35444  -0.30102  -0.27975  -0.27471  -0.27067
 Alpha  occ. eigenvalues --   -0.25881  -0.25084  -0.24188  -0.23369  -0.22229
 Alpha  occ. eigenvalues --   -0.20716  -0.17818  -0.16122
 Alpha virt. eigenvalues --    0.15282   0.16159   0.16540   0.17716   0.20895
 Alpha virt. eigenvalues --    0.21232   0.21693   0.22470   0.23226   0.24549
 Alpha virt. eigenvalues --    0.24718   0.25835   0.26413   0.27237   0.27399

 Mulliken charges:
               1
     1  C    0.269629
     2  C    0.651800
     3  F    0.422843
     4  H    1.870241
     5  H    1.615604
     6  N    4.185217
     7  O   -3.031905
     8  O   -2.773284
     9  N    4.399378
    10  O   -2.804955
    11  O   -2.983619
    12  N   -2.959182
    13  H    0.411491
    14  H    0.697111
    15  Cl  -0.970368
 Sum of Mulliken charges =  -1.00000

 Dipole moment (field-independent basis, Debye):
    X=             -9.1347    Y=             -0.4550    Z=              1.8778  Tot=              9.3368

 Test job not archived.
 1\1\GINC-SE074\SP\RHF\Aug-CC-pVDZ\C2H4Cl1F1N3O4(1-)\OHZDE\09-Apr-2025\
 0\\#t hf aug-cc-pvdz iop(5/13=1,5/36=2,99/5=2) pseudo=read geom=check
 guess=(read,tcheck) scf=(maxcycle=1)\\title\\-1,1\C,0,-0.259556,0.0073
 98,0.09459\C,0,-0.644323,0.064984,-1.383963\F,0,0.590456,-1.035423,0.3
 00948\H,0,-1.075271,-0.910694,-1.602211\H,0,-1.178226,-0.114146,0.6726
 94\N,0,0.430146,1.25701,0.576118\O,0,-0.26683,2.269998,0.579084\O,0,1.
 595583,1.185133,0.940829\N,0,0.626529,0.162946,-2.190201\O,0,0.925191,
 -0.774325,-2.925086\O,0,1.268189,1.205438,-2.064288\N,0,-1.539212,1.08

 Normal termination of Gaussian 16 at Wed Apr  9 02:43:12 2025.
