 Gaussian 16, Revision C.01,

 ----------------------------------------------------------------------
 #t hf aug-cc-pvdz symm=none int=(grid=ultrafine) guess=(read,tcheck) s
 table=(opt,rrhf)
 ----------------------------------------------------------------------
 -----
 title
 -----
 Symbolic Z-matrix:
 Charge = -1 Multiplicity = 1

 SCF Done:  E(RHF) =  -1295.33625316     A.U. after   15 cycles
 Normal termination of Gaussian 16 at Wed Apr  9 02:45:44 2025.
 Gaussian 16:  ES64L-G16RevC.01  3-Jul-2019

 ----------------------------------------------------------------------
 #t hf aug-cc-pvdz iop(5/13=1,5/36=2,99/5=2) pseudo=read geom=check gue
 ss=(read,tcheck) scf=(maxcycle=1)
 ----------------------------------------------------------------------
 -----
 title
 -----
 Structure from the checkpoint file:  "E2SN2_245_mol2.chk"
 Charge = -1 Multiplicity = 1

                         Standard orientation:
 ---------------------------------------------------------------------
 Center     Atomic      Atomic             Coordinates (Angstroms)
 Number     Number       Type             X           Y           Z
 ---------------------------------------------------------------------
      1          6           0        0.517924    0.144787   -0.152514
      2          6           0       -0.098241    0.898835    1.004119
      3         17           0        2.125968    0.909836   -0.630187
      4          1           0        0.645977    0.982876    1.795630
      5          1           0       -0.926874    0.279874    1.363411
      6          7           0        1.029405   -1.250446    0.367903
      7          8           0        1.026998   -2.168137   -0.445867
      8          8           0        1.416867   -1.331433    1.527932
      9          7           0       -0.313236    0.032950   -1.243566
     10          1           0       -1.298935   -0.088195   -0.957986
     11          1           0       -0.015696   -0.690434   -1.883459
     12          6           0       -0.640647    2.258801    0.582843
     13          1           0       -0.984092    2.803387    1.466505
     14          1           0        0.125100    2.856211    0.083168
     15          1           0       -1.492102    2.131134   -0.083898
     16         17           0       -3.260773   -0.413975   -0.129633
 ---------------------------------------------------------------------

 SCF Done:  E(RHF) =  -1297.54942882     A.U. after    2 cycles

 The electronic state is 1-A.
 Alpha  occ. eigenvalues --  -99.78156 -99.61717 -20.98808 -20.98620 -15.87319
 Alpha  occ. eigenvalues --  -15.62340 -11.43586 -11.30453 -11.25267 -10.35525
 Alpha  occ. eigenvalues --  -10.18412  -9.55598  -9.54823  -9.54699  -9.38444
 Alpha  occ. eigenvalues --   -9.38072  -9.37992  -1.87815  -1.58149  -1.32840
 Alpha  occ. eigenvalues --   -1.17117  -1.05891  -0.97786  -0.96376  -0.80882
 Alpha  occ. eigenvalues --   -0.70079  -0.62890  -0.59718  -0.55823  -0.54013
 Alpha  occ. eigenvalues --   -0.49432  -0.46199  -0.45291  -0.41810  -0.40490
 Alpha  occ. eigenvalues --   -0.38666  -0.38036  -0.35847  -0.30680  -0.25605
 Alpha  occ. eigenvalues --   -0.25545  -0.25336  -0.22510  -0.20769  -0.19182
 Alpha virt. eigenvalues --    0.12989   0.14046   0.14725   0.15280   0.16122
 Alpha virt. eigenvalues --    0.17652   0.17973   0.19319   0.20639   0.21345
 Alpha virt. eigenvalues --    0.23746   0.24394   0.24657   0.25373   0.26055

 Mulliken charges:
               1
     1  C    4.348956
     2  C   -2.644125
     3  Cl  -0.049313
     4  H    1.517832
     5  H    1.382139
     6  N    3.877814
     7  O   -2.802385
     8  O   -2.967049
     9  N   -3.747924
    10  H    0.411777
    11  H    0.732716
    12  C   -3.675435
    13  H    1.039435
    14  H    1.251319
    15  H    1.297080
    16  Cl  -0.972838
 Sum of Mulliken charges =  -1.00000

 Dipole moment (field-independent basis, Debye):
    X=              8.4933    Y=              1.7566    Z=              0.6727  Tot=              8.6991

 Test job not archived.
 1\1\GINC-SE073\SP\RHF\Aug-CC-pVDZ\C3H7Cl2N2O2(1-)\OHZDE\09-Apr-2025\0\
 \#t hf aug-cc-pvdz iop(5/13=1,5/36=2,99/5=2) pseudo=read geom=check gu
 ess=(read,tcheck) scf=(maxcycle=1)\\title\\-1,1\C,0,0.020761,0.04977,0
 .018607\C,0,-0.473522,0.194447,-1.402942\Cl,0,1.849019,-0.18761,0.0385
 92\H,0,0.115265,0.968201,-1.894927\H,0,-1.511933,0.533992,-1.330503\N,
 0,-0.075223,1.449706,0.732813\O,0,-0.264572,1.429782,1.944479\O,0,0.06
 7166,2.459724,0.05315\N,0,-0.609595,-0.950496,0.722771\H,0,-1.60836,-1
 .021941,0.46743\H,0,-0.482493,-0.859352,1.721177\C,0,-0.434368,-1.1245

 Normal termination of Gaussian 16 at Wed Apr  9 02:45:51 2025.
