 Gaussian 16, Revision C.01,

 ----------------------------------------------------------------------
 #t hf aug-cc-pvdz symm=none int=(grid=ultrafine) guess=(read,tcheck) s
 table=(opt,rrhf)
 ----------------------------------------------------------------------
 -----
 title
 -----
 Symbolic Z-matrix:
 Charge = -1 Multiplicity = 1

 SCF Done:  E(RHF) =  -739.633940100     A.U. after   16 cycles
 Normal termination of Gaussian 16 at Wed Apr  9 02:42:38 2025.
 Gaussian 16:  ES64L-G16RevC.01  3-Jul-2019

 ----------------------------------------------------------------------
 #t hf aug-cc-pvdz iop(5/13=1,5/36=2,99/5=2) pseudo=read geom=check gue
 ss=(read,tcheck) scf=(maxcycle=1)
 ----------------------------------------------------------------------
 -----
 title
 -----
 Structure from the checkpoint file:  "E2SN2_213_mol2.chk"
 Charge = -1 Multiplicity = 1

                         Standard orientation:
 ---------------------------------------------------------------------
 Center     Atomic      Atomic             Coordinates (Angstroms)
 Number     Number       Type             X           Y           Z
 ---------------------------------------------------------------------
      1          6           0       -0.633573    0.227681    0.627136
      2          6           0        0.103702   -0.962054    0.009108
      3          9           0       -0.126829    0.496848    1.870957
      4          1           0        0.044575   -1.738750    0.768460
      5          1           0       -1.685389   -0.119936    0.655336
      6          7           0       -0.506163    1.476891   -0.188247
      7          8           0        0.134427    2.420318    0.264173
      8          8           0       -1.077711    1.460911   -1.277558
      9          7           0        1.562660   -0.630826   -0.138176
     10          8           0        2.368070   -1.195428    0.600878
     11          8           0        1.855900    0.190811   -1.006599
     12          7           0       -0.426337   -1.460145   -1.218249
     13          1           0       -1.386156   -1.724480   -0.889084
     14          1           0       -0.533695   -0.679989   -1.857740
     15          9           0       -2.530584   -1.612953    0.314722
 ---------------------------------------------------------------------

 SCF Done:  E(RHF) =  -742.628339208     A.U. after    2 cycles

 The electronic state is 1-A.
 Alpha  occ. eigenvalues --  -29.17643 -28.92926 -20.99044 -20.98822 -20.98468
 Alpha  occ. eigenvalues --  -20.98321 -15.88314 -15.87429 -15.60113 -11.43880
 Alpha  occ. eigenvalues --  -11.34865  -1.88377  -1.87536  -1.58461  -1.57713
 Alpha  occ. eigenvalues --   -1.28584  -1.14146  -0.98831  -0.83682  -0.72644
 Alpha  occ. eigenvalues --   -0.65255  -0.63888  -0.60938  -0.57380  -0.53776
 Alpha  occ. eigenvalues --   -0.51383  -0.49703  -0.48002  -0.44777  -0.42466
 Alpha  occ. eigenvalues --   -0.35086  -0.29574  -0.27228  -0.24095  -0.23617
 Alpha  occ. eigenvalues --   -0.22538  -0.21507  -0.20918  -0.19241  -0.15760
 Alpha  occ. eigenvalues --   -0.13961  -0.02014  -0.01358   0.00766
 Alpha virt. eigenvalues --    0.15762   0.16095   0.17268   0.18976   0.21589
 Alpha virt. eigenvalues --    0.22349   0.22741   0.23414   0.24569   0.25062
 Alpha virt. eigenvalues --    0.26286   0.26522   0.27562   0.28006   0.28454

 Mulliken charges:
               1
     1  C    0.674209
     2  C    1.692305
     3  F    0.374794
     4  H    1.875280
     5  H    1.109519
     6  N    3.864926
     7  O   -2.783346
     8  O   -3.055930
     9  N    4.248710
    10  O   -2.827423
    11  O   -2.936690
    12  N   -3.293901
    13  H    0.155661
    14  H    0.657169
    15  F   -0.755283
 Sum of Mulliken charges =  -1.00000

 Dipole moment (field-independent basis, Debye):
    X=              3.9898    Y=              3.3248    Z=              2.0556  Tot=              5.5855

 Test job not archived.
 1\1\GINC-SE435\SP\RHF\Aug-CC-pVDZ\C2H4F2N3O4(1-)\OHZDE\09-Apr-2025\0\\
 #t hf aug-cc-pvdz iop(5/13=1,5/36=2,99/5=2) pseudo=read geom=check gue
 ss=(read,tcheck) scf=(maxcycle=1)\\title\\-1,1\C,0,-0.231966,0.21282,0
 .055985\C,0,-0.401883,0.075792,-1.458397\F,0,1.097428,0.315194,0.36992
 8\H,0,0.256125,-0.747016,-1.729285\H,0,-0.696696,-0.715871,0.442648\N,
 0,-0.9174,1.423135,0.609995\O,0,-0.236687,2.336806,1.064888\O,0,-2.146
 852,1.40191,0.571011\N,0,0.150749,1.29589,-2.140982\O,0,1.194889,1.184
 848,-2.782154\O,0,-0.493667,2.337034,-2.014559\N,0,-1.722774,-0.204465

 Normal termination of Gaussian 16 at Wed Apr  9 02:42:46 2025.
