 Gaussian 16, Revision C.01,

 ----------------------------------------------------------------------
 #t hf aug-cc-pvdz symm=none int=(grid=ultrafine) guess=(read,tcheck) s
 table=(opt,rrhf)
 ----------------------------------------------------------------------
 -----
 title
 -----
 Symbolic Z-matrix:
 Charge = -1 Multiplicity = 1

 SCF Done:  E(RHF) =  -839.451257054     A.U. after   15 cycles
 Normal termination of Gaussian 16 at Wed Apr  9 02:57:52 2025.
 Gaussian 16:  ES64L-G16RevC.01  3-Jul-2019

 ----------------------------------------------------------------------
 #t hf aug-cc-pvdz iop(5/13=1,5/36=2,99/5=2) pseudo=read geom=check gue
 ss=(read,tcheck) scf=(maxcycle=1)
 ----------------------------------------------------------------------
 -----
 title
 -----
 Structure from the checkpoint file:  "E2SN2_394_mol2.chk"
 Charge = -1 Multiplicity = 1

                         Standard orientation:
 ---------------------------------------------------------------------
 Center     Atomic      Atomic             Coordinates (Angstroms)
 Number     Number       Type             X           Y           Z
 ---------------------------------------------------------------------
      1          6           0        0.350933    0.094041   -0.101074
      2          6           0       -0.566247   -0.232607    1.088756
      3         17           0        1.583196   -1.240842   -0.278020
      4          1           0       -1.081833    0.709567    1.311677
      5          1           0        0.048004   -0.534986    1.943375
      6          7           0       -0.339586    0.268166   -1.350588
      7          1           0       -1.278617    0.684665   -1.093230
      8          1           0       -0.586975   -0.671736   -1.647034
      9          6           0        1.133355    1.304530    0.215339
     10          7           0        1.732524    2.270067    0.512838
     11          7           0       -1.506144   -1.265791    0.685847
     12          1           0       -1.894610   -1.687185    1.520909
     13          1           0       -2.247577   -0.707675    0.225903
     14          9           0       -2.732059    0.822087   -0.410009
 ---------------------------------------------------------------------

 SCF Done:  E(RHF) =  -841.358021509     A.U. after    2 cycles

 The electronic state is 1-A.
 Alpha  occ. eigenvalues --  -99.75985 -28.91591 -15.64384 -15.57804 -15.57571
 Alpha  occ. eigenvalues --  -11.39534 -11.32300 -11.27796 -10.33373  -9.53375
 Alpha  occ. eigenvalues --   -9.52594  -9.52547  -1.32118  -1.17118  -1.16060
 Alpha  occ. eigenvalues --   -1.12955  -0.92550  -0.76990  -0.61486  -0.57490
 Alpha  occ. eigenvalues --   -0.51803  -0.49754  -0.45689  -0.43661  -0.40576
 Alpha  occ. eigenvalues --   -0.38827  -0.37275  -0.34827  -0.31017  -0.30629
 Alpha  occ. eigenvalues --   -0.28801  -0.22907  -0.22236  -0.00657   0.00001
 Alpha  occ. eigenvalues --    0.01479
 Alpha virt. eigenvalues --    0.13622   0.15190   0.15922   0.17118   0.17631
 Alpha virt. eigenvalues --    0.19027   0.19352   0.20761   0.22616   0.23009
 Alpha virt. eigenvalues --    0.23811   0.24456   0.25959   0.27667   0.28054

 Mulliken charges:
               1
     1  C    2.165851
     2  C   -0.836502
     3  Cl  -0.159321
     4  H    1.299156
     5  H    1.397177
     6  N   -3.183085
     7  H    0.220841
     8  H    0.558284
     9  C    2.339097
    10  N   -2.622035
    11  N   -2.375006
    12  H    0.483380
    13  H    0.407218
    14  F   -0.695055
 Sum of Mulliken charges =  -1.00000

 Dipole moment (field-independent basis, Debye):
    X=              2.1223    Y=             -2.7910    Z=              1.9461  Tot=              4.0101

 Test job not archived.
 1\1\GINC-SE042\SP\RHF\Aug-CC-pVDZ\C3H6Cl1F1N3(1-)\OHZDE\09-Apr-2025\0\
 \#t hf aug-cc-pvdz iop(5/13=1,5/36=2,99/5=2) pseudo=read geom=check gu
 ess=(read,tcheck) scf=(maxcycle=1)\\title\\-1,1\C,0,-0.026047,-0.06631
 1,0.027695\C,0,-0.652769,-0.411974,-1.332948\Cl,0,1.696203,0.476506,-0
 .238575\H,0,-1.557237,-0.982109,-1.087799\H,0,0.043201,-1.038917,-1.90
 0116\N,0,-0.732177,0.947065,0.764492\H,0,-1.751609,0.816433,0.509195\H
 ,0,-0.497088,1.820326,0.301192\C,0,0.075858,-1.297453,0.834844\N,0,0.1
 3599,-2.303464,1.438249\N,0,-0.97958,0.82361,-2.02558\H,0,-1.103074,0.

 Normal termination of Gaussian 16 at Wed Apr  9 02:57:57 2025.
