 Gaussian 16, Revision C.01,

 ----------------------------------------------------------------------
 #t hf aug-cc-pvdz symm=none int=(grid=ultrafine) guess=(read,tcheck) s
 table=(opt,rrhf)
 ----------------------------------------------------------------------
 -----
 title
 -----
 Symbolic Z-matrix:
 Charge = -1 Multiplicity = 1

 SCF Done:  E(RHF) =  -935.288974210     A.U. after   15 cycles
 Normal termination of Gaussian 16 at Wed Apr  9 02:45:19 2025.
 Gaussian 16:  ES64L-G16RevC.01  3-Jul-2019

 ----------------------------------------------------------------------
 #t hf aug-cc-pvdz iop(5/13=1,5/36=2,99/5=2) pseudo=read geom=check gue
 ss=(read,tcheck) scf=(maxcycle=1)
 ----------------------------------------------------------------------
 -----
 title
 -----
 Structure from the checkpoint file:  "E2SN2_244_mol2.chk"
 Charge = -1 Multiplicity = 1

                         Standard orientation:
 ---------------------------------------------------------------------
 Center     Atomic      Atomic             Coordinates (Angstroms)
 Number     Number       Type             X           Y           Z
 ---------------------------------------------------------------------
      1          6           0        0.672943    0.340694   -0.319296
      2          6           0        0.003381    1.125489    0.776988
      3          9           0        1.721673    1.086491   -0.877012
      4          1           0       -0.671302    0.447417    1.305470
      5          1           0        0.781329    1.457587    1.465468
      6          7           0        1.524087   -0.825996    0.310692
      7          8           0        1.997541   -0.666840    1.432072
      8          8           0        1.718657   -1.808995   -0.401066
      9          7           0       -0.181486   -0.104317   -1.301865
     10          1           0        0.217778   -0.862116   -1.837928
     11          1           0       -1.106873   -0.352443   -0.925998
     12          6           0       -0.789343    2.300531    0.213053
     13          1           0       -1.660195    1.937707   -0.331165
     14          1           0       -0.171008    2.904471   -0.454867
     15          1           0       -1.141436    2.935144    1.030745
     16         17           0       -2.952530   -0.854565    0.135711
 ---------------------------------------------------------------------

 SCF Done:  E(RHF) =  -937.586224385     A.U. after    2 cycles

 The electronic state is 1-A.
 Alpha  occ. eigenvalues --  -99.61542 -29.16132 -20.98690 -20.98490 -15.86655
 Alpha  occ. eigenvalues --  -15.61893 -11.45086 -11.29930 -11.25063 -10.18219
 Alpha  occ. eigenvalues --   -9.38240  -9.37882  -9.37802  -1.87469  -1.57898
 Alpha  occ. eigenvalues --   -1.32142  -1.07676  -0.99600  -0.97264  -0.81422
 Alpha  occ. eigenvalues --   -0.78116  -0.63185  -0.61588  -0.55823  -0.53431
 Alpha  occ. eigenvalues --   -0.49127  -0.47279  -0.46109  -0.39710  -0.38530
 Alpha  occ. eigenvalues --   -0.38040  -0.31583  -0.28650  -0.26062  -0.25385
 Alpha  occ. eigenvalues --   -0.25282  -0.21924  -0.21190  -0.18697  -0.15424
 Alpha  occ. eigenvalues --   -0.15258
 Alpha virt. eigenvalues --    0.12955   0.14137   0.14650   0.15577   0.17233
 Alpha virt. eigenvalues --    0.17864   0.19678   0.20242   0.21583   0.23612
 Alpha virt. eigenvalues --    0.23995   0.25054   0.25698   0.26048   0.26385

 Mulliken charges:
               1
     1  C    4.694339
     2  C   -3.197132
     3  F    0.419127
     4  H    1.300845
     5  H    1.555370
     6  N    3.633487
     7  O   -2.940809
     8  O   -2.819188
     9  N   -3.592687
    10  H    0.544709
    11  H    0.434873
    12  C   -3.618419
    13  H    1.316549
    14  H    1.206352
    15  H    1.037583
    16  Cl  -0.974998
 Sum of Mulliken charges =  -1.00000

 Dipole moment (field-independent basis, Debye):
    X=              9.8005    Y=              4.8606    Z=             -1.4379  Tot=             11.0337

 Test job not archived.
 1\1\GINC-SE367\SP\RHF\Aug-CC-pVDZ\C3H7Cl1F1N2O2(1-)\OHZDE\09-Apr-2025\
 0\\#t hf aug-cc-pvdz iop(5/13=1,5/36=2,99/5=2) pseudo=read geom=check
 guess=(read,tcheck) scf=(maxcycle=1)\\title\\-1,1\C,0,0.041451,0.06083
 5,0.029866\C,0,-0.406463,0.213357,-1.399177\F,0,1.432688,-0.107882,0.0
 85442\H,0,-1.452596,0.529144,-1.386735\H,0,0.195775,1.003198,-1.849686
 \N,0,-0.055687,1.451076,0.764912\O,0,0.087616,2.475255,0.103472\O,0,-0
 .203457,1.417371,1.984654\N,0,-0.596716,-0.943805,0.720494\H,0,-0.5131
 84,-0.82948,1.720987\H,0,-1.579034,-1.047714,0.431638\C,0,-0.276785,-1

 Normal termination of Gaussian 16 at Wed Apr  9 02:45:26 2025.
