 Gaussian 16, Revision C.01,

 ----------------------------------------------------------------------
 #t hf aug-cc-pvdz symm=none int=(grid=ultrafine) guess=(read,tcheck) s
 table=(opt,rrhf)
 ----------------------------------------------------------------------
 -----
 title
 -----
 Symbolic Z-matrix:
 Charge = -1 Multiplicity = 1

 SCF Done:  E(RHF) =  -528.849050459     A.U. after   18 cycles
 Normal termination of Gaussian 16 at Wed Apr  9 03:00:48 2025.
 Gaussian 16:  ES64L-G16RevC.01  3-Jul-2019

 ----------------------------------------------------------------------
 #t hf aug-cc-pvdz iop(5/13=1,5/36=2,99/5=2) pseudo=read geom=check gue
 ss=(read,tcheck) scf=(maxcycle=1)
 ----------------------------------------------------------------------
 -----
 title
 -----
 Structure from the checkpoint file:  "E2SN2_61_mol1.chk"
 Charge = -1 Multiplicity = 1

                         Standard orientation:
 ---------------------------------------------------------------------
 Center     Atomic      Atomic             Coordinates (Angstroms)
 Number     Number       Type             X           Y           Z
 ---------------------------------------------------------------------
      1          6           0        0.072425   -0.090652    0.255432
      2          6           0        0.786983   -1.053093   -0.594445
      3          9           0        0.002930   -0.421238    1.625420
      4          1           0        1.507486   -0.070832   -2.727335
      5          1           0        0.868956   -0.571971   -1.757972
      6          1           0        0.249906   -2.006863   -0.583279
      7          6           0        0.633419    1.266073    0.204736
      8          7           0        1.133260    2.328650    0.228366
      9          7           0       -1.379959   -0.038139   -0.200184
     10          8           0       -2.091284   -0.969486    0.163561
     11          8           0       -1.712307    0.880806   -0.944523
     12          7           0        2.201822   -1.167473   -0.322566
     13          1           0        2.462413   -0.838114    0.597394
     14          1           0        2.670781   -0.606867   -1.043542
 ---------------------------------------------------------------------

 SCF Done:  E(RHF) =  -531.112279737     A.U. after    2 cycles

 The electronic state is 1-A.
 Alpha  occ. eigenvalues --  -29.17973 -21.00072 -20.99761 -15.89274 -15.67384
 Alpha  occ. eigenvalues --  -15.59976 -11.48399 -11.35095 -11.26938  -1.89211
 Alpha  occ. eigenvalues --   -1.59354  -1.28674  -1.18659  -1.12835  -0.85160
 Alpha  occ. eigenvalues --   -0.82694  -0.71094  -0.62644  -0.58947  -0.53101
 Alpha  occ. eigenvalues --   -0.50289  -0.49605  -0.42907  -0.40810  -0.39091
 Alpha  occ. eigenvalues --   -0.35292  -0.34266  -0.30708  -0.26180  -0.23642
 Alpha  occ. eigenvalues --   -0.22787  -0.21124  -0.16957  -0.15934  -0.09083
 Alpha virt. eigenvalues --    0.14723   0.15103   0.18041   0.18748   0.19874
 Alpha virt. eigenvalues --    0.20647   0.21161   0.21910   0.23097   0.23508
 Alpha virt. eigenvalues --    0.24362   0.25462   0.26197   0.26529   0.26834

 Mulliken charges:
               1
     1  C    2.933716
     2  C   -2.203582
     3  F    0.225474
     4  H   -0.531534
     5  H    1.159813
     6  H    1.246355
     7  C    1.899891
     8  N   -2.616019
     9  N    3.483836
    10  O   -2.851356
    11  O   -2.744723
    12  N   -2.111526
    13  H    0.607206
    14  H    0.502449
 Sum of Mulliken charges =  -1.00000

 Dipole moment (field-independent basis, Debye):
    X=             -4.9758    Y=             -1.7772    Z=             10.4884  Tot=             11.7441

 Test job not archived.
 1\1\GINC-SE123\SP\RHF\Aug-CC-pVDZ\C3H5F1N3O2(1-)\OHZDE\09-Apr-2025\0\\
 #t hf aug-cc-pvdz iop(5/13=1,5/36=2,99/5=2) pseudo=read geom=check gue
 ss=(read,tcheck) scf=(maxcycle=1)\\title\\-1,1\C,0,-0.10732083,-0.0202
 5566,-0.3241171\C,0,-0.18718396,0.13905229,1.13445029\F,0,1.19410961,-
 0.15576087,-0.85222861\H,0,-2.41709135,-0.39045786,2.01780542\H,0,-1.4
 0359165,0.1298402,1.46950429\H,0,0.30833401,1.07262164,1.41934241\C,0,
 -0.86085916,-1.17531499,-0.83008713\N,0,-1.39317785,-2.14562116,-1.223
 29486\N,0,-0.65430871,1.24451159,-0.97290948\O,0,0.09976116,2.21248446

 Normal termination of Gaussian 16 at Wed Apr  9 03:00:54 2025.
