 Gaussian 16, Revision C.01,

 ----------------------------------------------------------------------
 #t hf aug-cc-pvdz symm=none int=(grid=ultrafine) guess=(read,tcheck) s
 table=(opt,rrhf)
 ----------------------------------------------------------------------
 -----
 title
 -----
 Symbolic Z-matrix:
 Charge = -1 Multiplicity = 1

 SCF Done:  E(RHF) =  -476.168458007     A.U. after   16 cycles
 Normal termination of Gaussian 16 at Wed Apr  9 02:59:46 2025.
 Gaussian 16:  ES64L-G16RevC.01  3-Jul-2019

 ----------------------------------------------------------------------
 #t hf aug-cc-pvdz iop(5/13=1,5/36=2,99/5=2) pseudo=read geom=check gue
 ss=(read,tcheck) scf=(maxcycle=1)
 ----------------------------------------------------------------------
 -----
 title
 -----
 Structure from the checkpoint file:  "E2SN2_45_mol1.chk"
 Charge = -1 Multiplicity = 1

                         Standard orientation:
 ---------------------------------------------------------------------
 Center     Atomic      Atomic             Coordinates (Angstroms)
 Number     Number       Type             X           Y           Z
 ---------------------------------------------------------------------
      1          6           0       -0.048645   -0.598205    0.222715
      2          6           0        1.231897   -0.634119   -0.470099
      3          9           0       -0.056792   -0.512596    1.654498
      4          1           0        0.300826   -1.069762   -2.741364
      5          1           0        0.771488   -0.797888   -1.814692
      6          1           0        1.659193   -1.629653   -0.321178
      7          7           0       -0.761382    0.758505   -0.099495
      8          8           0       -1.802384    0.723823   -0.759851
      9          8           0       -0.239431    1.793174    0.313394
     10          7           0       -0.853472   -1.692957   -0.140753
     11          1           0       -0.803007   -1.774295   -1.159767
     12          1           0       -1.816062   -1.521360    0.121493
     13          6           0        2.233753    0.480831   -0.261439
     14          1           0        1.943146    1.396766   -0.786000
     15          1           0        2.391573    0.755074    0.790355
     16          1           0        3.200440    0.168632   -0.673001
 ---------------------------------------------------------------------

 SCF Done:  E(RHF) =  -478.273731532     A.U. after    2 cycles

 The electronic state is 1-A.
 Alpha  occ. eigenvalues --  -29.11273 -20.95334 -20.94896 -15.83150 -15.60695
 Alpha  occ. eigenvalues --  -11.42263 -11.24343 -11.18787  -1.83950  -1.54366
 Alpha  occ. eigenvalues --   -1.28731  -1.03074  -0.94120  -0.78631  -0.73309
 Alpha  occ. eigenvalues --   -0.59019  -0.55674  -0.51666  -0.50090  -0.44484
 Alpha  occ. eigenvalues --   -0.43698  -0.42715  -0.36882  -0.34880  -0.33406
 Alpha  occ. eigenvalues --   -0.28098  -0.24858  -0.21651  -0.17974  -0.16504
 Alpha  occ. eigenvalues --   -0.11949  -0.10547  -0.05647
 Alpha virt. eigenvalues --    0.13978   0.14730   0.15400   0.15838   0.16926
 Alpha virt. eigenvalues --    0.18410   0.19681   0.21679   0.22027   0.23064
 Alpha virt. eigenvalues --    0.24038   0.25299   0.26851   0.27574   0.27920

 Mulliken charges:
               1
     1  C    3.496808
     2  C   -2.476461
     3  F    0.324230
     4  H   -0.073377
     5  H    0.328627
     6  H    1.243379
     7  N    4.375715
     8  O   -2.798254
     9  O   -3.008354
    10  N   -3.322350
    11  H    0.599289
    12  H    0.455084
    13  C   -3.816760
    14  H    1.366874
    15  H    1.259605
    16  H    1.045944
 Sum of Mulliken charges =  -1.00000

 Dipole moment (field-independent basis, Debye):
    X=             -0.9588    Y=              1.8449    Z=              8.4634  Tot=              8.7151

 Test job not archived.
 1\1\GINC-SE123\SP\RHF\Aug-CC-pVDZ\C3H8F1N2O2(1-)\OHZDE\09-Apr-2025\0\\
 #t hf aug-cc-pvdz iop(5/13=1,5/36=2,99/5=2) pseudo=read geom=check gue
 ss=(read,tcheck) scf=(maxcycle=1)\\title\\-1,1\C,0,-0.00825833,0.14104
 645,-0.24667744\C,0,0.0296933,0.0598223,1.20694941\F,0,1.213784,-0.023
 36595,-0.97946515\H,0,-2.34177316,0.73262,1.57952472\H,0,-1.33973911,0
 .35379032,1.49843575\H,0,0.4781081,0.98600327,1.57703036\N,0,-0.786612
 34,-1.09857047,-0.80344309\O,0,-1.86624905,-0.90038712,-1.36564071\O,0
 ,-0.28618367,-2.2106397,-0.64119741\N,0,-0.5990329,1.3442914,-0.672734

 Normal termination of Gaussian 16 at Wed Apr  9 02:59:52 2025.
