 Gaussian 16, Revision C.01,

 ----------------------------------------------------------------------
 #t hf aug-cc-pvdz symm=none int=(grid=ultrafine) guess=(read,tcheck) s
 table=(opt,rrhf)
 ----------------------------------------------------------------------
 -----
 title
 -----
 Symbolic Z-matrix:
 Charge = -1 Multiplicity = 1

 SCF Done:  E(RHF) =  -852.893582977     A.U. after   17 cycles
 Normal termination of Gaussian 16 at Wed Apr  9 03:01:44 2025.
 Gaussian 16:  ES64L-G16RevC.01  3-Jul-2019

 ----------------------------------------------------------------------
 #t hf aug-cc-pvdz iop(5/13=1,5/36=2,99/5=2) pseudo=read geom=check gue
 ss=(read,tcheck) scf=(maxcycle=1)
 ----------------------------------------------------------------------
 -----
 title
 -----
 Structure from the checkpoint file:  "E2SN2_68_mol2.chk"
 Charge = -1 Multiplicity = 1

                         Standard orientation:
 ---------------------------------------------------------------------
 Center     Atomic      Atomic             Coordinates (Angstroms)
 Number     Number       Type             X           Y           Z
 ---------------------------------------------------------------------
      1          6           0       -0.407728    0.162840    0.027334
      2          6           0        0.749151   -0.613503   -0.621351
      3         17           0       -1.992392   -0.478769   -0.554581
      4          1           0        0.609898   -0.603179   -1.708581
      5          6           0       -0.397920    0.030539    1.489289
      6          7           0       -0.361888   -0.110272    2.656508
      7          6           0       -0.352402    1.587912   -0.318912
      8          7           0       -0.323085    2.737378   -0.562188
      9          6           0        0.772908   -2.089465   -0.247626
     10          1           0       -0.150309   -2.558035   -0.591326
     11          1           0        1.588815   -2.553012   -0.805801
     12          1           0        0.914157   -2.261282    0.823302
     13          6           0        1.993413    0.046843   -0.272071
     14          7           0        3.020837    0.563651   -0.018858
     15          1           0        0.412535   -0.971707   -3.157925
 ---------------------------------------------------------------------

 SCF Done:  E(RHF) =  -854.945012506     A.U. after    2 cycles

 The electronic state is 1-A.
 Alpha  occ. eigenvalues --  -99.82069 -15.70239 -15.69479 -15.65766 -11.49027
 Alpha  occ. eigenvalues --  -11.38882 -11.38018 -11.36490 -11.33109 -11.29088
 Alpha  occ. eigenvalues --  -10.39375  -9.59365  -9.58627  -9.58558  -1.35802
 Alpha  occ. eigenvalues --   -1.21554  -1.20705  -1.20533  -1.11028  -0.99780
 Alpha  occ. eigenvalues --   -0.84619  -0.73158  -0.66995  -0.58869  -0.55721
 Alpha  occ. eigenvalues --   -0.48464  -0.47746  -0.46730  -0.44556  -0.44365
 Alpha  occ. eigenvalues --   -0.41833  -0.41260  -0.39013  -0.37302  -0.36631
 Alpha  occ. eigenvalues --   -0.34908  -0.34433  -0.31936  -0.31135  -0.11009
 Alpha virt. eigenvalues --    0.13016   0.13533   0.15122   0.15475   0.15647
 Alpha virt. eigenvalues --    0.18690   0.18749   0.18991   0.19911   0.20647
 Alpha virt. eigenvalues --    0.21162   0.21626   0.22287   0.23024   0.23312

 Mulliken charges:
               1
     1  C   -0.350815
     2  C   -0.519213
     3  Cl   0.120558
     4  H    2.276296
     5  C    2.209823
     6  N   -2.566050
     7  C    2.096030
     8  N   -2.532151
     9  C   -4.238208
    10  H    1.166643
    11  H    1.139026
    12  H    1.370186
    13  C    2.259787
    14  N   -2.647686
    15  H   -0.784225
 Sum of Mulliken charges =  -1.00000

 Dipole moment (field-independent basis, Debye):
    X=             -3.1319    Y=             -0.1820    Z=              8.5579  Tot=              9.1148

 Test job not archived.
 1\1\GINC-SE227\SP\RHF\Aug-CC-pVDZ\C6H5Cl1N3(1-)\OHZDE\09-Apr-2025\0\\#
 t hf aug-cc-pvdz iop(5/13=1,5/36=2,99/5=2) pseudo=read geom=check gues
 s=(read,tcheck) scf=(maxcycle=1)\\title\\-1,1\C,0,-0.459719,0.027276,-
 1.492681\C,0,0.002809,0.037842,-0.027135\Cl,0,0.315381,-1.340839,-2.38
 0899\H,0,1.098731,0.026821,-0.007089\C,0,-1.912387,-0.153491,-1.602184
 \N,0,-3.077027,-0.311998,-1.647083\C,0,-0.084795,1.269706,-2.177938\N,
 0,0.184058,2.261691,-2.748025\C,0,-0.411555,-1.205732,0.7478\H,0,0.042
 011,-2.081992,0.282544\H,0,0.01668,-1.122703,1.74873\H,0,-1.496098,-1.

 Normal termination of Gaussian 16 at Wed Apr  9 03:01:52 2025.
