 Gaussian 16, Revision C.01,

 ----------------------------------------------------------------------
 #t hf aug-cc-pvdz symm=none int=(grid=ultrafine) guess=(read,tcheck) s
 table=(opt,rrhf)
 ----------------------------------------------------------------------
 -----
 title
 -----
 Symbolic Z-matrix:
 Charge = -1 Multiplicity = 1

 SCF Done:  E(RHF) =  -836.261351563     A.U. after   15 cycles
 Normal termination of Gaussian 16 at Wed Apr  9 02:38:03 2025.
 Gaussian 16:  ES64L-G16RevC.01  3-Jul-2019

 ----------------------------------------------------------------------
 #t hf aug-cc-pvdz iop(5/13=1,5/36=2,99/5=2) pseudo=read geom=check gue
 ss=(read,tcheck) scf=(maxcycle=1)
 ----------------------------------------------------------------------
 -----
 title
 -----
 Structure from the checkpoint file:  "E2SN2_156_mol2.chk"
 Charge = -1 Multiplicity = 1

                         Standard orientation:
 ---------------------------------------------------------------------
 Center     Atomic      Atomic             Coordinates (Angstroms)
 Number     Number       Type             X           Y           Z
 ---------------------------------------------------------------------
      1          6           0       -0.923471    0.366092    0.352278
      2          6           0        0.416770    0.653893   -0.321009
      3         17           0       -1.549287   -1.271555   -0.101891
      4          1           0        0.342361    0.615892   -1.408656
      5          1           0       -0.760402    0.322897    1.431018
      6          6           0       -1.954328    1.411054   -0.018418
      7          1           0       -2.134725    1.390970   -1.095862
      8          1           0       -1.559177    2.390195    0.247932
      9          1           0       -2.898410    1.225118    0.498553
     10          7           0        1.340623   -0.521775    0.027802
     11          8           0        1.711966   -1.274636   -0.867630
     12          8           0        1.657242   -0.630634    1.215491
     13          7           0        0.920337    1.903345    0.081369
     14          1           0        1.607737    2.261277   -0.709667
     15          1           0        1.379453    1.826196    0.983176
     16          1           0        2.346852    2.568820   -1.838537
 ---------------------------------------------------------------------

 SCF Done:  E(RHF) =  -838.243305372     A.U. after    2 cycles

 The electronic state is 1-A.
 Alpha  occ. eigenvalues --  -99.77292 -20.97118 -20.96234 -15.85016 -15.57372
 Alpha  occ. eigenvalues --  -11.38732 -11.33518 -11.27832 -10.34669  -9.54659
 Alpha  occ. eigenvalues --   -9.54007  -9.53796  -1.85467  -1.55798  -1.28652
 Alpha  occ. eigenvalues --   -1.19195  -1.02316  -0.96090  -0.80283  -0.70578
 Alpha  occ. eigenvalues --   -0.59434  -0.57527  -0.55699  -0.52965  -0.48059
 Alpha  occ. eigenvalues --   -0.46074  -0.44642  -0.43265  -0.40304  -0.39627
 Alpha  occ. eigenvalues --   -0.36445  -0.34519  -0.28109  -0.20237  -0.18688
 Alpha  occ. eigenvalues --   -0.17357  -0.10474
 Alpha virt. eigenvalues --    0.11945   0.14192   0.14676   0.14920   0.16165
 Alpha virt. eigenvalues --    0.16410   0.18022   0.20273   0.21508   0.21764
 Alpha virt. eigenvalues --    0.23234   0.24186   0.24743   0.25390   0.25608

 Mulliken charges:
               1
     1  C   -2.289124
     2  C    1.090364
     3  Cl  -0.067074
     4  H    1.962429
     5  H    1.879314
     6  C   -3.574755
     7  H    1.206888
     8  H    1.429042
     9  H    1.135765
    10  N    4.465456
    11  O   -2.815778
    12  O   -2.902450
    13  N   -2.715097
    14  H    0.438564
    15  H    0.467953
    16  H   -0.711496
 Sum of Mulliken charges =  -1.00000

 Dipole moment (field-independent basis, Debye):
    X=             -8.3927    Y=             -5.9556    Z=              6.4446  Tot=             12.1425

 Test job not archived.
 1\1\GINC-SE131\SP\RHF\Aug-CC-pVDZ\C3H8Cl1N2O2(1-)\OHZDE\09-Apr-2025\0\
 \#t hf aug-cc-pvdz iop(5/13=1,5/36=2,99/5=2) pseudo=read geom=check gu
 ess=(read,tcheck) scf=(maxcycle=1)\\title\\-1,1\C,0,-0.658965,0.072346
 ,-1.47699\C,0,0.101346,-0.092026,-0.162722\Cl,0,-0.65726,-1.464931,-2.
 434372\H,0,1.140409,-0.380708,-0.326939\H,0,-1.707882,0.263919,-1.2420
 22\C,0,-0.060302,1.180317,-2.317245\H,0,0.970658,0.932594,-2.581038\H,
 0,-0.055739,2.09392,-1.724697\H,0,-0.632817,1.322532,-3.236551\N,0,-0.
 512589,-1.307603,0.546381\O,0,0.169266,-2.316813,0.698245\O,0,-1.67949

 Normal termination of Gaussian 16 at Wed Apr  9 02:38:10 2025.
