 Gaussian 16, Revision C.01,

 ----------------------------------------------------------------------
 #t hf aug-cc-pvdz symm=none int=(grid=ultrafine) guess=(read,tcheck) s
 table=(opt,rrhf)
 ----------------------------------------------------------------------
 -----
 title
 -----
 Symbolic Z-matrix:
 Charge = -1 Multiplicity = 1

 SCF Done:  E(RHF) =  -878.454539906     A.U. after   16 cycles
 Normal termination of Gaussian 16 at Wed Apr  9 02:52:38 2025.
 Gaussian 16:  ES64L-G16RevC.01  3-Jul-2019

 ----------------------------------------------------------------------
 #t hf aug-cc-pvdz iop(5/13=1,5/36=2,99/5=2) pseudo=read geom=check gue
 ss=(read,tcheck) scf=(maxcycle=1)
 ----------------------------------------------------------------------
 -----
 title
 -----
 Structure from the checkpoint file:  "E2SN2_319_mol1.chk"
 Charge = -1 Multiplicity = 1

                         Standard orientation:
 ---------------------------------------------------------------------
 Center     Atomic      Atomic             Coordinates (Angstroms)
 Number     Number       Type             X           Y           Z
 ---------------------------------------------------------------------
      1          6           0       -0.102808    0.087061    0.306667
      2          1           0        0.266446   -1.370265   -1.212059
      3          9           0        1.418570    1.217898    0.875553
      4         17           0       -2.023535   -1.010628   -0.299997
      5          6           0        0.858310   -0.682243   -0.609697
      6          6           0       -0.671426    1.337232   -0.171588
      7          7           0       -1.164353    2.362113   -0.474459
      8          7           0       -0.255115   -0.288641    1.679559
      9          1           0       -1.226124   -0.195219    1.941918
     10          1           0        0.325370    0.374678    2.181046
     11          6           0        1.843385   -1.503305    0.219526
     12          1           0        2.441594   -0.829916    0.831166
     13          1           0        1.321214   -2.209447    0.867027
     14          1           0        2.496231   -2.061528   -0.461629
     15          7           0        1.469700    0.268078   -1.533418
     16          1           0        2.103826   -0.232095   -2.145280
     17          1           0        1.988023    0.920064   -0.953437
 ---------------------------------------------------------------------

 SCF Done:  E(RHF) =  -880.581765193     A.U. after    2 cycles

 The electronic state is 1-A.
 Alpha  occ. eigenvalues --  -99.66564 -28.96417 -15.61642 -15.61472 -15.59067
 Alpha  occ. eigenvalues --  -11.47028 -11.31689 -11.30967 -11.24115 -10.23597
 Alpha  occ. eigenvalues --   -9.43684  -9.43214  -9.43111  -1.30053  -1.19697
 Alpha  occ. eigenvalues --   -1.13930  -1.04306  -0.96745  -0.89291  -0.73914
 Alpha  occ. eigenvalues --   -0.62473  -0.58036  -0.54936  -0.47903  -0.44834
 Alpha  occ. eigenvalues --   -0.42595  -0.40370  -0.38544  -0.38127  -0.37587
 Alpha  occ. eigenvalues --   -0.32336  -0.30558  -0.29180  -0.28313  -0.26111
 Alpha  occ. eigenvalues --   -0.25650  -0.21423  -0.07183  -0.03794  -0.03393
 Alpha virt. eigenvalues --    0.12821   0.14156   0.14759   0.15332   0.15861
 Alpha virt. eigenvalues --    0.15977   0.17689   0.18305   0.20624   0.22236
 Alpha virt. eigenvalues --    0.22581   0.23505   0.24614   0.25423   0.26144

 Mulliken charges:
               1
     1  C    3.565492
     2  H    1.470398
     3  F   -0.556400
     4  Cl  -0.724360
     5  C    0.164960
     6  C    2.639900
     7  N   -3.143696
     8  N   -3.644910
     9  H    0.618237
    10  H    0.599041
    11  C   -3.667691
    12  H    1.267714
    13  H    1.337606
    14  H    1.065854
    15  N   -3.117530
    16  H    0.593123
    17  H    0.532261
 Sum of Mulliken charges =  -1.00000

 Dipole moment (field-independent basis, Debye):
    X=              7.2568    Y=             -0.2105    Z=              2.3021  Tot=              7.6161

 Test job not archived.
 1\1\GINC-SE069\SP\RHF\Aug-CC-pVDZ\C4H8Cl1F1N3(1-)\OHZDE\09-Apr-2025\0\
 \#t hf aug-cc-pvdz iop(5/13=1,5/36=2,99/5=2) pseudo=read geom=check gu
 ess=(read,tcheck) scf=(maxcycle=1)\\title\\-1,1\C,0,0.76877342,0.01159
 508,0.02173633\H,0,1.6702504,1.94637247,-0.08146849\F,0,-1.2053371,-0.
 0821959,-0.08363656\Cl,0,3.05897946,-0.11918226,0.0191371\C,0,0.661554
 62,1.54230227,-0.00545499\C,0,0.7303599,-0.7125229,-1.23888208\N,0,0.6
 9380156,-1.37561912,-2.21050755\N,0,0.67357784,-0.70178945,1.259154\H,
 0,1.32979757,-1.46970472,1.24915994\H,0,-0.28318454,-1.03762342,1.2754

 Normal termination of Gaussian 16 at Wed Apr  9 02:52:46 2025.
