 Gaussian 16, Revision C.01,

 ----------------------------------------------------------------------
 #t hf aug-cc-pvdz symm=none int=(grid=ultrafine) guess=(read,tcheck) s
 table=(opt,rrhf)
 ----------------------------------------------------------------------
 -----
 title
 -----
 Symbolic Z-matrix:
 Charge = -1 Multiplicity = 1

 SCF Done:  E(RHF) =  -823.423765053     A.U. after   16 cycles
 Normal termination of Gaussian 16 at Wed Apr  9 02:47:09 2025.
 Gaussian 16:  ES64L-G16RevC.01  3-Jul-2019

 ----------------------------------------------------------------------
 #t hf aug-cc-pvdz iop(5/13=1,5/36=2,99/5=2) pseudo=read geom=check gue
 ss=(read,tcheck) scf=(maxcycle=1)
 ----------------------------------------------------------------------
 -----
 title
 -----
 Structure from the checkpoint file:  "E2SN2_259_mol1.chk"
 Charge = -1 Multiplicity = 1

                         Standard orientation:
 ---------------------------------------------------------------------
 Center     Atomic      Atomic             Coordinates (Angstroms)
 Number     Number       Type             X           Y           Z
 ---------------------------------------------------------------------
      1          6           0        0.163021    0.118075   -0.383272
      2          1           0       -0.197176   -1.164424    1.283864
      3          9           0       -1.334143    1.101845   -1.193127
      4         17           0        2.006839   -1.026520   -0.004314
      5          6           0       -0.790970   -0.653926    0.524545
      6          1           0        0.261640   -0.133952   -1.420623
      7          6           0        0.675117    1.397048    0.043942
      8          7           0        1.120483    2.427971    0.391652
      9          6           0       -1.514661   -1.690012   -0.333007
     10          1           0       -2.071950   -1.157347   -1.103923
     11          1           0       -0.803536   -2.379243   -0.798898
     12          1           0       -2.205860   -2.276435    0.282414
     13          7           0       -1.665954    0.287891    1.218420
     14          1           0       -2.382104   -0.237333    1.707219
     15          1           0       -2.086736    0.844820    0.477683
 ---------------------------------------------------------------------

 SCF Done:  E(RHF) =  -825.286157623     A.U. after    2 cycles

 The electronic state is 1-A.
 Alpha  occ. eigenvalues --  -99.67972 -28.95351 -15.61734 -15.58738 -11.41225
 Alpha  occ. eigenvalues --  -11.32262 -11.30763 -11.24549 -10.24963  -9.45008
 Alpha  occ. eigenvalues --   -9.44525  -9.44422  -1.25555  -1.15457  -1.07260
 Alpha  occ. eigenvalues --   -0.98929  -0.92026  -0.74465  -0.61132  -0.57799
 Alpha  occ. eigenvalues --   -0.49474  -0.45397  -0.43392  -0.42235  -0.39629
 Alpha  occ. eigenvalues --   -0.37754  -0.36759  -0.32395  -0.30715  -0.29368
 Alpha  occ. eigenvalues --   -0.28174  -0.27325  -0.21673  -0.05403  -0.02807
 Alpha  occ. eigenvalues --   -0.02573
 Alpha virt. eigenvalues --    0.12676   0.14171   0.15149   0.15654   0.16231
 Alpha virt. eigenvalues --    0.16838   0.18216   0.20684   0.21414   0.22586
 Alpha virt. eigenvalues --    0.24070   0.24833   0.25388   0.26396   0.26634

 Mulliken charges:
               1
     1  C   -1.598569
     2  H    1.609961
     3  F   -0.463693
     4  Cl  -0.601912
     5  C    1.298908
     6  H    1.643651
     7  C    2.457012
     8  N   -2.888232
     9  C   -3.891417
    10  H    1.245823
    11  H    1.270189
    12  H    1.069594
    13  N   -3.145344
    14  H    0.605681
    15  H    0.388350
 Sum of Mulliken charges =  -1.00000

 Dipole moment (field-independent basis, Debye):
    X=             -7.0957    Y=             -1.2777    Z=             -1.3494  Tot=              7.3350

 Test job not archived.
 1\1\GINC-SE227\SP\RHF\Aug-CC-pVDZ\C4H7Cl1F1N2(1-)\OHZDE\09-Apr-2025\0\
 \#t hf aug-cc-pvdz iop(5/13=1,5/36=2,99/5=2) pseudo=read geom=check gu
 ess=(read,tcheck) scf=(maxcycle=1)\\title\\-1,1\C,0,0.64664829,0.03131
 333,-0.04916321\H,0,1.68005224,1.88948377,-0.2312839\F,0,-1.31245439,-
 0.01013172,-0.20843615\Cl,0,2.74833801,-0.3094913,0.51663273\C,0,0.651
 26342,1.55736191,-0.08618728\H,0,0.35882452,-0.49755095,0.83785435\C,0
 ,0.68852783,-0.71178882,-1.28470833\N,0,0.74917863,-1.32929337,-2.2832
 3988\C,0,0.14359394,2.05806752,1.26442873\H,0,-0.87163342,1.68475716,1

 Normal termination of Gaussian 16 at Wed Apr  9 02:47:15 2025.
