 Gaussian 16, Revision C.01,

 ----------------------------------------------------------------------
 #t hf aug-cc-pvdz symm=none int=(grid=ultrafine) guess=(read,tcheck) s
 table=(opt,rrhf)
 ----------------------------------------------------------------------
 -----
 title
 -----
 Symbolic Z-matrix:
 Charge = -1 Multiplicity = 1

 SCF Done:  E(RHF) =  -664.538816596     A.U. after   18 cycles
 Normal termination of Gaussian 16 at Wed Apr  9 02:43:29 2025.
 Gaussian 16:  ES64L-G16RevC.01  3-Jul-2019

 ----------------------------------------------------------------------
 #t hf aug-cc-pvdz iop(5/13=1,5/36=2,99/5=2) pseudo=read geom=check gue
 ss=(read,tcheck) scf=(maxcycle=1)
 ----------------------------------------------------------------------
 -----
 title
 -----
 Structure from the checkpoint file:  "E2SN2_225_mol2.chk"
 Charge = -1 Multiplicity = 1

                         Standard orientation:
 ---------------------------------------------------------------------
 Center     Atomic      Atomic             Coordinates (Angstroms)
 Number     Number       Type             X           Y           Z
 ---------------------------------------------------------------------
      1          6           0       -0.028557   -0.031570   -0.302737
      2          6           0        0.915779   -0.827187    0.575049
      3          9           0        0.255241   -0.316320   -1.642616
      4          1           0        0.633118   -0.505451    1.587603
      5          1           0        0.691238   -1.885960    0.436093
      6          7           0       -1.461078   -0.507909   -0.158150
      7          8           0       -2.324083    0.255706   -0.565222
      8          8           0       -1.629075   -1.675318    0.173657
      9          6           0        0.051707    1.415363   -0.121360
     10          7           0        0.283105    2.561822   -0.247612
     11          6           0        2.307545   -0.563209    0.238713
     12          7           0        3.441932   -0.378178   -0.001519
     13          9           0       -0.813647    0.544964    1.822815
 ---------------------------------------------------------------------

 SCF Done:  E(RHF) =  -667.230605437     A.U. after    2 cycles

 The electronic state is 1-A.
 Alpha  occ. eigenvalues --  -29.19004 -28.93048 -20.98232 -20.97994 -15.88587
 Alpha  occ. eigenvalues --  -15.66265 -15.64715 -11.49198 -11.37014 -11.33921
 Alpha  occ. eigenvalues --  -11.32062  -1.88114  -1.58291  -1.28519  -1.19361
 Alpha  occ. eigenvalues --   -1.14486  -0.99115  -0.83488  -0.74845  -0.65538
 Alpha  occ. eigenvalues --   -0.60389  -0.55020  -0.53188  -0.50500  -0.47946
 Alpha  occ. eigenvalues --   -0.41946  -0.41047  -0.38566  -0.35175  -0.33297
 Alpha  occ. eigenvalues --   -0.32756  -0.29014  -0.27685  -0.25606  -0.21337
 Alpha  occ. eigenvalues --   -0.19878  -0.17709  -0.17173  -0.01518  -0.01279
 Alpha  occ. eigenvalues --   -0.00270
 Alpha virt. eigenvalues --    0.13789   0.17189   0.18599   0.19426   0.20312
 Alpha virt. eigenvalues --    0.21815   0.22799   0.23165   0.23787   0.24663
 Alpha virt. eigenvalues --    0.25041   0.25483   0.26061   0.27100   0.27339

 Mulliken charges:
               1
     1  C   -0.256067
     2  C   -1.643090
     3  F    0.126525
     4  H    0.805415
     5  H    1.525854
     6  N    5.974310
     7  O   -3.306318
     8  O   -3.298368
     9  C    4.520552
    10  N   -3.389785
    11  C    1.564874
    12  N   -2.548702
    13  F   -1.075199
 Sum of Mulliken charges =  -1.00000

 Dipole moment (field-independent basis, Debye):
    X=             -1.0238    Y=             -4.2061    Z=             -3.0163  Tot=              5.2761

 Test job not archived.
 1\1\GINC-SE071\SP\RHF\Aug-CC-pVDZ\C4H2F2N3O2(1-)\OHZDE\09-Apr-2025\0\\
 #t hf aug-cc-pvdz iop(5/13=1,5/36=2,99/5=2) pseudo=read geom=check gue
 ss=(read,tcheck) scf=(maxcycle=1)\\title\\-1,1\C,0,-0.03735,-0.002854,
 -0.010995\C,0,-0.434518,-0.066657,-1.471636\F,0,1.358402,0.035629,0.07
 4428\H,0,-1.531032,-0.128291,-1.421292\H,0,-0.127639,0.867943,-1.94394
 5\N,0,-0.44529,1.313401,0.622235\O,0,-0.46125,1.338861,1.843992\O,0,-0
 .541066,2.282915,-0.120754\C,0,-0.508581,-1.12699,0.793501\N,0,-0.5842
 94,-2.126928,1.408517\C,0,0.189893,-1.195896,-2.145987\N,0,0.673724,-2

 Normal termination of Gaussian 16 at Wed Apr  9 02:43:35 2025.
