 Gaussian 16, Revision C.01,

 ----------------------------------------------------------------------
 #t hf aug-cc-pvdz symm=none int=(grid=ultrafine) guess=(read,tcheck) s
 table=(opt,rrhf)
 ----------------------------------------------------------------------
 -----
 title
 -----
 Symbolic Z-matrix:
 Charge = -1 Multiplicity = 1

 SCF Done:  E(RHF) =  -932.852108848     A.U. after   16 cycles
 Normal termination of Gaussian 16 at Wed Apr  9 02:37:35 2025.
 Gaussian 16:  ES64L-G16RevC.01  3-Jul-2019

 ----------------------------------------------------------------------
 #t hf aug-cc-pvdz iop(5/13=1,5/36=2,99/5=2) pseudo=read geom=check gue
 ss=(read,tcheck) scf=(maxcycle=1)
 ----------------------------------------------------------------------
 -----
 title
 -----
 Structure from the checkpoint file:  "E2SN2_163_mol1.chk"
 Charge = -1 Multiplicity = 1

                         Standard orientation:
 ---------------------------------------------------------------------
 Center     Atomic      Atomic             Coordinates (Angstroms)
 Number     Number       Type             X           Y           Z
 ---------------------------------------------------------------------
      1          6           0        0.353439   -0.160182    0.527728
      2          1           0       -0.333228   -1.752708   -0.739325
      3          9           0       -1.129296    0.873310    1.365538
      4         17           0        2.064077   -1.112467   -0.037856
      5          6           0       -0.678197   -1.193444    0.131861
      6          1           0        0.640774    0.011340    1.543905
      7          1           0       -0.739653   -1.893607    0.969250
      8          7           0        0.461397    1.039266   -0.324809
      9          8           0       -0.096742    0.996471   -1.418150
     10          8           0        1.142919    1.963813    0.096889
     11          6           0       -2.028796   -0.707768   -0.159061
     12          7           0       -3.138771   -0.557379   -0.511361
 ---------------------------------------------------------------------

 SCF Done:  E(RHF) =  -935.081888567     A.U. after    2 cycles

 The electronic state is 1-A.
 Alpha  occ. eigenvalues --  -99.73654 -28.94094 -20.96411 -20.96228 -15.86948
 Alpha  occ. eigenvalues --  -15.61499 -11.42991 -11.34480 -11.29922 -10.30735
 Alpha  occ. eigenvalues --   -9.50773  -9.50203  -9.50106  -1.86271  -1.56234
 Alpha  occ. eigenvalues --   -1.21748  -1.14674  -1.06563  -0.96001  -0.73423
 Alpha  occ. eigenvalues --   -0.63029  -0.60201  -0.56577  -0.52426  -0.49269
 Alpha  occ. eigenvalues --   -0.44869  -0.41586  -0.38503  -0.36924  -0.35301
 Alpha  occ. eigenvalues --   -0.33636  -0.29621  -0.27103  -0.23165  -0.18526
 Alpha  occ. eigenvalues --   -0.18260  -0.04126  -0.02422  -0.01374
 Alpha virt. eigenvalues --    0.14072   0.15394   0.15775   0.18411   0.19969
 Alpha virt. eigenvalues --    0.21969   0.22789   0.24314   0.24674   0.24907
 Alpha virt. eigenvalues --    0.25985   0.26932   0.27496   0.27649   0.28488

 Mulliken charges:
               1
     1  C   -2.138852
     2  H    1.328529
     3  F   -0.323816
     4  Cl  -0.429954
     5  C   -1.873381
     6  H    1.411291
     7  H    1.460352
     8  N    5.847008
     9  O   -3.125802
    10  O   -3.221202
    11  C    2.920738
    12  N   -2.854912
 Sum of Mulliken charges =  -1.00000

 Dipole moment (field-independent basis, Debye):
    X=             -0.8879    Y=              1.2757    Z=              2.1750  Tot=              2.6733

 Test job not archived.
 1\1\GINC-SE419\SP\RHF\Aug-CC-pVDZ\C3H3Cl1F1N2O2(1-)\OHZDE\09-Apr-2025\
 0\\#t hf aug-cc-pvdz iop(5/13=1,5/36=2,99/5=2) pseudo=read geom=check
 guess=(read,tcheck) scf=(maxcycle=1)\\title\\-1,1\C,0,0.82229987,-0.02
 706921,0.02827536\H,0,1.66976759,1.86341413,0.59479524\F,0,-1.16472149
 ,-0.07053156,0.16390066\Cl,0,2.81034212,-0.24027743,-0.36573014\C,0,0.
 73485642,1.47476923,0.18780476\H,0,0.47072314,-0.5381861,-0.84336148\H
 ,0,0.62233918,1.87866758,-0.82186394\N,0,0.74017179,-0.83721275,1.2587
 5205\O,0,0.86675725,-0.24216037,2.32581957\O,0,0.60721585,-2.04591535,

 Normal termination of Gaussian 16 at Wed Apr  9 02:37:42 2025.
