 Gaussian 16, Revision C.01,

 ----------------------------------------------------------------------
 #t hf aug-cc-pvdz symm=none int=(grid=ultrafine) guess=(read,tcheck) s
 table=(opt,rrhf)
 ----------------------------------------------------------------------
 -----
 title
 -----
 Symbolic Z-matrix:
 Charge = -1 Multiplicity = 1

 SCF Done:  E(RHF) =  -971.891917396     A.U. after   17 cycles
 Normal termination of Gaussian 16 at Wed Apr  9 02:44:35 2025.
 Gaussian 16:  ES64L-G16RevC.01  3-Jul-2019

 ----------------------------------------------------------------------
 #t hf aug-cc-pvdz iop(5/13=1,5/36=2,99/5=2) pseudo=read geom=check gue
 ss=(read,tcheck) scf=(maxcycle=1)
 ----------------------------------------------------------------------
 -----
 title
 -----
 Structure from the checkpoint file:  "E2SN2_232_mol1.chk"
 Charge = -1 Multiplicity = 1

                         Standard orientation:
 ---------------------------------------------------------------------
 Center     Atomic      Atomic             Coordinates (Angstroms)
 Number     Number       Type             X           Y           Z
 ---------------------------------------------------------------------
      1          6           0        0.043955    0.069630    0.174483
      2          1           0       -0.853804    1.284496   -1.391607
      3          9           0       -0.818117   -1.715095    0.275193
      4         17           0        1.259749    1.808717   -0.113363
      5          6           0       -0.982924    0.308491   -0.921798
      6          1           0       -0.854014   -0.471141   -1.668089
      7          7           0        1.171518   -0.854190   -0.181062
      8          8           0        1.333038   -1.116077   -1.365917
      9          8           0        1.890927   -1.235990    0.730984
     10          6           0       -0.258402    0.303081    1.628255
     11          1           0        0.664621    0.216995    2.196954
     12          1           0       -0.658121    1.308970    1.760717
     13          1           0       -0.973163   -0.446448    1.952791
     14          6           0       -2.342423    0.236326   -0.390338
     15          7           0       -3.447397    0.297926    0.000421
 ---------------------------------------------------------------------

 SCF Done:  E(RHF) =  -974.336606645     A.U. after    2 cycles

 The electronic state is 1-A.
 Alpha  occ. eigenvalues --  -99.71035 -28.95217 -20.95820 -20.95581 -15.86894
 Alpha  occ. eigenvalues --  -15.63642 -11.46566 -11.35483 -11.31103 -11.27310
 Alpha  occ. eigenvalues --  -10.28128  -9.48236  -9.47681  -9.47641  -1.86176
 Alpha  occ. eigenvalues --   -1.56032  -1.22994  -1.15620  -1.06654  -0.97345
 Alpha  occ. eigenvalues --   -0.92171  -0.67067  -0.62693  -0.59723  -0.57632
 Alpha  occ. eigenvalues --   -0.52520  -0.48683  -0.48464  -0.43824  -0.40273
 Alpha  occ. eigenvalues --   -0.39981  -0.35216  -0.34723  -0.34120  -0.32890
 Alpha  occ. eigenvalues --   -0.30872  -0.29872  -0.22915  -0.18668  -0.17789
 Alpha  occ. eigenvalues --   -0.05748  -0.02821  -0.02136
 Alpha virt. eigenvalues --    0.14310   0.14799   0.16088   0.16313   0.17252
 Alpha virt. eigenvalues --    0.18958   0.19217   0.22131   0.22402   0.23546
 Alpha virt. eigenvalues --    0.24241   0.25494   0.25862   0.26209   0.26746

 Mulliken charges:
               1
     1  C    3.143999
     2  H    1.268125
     3  F   -0.452976
     4  Cl  -0.644304
     5  C   -3.684070
     6  H    1.546603
     7  N    5.161844
     8  O   -3.286108
     9  O   -3.239104
    10  C   -4.074350
    11  H    1.199922
    12  H    1.087670
    13  H    1.086223
    14  C    2.588674
    15  N   -2.702148
 Sum of Mulliken charges =  -1.00000

 Dipole moment (field-independent basis, Debye):
    X=             -1.0393    Y=             -3.7090    Z=              0.3818  Tot=              3.8708

 Test job not archived.
 1\1\GINC-SE423\SP\RHF\Aug-CC-pVDZ\C4H5Cl1F1N2O2(1-)\OHZDE\09-Apr-2025\
 0\\#t hf aug-cc-pvdz iop(5/13=1,5/36=2,99/5=2) pseudo=read geom=check
 guess=(read,tcheck) scf=(maxcycle=1)\\title\\-1,1\C,0,0.82385877,-0.04
 207466,0.0881754\H,0,1.6925503,1.95279157,0.10800233\F,0,-1.1312226,0.
 03460141,-0.24398534\Cl,0,2.95668314,-0.23280928,0.07737903\C,0,0.7164
 2349,1.4736197,0.0211193\H,0,0.27293645,1.72934754,-0.93769063\N,0,0.6
 9032749,-0.76183009,-1.22154711\O,0,0.78330344,-0.0941581,-2.24337119\
 O,0,0.55757154,-1.97670295,-1.18144821\C,0,0.58313998,-0.81290645,1.35

 Normal termination of Gaussian 16 at Wed Apr  9 02:44:43 2025.
