 Gaussian 16, Revision C.01,

 ----------------------------------------------------------------------
 #t hf aug-cc-pvdz symm=none int=(grid=ultrafine) guess=(read,tcheck) s
 table=(opt,rrhf)
 ----------------------------------------------------------------------
 -----
 title
 -----
 Symbolic Z-matrix:
 Charge = -1 Multiplicity = 1

 SCF Done:  E(RHF) =  -380.390173137     A.U. after   16 cycles
 Normal termination of Gaussian 16 at Wed Apr  9 02:58:55 2025.
 Gaussian 16:  ES64L-G16RevC.01  3-Jul-2019

 ----------------------------------------------------------------------
 #t hf aug-cc-pvdz iop(5/13=1,5/36=2,99/5=2) pseudo=read geom=check gue
 ss=(read,tcheck) scf=(maxcycle=1)
 ----------------------------------------------------------------------
 -----
 title
 -----
 Structure from the checkpoint file:  "E2SN2_412_mol1.chk"
 Charge = -1 Multiplicity = 1

                         Standard orientation:
 ---------------------------------------------------------------------
 Center     Atomic      Atomic             Coordinates (Angstroms)
 Number     Number       Type             X           Y           Z
 ---------------------------------------------------------------------
      1          6           0        0.743836   -0.054066   -0.250575
      2          1           0       -0.548703   -1.309181   -1.460104
      3          9           0        0.312479    0.314489    1.324293
      4          1           0        1.286265   -0.461064   -1.992904
      5          6           0       -0.492034   -0.943089   -0.439518
      6          1           0       -0.373989   -1.789876    0.240785
      7          7           0        1.964197   -0.721333    0.177644
      8          1           0        2.273552   -0.239762    1.015724
      9          1           0        2.632647   -0.640667   -0.569764
     10          7           0        0.652793    1.323042   -0.686906
     11          1           0        1.303671    1.463450   -1.439840
     12          1           0        0.856087    1.906556    0.116412
     13          6           0       -1.746106   -0.257485   -0.115941
     14          7           0       -2.799278    0.222287    0.081729
 ---------------------------------------------------------------------

 SCF Done:  E(RHF) =  -382.100686607     A.U. after    2 cycles

 The electronic state is 1-A.
 Alpha  occ. eigenvalues --  -29.00191 -15.60554 -15.58864 -15.58598 -11.42648
 Alpha  occ. eigenvalues --  -11.30596 -11.26290  -1.28337  -1.14929  -1.11120
 Alpha  occ. eigenvalues --   -0.98412  -0.73231  -0.62125  -0.55186  -0.49505
 Alpha  occ. eigenvalues --   -0.48972  -0.45797  -0.41961  -0.36372  -0.34652
 Alpha  occ. eigenvalues --   -0.28972  -0.27931  -0.25189  -0.19720  -0.17759
 Alpha  occ. eigenvalues --   -0.07106  -0.05856  -0.05367
 Alpha virt. eigenvalues --    0.14193   0.14970   0.15877   0.16335   0.17157
 Alpha virt. eigenvalues --    0.17613   0.19450   0.20331   0.23456   0.24836
 Alpha virt. eigenvalues --    0.24952   0.25363   0.27015   0.28466   0.29227

 Mulliken charges:
               1
     1  C    4.001081
     2  H    1.570542
     3  F   -0.008328
     4  H   -0.975946
     5  C   -3.021032
     6  H    1.521956
     7  N   -3.092647
     8  H    0.463197
     9  H    0.650351
    10  N   -3.245729
    11  H    0.666307
    12  H    0.436662
    13  C    2.675101
    14  N   -2.641515
 Sum of Mulliken charges =  -1.00000

 Dipole moment (field-independent basis, Debye):
    X=              0.6489    Y=              1.3483    Z=              5.9911  Tot=              6.1752

 Test job not archived.
 1\1\GINC-SE222\SP\RHF\Aug-CC-pVDZ\C3H7F1N3(1-)\OHZDE\09-Apr-2025\0\\#t
  hf aug-cc-pvdz iop(5/13=1,5/36=2,99/5=2) pseudo=read geom=check guess
 =(read,tcheck) scf=(maxcycle=1)\\title\\-1,1\C,0,0.60392654,-0.0910308
 2,0.02161866\H,0,1.73198874,1.76128607,0.09459221\F,0,-1.06842418,-0.0
 5209981,0.08357507\H,0,2.46822434,-0.18733144,-0.08184573\C,0,0.695760
 16,1.44001495,0.05163784\H,0,0.24607387,1.797666,-0.87769729\N,0,0.599
 259,-0.71544855,-1.2929068\H,0,-0.2312017,-1.2976953,-1.32914021\H,0,1
 .44208899,-1.25859323,-1.37404347\N,0,0.71813115,-0.79487787,1.2812441

 Normal termination of Gaussian 16 at Wed Apr  9 02:59:00 2025.
