 Gaussian 16, Revision C.01,

 ----------------------------------------------------------------------
 #t hf aug-cc-pvdz symm=none int=(grid=ultrafine) guess=(read,tcheck) s
 table=(opt,rrhf)
 ----------------------------------------------------------------------
 -----
 title
 -----
 Symbolic Z-matrix:
 Charge = -1 Multiplicity = 1

 SCF Done:  E(RHF) =  -891.259469701     A.U. after   17 cycles
 Normal termination of Gaussian 16 at Wed Apr  9 02:56:21 2025.
 Gaussian 16:  ES64L-G16RevC.01  3-Jul-2019

 ----------------------------------------------------------------------
 #t hf aug-cc-pvdz iop(5/13=1,5/36=2,99/5=2) pseudo=read geom=check gue
 ss=(read,tcheck) scf=(maxcycle=1)
 ----------------------------------------------------------------------
 -----
 title
 -----
 Structure from the checkpoint file:  "E2SN2_364_mol1.chk"
 Charge = -1 Multiplicity = 1

                         Standard orientation:
 ---------------------------------------------------------------------
 Center     Atomic      Atomic             Coordinates (Angstroms)
 Number     Number       Type             X           Y           Z
 ---------------------------------------------------------------------
      1          6           0       -0.998302    0.252218    0.295019
      2          1           0        0.525930    1.246648    1.421139
      3         17           0       -0.615694   -1.385932   -0.946621
      4          1           0       -1.426971    1.968084    1.366220
      5          6           0        0.403047    0.917656    0.396384
      6          6           0       -1.484539   -0.472289    1.552275
      7          1           0       -1.279704   -1.544582    1.503366
      8          1           0       -1.000728   -0.057963    2.434494
      9          1           0       -2.558680   -0.318065    1.661776
     10          7           0       -1.916923    0.858004   -0.662585
     11          1           0       -2.461708    1.523616   -0.134581
     12          1           0       -2.496870    0.134081   -1.068301
     13          7           0        0.641186    2.006518   -0.500557
     14          1           0       -0.031303    2.700551   -0.182858
     15          1           0        0.316649    1.713200   -1.417325
     16          7           0        1.539962   -0.089818    0.241787
     17          8           0        2.232182   -0.086476   -0.768292
     18          8           0        1.706490   -0.840169    1.205297
 ---------------------------------------------------------------------

 SCF Done:  E(RHF) =  -893.529414189     A.U. after    2 cycles

 The electronic state is 1-A.
 Alpha  occ. eigenvalues --  -99.69339 -20.95447 -20.94731 -15.84087 -15.60491
 Alpha  occ. eigenvalues --  -15.60264 -11.42939 -11.33811 -11.24956 -10.26562
 Alpha  occ. eigenvalues --   -9.46629  -9.46196  -9.46026  -1.84453  -1.54523
 Alpha  occ. eigenvalues --   -1.28852  -1.19224  -1.07918  -0.99272  -0.93620
 Alpha  occ. eigenvalues --   -0.76589  -0.67072  -0.59114  -0.56208  -0.52853
 Alpha  occ. eigenvalues --   -0.51001  -0.48314  -0.46145  -0.45154  -0.43969
 Alpha  occ. eigenvalues --   -0.38911  -0.37472  -0.34753  -0.32126  -0.31780
 Alpha  occ. eigenvalues --   -0.24862  -0.23907  -0.21412  -0.17340  -0.16771
 Alpha  occ. eigenvalues --   -0.13783
 Alpha virt. eigenvalues --    0.13883   0.14515   0.15363   0.15832   0.15900
 Alpha virt. eigenvalues --    0.16316   0.16716   0.18208   0.18654   0.22382
 Alpha virt. eigenvalues --    0.23226   0.24082   0.24736   0.25264   0.25462

 Mulliken charges:
               1
     1  C    3.876463
     2  H    2.192743
     3  Cl  -0.683433
     4  H   -1.010301
     5  C    0.182266
     6  C   -4.148780
     7  H    1.189483
     8  H    1.349204
     9  H    1.166928
    10  N   -3.209927
    11  H    0.707886
    12  H    0.532884
    13  N   -2.987717
    14  H    0.623639
    15  H    0.625035
    16  N    4.556312
    17  O   -2.916626
    18  O   -3.046058
 Sum of Mulliken charges =  -1.00000

 Dipole moment (field-independent basis, Debye):
    X=              0.1629    Y=             -1.3789    Z=             -1.1608  Tot=              1.8098

 Test job not archived.
 1\1\GINC-SE143\SP\RHF\Aug-CC-pVDZ\C3H9Cl1N3O2(1-)\OHZDE\09-Apr-2025\0\
 \#t hf aug-cc-pvdz iop(5/13=1,5/36=2,99/5=2) pseudo=read geom=check gu
 ess=(read,tcheck) scf=(maxcycle=1)\\title\\-1,1\C,0,0.43810828,-0.0273
 7536,-0.0465318\H,0,1.54532181,1.62385557,-0.83889383\Cl,0,-1.64007428
 ,-0.19125006,-0.20745451\H,0,2.46899756,0.14588776,0.30116947\C,0,0.65
 881759,1.50069049,-0.22864849\C,0,0.86814451,-0.90762942,-1.2222235\H,
 0,0.02537303,-1.14613803,-1.87568469\H,0,1.63825787,-0.40560563,-1.804
 41522\H,0,1.29622488,-1.83432288,-0.83811294\N,0,0.44367002,-0.5061189

 Normal termination of Gaussian 16 at Wed Apr  9 02:56:30 2025.
