 Gaussian 16, Revision C.01,

 ----------------------------------------------------------------------
 #t hf aug-cc-pvdz symm=none int=(grid=ultrafine) guess=(read,tcheck) s
 table=(opt,rrhf)
 ----------------------------------------------------------------------
 -----
 title
 -----
 Symbolic Z-matrix:
 Charge = -1 Multiplicity = 1

 SCF Done:  E(RHF) =  -1331.97198740     A.U. after   16 cycles
 Normal termination of Gaussian 16 at Wed Apr  9 02:53:38 2025.
 Gaussian 16:  ES64L-G16RevC.01  3-Jul-2019

 ----------------------------------------------------------------------
 #t hf aug-cc-pvdz iop(5/13=1,5/36=2,99/5=2) pseudo=read geom=check gue
 ss=(read,tcheck) scf=(maxcycle=1)
 ----------------------------------------------------------------------
 -----
 title
 -----
 Structure from the checkpoint file:  "E2SN2_329_mol1.chk"
 Charge = -1 Multiplicity = 1

                         Standard orientation:
 ---------------------------------------------------------------------
 Center     Atomic      Atomic             Coordinates (Angstroms)
 Number     Number       Type             X           Y           Z
 ---------------------------------------------------------------------
      1          6           0        0.078033   -0.061420    0.167256
      2          1           0       -0.194299   -1.485696   -1.434086
      3         17           0       -1.350697    1.824195    0.173256
      4         17           0        1.756869   -1.700287    0.076972
      5          6           0       -0.744060   -0.675893   -0.955970
      6          1           0       -0.965594    0.080445   -1.705313
      7          6           0       -0.133767   -0.345128    1.631776
      8          1           0       -1.041039    0.128254    1.996096
      9          1           0       -0.192000   -1.420760    1.784504
     10          1           0        0.725580    0.035452    2.179454
     11          7           0        1.137118    0.898927   -0.276479
     12          8           0        1.273620    1.041744   -1.485792
     13          8           0        1.793296    1.458373    0.589419
     14          6           0       -1.998315   -1.214259   -0.438643
     15          7           0       -2.992012   -1.708195   -0.056388
 ---------------------------------------------------------------------

 SCF Done:  E(RHF) =  -1334.33940331     A.U. after    2 cycles

 The electronic state is 1-A.
 Alpha  occ. eigenvalues --  -99.68689 -99.68113 -20.97667 -20.97407 -15.88923
 Alpha  occ. eigenvalues --  -15.65765 -11.48179 -11.37394 -11.32758 -11.28855
 Alpha  occ. eigenvalues --  -10.25715 -10.25152  -9.45799  -9.45331  -9.45306
 Alpha  occ. eigenvalues --   -9.45219  -9.44785  -9.44726  -1.87879  -1.57655
 Alpha  occ. eigenvalues --   -1.23760  -1.16476  -1.06089  -1.03909  -0.98701
 Alpha  occ. eigenvalues --   -0.93756  -0.68100  -0.61543  -0.59901  -0.58476
 Alpha  occ. eigenvalues --   -0.53702  -0.50890  -0.49314  -0.45429  -0.41819
 Alpha  occ. eigenvalues --   -0.41180  -0.35103  -0.33780  -0.33462  -0.32837
 Alpha  occ. eigenvalues --   -0.31630  -0.31410  -0.30986  -0.30101  -0.24381
 Alpha  occ. eigenvalues --   -0.19458  -0.19224
 Alpha virt. eigenvalues --    0.14155   0.14894   0.15647   0.15968   0.16407
 Alpha virt. eigenvalues --    0.16970   0.18635   0.19148   0.21209   0.21691
 Alpha virt. eigenvalues --    0.22993   0.24448   0.25304   0.25497   0.25898

 Mulliken charges:
               1
     1  C    3.946360
     2  H    1.278254
     3  Cl  -0.746823
     4  Cl  -0.672859
     5  C   -3.050588
     6  H    1.542809
     7  C   -4.709553
     8  H    1.265611
     9  H    1.165025
    10  H    1.261479
    11  N    4.413333
    12  O   -3.066799
    13  O   -3.215670
    14  C    2.187756
    15  N   -2.598336
 Sum of Mulliken charges =  -1.00000

 Dipole moment (field-independent basis, Debye):
    X=              0.8309    Y=              0.0341    Z=             -0.4216  Tot=              0.9324

 Test job not archived.
 1\1\GINC-SE362\SP\RHF\Aug-CC-pVDZ\C4H5Cl2N2O2(1-)\OHZDE\09-Apr-2025\0\
 \#t hf aug-cc-pvdz iop(5/13=1,5/36=2,99/5=2) pseudo=read geom=check gu
 ess=(read,tcheck) scf=(maxcycle=1)\\title\\-1,1\C,0,0.66798441,-0.0391
 7252,-0.06393148\H,0,1.46237323,1.94930539,0.22229565\Cl,0,-1.66992278
 ,-0.30093887,0.18610519\Cl,0,3.01409416,0.03203146,-0.00711225\C,0,0.5
 0423935,1.47103859,0.02266057\H,0,-0.18090283,1.72067564,0.82944535\C,
 0,0.71311929,-0.81891515,-1.35239333\H,0,-0.26808257,-0.86842549,-1.81
 580803\H,0,1.4191268,-0.34758683,-2.03291167\H,0,1.06621457,-1.8233827

 Normal termination of Gaussian 16 at Wed Apr  9 02:53:45 2025.
