 Gaussian 16, Revision C.01,

 ----------------------------------------------------------------------
 #t hf aug-cc-pvdz symm=none int=(grid=ultrafine) guess=(read,tcheck) s
 table=(opt,rrhf)
 ----------------------------------------------------------------------
 -----
 title
 -----
 Symbolic Z-matrix:
 Charge = -1 Multiplicity = 1

 SCF Done:  E(RHF) =  -862.461985497     A.U. after   16 cycles
 Normal termination of Gaussian 16 at Wed Apr  9 02:55:07 2025.
 Gaussian 16:  ES64L-G16RevC.01  3-Jul-2019

 ----------------------------------------------------------------------
 #t hf aug-cc-pvdz iop(5/13=1,5/36=2,99/5=2) pseudo=read geom=check gue
 ss=(read,tcheck) scf=(maxcycle=1)
 ----------------------------------------------------------------------
 -----
 title
 -----
 Structure from the checkpoint file:  "E2SN2_347_mol1.chk"
 Charge = -1 Multiplicity = 1

                         Standard orientation:
 ---------------------------------------------------------------------
 Center     Atomic      Atomic             Coordinates (Angstroms)
 Number     Number       Type             X           Y           Z
 ---------------------------------------------------------------------
      1          6           0        0.737030    0.074961   -0.157478
      2          1           0        0.261935   -1.759343    0.660448
      3         17           0       -0.728288    1.876691   -0.161817
      4          9           0        1.940971   -1.614519   -0.099668
      5          6           0       -0.279540   -0.815526    0.567953
      6          6           0        1.796545    0.797342    0.634799
      7          1           0        1.947539    1.798484    0.231857
      8          1           0        1.490231    0.873495    1.676391
      9          1           0        2.703709    0.204082    0.556859
     10          6           0        0.836288    0.052621   -1.661894
     11          1           0        1.558603   -0.717773   -1.918670
     12          1           0       -0.129128   -0.161913   -2.119907
     13          1           0        1.166347    1.027697   -2.021652
     14          6           0       -1.477539   -1.082729   -0.251893
     15          7           0       -2.454251   -1.408237   -0.819682
     16          7           0       -0.608332   -0.341739    1.906580
     17          1           0       -1.162979   -1.050732    2.371186
     18          1           0       -1.162712    0.502746    1.814175
 ---------------------------------------------------------------------

 SCF Done:  E(RHF) =  -864.527935424     A.U. after    2 cycles

 The electronic state is 1-A.
 Alpha  occ. eigenvalues --  -99.65776 -28.92899 -15.62948 -15.61932 -11.42169
 Alpha  occ. eigenvalues --  -11.35341 -11.30270 -11.25554 -11.23875 -10.22859
 Alpha  occ. eigenvalues --   -9.42954  -9.42559  -9.42470  -1.27904  -1.14794
 Alpha  occ. eigenvalues --   -1.10348  -1.01910  -0.90943  -0.89327  -0.68226
 Alpha  occ. eigenvalues --   -0.61063  -0.55946  -0.52398  -0.49218  -0.45062
 Alpha  occ. eigenvalues --   -0.43464  -0.42922  -0.39177  -0.36283  -0.35406
 Alpha  occ. eigenvalues --   -0.33407  -0.31062  -0.30574  -0.30050  -0.28681
 Alpha  occ. eigenvalues --   -0.26111  -0.24425  -0.03170  -0.01143  -0.00459
 Alpha virt. eigenvalues --    0.13565   0.14706   0.15174   0.15437   0.16232
 Alpha virt. eigenvalues --    0.16531   0.17053   0.17436   0.18003   0.19976
 Alpha virt. eigenvalues --    0.22213   0.22651   0.22877   0.23919   0.24967

 Mulliken charges:
               1
     1  C    6.843316
     2  H    1.248281
     3  Cl  -0.914070
     4  F   -0.893376
     5  C   -1.294237
     6  C   -5.219781
     7  H    1.121135
     8  H    1.212116
     9  H    0.954278
    10  C   -5.317389
    11  H    0.959058
    12  H    1.232261
    13  H    1.160688
    14  C    2.762521
    15  N   -2.825560
    16  N   -3.160995
    17  H    0.608984
    18  H    0.522770
 Sum of Mulliken charges =  -1.00000

 Dipole moment (field-independent basis, Debye):
    X=              2.6351    Y=             -2.3344    Z=              1.8076  Tot=              3.9573

 Test job not archived.
 1\1\GINC-SE074\SP\RHF\Aug-CC-pVDZ\C5H9Cl1F1N2(1-)\OHZDE\09-Apr-2025\0\
 \#t hf aug-cc-pvdz iop(5/13=1,5/36=2,99/5=2) pseudo=read geom=check gu
 ess=(read,tcheck) scf=(maxcycle=1)\\title\\-1,1\C,0,0.5540382,-0.07716
 567,-0.00474391\H,0,1.74014985,1.61174376,0.00585446\Cl,0,-1.76676337,
 0.00609781,-0.0235513\F,0,2.62807078,-0.00969691,0.02678969\C,0,0.6597
 7571,1.45301406,-0.00592262\C,0,0.64708143,-0.8332681,-1.30542064\H,0,
 -0.06511072,-1.65801166,-1.31050981\H,0,0.42719008,-0.16573175,-2.1364
 3556\H,0,1.66780519,-1.19823555,-1.38224228\C,0,0.59317829,-0.84502846

 Normal termination of Gaussian 16 at Wed Apr  9 02:55:16 2025.
