 Gaussian 16, Revision C.01,

 ----------------------------------------------------------------------
 #t hf aug-cc-pvdz symm=none int=(grid=ultrafine) guess=(read,tcheck) s
 table=(opt,rrhf)
 ----------------------------------------------------------------------
 -----
 title
 -----
 Symbolic Z-matrix:
 Charge = -1 Multiplicity = 1

 SCF Done:  E(RHF) =  -366.703098708     A.U. after   16 cycles
 Normal termination of Gaussian 16 at Wed Apr  9 02:55:21 2025.
 Gaussian 16:  ES64L-G16RevC.01  3-Jul-2019

 ----------------------------------------------------------------------
 #t hf aug-cc-pvdz iop(5/13=1,5/36=2,99/5=2) pseudo=read geom=check gue
 ss=(read,tcheck) scf=(maxcycle=1)
 ----------------------------------------------------------------------
 -----
 title
 -----
 Structure from the checkpoint file:  "E2SN2_352_mol1.chk"
 Charge = -1 Multiplicity = 1

                         Standard orientation:
 ---------------------------------------------------------------------
 Center     Atomic      Atomic             Coordinates (Angstroms)
 Number     Number       Type             X           Y           Z
 ---------------------------------------------------------------------
      1          6           0       -0.593655    0.182874    0.185821
      2          1           0        0.985497   -0.150111    1.568070
      3          9           0       -0.708609   -0.980354   -1.093624
      4          1           0       -0.373433    1.463242    1.606488
      5          6           0        0.924602   -0.028454    0.480821
      6          6           0       -1.594084   -0.495894    1.107050
      7          1           0       -2.087646   -1.307721    0.562591
      8          1           0       -1.090163   -0.901110    1.988406
      9          1           0       -2.340731    0.212906    1.461478
     10          6           0       -1.112215    1.279928   -0.735955
     11          1           0       -1.424274    2.159746   -0.180050
     12          1           0       -0.319566    1.555152   -1.433459
     13          1           0       -1.950422    0.877979   -1.311557
     14          7           0        1.668306    1.133436    0.009706
     15          1           0        2.632819    0.987849    0.289291
     16          1           0        1.282491    1.905715    0.551193
     17          7           0        1.597309   -1.194836   -0.101858
     18          1           0        1.354064   -1.171560   -1.086166
     19          1           0        1.101650   -2.009827    0.244967
 ---------------------------------------------------------------------

 SCF Done:  E(RHF) =  -368.434196697     A.U. after    2 cycles

 The electronic state is 1-A.
 Alpha  occ. eigenvalues --  -28.96700 -15.56665 -15.56193 -11.36766 -11.27965
 Alpha  occ. eigenvalues --  -11.22890 -11.20391  -1.25797  -1.07372  -1.05028
 Alpha  occ. eigenvalues --   -0.86522  -0.77106  -0.63954  -0.54313  -0.52087
 Alpha  occ. eigenvalues --   -0.48675  -0.44060  -0.41694  -0.39856  -0.36600
 Alpha  occ. eigenvalues --   -0.36065  -0.33483  -0.31608  -0.28812  -0.20831
 Alpha  occ. eigenvalues --   -0.20264  -0.14757  -0.04386  -0.02766  -0.01404
 Alpha virt. eigenvalues --    0.14635   0.14808   0.15154   0.15314   0.15806
 Alpha virt. eigenvalues --    0.15949   0.16152   0.16842   0.18588   0.18821
 Alpha virt. eigenvalues --    0.19202   0.21186   0.23922   0.24868   0.26243

 Mulliken charges:
               1
     1  C    3.532863
     2  H    1.960343
     3  F   -0.400228
     4  H   -0.979878
     5  C    0.062457
     6  C   -4.733453
     7  H    1.151673
     8  H    1.162317
     9  H    1.254650
    10  C   -4.284615
    11  H    1.234738
    12  H    1.253816
    13  H    1.193298
    14  N   -2.737434
    15  H    0.471124
    16  H    0.736100
    17  N   -2.844975
    18  H    0.333409
    19  H    0.633795
 Sum of Mulliken charges =  -1.00000

 Dipole moment (field-independent basis, Debye):
    X=              0.3277    Y=             -4.3086    Z=             -4.1203  Tot=              5.9706

 Test job not archived.
 1\1\GINC-SE222\SP\RHF\Aug-CC-pVDZ\C4H12F1N2(1-)\OHZDE\09-Apr-2025\0\\#
 t hf aug-cc-pvdz iop(5/13=1,5/36=2,99/5=2) pseudo=read geom=check gues
 s=(read,tcheck) scf=(maxcycle=1)\\title\\-1,1\C,0,0.46245047,0.0078670
 5,-0.01259773\H,0,1.45837372,1.7062367,-0.81190154\F,0,-1.24239066,-0.
 05586317,-0.31714436\H,0,2.34997086,0.17167467,0.32881916\C,0,0.606668
 53,1.55707519,-0.13887333\C,0,0.86831277,-0.83972004,-1.20721819\H,0,-
 0.03015761,-1.26979062,-1.66207124\H,0,1.39662529,-0.23221533,-1.94664
 27\H,0,1.5437403,-1.63901308,-0.90650753\C,0,0.27190288,-0.69882572,1.

 Normal termination of Gaussian 16 at Wed Apr  9 02:55:28 2025.
