 Gaussian 16, Revision C.01,

 ----------------------------------------------------------------------
 #t hf aug-cc-pvdz symm=none int=(grid=ultrafine) guess=(read,tcheck) s
 table=(opt,rrhf)
 ----------------------------------------------------------------------
 -----
 title
 -----
 Symbolic Z-matrix:
 Charge = -1 Multiplicity = 1

 SCF Done:  E(RHF) =  -984.623385419     A.U. after   19 cycles
 Normal termination of Gaussian 16 at Wed Apr  9 02:35:46 2025.
 Gaussian 16:  ES64L-G16RevC.01  3-Jul-2019

 ----------------------------------------------------------------------
 #t hf aug-cc-pvdz iop(5/13=1,5/36=2,99/5=2) pseudo=read geom=check gue
 ss=(read,tcheck) scf=(maxcycle=1)
 ----------------------------------------------------------------------
 -----
 title
 -----
 Structure from the checkpoint file:  "E2SN2_127_mol1.chk"
 Charge = -1 Multiplicity = 1

                         Standard orientation:
 ---------------------------------------------------------------------
 Center     Atomic      Atomic             Coordinates (Angstroms)
 Number     Number       Type             X           Y           Z
 ---------------------------------------------------------------------
      1          6           0       -0.035215   -0.016875   -0.208506
      2          6           0        0.465771   -1.171104   -0.945370
      3         17           0        0.577177    1.725306   -1.020164
      4          1           0       -1.543567   -2.502228   -0.683150
      5          1           0       -0.263421   -2.051254   -0.651596
      6          1           0        0.191256   -1.038157   -1.991756
      7          7           0        0.470972    0.000489    1.222814
      8          8           0        0.963671    0.998619    1.725590
      9          8           0        0.301180   -1.078113    1.793248
     10          6           0        1.938162   -1.485400   -0.770724
     11          1           0        2.172744   -1.737157    0.264842
     12          1           0        2.210529   -2.343466   -1.391454
     13          1           0        2.556121   -0.634096   -1.072238
     14          7           0       -1.464761   -0.009805   -0.144177
     15          8           0       -2.017215    0.473511    0.860749
     16          8           0       -2.046568   -0.758815   -1.021429
 ---------------------------------------------------------------------

 SCF Done:  E(RHF) =  -987.208847540     A.U. after    2 cycles

 The electronic state is 1-A.
 Alpha  occ. eigenvalues --  -99.74684 -20.98729 -20.97640 -20.97457 -20.90535
 Alpha  occ. eigenvalues --  -15.88141 -15.78867 -11.45929 -11.30927 -11.26218
 Alpha  occ. eigenvalues --  -10.31672  -9.51764  -9.51078  -9.51023  -1.88012
 Alpha  occ. eigenvalues --   -1.79165  -1.57729  -1.51875  -1.21912  -1.10074
 Alpha  occ. eigenvalues --   -1.01726  -0.88574  -0.81520  -0.64227  -0.61338
 Alpha  occ. eigenvalues --   -0.59527  -0.54734  -0.51527  -0.48295  -0.46944
 Alpha  occ. eigenvalues --   -0.44723  -0.43410  -0.40218  -0.38661  -0.38341
 Alpha  occ. eigenvalues --   -0.37368  -0.36080  -0.25075  -0.21718  -0.20347
 Alpha  occ. eigenvalues --   -0.19359  -0.18230  -0.15390  -0.07436
 Alpha virt. eigenvalues --    0.12445   0.14291   0.15026   0.15376   0.16827
 Alpha virt. eigenvalues --    0.18071   0.19480   0.21462   0.22269   0.22828
 Alpha virt. eigenvalues --    0.23425   0.24465   0.25858   0.26352   0.26542

 Mulliken charges:
               1
     1  C    2.646832
     2  C   -1.903316
     3  Cl  -0.016345
     4  H   -0.452271
     5  H    1.409453
     6  H    1.532014
     7  N    4.686016
     8  O   -3.046632
     9  O   -3.033092
    10  C   -4.130147
    11  H    1.331084
    12  H    1.031618
    13  H    1.281970
    14  N    2.715279
    15  O   -2.842830
    16  O   -2.209634
 Sum of Mulliken charges =  -1.00000

 Dipole moment (field-independent basis, Debye):
    X=              3.6784    Y=              1.5478    Z=              0.5056  Tot=              4.0227

 Test job not archived.
 1\1\GINC-SE338\SP\RHF\Aug-CC-pVDZ\C3H6Cl1N2O4(1-)\OHZDE\09-Apr-2025\0\
 \#t hf aug-cc-pvdz iop(5/13=1,5/36=2,99/5=2) pseudo=read geom=check gu
 ess=(read,tcheck) scf=(maxcycle=1)\\title\\-1,1\C,0,-0.09843845,-0.053
 05689,-0.28511575\C,0,-0.20966987,0.00441303,1.16764939\Cl,0,1.8099485
 2,-0.2989994,-0.89057329\H,0,-2.30055149,-1.21703253,1.28754115\H,0,-1
 .33624047,-0.26700205,1.39094466\H,0,0.28249457,-0.88057697,1.57079037
 \N,0,-0.56992779,1.23437026,-0.93736889\O,0,0.09009998,1.81139041,-1.7
 8778708\O,0,-1.67564908,1.59019917,-0.52703505\C,0,0.27424997,1.282508

 Normal termination of Gaussian 16 at Wed Apr  9 02:35:54 2025.
