 Gaussian 16, Revision C.01,

 ----------------------------------------------------------------------
 #t hf aug-cc-pvdz symm=none int=(grid=ultrafine) guess=(read,tcheck) s
 table=(opt,rrhf)
 ----------------------------------------------------------------------
 -----
 title
 -----
 Symbolic Z-matrix:
 Charge = -1 Multiplicity = 1

 SCF Done:  E(RHF) =  -1042.91876477     A.U. after   17 cycles
 Normal termination of Gaussian 16 at Wed Apr  9 03:00:25 2025.
 Gaussian 16:  ES64L-G16RevC.01  3-Jul-2019

 ----------------------------------------------------------------------
 #t hf aug-cc-pvdz iop(5/13=1,5/36=2,99/5=2) pseudo=read geom=check gue
 ss=(read,tcheck) scf=(maxcycle=1)
 ----------------------------------------------------------------------
 -----
 title
 -----
 Structure from the checkpoint file:  "E2SN2_415_mol1.chk"
 Charge = -1 Multiplicity = 1

                         Standard orientation:
 ---------------------------------------------------------------------
 Center     Atomic      Atomic             Coordinates (Angstroms)
 Number     Number       Type             X           Y           Z
 ---------------------------------------------------------------------
      1          6           0        0.996285    0.077624    0.024875
      2          1           0       -0.191765    1.061543    1.451487
      3         17           0        0.256222   -1.650119   -1.262719
      4          9           0        1.666506    1.536076    1.094462
      5          6           0       -0.382162    0.322093    0.674478
      6          7           0        1.334733    0.839101   -1.129130
      7          1           0        1.773043    0.250740   -1.820535
      8          1           0        1.932852    1.584970   -0.800908
      9          7           0        1.835488   -0.787137    0.796161
     10          1           0        2.552789   -0.189492    1.184053
     11          1           0        2.205014   -1.529343    0.222019
     12          6           0       -0.998599   -0.854372    1.272920
     13          7           0       -1.535664   -1.701465    1.883201
     14          7           0       -1.347956    0.999284   -0.259085
     15          8           0       -1.173437    2.204469   -0.410744
     16          8           0       -2.242265    0.336578   -0.775721
 ---------------------------------------------------------------------

 SCF Done:  E(RHF) =  -1045.66077102     A.U. after    2 cycles

 The electronic state is 1-A.
 Alpha  occ. eigenvalues --  -99.66816 -28.97951 -20.97801 -20.97396 -15.87641
 Alpha  occ. eigenvalues --  -15.64809 -15.62643 -15.62263 -11.52830 -11.39426
 Alpha  occ. eigenvalues --  -11.32781 -10.23972  -9.44066  -9.43609  -9.43484
 Alpha  occ. eigenvalues --   -1.87131  -1.56988  -1.33449  -1.19312  -1.16351
 Alpha  occ. eigenvalues --   -1.09920  -1.05040  -0.83618  -0.75387  -0.67171
 Alpha  occ. eigenvalues --   -0.60851  -0.58778  -0.56444  -0.54295  -0.50902
 Alpha  occ. eigenvalues --   -0.47364  -0.46554  -0.40784  -0.37011  -0.33485
 Alpha  occ. eigenvalues --   -0.33100  -0.32641  -0.31565  -0.30709  -0.28620
 Alpha  occ. eigenvalues --   -0.23784  -0.23016  -0.18948  -0.18075  -0.08256
 Alpha  occ. eigenvalues --   -0.05521  -0.05072
 Alpha virt. eigenvalues --    0.13601   0.14402   0.15273   0.15994   0.17010
 Alpha virt. eigenvalues --    0.20130   0.21250   0.21984   0.22919   0.23725
 Alpha virt. eigenvalues --    0.24106   0.24763   0.25848   0.26363   0.26458

 Mulliken charges:
               1
     1  C    6.406813
     2  H    1.671990
     3  Cl  -0.773882
     4  F   -0.662842
     5  C   -1.050284
     6  N   -3.977166
     7  H    0.624756
     8  H    0.521752
     9  N   -3.783837
    10  H    0.555266
    11  H    0.548516
    12  C    3.311809
    13  N   -2.870965
    14  N    4.300998
    15  O   -2.886472
    16  O   -2.936452
 Sum of Mulliken charges =  -1.00000

 Dipole moment (field-independent basis, Debye):
    X=              3.0379    Y=              4.8345    Z=              1.1446  Tot=              5.8233

 Test job not archived.
 1\1\GINC-SE273\SP\RHF\Aug-CC-pVDZ\C3H5Cl1F1N4O2(1-)\OHZDE\09-Apr-2025\
 0\\#t hf aug-cc-pvdz iop(5/13=1,5/36=2,99/5=2) pseudo=read geom=check
 guess=(read,tcheck) scf=(maxcycle=1)\\title\\-1,1\C,0,0.5919758,-0.127
 57878,-0.00332668\H,0,1.58114124,1.71599971,0.19044948\Cl,0,-1.6735525
 8,-0.36019069,0.05961421\F,0,2.51415324,0.02131886,-0.06127228\C,0,0.5
 4128084,1.41300025,0.07356601\N,0,0.65343278,-0.72985102,-1.2915853\H,
 0,0.03537288,-1.52505705,-1.33603394\H,0,1.62467962,-0.96902637,-1.437
 43024\N,0,0.744363,-0.7493151,1.27619601\H,0,1.69160384,-1.10235785,1.

 Normal termination of Gaussian 16 at Wed Apr  9 03:00:36 2025.
