 Gaussian 16, Revision C.01,

 ----------------------------------------------------------------------
 #t hf aug-cc-pvdz symm=none int=(grid=ultrafine) guess=(read,tcheck) s
 table=(opt,rrhf)
 ----------------------------------------------------------------------
 -----
 title
 -----
 Symbolic Z-matrix:
 Charge = -1 Multiplicity = 1

 SCF Done:  E(RHF) =  -528.864355357     A.U. after   18 cycles
 Normal termination of Gaussian 16 at Wed Apr  9 02:51:13 2025.
 Gaussian 16:  ES64L-G16RevC.01  3-Jul-2019

 ----------------------------------------------------------------------
 #t hf aug-cc-pvdz iop(5/13=1,5/36=2,99/5=2) pseudo=read geom=check gue
 ss=(read,tcheck) scf=(maxcycle=1)
 ----------------------------------------------------------------------
 -----
 title
 -----
 Structure from the checkpoint file:  "E2SN2_303_mol1.chk"
 Charge = -1 Multiplicity = 1

                         Standard orientation:
 ---------------------------------------------------------------------
 Center     Atomic      Atomic             Coordinates (Angstroms)
 Number     Number       Type             X           Y           Z
 ---------------------------------------------------------------------
      1          6           0       -0.792785    0.391189    0.183495
      2          1           0        0.721200    0.966049    1.588954
      3          9           0       -0.220924    0.219515   -1.297525
      4          1           0       -1.484064    0.446010    1.912500
      5          6           0        0.441149    0.085852    1.021262
      6          1           0        0.286955   -0.782237    1.653266
      7          6           0       -1.816720   -0.642156    0.139597
      8          7           0       -2.633137   -1.468973   -0.066476
      9          7           0       -1.168994    1.780439    0.027524
     10          1           0       -1.905689    1.985932    0.683407
     11          1           0       -1.484417    1.895409   -0.928059
     12          7           0        1.654183   -0.244278    0.167032
     13          8           0        1.832194   -1.424429   -0.130778
     14          8           0        2.405319    0.678625   -0.143600
 ---------------------------------------------------------------------

 SCF Done:  E(RHF) =  -531.137555347     A.U. after    2 cycles

 The electronic state is 1-A.
 Alpha  occ. eigenvalues --  -29.05322 -20.95907 -20.95728 -15.84734 -15.61861
 Alpha  occ. eigenvalues --  -15.61173 -11.46893 -11.33340 -11.29932  -1.84770
 Alpha  occ. eigenvalues --   -1.55028  -1.28587  -1.13811  -1.07373  -0.89955
 Alpha  occ. eigenvalues --   -0.74103  -0.65595  -0.59673  -0.55982  -0.53749
 Alpha  occ. eigenvalues --   -0.49717  -0.44693  -0.43361  -0.41736  -0.38128
 Alpha  occ. eigenvalues --   -0.31896  -0.30125  -0.25565  -0.23345  -0.19123
 Alpha  occ. eigenvalues --   -0.18851  -0.17451  -0.09702  -0.09215  -0.08224
 Alpha virt. eigenvalues --    0.14041   0.15287   0.15786   0.16912   0.18810
 Alpha virt. eigenvalues --    0.20147   0.21882   0.23928   0.24311   0.24845
 Alpha virt. eigenvalues --    0.25420   0.26418   0.27036   0.27754   0.28250

 Mulliken charges:
               1
     1  C    2.148459
     2  H    1.546297
     3  F   -0.064093
     4  H   -0.735579
     5  C   -2.625867
     6  H    1.781603
     7  C    2.946605
     8  N   -2.975838
     9  N   -3.129984
    10  H    0.644109
    11  H    0.401275
    12  N    4.811187
    13  O   -2.865161
    14  O   -2.883011
 Sum of Mulliken charges =  -1.00000

 Dipole moment (field-independent basis, Debye):
    X=              4.5155    Y=              1.3774    Z=             -5.3445  Tot=              7.1310

 Test job not archived.
 1\1\GINC-SE247\SP\RHF\Aug-CC-pVDZ\C3H5F1N3O2(1-)\OHZDE\09-Apr-2025\0\\
 #t hf aug-cc-pvdz iop(5/13=1,5/36=2,99/5=2) pseudo=read geom=check gue
 ss=(read,tcheck) scf=(maxcycle=1)\\title\\-1,1\C,0,0.55252394,-0.09844
 369,0.15883985\H,0,1.6864575,1.40057063,1.19086677\F,0,-0.99587288,-0.
 07215066,0.54831804\H,0,2.31960277,-0.08531798,-0.43072944\C,0,0.94896
 046,1.35189432,0.3976587\H,0,1.29236267,1.82512658,-0.51607459\C,0,0.4
 1774781,-0.5118617,-1.23007847\N,0,0.15172346,-0.90054089,-2.31210877\
 N,0,0.93227907,-1.07016602,1.16254183\H,0,1.7682585,-1.53860718,0.8513

 Normal termination of Gaussian 16 at Wed Apr  9 02:51:18 2025.
