 Gaussian 16, Revision C.01,

 ----------------------------------------------------------------------
 #t hf aug-cc-pvdz symm=none int=(grid=ultrafine) guess=(read,tcheck) s
 table=(opt,rrhf)
 ----------------------------------------------------------------------
 -----
 title
 -----
 Symbolic Z-matrix:
 Charge = -1 Multiplicity = 1

 SCF Done:  E(RHF) =  -816.201352966     A.U. after   16 cycles
 Normal termination of Gaussian 16 at Wed Apr  9 03:01:33 2025.
 Gaussian 16:  ES64L-G16RevC.01  3-Jul-2019

 ----------------------------------------------------------------------
 #t hf aug-cc-pvdz iop(5/13=1,5/36=2,99/5=2) pseudo=read geom=check gue
 ss=(read,tcheck) scf=(maxcycle=1)
 ----------------------------------------------------------------------
 -----
 title
 -----
 Structure from the checkpoint file:  "E2SN2_70_mol2.chk"
 Charge = -1 Multiplicity = 1

                         Standard orientation:
 ---------------------------------------------------------------------
 Center     Atomic      Atomic             Coordinates (Angstroms)
 Number     Number       Type             X           Y           Z
 ---------------------------------------------------------------------
      1          6           0        0.345879    0.021970   -0.081211
      2          6           0       -1.138873    0.001013   -0.512702
      3         17           0        0.497025   -0.142768    1.717155
      4          1           0       -1.140884    0.102065   -1.613003
      5          6           0        1.106946   -1.081791   -0.676323
      6          7           0        1.688852   -1.971545   -1.177621
      7          6           0        0.972498    1.291355   -0.457777
      8          7           0        1.544377    2.264144   -0.784530
      9          7           0       -1.784116    1.185706   -0.015914
     10          1           0       -2.265596    0.964421    0.850990
     11          1           0       -2.525421    1.352807   -0.761110
     12          6           0       -1.828934   -1.314472   -0.176818
     13          1           0       -1.954072   -1.426585    0.904345
     14          1           0       -1.301003   -2.191884   -0.565612
     15          1           0       -2.812532   -1.251958   -0.647737
     16          1           0       -3.338809    1.021588   -2.084071
 ---------------------------------------------------------------------

 SCF Done:  E(RHF) =  -818.126823131     A.U. after    2 cycles

 The electronic state is 1-A.
 Alpha  occ. eigenvalues --  -99.81717 -15.69562 -15.68073 -15.58050 -11.47164
 Alpha  occ. eigenvalues --  -11.38033 -11.36579 -11.33748 -11.26723 -10.39062
 Alpha  occ. eigenvalues --   -9.59029  -9.58351  -9.58260  -1.35227  -1.21063
 Alpha  occ. eigenvalues --   -1.20962  -1.19651  -1.03603  -0.95640  -0.76849
 Alpha  occ. eigenvalues --   -0.71700  -0.64117  -0.55948  -0.50911  -0.47594
 Alpha  occ. eigenvalues --   -0.47272  -0.45707  -0.44409  -0.42756  -0.40440
 Alpha  occ. eigenvalues --   -0.39195  -0.36563  -0.36059  -0.35357  -0.34149
 Alpha  occ. eigenvalues --   -0.31626  -0.23365  -0.10990
 Alpha virt. eigenvalues --    0.12642   0.13919   0.14951   0.15349   0.15948
 Alpha virt. eigenvalues --    0.16857   0.18206   0.18982   0.19434   0.20099
 Alpha virt. eigenvalues --    0.21188   0.21679   0.22058   0.22646   0.23484

 Mulliken charges:
               1
     1  C   -0.209293
     2  C    1.389184
     3  Cl   0.058139
     4  H    2.019108
     5  C    2.198361
     6  N   -2.591935
     7  C    2.250001
     8  N   -2.571259
     9  N   -3.002488
    10  H    0.488287
    11  H    0.607879
    12  C   -4.190789
    13  H    1.191038
    14  H    1.205211
    15  H    1.155132
    16  H   -0.996575
 Sum of Mulliken charges =  -1.00000

 Dipole moment (field-independent basis, Debye):
    X=              7.7674    Y=             -4.4870    Z=              7.8847  Tot=             11.9429

 Test job not archived.
 1\1\GINC-SE344\SP\RHF\Aug-CC-pVDZ\C5H7Cl1N3(1-)\OHZDE\09-Apr-2025\0\\#
 t hf aug-cc-pvdz iop(5/13=1,5/36=2,99/5=2) pseudo=read geom=check gues
 s=(read,tcheck) scf=(maxcycle=1)\\title\\-1,1\C,0,-0.56048,-0.031274,-
 1.55391\C,0,0.097852,0.050298,-0.157107\Cl,0,-2.364422,-0.129583,-1.41
 1677\H,0,1.186977,0.110306,-0.333411\C,0,-0.260611,1.148263,-2.372714\
 N,0,0.007287,2.102197,-3.005025\C,0,-0.112221,-1.231609,-2.263874\N,0,
 0.253751,-2.145815,-2.904518\N,0,-0.113143,-1.194866,0.529685\H,0,-0.9
 13446,-1.102601,1.148809\H,0,0.758244,-1.252786,1.138047\C,0,-0.307034

 Normal termination of Gaussian 16 at Wed Apr  9 03:01:41 2025.
