 Gaussian 16, Revision C.01,

 ----------------------------------------------------------------------
 #t hf aug-cc-pvdz symm=none int=(grid=ultrafine) guess=(read,tcheck) s
 table=(opt,rrhf)
 ----------------------------------------------------------------------
 -----
 title
 -----
 Symbolic Z-matrix:
 Charge = -1 Multiplicity = 1

 SCF Done:  E(RHF) =  -364.436669956     A.U. after   15 cycles
 Normal termination of Gaussian 16 at Wed Apr  9 03:02:34 2025.
 Gaussian 16:  ES64L-G16RevC.01  3-Jul-2019

 ----------------------------------------------------------------------
 #t hf aug-cc-pvdz iop(5/13=1,5/36=2,99/5=2) pseudo=read geom=check gue
 ss=(read,tcheck) scf=(maxcycle=1)
 ----------------------------------------------------------------------
 -----
 title
 -----
 Structure from the checkpoint file:  "E2SN2_97_mol2.chk"
 Charge = -1 Multiplicity = 1

                         Standard orientation:
 ---------------------------------------------------------------------
 Center     Atomic      Atomic             Coordinates (Angstroms)
 Number     Number       Type             X           Y           Z
 ---------------------------------------------------------------------
      1          6           0       -1.030591    0.090112   -0.157467
      2          6           0        0.405590    0.524177   -0.436259
      3          9           0       -1.315723   -1.029205   -0.959548
      4          1           0        0.458038    0.708578   -1.521326
      5          1           0       -1.657546    0.914597   -0.508239
      6          6           0       -1.297300   -0.268532    1.282598
      7          1           0       -2.354991   -0.506027    1.422727
      8          1           0       -0.702465   -1.139848    1.569552
      9          1           0       -1.020260    0.575876    1.912581
     10          6           0        1.347109   -0.546533   -0.089180
     11          7           0        2.109766   -1.393762    0.196281
     12          7           0        0.656888    1.739428    0.335183
     13          1           0        0.152180    2.459729   -0.265847
     14          1           0        1.643355    1.968567    0.234345
     15          1           0       -0.592225    3.066370   -1.526267
 ---------------------------------------------------------------------

 SCF Done:  E(RHF) =  -366.060999793     A.U. after    2 cycles

 The electronic state is 1-A.
 Alpha  occ. eigenvalues --  -29.12602 -15.64154 -15.58243 -11.36884 -11.34104
 Alpha  occ. eigenvalues --  -11.30457 -11.25874  -1.27348  -1.15513  -1.08419
 Alpha  occ. eigenvalues --   -0.89682  -0.80165  -0.62437  -0.57057  -0.53744
 Alpha  occ. eigenvalues --   -0.46098  -0.45542  -0.42705  -0.41169  -0.39713
 Alpha  occ. eigenvalues --   -0.36529  -0.31612  -0.30816  -0.24232  -0.23067
 Alpha  occ. eigenvalues --   -0.13257  -0.12562  -0.10606
 Alpha virt. eigenvalues --    0.13018   0.14864   0.15381   0.15591   0.16327
 Alpha virt. eigenvalues --    0.17628   0.19353   0.20252   0.21530   0.22256
 Alpha virt. eigenvalues --    0.23994   0.24131   0.24403   0.25623   0.26261

 Mulliken charges:
               1
     1  C   -0.289210
     2  C   -0.428210
     3  F    0.098673
     4  H    1.717258
     5  H    1.598257
     6  C   -4.312004
     7  H    1.130881
     8  H    1.247869
     9  H    1.297094
    10  C    1.693064
    11  N   -2.451212
    12  N   -2.620353
    13  H    0.677470
    14  H    0.626191
    15  H   -0.985768
 Sum of Mulliken charges =  -1.00000

 Dipole moment (field-independent basis, Debye):
    X=             -0.3787    Y=             -9.4167    Z=              3.5168  Tot=             10.0591

 Test job not archived.
 1\1\GINC-SE092\SP\RHF\Aug-CC-pVDZ\C4H8F1N2(1-)\OHZDE\09-Apr-2025\0\\#t
  hf aug-cc-pvdz iop(5/13=1,5/36=2,99/5=2) pseudo=read geom=check guess
 =(read,tcheck) scf=(maxcycle=1)\\title\\-1,1\C,0,-0.459894,-0.176571,-
 1.346755\C,0,-0.080563,-0.267499,0.128573\F,0,-0.230599,-1.431527,-1.9
 38375\H,0,0.969062,-0.602192,0.148424\H,0,0.249692,0.529427,-1.787146\
 C,0,-1.895069,0.216176,-1.590821\H,0,-2.079467,0.325205,-2.66267\H,0,-
 2.567127,-0.550944,-1.196832\H,0,-2.093042,1.159199,-1.082718\C,0,-0.9
 10803,-1.2628,0.816628\N,0,-1.57821,-2.049761,1.378936\N,0,-0.238121,1

 Normal termination of Gaussian 16 at Wed Apr  9 03:02:39 2025.
