 Gaussian 16, Revision C.01,

 ----------------------------------------------------------------------
 #t hf aug-cc-pvdz symm=none int=(grid=ultrafine) guess=(read,tcheck) s
 table=(opt,rrhf)
 ----------------------------------------------------------------------
 -----
 title
 -----
 Symbolic Z-matrix:
 Charge = -1 Multiplicity = 1

 SCF Done:  E(RHF) =  -852.223056294     A.U. after   17 cycles
 Normal termination of Gaussian 16 at Wed Apr  9 03:00:02 2025.
 Gaussian 16:  ES64L-G16RevC.01  3-Jul-2019

 ----------------------------------------------------------------------
 #t hf aug-cc-pvdz iop(5/13=1,5/36=2,99/5=2) pseudo=read geom=check gue
 ss=(read,tcheck) scf=(maxcycle=1)
 ----------------------------------------------------------------------
 -----
 title
 -----
 Structure from the checkpoint file:  "E2SN2_46_mol1.chk"
 Charge = -1 Multiplicity = 1

                         Standard orientation:
 ---------------------------------------------------------------------
 Center     Atomic      Atomic             Coordinates (Angstroms)
 Number     Number       Type             X           Y           Z
 ---------------------------------------------------------------------
      1          6           0        0.119426   -0.044295    0.202345
      2          6           0        1.010476   -0.702775   -0.747436
      3         17           0        0.120322    1.888429    0.096214
      4          1           0        1.203148   -3.052739   -0.169005
      5          1           0        0.862910   -1.968895   -0.508759
      6          1           0        0.777835   -0.490604   -1.793353
      7          7           0       -1.300947   -0.416824   -0.173503
      8          8           0       -1.940663   -1.096134    0.627640
      9          8           0       -1.693415   -0.085253   -1.288398
     10          7           0        0.354235   -0.346937    1.570792
     11          1           0        1.359696   -0.211943    1.661171
     12          1           0        0.198574   -1.352204    1.660545
     13          7           0        2.396724   -0.591955   -0.342413
     14          1           0        2.933917   -0.053489   -1.007805
     15          1           0        2.761564   -1.549899   -0.305957
 ---------------------------------------------------------------------

 SCF Done:  E(RHF) =  -854.276908632     A.U. after    2 cycles

 The electronic state is 1-A.
 Alpha  occ. eigenvalues --  -99.73968 -20.97201 -20.96695 -15.86299 -15.61751
 Alpha  occ. eigenvalues --  -15.59843 -11.41496 -11.24209 -10.31145  -9.51237
 Alpha  occ. eigenvalues --   -9.50447  -9.50404  -1.86405  -1.56374  -1.30826
 Alpha  occ. eigenvalues --   -1.17011  -1.12660  -0.99258  -0.82002  -0.66494
 Alpha  occ. eigenvalues --   -0.61031  -0.56580  -0.54629  -0.51673  -0.48692
 Alpha  occ. eigenvalues --   -0.46163  -0.43160  -0.40568  -0.37422  -0.35964
 Alpha  occ. eigenvalues --   -0.35330  -0.26131  -0.24726  -0.21596  -0.18774
 Alpha  occ. eigenvalues --   -0.18133  -0.10922
 Alpha virt. eigenvalues --    0.13702   0.15425   0.15707   0.16691   0.17610
 Alpha virt. eigenvalues --    0.18471   0.20108   0.21177   0.21668   0.23512
 Alpha virt. eigenvalues --    0.25301   0.26275   0.26394   0.27342   0.27818

 Mulliken charges:
               1
     1  C    3.176333
     2  C   -1.205116
     3  Cl  -0.197381
     4  H   -0.300417
     5  H    1.033156
     6  H    1.354749
     7  N    4.007050
     8  O   -2.637871
     9  O   -3.161247
    10  N   -3.202830
    11  H    0.673611
    12  H    0.519348
    13  N   -2.158373
    14  H    0.571357
    15  H    0.527630
 Sum of Mulliken charges =  -1.00000

 Dipole moment (field-independent basis, Debye):
    X=             -1.0356    Y=              4.8378    Z=             -0.1575  Tot=              4.9499

 Test job not archived.
 1\1\GINC-SE042\SP\RHF\Aug-CC-pVDZ\C2H7Cl1N3O2(1-)\OHZDE\09-Apr-2025\0\
 \#t hf aug-cc-pvdz iop(5/13=1,5/36=2,99/5=2) pseudo=read geom=check gu
 ess=(read,tcheck) scf=(maxcycle=1)\\title\\-1,1\C,0,-0.12265859,-0.001
 77648,-0.3830998\C,0,-0.20319774,-0.01096713,1.07397884\Cl,0,1.6724353
 5,-0.16481379,-1.08860992\H,0,-2.43965828,0.64127931,1.75724695\H,0,-1
 .46840117,0.11115001,1.33117815\H,0,0.18464845,-0.92294163,1.53328245\
 N,0,-0.81305339,-1.25458531,-0.88442242\O,0,-1.8393637,-1.11093074,-1.
 54667535\O,0,-0.3485385,-2.33376473,-0.52867164\N,0,-0.67483369,1.1433

 Normal termination of Gaussian 16 at Wed Apr  9 03:00:08 2025.
