 Gaussian 16, Revision C.01,

 ----------------------------------------------------------------------
 #t hf aug-cc-pvdz symm=none int=(grid=ultrafine) guess=(read,tcheck) s
 table=(opt,rrhf)
 ----------------------------------------------------------------------
 -----
 title
 -----
 Symbolic Z-matrix:
 Charge = -1 Multiplicity = 1

 SCF Done:  E(RHF) =  -888.923960629     A.U. after   17 cycles
 Normal termination of Gaussian 16 at Wed Apr  9 02:54:46 2025.
 Gaussian 16:  ES64L-G16RevC.01  3-Jul-2019

 ----------------------------------------------------------------------
 #t hf aug-cc-pvdz iop(5/13=1,5/36=2,99/5=2) pseudo=read geom=check gue
 ss=(read,tcheck) scf=(maxcycle=1)
 ----------------------------------------------------------------------
 -----
 title
 -----
 Structure from the checkpoint file:  "E2SN2_34_mol2.chk"
 Charge = -1 Multiplicity = 1

                         Standard orientation:
 ---------------------------------------------------------------------
 Center     Atomic      Atomic             Coordinates (Angstroms)
 Number     Number       Type             X           Y           Z
 ---------------------------------------------------------------------
      1          6           0       -0.044613    0.222262   -0.167096
      2          6           0        1.131215   -0.069919   -1.076532
      3         17           0       -1.525997    0.663735   -1.093232
      4          1           0        1.411893    0.853500   -1.616635
      5          1           0        0.792903   -0.810216   -1.809738
      6          7           0       -0.410040   -1.055406    0.599415
      7          8           0       -0.633394   -0.959516    1.800053
      8          8           0       -0.478666   -2.078798   -0.067667
      9          6           0        0.228178    1.277628    0.800025
     10          7           0        0.391893    2.184377    1.528612
     11          7           0        2.224965   -0.455236   -0.225270
     12          1           0        3.053118    0.117629   -0.623814
     13          1           0        2.433385   -1.438473   -0.360310
     14          1           0        3.810724    1.004599   -1.521328
 ---------------------------------------------------------------------

 SCF Done:  E(RHF) =  -891.088063996     A.U. after    2 cycles

 The electronic state is 1-A.
 Alpha  occ. eigenvalues --  -99.82627 -21.01787 -21.01282 -15.91280 -15.68046
 Alpha  occ. eigenvalues --  -15.57753 -11.47029 -11.36322 -11.31456 -10.39963
 Alpha  occ. eigenvalues --   -9.59993  -9.59136  -9.59117  -1.91104  -1.61164
 Alpha  occ. eigenvalues --   -1.33220  -1.20514  -1.19193  -1.06575  -0.88121
 Alpha  occ. eigenvalues --   -0.80285  -0.66083  -0.63704  -0.58921  -0.54122
 Alpha  occ. eigenvalues --   -0.51893  -0.50457  -0.47622  -0.45157  -0.42074
 Alpha  occ. eigenvalues --   -0.39311  -0.38389  -0.35385  -0.33608  -0.28011
 Alpha  occ. eigenvalues --   -0.23829  -0.23142  -0.22459  -0.10964
 Alpha virt. eigenvalues --    0.13474   0.14488   0.15510   0.16755   0.17619
 Alpha virt. eigenvalues --    0.19337   0.20556   0.21171   0.21936   0.22596
 Alpha virt. eigenvalues --    0.23746   0.24008   0.24578   0.24815   0.25334

 Mulliken charges:
               1
     1  C   -1.330057
     2  C   -0.962411
     3  Cl  -0.036707
     4  H    1.488587
     5  H    1.419280
     6  N    5.070161
     7  O   -2.889647
     8  O   -3.194568
     9  C    4.148836
    10  N   -2.871863
    11  N   -2.109523
    12  H    0.643549
    13  H    0.512367
    14  H   -0.888005
 Sum of Mulliken charges =  -1.00000

 Dipole moment (field-independent basis, Debye):
    X=            -11.8126    Y=             -5.4345    Z=              3.0907  Tot=             13.3650

 Test job not archived.
 1\1\GINC-SE097\SP\RHF\Aug-CC-pVDZ\C3H5Cl1N3O2(1-)\OHZDE\09-Apr-2025\0\
 \#t hf aug-cc-pvdz iop(5/13=1,5/36=2,99/5=2) pseudo=read geom=check gu
 ess=(read,tcheck) scf=(maxcycle=1)\\title\\-1,1\C,0,-0.631538,-0.08193
 6,-1.501767\C,0,0.05221,-0.158098,-0.152063\Cl,0,-0.512852,-1.632886,-
 2.411489\H,0,1.138185,-0.304372,-0.301919\H,0,-0.348062,-1.039638,0.36
 0534\N,0,-2.132772,0.14925,-1.286452\O,0,-2.688675,0.990822,-1.981681\
 O,0,-2.668014,-0.558441,-0.443998\C,0,-0.116624,0.989508,-2.344623\N,0
 ,0.340827,1.786825,-3.075964\N,0,-0.156548,1.113128,0.488102\H,0,0.827

 Normal termination of Gaussian 16 at Wed Apr  9 02:54:52 2025.
