 Gaussian 16, Revision C.01,

 ----------------------------------------------------------------------
 #t hf aug-cc-pvdz symm=none int=(grid=ultrafine) guess=(read,tcheck) s
 table=(opt,rrhf)
 ----------------------------------------------------------------------
 -----
 title
 -----
 Symbolic Z-matrix:
 Charge = -1 Multiplicity = 1

 SCF Done:  E(RHF) =  -1291.25706182     A.U. after   17 cycles
 Normal termination of Gaussian 16 at Wed Apr  9 03:02:53 2025.
 Gaussian 16:  ES64L-G16RevC.01  3-Jul-2019

 ----------------------------------------------------------------------
 #t hf aug-cc-pvdz iop(5/13=1,5/36=2,99/5=2) pseudo=read geom=check gue
 ss=(read,tcheck) scf=(maxcycle=1)
 ----------------------------------------------------------------------
 -----
 title
 -----
 Structure from the checkpoint file:  "E2SN2_93_mol1.chk"
 Charge = -1 Multiplicity = 1

                         Standard orientation:
 ---------------------------------------------------------------------
 Center     Atomic      Atomic             Coordinates (Angstroms)
 Number     Number       Type             X           Y           Z
 ---------------------------------------------------------------------
      1          6           0        0.451192   -0.644110    0.051320
      2          6           0       -0.375461    0.437734   -0.303662
      3         17           0        2.718212    0.183779   -0.703843
      4         17           0       -3.155661   -0.493395   -0.023429
      5          1           0       -1.724556   -0.114425    0.003893
      6          6           0        0.884092   -0.784852    1.416513
      7          7           0        1.163063   -0.951792    2.547806
      8          7           0        0.408437   -1.775014   -0.692136
      9          1           0        0.166684   -1.556735   -1.652355
     10          1           0        1.214917   -2.371523   -0.587434
     11          7           0       -0.527719    0.572783   -1.728941
     12          1           0        0.245617    1.129810   -2.084358
     13          1           0       -1.412968    1.008919   -1.955143
     14          6           0       -0.299368    1.627215    0.498638
     15          7           0       -0.331751    2.632810    1.110722
 ---------------------------------------------------------------------

 SCF Done:  E(RHF) =  -1293.46959497     A.U. after    2 cycles

 The electronic state is 1-A.
 Alpha  occ. eigenvalues --  -99.72513 -99.65935 -15.69604 -15.68739 -15.65179
 Alpha  occ. eigenvalues --  -15.64460 -11.48985 -11.37012 -11.35958 -11.31706
 Alpha  occ. eigenvalues --  -10.29501 -10.22775  -9.49554  -9.48945  -9.48932
 Alpha  occ. eigenvalues --   -9.42831  -9.42374  -9.42331  -1.37779  -1.24461
 Alpha  occ. eigenvalues --   -1.20088  -1.16474  -1.11336  -1.02982  -0.99960
 Alpha  occ. eigenvalues --   -0.83561  -0.71201  -0.62387  -0.57992  -0.55029
 Alpha  occ. eigenvalues --   -0.50968  -0.50413  -0.46349  -0.42423  -0.40952
 Alpha  occ. eigenvalues --   -0.36869  -0.36089  -0.35690  -0.35346  -0.34937
 Alpha  occ. eigenvalues --   -0.32694  -0.30449  -0.29141  -0.28271  -0.27698
 Alpha  occ. eigenvalues --   -0.20662
 Alpha virt. eigenvalues --    0.12887   0.13776   0.15348   0.15746   0.16204
 Alpha virt. eigenvalues --    0.17852   0.19217   0.19756   0.21310   0.21936
 Alpha virt. eigenvalues --    0.22038   0.22893   0.23653   0.24449   0.25283

 Mulliken charges:
               1
     1  C    4.878966
     2  C    2.285770
     3  Cl  -0.829891
     4  Cl  -0.925592
     5  H    1.427001
     6  C    0.900350
     7  N   -2.533184
     8  N   -4.102639
     9  H    0.629433
    10  H    0.749967
    11  N   -3.414464
    12  H    0.626862
    13  H    0.599073
    14  C    1.249114
    15  N   -2.540767
 Sum of Mulliken charges =  -1.00000

 Dipole moment (field-independent basis, Debye):
    X=             -1.4740    Y=             -3.1580    Z=             -3.0563  Tot=              4.6354

 Test job not archived.
 1\1\GINC-SE073\SP\RHF\Aug-CC-pVDZ\C4H5Cl2N4(1-)\OHZDE\09-Apr-2025\0\\#
 t hf aug-cc-pvdz iop(5/13=1,5/36=2,99/5=2) pseudo=read geom=check gues
 s=(read,tcheck) scf=(maxcycle=1)\\title\\-1,1\C,0,-0.47498757,0.005044
 45,-0.27378383\C,0,-0.26795773,0.03610129,1.11759295\Cl,0,1.89919897,0
 .09773135,-1.13963697\Cl,0,-2.90241116,0.48482602,2.35587658\H,0,-1.66
 801583,0.1334442,1.61748348\C,0,-0.73232077,-1.25357733,-0.92233138\N,
 0,-1.03288472,-2.26751932,-1.43914986\N,0,-0.94288889,1.11451905,-0.89
 316498\H,0,-0.64407979,1.94729721,-0.39788247\H,0,-0.77771331,1.135653

 Normal termination of Gaussian 16 at Wed Apr  9 03:03:01 2025.
