 Gaussian 16, Revision C.01,

 ----------------------------------------------------------------------
 #t hf aug-cc-pvdz symm=none int=(grid=ultrafine) guess=(read,tcheck) s
 table=(opt,rrhf)
 ----------------------------------------------------------------------
 -----
 title
 -----
 Symbolic Z-matrix:
 Charge = -1 Multiplicity = 1

 SCF Done:  E(RHF) =  -967.940804358     A.U. after   15 cycles
 Normal termination of Gaussian 16 at Wed Apr  9 02:51:56 2025.
 Gaussian 16:  ES64L-G16RevC.01  3-Jul-2019

 ----------------------------------------------------------------------
 #t hf aug-cc-pvdz iop(5/13=1,5/36=2,99/5=2) pseudo=read geom=check gue
 ss=(read,tcheck) scf=(maxcycle=1)
 ----------------------------------------------------------------------
 -----
 title
 -----
 Structure from the checkpoint file:  "E2SN2_309_mol2.chk"
 Charge = -1 Multiplicity = 1

                         Standard orientation:
 ---------------------------------------------------------------------
 Center     Atomic      Atomic             Coordinates (Angstroms)
 Number     Number       Type             X           Y           Z
 ---------------------------------------------------------------------
      1          6           0       -0.389691    0.521335   -0.743983
      2          6           0       -0.356898   -0.562672    0.351341
      3          9           0       -1.617016    0.451445   -1.400751
      4          1           0        0.668527   -0.527249    0.788602
      5          6           0       -0.371794    1.873803   -0.122748
      6          7           0       -0.344968    2.970978    0.297139
      7          7           0        0.651024    0.264448   -1.663169
      8          1           0        1.523105    0.090997   -1.144745
      9          1           0        0.781525    1.054075   -2.283884
     10          6           0       -0.566963   -1.879834   -0.252201
     11          7           0       -0.759214   -2.950939   -0.692096
     12          6           0       -1.370714   -0.316476    1.375596
     13          7           0       -2.178274   -0.119684    2.205141
     14         17           0        2.843316   -0.214788    0.621744
 ---------------------------------------------------------------------

 SCF Done:  E(RHF) =  -970.347895824     A.U. after    2 cycles

 The electronic state is 1-A.
 Alpha  occ. eigenvalues --  -99.64612 -29.19122 -15.69069 -15.68834 -15.67915
 Alpha  occ. eigenvalues --  -15.65520 -11.49803 -11.42742 -11.37585 -11.36378
 Alpha  occ. eigenvalues --  -11.34689 -10.21377  -9.41438  -9.41131  -9.40911
 Alpha  occ. eigenvalues --   -1.38308  -1.23982  -1.20421  -1.19899  -1.09744
 Alpha  occ. eigenvalues --   -1.01154  -0.96920  -0.75089  -0.70631  -0.65010
 Alpha  occ. eigenvalues --   -0.59272  -0.55497  -0.51787  -0.45703  -0.44956
 Alpha  occ. eigenvalues --   -0.43004  -0.38395  -0.37009  -0.36608  -0.35653
 Alpha  occ. eigenvalues --   -0.34600  -0.33827  -0.30183  -0.29896  -0.28487
 Alpha  occ. eigenvalues --   -0.28173  -0.26229  -0.19290  -0.18807
 Alpha virt. eigenvalues --    0.13384   0.16038   0.17097   0.17582   0.19212
 Alpha virt. eigenvalues --    0.19688   0.19907   0.20355   0.20971   0.22670
 Alpha virt. eigenvalues --    0.23012   0.23146   0.23928   0.24743   0.25116

 Mulliken charges:
               1
     1  C    4.875235
     2  C   -2.921396
     3  F    0.179137
     4  H    1.738138
     5  C    1.347385
     6  N   -2.522361
     7  N   -3.376905
     8  H    0.460026
     9  H    0.557285
    10  C    2.692024
    11  N   -2.721987
    12  C    2.219016
    13  N   -2.613014
    14  Cl  -0.912583
 Sum of Mulliken charges =  -1.00000

 Dipole moment (field-independent basis, Debye):
    X=             -7.5832    Y=              1.1433    Z=             -5.0447  Tot=              9.1794

 Test job not archived.
 1\1\GINC-SE461\SP\RHF\Aug-CC-pVDZ\C5H3Cl1F1N4(1-)\OHZDE\09-Apr-2025\0\
 \#t hf aug-cc-pvdz iop(5/13=1,5/36=2,99/5=2) pseudo=read geom=check gu
 ess=(read,tcheck) scf=(maxcycle=1)\\title\\-1,1\C,0,0.027068,0.024671,
 0.018463\C,0,-0.547757,0.251106,-1.393693\F,0,1.41145,-0.102293,-0.081
 148\H,0,-1.656892,0.259451,-1.276654\C,0,-0.180327,1.239184,0.853547\N
 ,0,-0.322732,2.156147,1.574462\N,0,-0.518383,-1.168504,0.540766\H,0,-1
 .538143,-1.161945,0.401408\H,0,-0.315798,-1.250191,1.529762\C,0,-0.173
 69,-0.865792,-2.263129\N,0,0.127387,-1.727999,-3.000479\C,0,-0.073149,

 Normal termination of Gaussian 16 at Wed Apr  9 02:52:03 2025.
