 Gaussian 16, Revision C.01,

 ----------------------------------------------------------------------
 #t hf aug-cc-pvdz symm=none int=(grid=ultrafine) guess=(read,tcheck) s
 table=(opt,rrhf)
 ----------------------------------------------------------------------
 -----
 title
 -----
 Symbolic Z-matrix:
 Charge = -1 Multiplicity = 1

 SCF Done:  E(RHF) =  -862.486331709     A.U. after   15 cycles
 Normal termination of Gaussian 16 at Wed Apr  9 02:54:46 2025.
 Gaussian 16:  ES64L-G16RevC.01  3-Jul-2019

 ----------------------------------------------------------------------
 #t hf aug-cc-pvdz iop(5/13=1,5/36=2,99/5=2) pseudo=read geom=check gue
 ss=(read,tcheck) scf=(maxcycle=1)
 ----------------------------------------------------------------------
 -----
 title
 -----
 Structure from the checkpoint file:  "E2SN2_340_mol2.chk"
 Charge = -1 Multiplicity = 1

                         Standard orientation:
 ---------------------------------------------------------------------
 Center     Atomic      Atomic             Coordinates (Angstroms)
 Number     Number       Type             X           Y           Z
 ---------------------------------------------------------------------
      1          6           0       -0.526213    0.053486    0.186728
      2          6           0        0.423038   -0.337145   -0.993865
      3         17           0       -2.015829   -1.019826    0.122690
      4          1           0       -0.233676   -0.452756   -1.868139
      5          6           0        0.117122   -0.047336    1.558595
      6          1           0       -0.485581    0.472818    2.307085
      7          1           0        0.185494   -1.100786    1.835782
      8          1           0        1.156817    0.332791    1.498577
      9          6           0       -1.033848    1.406829   -0.053452
     10          7           0       -1.430884    2.493774   -0.261147
     11          6           0        1.145469   -1.643716   -0.686677
     12          1           0        1.630366   -1.992840   -1.601537
     13          1           0        1.920084   -1.410332    0.049529
     14          1           0        0.469632   -2.422465   -0.324420
     15          7           0        1.429625    0.662991   -1.264679
     16          1           0        1.012729    1.576488   -1.400159
     17          1           0        2.096985    0.674911   -0.457373
     18          9           0        2.863515    0.329905    0.943081
 ---------------------------------------------------------------------

 SCF Done:  E(RHF) =  -864.554098722     A.U. after    2 cycles

 The electronic state is 1-A.
 Alpha  occ. eigenvalues --  -99.77069 -28.90140 -15.65170 -15.56002 -11.39708
 Alpha  occ. eigenvalues --  -11.34038 -11.31055 -11.25242 -11.23167 -10.34398
 Alpha  occ. eigenvalues --   -9.54410  -9.53717  -9.53669  -1.29850  -1.17815
 Alpha  occ. eigenvalues --   -1.16779  -1.02078  -0.93586  -0.84543  -0.72004
 Alpha  occ. eigenvalues --   -0.59249  -0.56325  -0.53203  -0.49606  -0.45027
 Alpha  occ. eigenvalues --   -0.44399  -0.42180  -0.40458  -0.39145  -0.38501
 Alpha  occ. eigenvalues --   -0.36313  -0.35731  -0.32495  -0.31329  -0.30258
 Alpha  occ. eigenvalues --   -0.26066  -0.20052   0.00763   0.01599   0.02864
 Alpha virt. eigenvalues --    0.13699   0.14278   0.14624   0.15136   0.15931
 Alpha virt. eigenvalues --    0.16831   0.17143   0.18134   0.19495   0.19752
 Alpha virt. eigenvalues --    0.21360   0.21743   0.22598   0.23820   0.24101

 Mulliken charges:
               1
     1  C    0.170681
     2  C    1.507602
     3  Cl  -0.123572
     4  H    1.677418
     5  C   -3.958208
     6  H    1.125389
     7  H    1.234363
     8  H    1.149097
     9  C    2.206657
    10  N   -2.648575
    11  C   -3.785019
    12  H    0.889245
    13  H    1.370365
    14  H    1.259881
    15  N   -3.216271
    16  H    0.495780
    17  H    0.235225
    18  F   -0.590059
 Sum of Mulliken charges =  -1.00000

 Dipole moment (field-independent basis, Debye):
    X=             -3.9336    Y=             -2.0807    Z=             -0.8397  Tot=              4.5285

 Test job not archived.
 1\1\GINC-SE187\SP\RHF\Aug-CC-pVDZ\C5H9Cl1F1N2(1-)\OHZDE\09-Apr-2025\0\
 \#t hf aug-cc-pvdz iop(5/13=1,5/36=2,99/5=2) pseudo=read geom=check gu
 ess=(read,tcheck) scf=(maxcycle=1)\\title\\-1,1\C,0,0.072855,-0.032423
 ,-0.0315\C,0,-0.477354,-0.156404,-1.490736\Cl,0,1.811107,0.557333,-0.1
 07137\H,0,0.327522,-0.638198,-2.06436\C,0,-0.740291,0.888332,0.861288\
 H,0,-0.4766,0.740199,1.911323\H,0,-0.521272,1.922236,0.58864\H,0,-1.81
 8387,0.728515,0.658231\C,0,0.161972,-1.37558,0.547207\N,0,0.226247,-2.
 460189,0.996336\C,0,-0.793387,1.221862,-2.059861\H,0,-0.971482,1.11910

 Normal termination of Gaussian 16 at Wed Apr  9 02:54:55 2025.
