 Gaussian 16, Revision C.01,

 ----------------------------------------------------------------------
 #t hf aug-cc-pvdz symm=none int=(grid=ultrafine) guess=(read,tcheck) s
 table=(opt,rrhf)
 ----------------------------------------------------------------------
 -----
 title
 -----
 Symbolic Z-matrix:
 Charge = -1 Multiplicity = 1

 SCF Done:  E(RHF) =  -515.183495344     A.U. after   17 cycles
 Normal termination of Gaussian 16 at Wed Apr  9 02:53:51 2025.
 Gaussian 16:  ES64L-G16RevC.01  3-Jul-2019

 ----------------------------------------------------------------------
 #t hf aug-cc-pvdz iop(5/13=1,5/36=2,99/5=2) pseudo=read geom=check gue
 ss=(read,tcheck) scf=(maxcycle=1)
 ----------------------------------------------------------------------
 -----
 title
 -----
 Structure from the checkpoint file:  "E2SN2_331_mol1.chk"
 Charge = -1 Multiplicity = 1

                         Standard orientation:
 ---------------------------------------------------------------------
 Center     Atomic      Atomic             Coordinates (Angstroms)
 Number     Number       Type             X           Y           Z
 ---------------------------------------------------------------------
      1          6           0        0.139606   -0.414864   -0.177200
      2          1           0       -1.391112   -0.021647   -1.589636
      3          9           0       -0.030794   -0.516244    1.410039
      4          1           0        0.670247    0.062137   -1.930399
      5          6           0       -1.256890    0.137457   -0.521130
      6          6           0        0.353488   -1.859898   -0.567210
      7          1           0        1.404813   -2.027127   -0.781124
      8          1           0        0.038098   -2.488939    0.268292
      9          1           0       -0.244357   -2.104724   -1.442666
     10          7           0        1.353729    0.419468   -0.116953
     11          8           0        1.230987    1.633496    0.114713
     12          8           0        2.445601   -0.166132   -0.021333
     13          6           0       -1.492717    1.613727   -0.220403
     14          1           0       -1.272864    1.829050    0.825866
     15          1           0       -0.867023    2.253891   -0.838880
     16          1           0       -2.548960    1.838442   -0.420324
     17          7           0       -2.233382   -0.742113    0.156624
     18          1           0       -3.159368   -0.377943   -0.043160
     19          1           0       -2.068379   -0.655880    1.152607
 ---------------------------------------------------------------------

 SCF Done:  E(RHF) =  -517.489729593     A.U. after    2 cycles

 The electronic state is 1-A.
 Alpha  occ. eigenvalues --  -29.03579 -20.89403 -20.89173 -15.81260 -15.59417
 Alpha  occ. eigenvalues --  -11.41726 -11.31926 -11.24924 -11.22574  -1.79504
 Alpha  occ. eigenvalues --   -1.49254  -1.24465  -1.09126  -0.94085  -0.87849
 Alpha  occ. eigenvalues --   -0.77230  -0.67952  -0.56450  -0.55094  -0.50256
 Alpha  occ. eigenvalues --   -0.46526  -0.45077  -0.43724  -0.42109  -0.40563
 Alpha  occ. eigenvalues --   -0.38146  -0.36573  -0.34937  -0.31386  -0.22355
 Alpha  occ. eigenvalues --   -0.19057  -0.18079  -0.14540  -0.11731  -0.07687
 Alpha  occ. eigenvalues --   -0.07184  -0.06372
 Alpha virt. eigenvalues --    0.12836   0.13939   0.14746   0.14934   0.15484
 Alpha virt. eigenvalues --    0.16370   0.17145   0.17242   0.17698   0.20039
 Alpha virt. eigenvalues --    0.22011   0.23554   0.24737   0.26076   0.26299

 Mulliken charges:
               1
     1  C    2.976861
     2  H    1.737545
     3  F   -0.321007
     4  H   -0.848468
     5  C    0.135895
     6  C   -4.309520
     7  H    1.226961
     8  H    1.194002
     9  H    1.199437
    10  N    4.448260
    11  O   -3.115291
    12  O   -3.152553
    13  C   -4.013981
    14  H    1.361646
    15  H    1.386754
    16  H    0.937621
    17  N   -2.926712
    18  H    0.565560
    19  H    0.516990
 Sum of Mulliken charges =  -1.00000

 Dipole moment (field-independent basis, Debye):
    X=             -3.7722    Y=             -0.3672    Z=              6.1743  Tot=              7.2447

 Test job not archived.
 1\1\GINC-SE071\SP\RHF\Aug-CC-pVDZ\C4H10F1N2O2(1-)\OHZDE\09-Apr-2025\0\
 \#t hf aug-cc-pvdz iop(5/13=1,5/36=2,99/5=2) pseudo=read geom=check gu
 ess=(read,tcheck) scf=(maxcycle=1)\\title\\-1,1\C,0,0.39079892,-0.0628
 7761,-0.04851799\H,0,1.66258454,1.62556132,-0.20480597\F,0,-1.19900221
 ,-0.07857455,-0.22438034\H,0,2.15751322,-0.23619402,0.6083678\C,0,0.60
 176106,1.46301859,-0.02240966\C,0,0.85812658,-0.73664269,-1.31880211\H
 ,0,1.15956744,-1.75655011,-1.09986723\H,0,0.02868873,-0.73717246,-2.02
 961754\H,0,1.69456732,-0.18908741,-1.74814011\N,0,0.38851315,-0.905999

 Normal termination of Gaussian 16 at Wed Apr  9 02:54:00 2025.
