 Gaussian 16, Revision C.01,

 ----------------------------------------------------------------------
 #t hf aug-cc-pvdz symm=none int=(grid=ultrafine) guess=(read,tcheck) s
 table=(opt,rrhf)
 ----------------------------------------------------------------------
 -----
 title
 -----
 Symbolic Z-matrix:
 Charge = -1 Multiplicity = 1

 SCF Done:  E(RHF) =  -534.387435871     A.U. after   15 cycles
 Normal termination of Gaussian 16 at Wed Apr  9 02:53:14 2025.
 Gaussian 16:  ES64L-G16RevC.01  3-Jul-2019

 ----------------------------------------------------------------------
 #t hf aug-cc-pvdz iop(5/13=1,5/36=2,99/5=2) pseudo=read geom=check gue
 ss=(read,tcheck) scf=(maxcycle=1)
 ----------------------------------------------------------------------
 -----
 title
 -----
 Structure from the checkpoint file:  "E2SN2_322_mol1.chk"
 Charge = -1 Multiplicity = 1

                         Standard orientation:
 ---------------------------------------------------------------------
 Center     Atomic      Atomic             Coordinates (Angstroms)
 Number     Number       Type             X           Y           Z
 ---------------------------------------------------------------------
      1          6           0        0.255261    0.296289    0.128824
      2          1           0       -0.951229    0.424970   -1.613871
      3          9           0       -0.257119   -0.618049    1.557754
      4          9           0        0.978228    1.194510   -1.342074
      5          6           0       -1.024549   -0.065924   -0.646951
      6          6           0        1.450284   -0.537020    0.023154
      7          7           0        2.433526   -1.181156    0.026225
      8          7           0        0.289069    1.532125    0.862490
      9          1           0        0.996396    2.094827    0.411167
     10          1           0        0.539121    1.307306    1.815371
     11          7           0       -2.227170    0.428637    0.022706
     12          1           0       -2.122743    1.437437    0.088681
     13          1           0       -2.134719    0.096407    0.979363
     14          7           0       -1.058518   -1.503623   -0.842933
     15          1           0       -1.975593   -1.726911   -1.213254
     16          1           0       -0.985541   -1.914135    0.081850
 ---------------------------------------------------------------------

 SCF Done:  E(RHF) =  -536.650088029     A.U. after    2 cycles

 The electronic state is 1-A.
 Alpha  occ. eigenvalues --  -28.99780 -28.95507 -15.60626 -15.60293 -15.58792
 Alpha  occ. eigenvalues --  -15.58577 -11.47217 -11.31220 -11.28479  -1.31389
 Alpha  occ. eigenvalues --   -1.21692  -1.13384  -1.09907  -0.92741  -0.76020
 Alpha  occ. eigenvalues --   -0.65934  -0.58810  -0.55020  -0.51039  -0.46179
 Alpha  occ. eigenvalues --   -0.41991  -0.40110  -0.39689  -0.37561  -0.33087
 Alpha  occ. eigenvalues --   -0.29923  -0.26846  -0.25070  -0.23703  -0.21482
 Alpha  occ. eigenvalues --   -0.14128  -0.06290  -0.05737  -0.02518  -0.02019
 Alpha  occ. eigenvalues --    0.01767
 Alpha virt. eigenvalues --    0.13957   0.14617   0.15113   0.16051   0.16440
 Alpha virt. eigenvalues --    0.17973   0.18249   0.20656   0.22324   0.24454
 Alpha virt. eigenvalues --    0.25332   0.25347   0.26641   0.26869   0.28351

 Mulliken charges:
               1
     1  C    4.629120
     2  H    1.424726
     3  F   -0.488896
     4  F   -0.726602
     5  C    1.275595
     6  C    2.375366
     7  N   -3.142096
     8  N   -3.615534
     9  H    0.398080
    10  H    0.537752
    11  N   -2.765876
    12  H    0.605973
    13  H    0.495786
    14  N   -3.112779
    15  H    0.544800
    16  H    0.564587
 Sum of Mulliken charges =  -1.00000

 Dipole moment (field-independent basis, Debye):
    X=             -3.6095    Y=              1.3921    Z=              1.8379  Tot=              4.2831

 Test job not archived.
 1\1\GINC-SE042\SP\RHF\Aug-CC-pVDZ\C3H7F2N4(1-)\OHZDE\09-Apr-2025\0\\#t
  hf aug-cc-pvdz iop(5/13=1,5/36=2,99/5=2) pseudo=read geom=check guess
 =(read,tcheck) scf=(maxcycle=1)\\title\\-1,1\C,0,0.70768359,0.07780515
 ,0.03265922\H,0,1.76201787,1.91361514,-0.13270458\F,0,-1.05919265,0.01
 983853,0.15584661\F,0,2.55809266,-0.02265711,-0.21007061\C,0,0.7194498
 4,1.61460272,-0.06249925\C,0,0.65115931,-0.74197917,-1.17498669\N,0,0.
 56005545,-1.46685307,-2.09582485\N,0,0.87371002,-0.53333885,1.32325425
 \H,0,1.74804537,-1.03698362,1.27307479\H,0,0.08937604,-1.15496025,1.46

 Normal termination of Gaussian 16 at Wed Apr  9 02:53:21 2025.
