 Gaussian 16, Revision C.01,

 ----------------------------------------------------------------------
 #t hf aug-cc-pvdz symm=none int=(grid=ultrafine) guess=(read,tcheck) s
 table=(opt,rrhf)
 ----------------------------------------------------------------------
 -----
 title
 -----
 Symbolic Z-matrix:
 Charge = -1 Multiplicity = 1

 SCF Done:  E(RHF) =  -1404.70731515     A.U. after   16 cycles
 Normal termination of Gaussian 16 at Wed Apr  9 02:39:22 2025.
 Gaussian 16:  ES64L-G16RevC.01  3-Jul-2019

 ----------------------------------------------------------------------
 #t hf aug-cc-pvdz iop(5/13=1,5/36=2,99/5=2) pseudo=read geom=check gue
 ss=(read,tcheck) scf=(maxcycle=1)
 ----------------------------------------------------------------------
 -----
 title
 -----
 Structure from the checkpoint file:  "E2SN2_168_mol1.chk"
 Charge = -1 Multiplicity = 1

                         Standard orientation:
 ---------------------------------------------------------------------
 Center     Atomic      Atomic             Coordinates (Angstroms)
 Number     Number       Type             X           Y           Z
 ---------------------------------------------------------------------
      1          6           0       -0.349641    0.004856   -0.224830
      2          1           0        0.655086   -1.053648    1.364424
      3         17           0        0.006554    2.255099   -0.483601
      4         17           0       -0.751762   -2.251016   -0.386577
      5          6           0        0.749340   -0.138100    0.786419
      6          1           0       -0.242798   -0.039393   -1.288345
      7          1           0        0.802219    0.715933    1.452619
      8          7           0       -1.695705    0.241310    0.317663
      9          8           0       -1.795199    0.282945    1.543049
     10          8           0       -2.609146    0.375159   -0.484198
     11          7           0        2.083297   -0.220893    0.122119
     12          8           0        3.047284   -0.147093    0.882380
     13          8           0        2.149895   -0.390481   -1.089191
 ---------------------------------------------------------------------

 SCF Done:  E(RHF) =  -1407.29126292     A.U. after    2 cycles

 The electronic state is 1-A.
 Alpha  occ. eigenvalues --  -99.69458 -99.69346 -20.99671 -20.98953 -20.98896
 Alpha  occ. eigenvalues --  -20.98595 -15.89863 -15.89264 -11.45972 -11.36076
 Alpha  occ. eigenvalues --  -10.26442 -10.26310  -9.46512  -9.46376  -9.46025
 Alpha  occ. eigenvalues --   -9.45947  -9.45854  -9.45794  -1.90261  -1.87250
 Alpha  occ. eigenvalues --   -1.58686  -1.58434  -1.20119  -1.06787  -1.06702
 Alpha  occ. eigenvalues --   -1.01739  -0.79385  -0.73349  -0.62873  -0.62424
 Alpha  occ. eigenvalues --   -0.58760  -0.57211  -0.54810  -0.49690  -0.47905
 Alpha  occ. eigenvalues --   -0.45075  -0.38313  -0.34044  -0.33679  -0.32682
 Alpha  occ. eigenvalues --   -0.32593  -0.30192  -0.26710  -0.26027  -0.20869
 Alpha  occ. eigenvalues --   -0.20505  -0.20190  -0.20012
 Alpha virt. eigenvalues --    0.15132   0.15452   0.16198   0.16289   0.19699
 Alpha virt. eigenvalues --    0.20743   0.22385   0.23170   0.24140   0.24645
 Alpha virt. eigenvalues --    0.25509   0.26269   0.27135   0.27709   0.28252

 Mulliken charges:
               1
     1  C   -1.766101
     2  H    1.489131
     3  Cl  -0.526249
     4  Cl  -0.515261
     5  C   -0.887954
     6  H    1.943523
     7  H    1.606107
     8  N    5.096699
     9  O   -2.906877
    10  O   -3.184617
    11  N    4.251276
    12  O   -2.855655
    13  O   -2.744022
 Sum of Mulliken charges =  -1.00000

 Dipole moment (field-independent basis, Debye):
    X=              0.9837    Y=             -0.0875    Z=              1.5815  Tot=              1.8645

 Test job not archived.
 1\1\GINC-SE094\SP\RHF\Aug-CC-pVDZ\C2H3Cl2N2O4(1-)\OHZDE\09-Apr-2025\0\
 \#t hf aug-cc-pvdz iop(5/13=1,5/36=2,99/5=2) pseudo=read geom=check gu
 ess=(read,tcheck) scf=(maxcycle=1)\\title\\-1,1\C,0,0.58968643,-0.0470
 1876,0.02226801\H,0,1.45781371,1.89948651,0.35858203\Cl,0,-1.68776493,
 -0.29766819,0.11070797\Cl,0,2.85482598,-0.10489272,-0.35537336\C,0,0.5
 1101486,1.45042107,0.07028726\H,0,0.52903566,-0.65767953,-0.85400418\H
 ,0,-0.27769659,1.79500264,0.72997625\N,0,0.75302516,-0.72406804,1.3172
 6642\O,0,0.82572102,-0.00155705,2.31018993\O,0,0.80668597,-1.94567983,

 Normal termination of Gaussian 16 at Wed Apr  9 02:39:29 2025.
