 Gaussian 16, Revision C.01,

 ----------------------------------------------------------------------
 #t hf aug-cc-pvdz symm=none int=(grid=ultrafine) guess=(read,tcheck) s
 table=(opt,rrhf)
 ----------------------------------------------------------------------
 -----
 title
 -----
 Symbolic Z-matrix:
 Charge = -1 Multiplicity = 1

 SCF Done:  E(RHF) =  -536.138459738     A.U. after   15 cycles
 Normal termination of Gaussian 16 at Wed Apr  9 02:40:50 2025.
 Gaussian 16:  ES64L-G16RevC.01  3-Jul-2019

 ----------------------------------------------------------------------
 #t hf aug-cc-pvdz iop(5/13=1,5/36=2,99/5=2) pseudo=read geom=check gue
 ss=(read,tcheck) scf=(maxcycle=1)
 ----------------------------------------------------------------------
 -----
 title
 -----
 Structure from the checkpoint file:  "E2SN2_195_mol2.chk"
 Charge = -1 Multiplicity = 1

                         Standard orientation:
 ---------------------------------------------------------------------
 Center     Atomic      Atomic             Coordinates (Angstroms)
 Number     Number       Type             X           Y           Z
 ---------------------------------------------------------------------
      1          6           0        0.687400    0.792555    0.242704
      2          6           0       -0.082506   -0.323144   -0.418300
      3          9           0        0.135969    2.034480   -0.170059
      4          1           0       -0.091001   -0.184000   -1.496985
      5          1           0        0.510437    0.778442    1.323789
      6          1           0        0.454670   -1.265203   -0.155553
      7          7           0        2.041797    0.688635   -0.164028
      8          1           0        2.628796    1.170060    0.505772
      9          1           0        2.263112   -0.341577   -0.136681
     10          7           0       -1.491375   -0.357840    0.020320
     11          8           0       -1.728235   -0.277090    1.227078
     12          8           0       -2.363527   -0.509947   -0.838811
     13          9           0        2.029116   -1.922641    0.049288
 ---------------------------------------------------------------------

 SCF Done:  E(RHF) =  -538.307381114     A.U. after    2 cycles

 The electronic state is 1-A.
 Alpha  occ. eigenvalues --  -29.10868 -28.91483 -20.96449 -20.96191 -15.85813
 Alpha  occ. eigenvalues --  -15.57282 -11.35991 -11.27402  -1.85642  -1.55250
 Alpha  occ. eigenvalues --   -1.25367  -1.06121  -0.87867  -0.73326  -0.60274
 Alpha  occ. eigenvalues --   -0.58619  -0.55500  -0.49648  -0.48190  -0.47551
 Alpha  occ. eigenvalues --   -0.42234  -0.39138  -0.28346  -0.24954  -0.23216
 Alpha  occ. eigenvalues --   -0.19853  -0.18677  -0.17388  -0.12266  -0.11580
 Alpha  occ. eigenvalues --   -0.00359   0.00707   0.02149
 Alpha virt. eigenvalues --    0.14462   0.16135   0.16258   0.19124   0.20196
 Alpha virt. eigenvalues --    0.23064   0.23715   0.24146   0.25391   0.25635
 Alpha virt. eigenvalues --    0.26600   0.28451   0.29585   0.30955   0.31972

 Mulliken charges:
               1
     1  C   -0.269686
     2  C   -1.665892
     3  F    0.296121
     4  H    1.472389
     5  H    1.831254
     6  H    1.007893
     7  N   -2.500260
     8  H    0.418919
     9  H    0.329564
    10  N    4.115527
    11  O   -2.839558
    12  O   -2.738788
    13  F   -0.457483
 Sum of Mulliken charges =  -1.00000

 Dipole moment (field-independent basis, Debye):
    X=             -3.4074    Y=              4.8317    Z=              0.3168  Tot=              5.9208

 Test job not archived.
 1\1\GINC-SE165\SP\RHF\Aug-CC-pVDZ\C2H5F2N2O2(1-)\OHZDE\09-Apr-2025\0\\
 #t hf aug-cc-pvdz iop(5/13=1,5/36=2,99/5=2) pseudo=read geom=check gue
 ss=(read,tcheck) scf=(maxcycle=1)\\title\\-1,1\C,0,0.068558,-0.003793,
 -0.011473\C,0,-0.586227,-0.002284,-1.370046\F,0,1.453072,-0.275867,-0.
 172483\H,0,-0.380194,-0.937478,-1.885757\H,0,0.05185,1.006555,0.41182\
 H,0,-1.681424,0.101653,-1.183473\N,0,-0.550165,-1.012374,0.769915\H,0,
 -0.398674,-0.813755,1.751022\H,0,-1.580123,-0.93619,0.559089\N,0,-0.07
 3686,1.082787,-2.229363\O,0,0.011552,2.214952,-1.749962\O,0,0.204273,0

 Normal termination of Gaussian 16 at Wed Apr  9 02:40:57 2025.
