 Gaussian 16, Revision C.01,

 ----------------------------------------------------------------------
 #t hf aug-cc-pvdz symm=none int=(grid=ultrafine) guess=(read,tcheck) s
 table=(opt,rrhf)
 ----------------------------------------------------------------------
 -----
 title
 -----
 Symbolic Z-matrix:
 Charge = -1 Multiplicity = 1

 SCF Done:  E(RHF) =  -518.377455624     A.U. after   15 cycles
 Normal termination of Gaussian 16 at Wed Apr  9 02:52:35 2025.
 Gaussian 16:  ES64L-G16RevC.01  3-Jul-2019

 ----------------------------------------------------------------------
 #t hf aug-cc-pvdz iop(5/13=1,5/36=2,99/5=2) pseudo=read geom=check gue
 ss=(read,tcheck) scf=(maxcycle=1)
 ----------------------------------------------------------------------
 -----
 title
 -----
 Structure from the checkpoint file:  "E2SN2_318_mol1.chk"
 Charge = -1 Multiplicity = 1

                         Standard orientation:
 ---------------------------------------------------------------------
 Center     Atomic      Atomic             Coordinates (Angstroms)
 Number     Number       Type             X           Y           Z
 ---------------------------------------------------------------------
      1          6           0        0.268572    0.287855    0.139803
      2          1           0       -0.886831    0.338966   -1.628026
      3          9           0       -0.149865   -0.770660    1.518534
      4          9           0        0.886334    1.358588   -1.242678
      5          6           0       -1.000287   -0.087561   -0.633344
      6          6           0        1.480951   -0.501644   -0.078447
      7          7           0        2.489901   -1.096288   -0.177060
      8          7           0        0.296970    1.437794    1.002465
      9          1           0        0.970849    2.070211    0.595780
     10          1           0        0.582246    1.115436    1.916118
     11          6           0       -2.226672    0.521016    0.039680
     12          1           0       -2.306261    0.138560    1.057538
     13          1           0       -2.150052    1.608414    0.081632
     14          1           0       -3.125322    0.247099   -0.526900
     15          7           0       -1.053531   -1.543744   -0.781997
     16          1           0       -1.920430   -1.789648   -1.246797
     17          1           0       -1.061180   -1.922715    0.157936
 ---------------------------------------------------------------------

 SCF Done:  E(RHF) =  -520.594023995     A.U. after    2 cycles

 The electronic state is 1-A.
 Alpha  occ. eigenvalues --  -28.98202 -28.95359 -15.59765 -15.59648 -15.58363
 Alpha  occ. eigenvalues --  -11.47157 -11.30905 -11.29055 -11.22978  -1.28596
 Alpha  occ. eigenvalues --   -1.18601  -1.12667  -0.96253  -0.89545  -0.73002
 Alpha  occ. eigenvalues --   -0.64918  -0.58149  -0.53589  -0.46603  -0.43625
 Alpha  occ. eigenvalues --   -0.41773  -0.40763  -0.38165  -0.37096  -0.36134
 Alpha  occ. eigenvalues --   -0.31716  -0.26995  -0.26188  -0.24240  -0.20962
 Alpha  occ. eigenvalues --   -0.13227  -0.04870  -0.04546  -0.02247  -0.01599
 Alpha  occ. eigenvalues --    0.02304
 Alpha virt. eigenvalues --    0.13020   0.14283   0.14832   0.15450   0.15881
 Alpha virt. eigenvalues --    0.16432   0.18024   0.18304   0.20658   0.22298
 Alpha virt. eigenvalues --    0.23638   0.24720   0.25280   0.26228   0.27475

 Mulliken charges:
               1
     1  C    6.042917
     2  H    1.424123
     3  F   -0.500462
     4  F   -0.734806
     5  C   -0.510260
     6  C    1.199261
     7  N   -2.995399
     8  N   -3.847716
     9  H    0.376046
    10  H    0.516681
    11  C   -3.571773
    12  H    1.216235
    13  H    1.359076
    14  H    1.057633
    15  N   -3.150406
    16  H    0.575002
    17  H    0.543849
 Sum of Mulliken charges =  -1.00000

 Dipole moment (field-independent basis, Debye):
    X=             -4.4890    Y=              0.9478    Z=              1.2639  Tot=              4.7589

 Test job not archived.
 1\1\GINC-SE424\SP\RHF\Aug-CC-pVDZ\C4H8F2N3(1-)\OHZDE\09-Apr-2025\0\\#t
  hf aug-cc-pvdz iop(5/13=1,5/36=2,99/5=2) pseudo=read geom=check guess
 =(read,tcheck) scf=(maxcycle=1)\\title\\-1,1\C,0,0.65289646,-0.0085158
 ,0.0155158\H,0,1.69133034,1.8266367,-0.1135542\F,0,-1.12799526,-0.1038
 0866,-0.11012834\F,0,2.50549325,-0.08104665,0.05999705\C,0,0.65054886,
 1.52366611,-0.01778515\C,0,0.76560315,-0.73626634,-1.24879519\N,0,0.82
 935244,-1.3973321,-2.21845152\N,0,0.62533676,-0.72201294,1.26351958\H,
 0,1.49812232,-1.22745343,1.31077071\H,0,-0.17118466,-1.34220855,1.2323

 Normal termination of Gaussian 16 at Wed Apr  9 02:52:42 2025.
