 Gaussian 16, Revision C.01,

 ----------------------------------------------------------------------
 #t hf aug-cc-pvdz symm=none int=(grid=ultrafine) guess=(read,tcheck) s
 table=(opt,rrhf)
 ----------------------------------------------------------------------
 -----
 title
 -----
 Symbolic Z-matrix:
 Charge = -1 Multiplicity = 1

 SCF Done:  E(RHF) =  -555.106363615     A.U. after   16 cycles
 Normal termination of Gaussian 16 at Wed Apr  9 02:48:29 2025.
 Gaussian 16:  ES64L-G16RevC.01  3-Jul-2019

 ----------------------------------------------------------------------
 #t hf aug-cc-pvdz iop(5/13=1,5/36=2,99/5=2) pseudo=read geom=check gue
 ss=(read,tcheck) scf=(maxcycle=1)
 ----------------------------------------------------------------------
 -----
 title
 -----
 Structure from the checkpoint file:  "E2SN2_273_mol2.chk"
 Charge = -1 Multiplicity = 1

                         Standard orientation:
 ---------------------------------------------------------------------
 Center     Atomic      Atomic             Coordinates (Angstroms)
 Number     Number       Type             X           Y           Z
 ---------------------------------------------------------------------
      1          6           0        0.204573    0.331116   -0.448236
      2          6           0       -0.608452   -1.003563   -0.598302
      3          9           0        0.264782    0.889319   -1.758354
      4          1           0       -0.462166   -1.251962   -1.657156
      5          6           0       -0.403789    1.377656    0.383785
      6          7           0       -0.945157    2.372770    0.706007
      7          6           0        1.596659    0.061935   -0.065936
      8          7           0        2.745800   -0.165002    0.027251
      9          6           0       -2.079285   -0.736772   -0.324242
     10          1           0       -2.458795    0.106535   -0.907859
     11          1           0       -2.653330   -1.634328   -0.563007
     12          1           0       -2.182575   -0.512163    0.738678
     13          7           0       -0.159945   -2.120001    0.208558
     14          1           0        0.764181   -2.396972   -0.107266
     15          1           0       -0.037356   -1.689682    1.139436
     16          9           0        0.100431   -0.157988    1.878582
 ---------------------------------------------------------------------

 SCF Done:  E(RHF) =  -557.440511581     A.U. after    2 cycles

 The electronic state is 1-A.
 Alpha  occ. eigenvalues --  -29.15277 -28.92704 -15.64154 -15.61882 -15.58193
 Alpha  occ. eigenvalues --  -11.47041 -11.34691 -11.33111 -11.31725 -11.25208
 Alpha  occ. eigenvalues --   -1.28936  -1.18362  -1.15842  -1.07216  -0.95554
 Alpha  occ. eigenvalues --   -0.76741  -0.68158  -0.67106  -0.56709  -0.53577
 Alpha  occ. eigenvalues --   -0.45928  -0.43134  -0.41275  -0.40014  -0.39201
 Alpha  occ. eigenvalues --   -0.35944  -0.34504  -0.33390  -0.30926  -0.30107
 Alpha  occ. eigenvalues --   -0.28270  -0.25194  -0.22150  -0.15606  -0.13309
 Alpha  occ. eigenvalues --   -0.01643  -0.00597   0.00097
 Alpha virt. eigenvalues --    0.13236   0.14277   0.15044   0.15560   0.17325
 Alpha virt. eigenvalues --    0.18677   0.19720   0.20209   0.21579   0.23625
 Alpha virt. eigenvalues --    0.23880   0.24135   0.24832   0.25350   0.25577

 Mulliken charges:
               1
     1  C    0.386829
     2  C    1.798733
     3  F   -0.157930
     4  H    1.443283
     5  C    3.449975
     6  N   -3.288527
     7  C    2.844687
     8  N   -3.187496
     9  C   -4.507506
    10  H    1.164220
    11  H    1.006575
    12  H    1.421338
    13  N   -3.239400
    14  H    0.470126
    15  H    0.256818
    16  F   -0.861726
 Sum of Mulliken charges =  -1.00000

 Dipole moment (field-independent basis, Debye):
    X=             -1.4725    Y=             -1.7240    Z=             -4.5607  Tot=              5.0931

 Test job not archived.
 1\1\GINC-SE368\SP\RHF\Aug-CC-pVDZ\C5H6F2N3(1-)\OHZDE\09-Apr-2025\0\\#t
  hf aug-cc-pvdz iop(5/13=1,5/36=2,99/5=2) pseudo=read geom=check guess
 =(read,tcheck) scf=(maxcycle=1)\\title\\-1,1\C,0,-0.054156,0.012858,-0
 .026519\C,0,-0.376408,0.104099,-1.560379\F,0,1.354746,0.201692,0.07816
 9\H,0,0.585205,-0.157046,-2.020138\C,0,-0.642082,1.05258,0.828425\N,0,
 -0.748995,2.001523,1.517799\C,0,-0.314121,-1.337457,0.488828\N,0,-0.31
 7815,-2.45761,0.843726\C,0,-0.75337,1.532542,-1.91687\H,0,-0.016501,2.
 254059,-1.553221\H,0,-0.842047,1.615985,-3.001912\H,0,-1.719819,1.7446

 Normal termination of Gaussian 16 at Wed Apr  9 02:48:35 2025.
