 Gaussian 16, Revision C.01,

 ----------------------------------------------------------------------
 #t hf aug-cc-pvdz symm=none int=(grid=ultrafine) guess=(read,tcheck) s
 table=(opt,rrhf)
 ----------------------------------------------------------------------
 -----
 title
 -----
 Symbolic Z-matrix:
 Charge = -1 Multiplicity = 1

 SCF Done:  E(RHF) =  -931.190307861     A.U. after   16 cycles
 Normal termination of Gaussian 16 at Wed Apr  9 02:37:25 2025.
 Gaussian 16:  ES64L-G16RevC.01  3-Jul-2019

 ----------------------------------------------------------------------
 #t hf aug-cc-pvdz iop(5/13=1,5/36=2,99/5=2) pseudo=read geom=check gue
 ss=(read,tcheck) scf=(maxcycle=1)
 ----------------------------------------------------------------------
 -----
 title
 -----
 Structure from the checkpoint file:  "E2SN2_150_mol2.chk"
 Charge = -1 Multiplicity = 1

                         Standard orientation:
 ---------------------------------------------------------------------
 Center     Atomic      Atomic             Coordinates (Angstroms)
 Number     Number       Type             X           Y           Z
 ---------------------------------------------------------------------
      1          6           0       -0.439583   -0.035245   -0.385324
      2          6           0        0.686710    0.029354    0.667596
      3         17           0       -1.980457    0.675687    0.480061
      4          1           0        0.821752    1.107619    0.808514
      5          7           0       -0.048717    0.662991   -1.509878
      6          1           0        0.390718    1.604288   -1.161434
      7          1           0       -0.787729    0.739326   -2.195523
      8          6           0       -0.841068   -1.424386   -0.651870
      9          7           0       -1.117057   -2.545217   -0.875196
     10          6           0        1.927779   -0.477547    0.052792
     11          7           0        2.939997   -0.949019   -0.315104
     12          7           0        0.355027   -0.682241    1.890232
     13          1           0        0.575672   -1.666885    1.797791
     14          1           0        0.905252   -0.306131    2.650626
     15          9           0        0.983816    2.564050   -0.276728
 ---------------------------------------------------------------------

 SCF Done:  E(RHF) =  -933.483928068     A.U. after    2 cycles

 The electronic state is 1-A.
 Alpha  occ. eigenvalues --  -99.74739 -28.93356 -15.66152 -15.64435 -15.64134
 Alpha  occ. eigenvalues --  -15.59527 -11.42980 -11.37400 -11.34028 -11.30911
 Alpha  occ. eigenvalues --  -10.31984  -9.52005  -9.51340  -9.51273  -1.35191
 Alpha  occ. eigenvalues --   -1.23071  -1.17648  -1.15868  -1.13422  -0.95588
 Alpha  occ. eigenvalues --   -0.84795  -0.66499  -0.60002  -0.57970  -0.54882
 Alpha  occ. eigenvalues --   -0.52310  -0.46982  -0.44775  -0.42454  -0.40415
 Alpha  occ. eigenvalues --   -0.38770  -0.36916  -0.34226  -0.33062  -0.31628
 Alpha  occ. eigenvalues --   -0.30101  -0.28120  -0.25723  -0.24151  -0.02176
 Alpha  occ. eigenvalues --   -0.01834  -0.00087
 Alpha virt. eigenvalues --    0.12935   0.14646   0.15714   0.17194   0.18142
 Alpha virt. eigenvalues --    0.19063   0.19829   0.20295   0.21168   0.22242
 Alpha virt. eigenvalues --    0.22866   0.23232   0.24021   0.24737   0.25881

 Mulliken charges:
               1
     1  C    3.076164
     2  C    0.682784
     3  Cl  -0.213558
     4  H    1.128518
     5  N   -3.904970
     6  H    0.084719
     7  H    0.646816
     8  C    2.396397
     9  N   -2.692055
    10  C    2.906492
    11  N   -2.784984
    12  N   -3.103342
    13  H    0.597899
    14  H    0.546634
    15  F   -0.367516
 Sum of Mulliken charges =  -1.00000

 Dipole moment (field-independent basis, Debye):
    X=             -1.1598    Y=             -1.4539    Z=              2.0413  Tot=              2.7615

 Test job not archived.
 1\1\GINC-SE460\SP\RHF\Aug-CC-pVDZ\C4H5Cl1F1N4(1-)\OHZDE\09-Apr-2025\0\
 \#t hf aug-cc-pvdz iop(5/13=1,5/36=2,99/5=2) pseudo=read geom=check gu
 ess=(read,tcheck) scf=(maxcycle=1)\\title\\-1,1\C,0,-0.021537,-0.01415
 8,-1.513395\C,0,0.082904,0.101573,0.021873\Cl,0,0.39039,1.722356,-2.17
 9312\H,0,1.14971,0.299259,0.175482\N,0,0.832082,-1.006158,-1.951805\H,
 0,1.782615,-0.861089,-1.426451\H,0,0.88011,-1.058956,-2.96026\C,0,-1.4
 17071,-0.192321,-1.940818\N,0,-2.535952,-0.372247,-2.253932\C,0,-0.192
 398,-1.22352,0.607979\N,0,-0.487699,-2.211352,1.17296\N,0,-0.786078,1.

 Normal termination of Gaussian 16 at Wed Apr  9 02:37:32 2025.
