 Gaussian 16, Revision C.01,

 ----------------------------------------------------------------------
 #t hf aug-cc-pvdz symm=none int=(grid=ultrafine) guess=(read,tcheck) s
 table=(opt,rrhf)
 ----------------------------------------------------------------------
 -----
 title
 -----
 Symbolic Z-matrix:
 Charge = -1 Multiplicity = 1

 SCF Done:  E(RHF) =  -453.819632967     A.U. after   16 cycles
 Normal termination of Gaussian 16 at Wed Apr  9 03:00:40 2025.
 Gaussian 16:  ES64L-G16RevC.01  3-Jul-2019

 ----------------------------------------------------------------------
 #t hf aug-cc-pvdz iop(5/13=1,5/36=2,99/5=2) pseudo=read geom=check gue
 ss=(read,tcheck) scf=(maxcycle=1)
 ----------------------------------------------------------------------
 -----
 title
 -----
 Structure from the checkpoint file:  "E2SN2_62_mol2.chk"
 Charge = -1 Multiplicity = 1

                         Standard orientation:
 ---------------------------------------------------------------------
 Center     Atomic      Atomic             Coordinates (Angstroms)
 Number     Number       Type             X           Y           Z
 ---------------------------------------------------------------------
      1          6           0        0.470904   -0.885502    0.156036
      2          6           0       -0.529208    0.206839    0.508516
      3          9           0        0.275673   -1.412759   -1.113687
      4          1           0       -0.393423    0.198533    1.600924
      5          1           0        0.328921   -1.670837    0.907254
      6          6           0        1.852756   -0.392000    0.240845
      7          7           0        2.973094   -0.042479    0.254378
      8          6           0       -1.884286   -0.235993    0.225875
      9          7           0       -2.988550   -0.603604    0.060849
     10          6           0       -0.255412    1.493963   -0.100340
     11          7           0       -0.027260    2.563257   -0.536122
     12          1           0       -0.046072   -0.356918    2.875674
 ---------------------------------------------------------------------

 SCF Done:  E(RHF) =  -455.748572478     A.U. after    2 cycles

 The electronic state is 1-A.
 Alpha  occ. eigenvalues --  -29.18776 -15.67924 -15.66803 -15.66718 -11.45130
 Alpha  occ. eigenvalues --  -11.38950 -11.35768 -11.34782 -11.33010  -1.29934
 Alpha  occ. eigenvalues --   -1.20870  -1.18363  -1.13582  -0.97927  -0.72287
 Alpha  occ. eigenvalues --   -0.68677  -0.61539  -0.57832  -0.52969  -0.44113
 Alpha  occ. eigenvalues --   -0.43612  -0.41444  -0.35826  -0.35507  -0.34679
 Alpha  occ. eigenvalues --   -0.34496  -0.33315  -0.32288  -0.27927  -0.19268
 Alpha  occ. eigenvalues --   -0.18473  -0.12351
 Alpha virt. eigenvalues --    0.15247   0.16938   0.18225   0.19017   0.19719
 Alpha virt. eigenvalues --    0.20024   0.21299   0.21569   0.22396   0.23138
 Alpha virt. eigenvalues --    0.23895   0.24492   0.24981   0.25837   0.26368

 Mulliken charges:
               1
     1  C    0.541768
     2  C   -1.776550
     3  F    0.189590
     4  H    1.836464
     5  H    1.454802
     6  C    0.896795
     7  N   -2.294600
     8  C    2.120593
     9  N   -2.615275
    10  C    1.784201
    11  N   -2.511937
    12  H   -0.625852
 Sum of Mulliken charges =  -1.00000

 Dipole moment (field-independent basis, Debye):
    X=             -0.0572    Y=             -2.3639    Z=             -9.1172  Tot=              9.4189

 Test job not archived.
 1\1\GINC-SE222\SP\RHF\Aug-CC-pVDZ\C5H3F1N3(1-)\OHZDE\09-Apr-2025\0\\#t
  hf aug-cc-pvdz iop(5/13=1,5/36=2,99/5=2) pseudo=read geom=check guess
 =(read,tcheck) scf=(maxcycle=1)\\title\\-1,1\C,0,-0.185197,-0.077749,-
 1.461846\C,0,-0.006898,0.032879,0.046016\F,0,-1.459584,-0.488204,-1.83
 0323\H,0,1.093495,0.022739,0.075926\H,0,0.551171,-0.818606,-1.793706\C
 ,0,0.09569,1.201861,-2.128143\N,0,0.269786,2.206656,-2.709162\C,0,-0.4
 80325,-1.174251,0.702466\N,0,-0.80144,-2.168594,1.240923\C,0,-0.592373
 ,1.22064,0.636609\N,0,-1.009427,2.201786,1.135375\H,0,2.416154,-0.2669

 Normal termination of Gaussian 16 at Wed Apr  9 03:00:46 2025.
