 Gaussian 16, Revision C.01,

 ----------------------------------------------------------------------
 #t hf aug-cc-pvdz symm=none int=(grid=ultrafine) guess=(read,tcheck) s
 table=(opt,rrhf)
 ----------------------------------------------------------------------
 -----
 title
 -----
 Symbolic Z-matrix:
 Charge = -1 Multiplicity = 1

 SCF Done:  E(RHF) =  -931.267047513     A.U. after   14 cycles
 Normal termination of Gaussian 16 at Wed Apr  9 02:59:50 2025.
 Gaussian 16:  ES64L-G16RevC.01  3-Jul-2019

 ----------------------------------------------------------------------
 #t hf aug-cc-pvdz iop(5/13=1,5/36=2,99/5=2) pseudo=read geom=check gue
 ss=(read,tcheck) scf=(maxcycle=1)
 ----------------------------------------------------------------------
 -----
 title
 -----
 Structure from the checkpoint file:  "E2SN2_416_mol2.chk"
 Charge = -1 Multiplicity = 1

                         Standard orientation:
 ---------------------------------------------------------------------
 Center     Atomic      Atomic             Coordinates (Angstroms)
 Number     Number       Type             X           Y           Z
 ---------------------------------------------------------------------
      1          6           0       -0.140130   -0.128605    0.959331
      2          6           0       -0.576787    0.067381   -0.508446
      3          9           0       -1.273810   -0.231485    1.752615
      4          1           0        0.361991    0.139645   -1.084832
      5          7           0        0.533037   -1.394329    1.040909
      6          1           0        0.778558   -1.559765    2.011693
      7          1           0        1.400511   -1.299608    0.508695
      8          7           0        0.537722    1.069333    1.368954
      9          1           0        0.775737    0.977427    2.351294
     10          1           0        1.408966    1.110183    0.835999
     11          6           0       -1.352246    1.298946   -0.674195
     12          7           0       -2.000196    2.260990   -0.852713
     13          6           0       -1.362698   -1.072288   -0.987069
     14          7           0       -2.020481   -1.950598   -1.403175
     15         17           0        2.822301    0.107359   -0.835996
 ---------------------------------------------------------------------

 SCF Done:  E(RHF) =  -933.546878364     A.U. after    2 cycles

 The electronic state is 1-A.
 Alpha  occ. eigenvalues --  -99.64225 -29.15878 -15.66487 -15.66468 -15.62876
 Alpha  occ. eigenvalues --  -15.62744 -11.44964 -11.39470 -11.35896 -11.32998
 Alpha  occ. eigenvalues --  -10.20950  -9.41016  -9.40657  -9.40641  -1.38187
 Alpha  occ. eigenvalues --   -1.22431  -1.18289  -1.16190  -1.06365  -1.00416
 Alpha  occ. eigenvalues --   -0.88447  -0.69501  -0.68290  -0.57969  -0.54347
 Alpha  occ. eigenvalues --   -0.52055  -0.51982  -0.46790  -0.43293  -0.41148
 Alpha  occ. eigenvalues --   -0.35778  -0.34839  -0.34018  -0.32563  -0.31764
 Alpha  occ. eigenvalues --   -0.28380  -0.28283  -0.27852  -0.25697  -0.23411
 Alpha  occ. eigenvalues --   -0.16878  -0.16015
 Alpha virt. eigenvalues --    0.12832   0.14206   0.16267   0.17171   0.17565
 Alpha virt. eigenvalues --    0.19608   0.19891   0.19925   0.21301   0.23280
 Alpha virt. eigenvalues --    0.23733   0.24147   0.24630   0.25053   0.26323

 Mulliken charges:
               1
     1  C    6.175791
     2  C   -1.727463
     3  F    0.297448
     4  H    1.599353
     5  N   -3.686938
     6  H    0.530378
     7  H    0.451311
     8  N   -3.686513
     9  H    0.528708
    10  H    0.452320
    11  C    2.132348
    12  N   -2.610547
    13  C    2.122014
    14  N   -2.608389
    15  Cl  -0.969820
 Sum of Mulliken charges =  -1.00000

 Dipole moment (field-independent basis, Debye):
    X=             -5.2710    Y=             -0.8610    Z=              6.4834  Tot=              8.3999

 Test job not archived.
 1\1\GINC-SE249\SP\RHF\Aug-CC-pVDZ\C4H5Cl1F1N4(1-)\OHZDE\09-Apr-2025\0\
 \#t hf aug-cc-pvdz iop(5/13=1,5/36=2,99/5=2) pseudo=read geom=check gu
 ess=(read,tcheck) scf=(maxcycle=1)\\title\\-1,1\C,0,-0.00871,0.007875,
 -0.007477\C,0,-0.468758,0.046308,-1.48068\F,0,1.378243,0.023024,0.0278
 3\H,0,-1.571989,0.034489,-1.442097\N,0,-0.447455,1.227476,0.610539\H,0
 ,-0.105061,1.23868,1.565898\H,0,-1.468346,1.188876,0.642598\N,0,-0.417
 394,-1.25666,0.53682\H,0,-0.066771,-1.319644,1.487181\H,0,-1.438605,-1
 .242014,0.577913\C,0,0.010533,-1.124024,-2.219708\N,0,0.392901,-2.0296

 Normal termination of Gaussian 16 at Wed Apr  9 02:59:57 2025.
