 Gaussian 16, Revision C.01,

 ----------------------------------------------------------------------
 #t hf aug-cc-pvdz symm=none int=(grid=ultrafine) guess=(read,tcheck) s
 table=(opt,rrhf)
 ----------------------------------------------------------------------
 -----
 title
 -----
 Symbolic Z-matrix:
 Charge = -1 Multiplicity = 1

 SCF Done:  E(RHF) =  -1222.59903164     A.U. after   15 cycles
 Normal termination of Gaussian 16 at Wed Apr  9 03:02:59 2025.
 Gaussian 16:  ES64L-G16RevC.01  3-Jul-2019

 ----------------------------------------------------------------------
 #t hf aug-cc-pvdz iop(5/13=1,5/36=2,99/5=2) pseudo=read geom=check gue
 ss=(read,tcheck) scf=(maxcycle=1)
 ----------------------------------------------------------------------
 -----
 title
 -----
 Structure from the checkpoint file:  "E2SN2_8_mol2.chk"
 Charge = -1 Multiplicity = 1

                         Standard orientation:
 ---------------------------------------------------------------------
 Center     Atomic      Atomic             Coordinates (Angstroms)
 Number     Number       Type             X           Y           Z
 ---------------------------------------------------------------------
      1          6           0       -1.118103    0.053022    0.381978
      2          6           0        0.324053   -0.003097   -0.168997
      3         17           0       -2.157746   -1.146867   -0.498178
      4          1           0        0.897530    0.718311    0.432470
      5          6           0       -1.160346   -0.287721    1.864089
      6          1           0       -0.579206    0.457733    2.413859
      7          1           0       -2.187024   -0.294879    2.234720
      8          1           0       -0.691324   -1.261693    1.991264
      9          6           0       -1.718575    1.368302    0.149642
     10          7           0       -2.184084    2.436577   -0.003410
     11          6           0        0.440093    0.419746   -1.627714
     12          1           0       -0.059140   -0.302384   -2.281211
     13          1           0        1.504806    0.450056   -1.864928
     14          1           0        0.012734    1.410027   -1.811548
     15          7           0        0.887921   -1.310331    0.121542
     16          1           0        0.758084   -1.911737   -0.685036
     17          1           0        1.893570   -1.152634    0.228179
     18         17           0        3.741298    0.246982    0.199432
 ---------------------------------------------------------------------

 SCF Done:  E(RHF) =  -1224.57165412     A.U. after    2 cycles

 The electronic state is 1-A.
 Alpha  occ. eigenvalues --  -99.79117 -99.60799 -15.67446 -15.59461 -11.42131
 Alpha  occ. eigenvalues --  -11.35966 -11.33309 -11.29733 -11.25619 -10.36504
 Alpha  occ. eigenvalues --  -10.17443  -9.56492  -9.55842  -9.55764  -9.37417
 Alpha  occ. eigenvalues --   -9.37100  -9.37034  -1.32630  -1.20288  -1.19033
 Alpha  occ. eigenvalues --   -1.05389  -0.96699  -0.96301  -0.86117  -0.75665
 Alpha  occ. eigenvalues --   -0.63791  -0.56286  -0.53701  -0.50635  -0.47718
 Alpha  occ. eigenvalues --   -0.47542  -0.44776  -0.43177  -0.41973  -0.40266
 Alpha  occ. eigenvalues --   -0.38167  -0.36268  -0.36030  -0.33650  -0.31743
 Alpha  occ. eigenvalues --   -0.25307  -0.24498  -0.24462  -0.22362
 Alpha virt. eigenvalues --    0.12281   0.13267   0.14578   0.14832   0.15386
 Alpha virt. eigenvalues --    0.15898   0.16209   0.17074   0.17835   0.18662
 Alpha virt. eigenvalues --    0.19651   0.20156   0.20933   0.22919   0.23946

 Mulliken charges:
               1
     1  C    0.329495
     2  C    1.873011
     3  Cl  -0.090974
     4  H    1.834094
     5  C   -3.939586
     6  H    1.281326
     7  H    1.217897
     8  H    1.416067
     9  C    2.093423
    10  N   -2.626496
    11  C   -4.556143
    12  H    1.218057
    13  H    1.125171
    14  H    1.213764
    15  N   -3.353492
    16  H    0.557151
    17  H    0.384463
    18  Cl  -0.977229
 Sum of Mulliken charges =  -1.00000

 Dipole moment (field-independent basis, Debye):
    X=            -10.6514    Y=             -2.3143    Z=             -0.0838  Tot=             10.9003

 Test job not archived.
 1\1\GINC-SE398\SP\RHF\Aug-CC-pVDZ\C5H9Cl2N2(1-)\OHZDE\09-Apr-2025\0\\#
 t hf aug-cc-pvdz iop(5/13=1,5/36=2,99/5=2) pseudo=read geom=check gues
 s=(read,tcheck) scf=(maxcycle=1)\\title\\-1,1\C,0,-0.469603,0.022613,-
 1.579357\C,0,0.141056,-0.054784,-0.162444\Cl,0,-2.25319,0.339243,-1.46
 1761\H,0,1.219802,-0.210399,-0.314623\C,0,0.153945,1.14713,-2.392494\H
 ,0,1.221201,0.943341,-2.515403\H,0,-0.316834,1.227674,-3.374007\H,0,0.
 035821,2.068276,-1.824768\C,0,-0.322228,-1.25186,-2.285407\N,0,-0.1681
 25,-2.26339,-2.863674\C,0,-0.379208,-1.221874,0.666618\H,0,-1.438584,-

 Normal termination of Gaussian 16 at Wed Apr  9 03:03:08 2025.
