 Gaussian 16, Revision C.01,

 ----------------------------------------------------------------------
 #t hf aug-cc-pvdz symm=none int=(grid=ultrafine) guess=(read,tcheck) s
 table=(opt,rrhf)
 ----------------------------------------------------------------------
 -----
 title
 -----
 Symbolic Z-matrix:
 Charge = -1 Multiplicity = 1

 SCF Done:  E(RHF) =  -426.628773958     A.U. after   13 cycles
 Normal termination of Gaussian 16 at Wed Apr  9 02:57:59 2025.
 Gaussian 16:  ES64L-G16RevC.01  3-Jul-2019

 ----------------------------------------------------------------------
 #t hf aug-cc-pvdz iop(5/13=1,5/36=2,99/5=2) pseudo=read geom=check gue
 ss=(read,tcheck) scf=(maxcycle=1)
 ----------------------------------------------------------------------
 -----
 title
 -----
 Structure from the checkpoint file:  "E2SN2_399_mol1.chk"
 Charge = -1 Multiplicity = 1

                         Standard orientation:
 ---------------------------------------------------------------------
 Center     Atomic      Atomic             Coordinates (Angstroms)
 Number     Number       Type             X           Y           Z
 ---------------------------------------------------------------------
      1          6           0        0.298295    0.125148    0.007426
      2          1           0       -0.293213   -1.705538   -0.889718
      3          9           0       -0.869981    1.567627    0.008682
      4          9           0        1.558393   -1.302513    0.094220
      5          6           0       -0.741459   -0.732698   -0.699378
      6          1           0       -0.933612   -0.228793   -1.657943
      7          7           0        0.326979    0.182597    1.442710
      8          1           0        0.309903    1.161105    1.691224
      9          1           0        1.193023   -0.267042    1.703517
     10          6           0        1.301298    0.859179   -0.863371
     11          1           0        2.183199    1.093988   -0.265135
     12          1           0        1.624611    0.202757   -1.671204
     13          1           0        0.858750    1.772508   -1.257022
     14          7           0       -1.963701   -0.886078    0.101938
     15          1           0       -2.729105   -1.044720   -0.546298
     16          1           0       -2.101021    0.044294    0.485859
 ---------------------------------------------------------------------

 SCF Done:  E(RHF) =  -428.454833889     A.U. after    2 cycles

 The electronic state is 1-A.
 Alpha  occ. eigenvalues --  -28.93729 -28.91713 -15.56024 -15.55898 -11.38392
 Alpha  occ. eigenvalues --  -11.24387 -11.20894  -1.23396  -1.13647  -0.95960
 Alpha  occ. eigenvalues --   -0.82089  -0.64661  -0.59450  -0.49924  -0.47650
 Alpha  occ. eigenvalues --   -0.44497  -0.42309  -0.39191  -0.35651  -0.32233
 Alpha  occ. eigenvalues --   -0.30642  -0.27052  -0.21014  -0.18681  -0.08828
 Alpha  occ. eigenvalues --   -0.02131  -0.00855   0.00824   0.01830   0.04254
 Alpha virt. eigenvalues --    0.14411   0.15139   0.15544   0.15781   0.16722
 Alpha virt. eigenvalues --    0.17008   0.17133   0.18391   0.19693   0.23285
 Alpha virt. eigenvalues --    0.24945   0.26309   0.27387   0.28347   0.29523

 Mulliken charges:
               1
     1  C    6.490269
     2  H    1.128266
     3  F   -0.723073
     4  F   -0.836528
     5  C   -2.700975
     6  H    1.585241
     7  N   -4.121591
     8  H    0.525117
     9  H    0.408305
    10  C   -4.967413
    11  H    1.162644
    12  H    1.169207
    13  H    1.088370
    14  N   -2.302227
    15  H    0.503691
    16  H    0.590699
 Sum of Mulliken charges =  -1.00000

 Dipole moment (field-independent basis, Debye):
    X=             -0.7503    Y=              1.3072    Z=             -0.7362  Tot=              1.6774

 Test job not archived.
 1\1\GINC-SE126\SP\RHF\Aug-CC-pVDZ\C3H9F2N2(1-)\OHZDE\09-Apr-2025\0\\#t
  hf aug-cc-pvdz iop(5/13=1,5/36=2,99/5=2) pseudo=read geom=check guess
 =(read,tcheck) scf=(maxcycle=1)\\title\\-1,1\C,0,0.62742942,-0.0242518
 1,-0.02860505\H,0,1.70644843,1.79809657,0.11605013\F,0,-1.22459645,0.0
 1135589,-0.14838732\F,0,2.52616066,-0.1724239,0.05178774\C,0,0.6676785
 2,1.4970033,-0.0017259\H,0,0.1022251,1.7886581,0.89543057\N,0,0.667577
 32,-0.72199612,-1.28387598\H,0,-0.11764221,-1.35678631,-1.28468457\H,0
 ,1.5546675,-1.20500445,-1.28444266\C,0,0.58876321,-0.74172062,1.308125

 Normal termination of Gaussian 16 at Wed Apr  9 02:58:05 2025.
