 Gaussian 16, Revision C.01,

 ----------------------------------------------------------------------
 #t hf aug-cc-pvdz symm=none int=(grid=ultrafine) guess=(read,tcheck) s
 table=(opt,rrhf)
 ----------------------------------------------------------------------
 -----
 title
 -----
 Symbolic Z-matrix:
 Charge = -1 Multiplicity = 1

 SCF Done:  E(RHF) =  -567.943166044     A.U. after   16 cycles
 Normal termination of Gaussian 16 at Wed Apr  9 02:35:24 2025.
 Gaussian 16:  ES64L-G16RevC.01  3-Jul-2019

 ----------------------------------------------------------------------
 #t hf aug-cc-pvdz iop(5/13=1,5/36=2,99/5=2) pseudo=read geom=check gue
 ss=(read,tcheck) scf=(maxcycle=1)
 ----------------------------------------------------------------------
 -----
 title
 -----
 Structure from the checkpoint file:  "E2SN2_125_mol2.chk"
 Charge = -1 Multiplicity = 1

                         Standard orientation:
 ---------------------------------------------------------------------
 Center     Atomic      Atomic             Coordinates (Angstroms)
 Number     Number       Type             X           Y           Z
 ---------------------------------------------------------------------
      1          6           0       -0.171034   -0.540453   -0.135429
      2          6           0        0.778908    0.470342    0.533173
      3          9           0        0.061704   -0.549918   -1.490729
      4          1           0        0.705948    0.240261    1.608970
      5          7           0       -0.181680   -1.826292    0.403804
      6          1           0        0.161351   -1.767447    1.445881
      7          1           0        0.489842   -2.387399   -0.108338
      8          7           0       -1.588365    0.059575    0.024174
      9          8           0       -1.994858    0.140158    1.176506
     10          8           0       -2.191828    0.428684   -0.979198
     11          6           0        0.479193    1.933669    0.201695
     12          1           0        1.256861    2.579222    0.615355
     13          1           0        0.432842    2.090894   -0.878422
     14          1           0       -0.473855    2.229077    0.643696
     15          6           0        2.137367    0.126145    0.123522
     16          7           0        3.237538   -0.099036   -0.221411
     17          1           0        0.746109   -1.464028    2.727235
 ---------------------------------------------------------------------

 SCF Done:  E(RHF) =  -570.404929154     A.U. after    2 cycles

 The electronic state is 1-A.
 Alpha  occ. eigenvalues --  -29.17371 -20.98555 -20.98258 -15.86963 -15.64969
 Alpha  occ. eigenvalues --  -15.59598 -11.47997 -11.36673 -11.32693 -11.29106
 Alpha  occ. eigenvalues --   -1.87751  -1.58069  -1.32812  -1.19385  -1.09527
 Alpha  occ. eigenvalues --   -0.99538  -0.87777  -0.79664  -0.66274  -0.61923
 Alpha  occ. eigenvalues --   -0.57196  -0.55515  -0.50891  -0.49575  -0.46847
 Alpha  occ. eigenvalues --   -0.46004  -0.43746  -0.42963  -0.39056  -0.33766
 Alpha  occ. eigenvalues --   -0.31555  -0.29484  -0.27125  -0.23807  -0.21729
 Alpha  occ. eigenvalues --   -0.20037  -0.16368  -0.14564  -0.11242
 Alpha virt. eigenvalues --    0.12743   0.14289   0.14695   0.15798   0.17725
 Alpha virt. eigenvalues --    0.19116   0.19654   0.20746   0.21418   0.22036
 Alpha virt. eigenvalues --    0.22368   0.24113   0.24347   0.24801   0.25389

 Mulliken charges:
               1
     1  C    4.392853
     2  C   -1.450794
     3  F    0.530049
     4  H    2.050008
     5  N   -3.928614
     6  H    0.634667
     7  H    0.444760
     8  N    3.961667
     9  O   -3.090330
    10  O   -2.789189
    11  C   -3.876553
    12  H    1.192609
    13  H    1.302667
    14  H    1.151184
    15  C    2.072053
    16  N   -2.606958
    17  H   -0.990079
 Sum of Mulliken charges =  -1.00000

 Dipole moment (field-independent basis, Debye):
    X=             -2.7878    Y=              5.2119    Z=             -9.8486  Tot=             11.4861

 Test job not archived.
 1\1\GINC-SE329\SP\RHF\Aug-CC-pVDZ\C4H7F1N3O2(1-)\OHZDE\09-Apr-2025\0\\
 #t hf aug-cc-pvdz iop(5/13=1,5/36=2,99/5=2) pseudo=read geom=check gue
 ss=(read,tcheck) scf=(maxcycle=1)\\title\\-1,1\C,0,-0.210752,0.216706,
 -1.433335\C,0,0.062066,-0.10798,0.04696\F,0,-1.489798,0.705784,-1.5595
 89\H,0,1.154262,-0.250325,0.096423\N,0,0.726739,1.029878,-2.069046\H,0
 ,1.68198,0.940605,-1.533692\H,0,0.417157,1.991695,-1.984555\N,0,-0.230
 693,-1.150697,-2.157314\O,0,0.836995,-1.750242,-2.170952\O,0,-1.286772
 ,-1.55071,-2.638825\C,0,-0.732313,-1.297763,0.589555\H,0,-0.574258,-1.

 Normal termination of Gaussian 16 at Wed Apr  9 02:35:32 2025.
