 Gaussian 16, Revision C.01,

 ----------------------------------------------------------------------
 #t hf aug-cc-pvdz symm=none int=(grid=ultrafine) guess=(read,tcheck) s
 table=(opt,rrhf)
 ----------------------------------------------------------------------
 -----
 title
 -----
 Symbolic Z-matrix:
 Charge = -1 Multiplicity = 1

 SCF Done:  E(RHF) =  -823.434562223     A.U. after   16 cycles
 Normal termination of Gaussian 16 at Wed Apr  9 02:40:33 2025.
 Gaussian 16:  ES64L-G16RevC.01  3-Jul-2019

 ----------------------------------------------------------------------
 #t hf aug-cc-pvdz iop(5/13=1,5/36=2,99/5=2) pseudo=read geom=check gue
 ss=(read,tcheck) scf=(maxcycle=1)
 ----------------------------------------------------------------------
 -----
 title
 -----
 Structure from the checkpoint file:  "E2SN2_192_mol1.chk"
 Charge = -1 Multiplicity = 1

                         Standard orientation:
 ---------------------------------------------------------------------
 Center     Atomic      Atomic             Coordinates (Angstroms)
 Number     Number       Type             X           Y           Z
 ---------------------------------------------------------------------
      1          6           0        0.428193    0.279219    0.481203
      2          1           0        0.140138   -1.140814   -1.111856
      3          9           0       -1.186547    0.584844    1.610638
      4         17           0        2.413270   -0.296166   -0.362213
      5          6           0       -0.432965   -0.711706   -0.287707
      6          1           0        0.784508   -0.042528    1.439555
      7          6           0        0.485487    1.720810    0.063747
      8          1           0        0.649904    1.807389   -1.011334
      9          1           0       -0.457971    2.184737    0.342505
     10          1           0        1.312226    2.218613    0.569807
     11          6           0       -1.582021   -0.004961   -0.904777
     12          7           0       -2.490016    0.454164   -1.492671
     13          7           0       -0.843916   -1.780463    0.613467
     14          1           0       -1.485806   -2.398704    0.129890
     15          1           0       -1.344308   -1.273532    1.342947
 ---------------------------------------------------------------------

 SCF Done:  E(RHF) =  -825.294543204     A.U. after    2 cycles

 The electronic state is 1-A.
 Alpha  occ. eigenvalues --  -99.66380 -28.94382 -15.62773 -15.60737 -11.39873
 Alpha  occ. eigenvalues --  -11.34381 -11.30148 -11.25192 -10.23389  -9.43472
 Alpha  occ. eigenvalues --   -9.43000  -9.42860  -1.27337  -1.14725  -1.08605
 Alpha  occ. eigenvalues --   -1.00264  -0.88725  -0.75830  -0.61044  -0.55244
 Alpha  occ. eigenvalues --   -0.52033  -0.48712  -0.43343  -0.41416  -0.38862
 Alpha  occ. eigenvalues --   -0.37208  -0.34307  -0.33428  -0.31136  -0.29613
 Alpha  occ. eigenvalues --   -0.28648  -0.27630  -0.24237  -0.04437  -0.02804
 Alpha  occ. eigenvalues --   -0.01844
 Alpha virt. eigenvalues --    0.13947   0.14796   0.15533   0.16158   0.16627
 Alpha virt. eigenvalues --    0.17394   0.18368   0.19547   0.20834   0.23166
 Alpha virt. eigenvalues --    0.23325   0.25150   0.25566   0.26852   0.27184

 Mulliken charges:
               1
     1  C    0.627725
     2  H    1.666733
     3  F   -0.593957
     4  Cl  -0.672558
     5  C   -2.337852
     6  H    1.424326
     7  C   -4.157274
     8  H    1.211902
     9  H    1.157058
    10  H    1.099429
    11  C    4.095350
    12  N   -2.962234
    13  N   -2.629756
    14  H    0.598589
    15  H    0.472520
 Sum of Mulliken charges =  -1.00000

 Dipole moment (field-independent basis, Debye):
    X=             -3.7316    Y=              0.3022    Z=              2.1935  Tot=              4.3390

 Test job not archived.
 1\1\GINC-SE368\SP\RHF\Aug-CC-pVDZ\C4H7Cl1F1N2(1-)\OHZDE\09-Apr-2025\0\
 \#t hf aug-cc-pvdz iop(5/13=1,5/36=2,99/5=2) pseudo=read geom=check gu
 ess=(read,tcheck) scf=(maxcycle=1)\\title\\-1,1\C,0,0.61498654,-0.0310
 7623,0.02612507\H,0,1.79207999,1.77217037,0.0339154\F,0,-1.35536619,0.
 27445747,0.05396037\Cl,0,2.73014803,-0.52845305,-0.48539741\C,0,0.7388
 0163,1.48530424,0.02313128\H,0,0.32376213,-0.48717217,-0.89912371\C,0,
 0.57849675,-0.78844709,1.32258018\H,0,1.37684293,-0.45712918,1.9883126
 2\H,0,-0.39337383,-0.61691274,1.77984363\H,0,0.72113941,-1.85189026,1.

 Normal termination of Gaussian 16 at Wed Apr  9 02:40:38 2025.
