 Gaussian 16, Revision C.01,

 ----------------------------------------------------------------------
 #t hf aug-cc-pvdz symm=none int=(grid=ultrafine) guess=(read,tcheck) s
 table=(opt,rrhf)
 ----------------------------------------------------------------------
 -----
 title
 -----
 Symbolic Z-matrix:
 Charge = -1 Multiplicity = 1

 SCF Done:  E(RHF) =  -987.882632275     A.U. after   17 cycles
 Normal termination of Gaussian 16 at Wed Apr  9 02:51:33 2025.
 Gaussian 16:  ES64L-G16RevC.01  3-Jul-2019

 ----------------------------------------------------------------------
 #t hf aug-cc-pvdz iop(5/13=1,5/36=2,99/5=2) pseudo=read geom=check gue
 ss=(read,tcheck) scf=(maxcycle=1)
 ----------------------------------------------------------------------
 -----
 title
 -----
 Structure from the checkpoint file:  "E2SN2_305_mol1.chk"
 Charge = -1 Multiplicity = 1

                         Standard orientation:
 ---------------------------------------------------------------------
 Center     Atomic      Atomic             Coordinates (Angstroms)
 Number     Number       Type             X           Y           Z
 ---------------------------------------------------------------------
      1          6           0       -0.713905   -0.220761    0.243577
      2          1           0        0.426238   -1.976108    0.107823
      3         17           0        0.255140    1.791225    0.371540
      4          9           0       -1.707902   -1.824920   -0.020289
      5          6           0        0.405150   -1.022855   -0.408704
      6          1           0        0.204186   -1.151525   -1.467944
      7          6           0       -1.739276    0.351627   -0.617381
      8          7           0       -2.587129    0.817347   -1.286416
      9          7           0       -0.903565   -0.345310    1.654915
     10          1           0       -1.690597   -0.971887    1.763959
     11          1           0       -1.086589    0.561011    2.058890
     12          7           0        1.794032   -0.483071   -0.303364
     13          8           0        2.316716   -0.050867   -1.330320
     14          8           0        2.351449   -0.581491    0.785669
 ---------------------------------------------------------------------

 SCF Done:  E(RHF) =  -990.371135721     A.U. after    2 cycles

 The electronic state is 1-A.
 Alpha  occ. eigenvalues --  -99.68765 -28.98886 -20.97119 -20.96909 -15.86686
 Alpha  occ. eigenvalues --  -15.63442 -15.63297 -11.50707 -11.34493 -11.32060
 Alpha  occ. eigenvalues --  -10.25878  -9.45896  -9.45537  -9.45345  -1.86285
 Alpha  occ. eigenvalues --   -1.56249  -1.30323  -1.15924  -1.09772  -1.06424
 Alpha  occ. eigenvalues --   -0.91225  -0.74472  -0.63801  -0.62528  -0.57545
 Alpha  occ. eigenvalues --   -0.56186  -0.51226  -0.46699  -0.43398  -0.43257
 Alpha  occ. eigenvalues --   -0.40227  -0.34125  -0.33523  -0.32970  -0.31563
 Alpha  occ. eigenvalues --   -0.27997  -0.27358  -0.22851  -0.18747  -0.18537
 Alpha  occ. eigenvalues --   -0.08598  -0.06056  -0.05298
 Alpha virt. eigenvalues --    0.14105   0.15086   0.15912   0.16625   0.19854
 Alpha virt. eigenvalues --    0.21351   0.21732   0.22309   0.23289   0.23955
 Alpha virt. eigenvalues --    0.24722   0.25542   0.26371   0.27102   0.27983

 Mulliken charges:
               1
     1  C    3.945106
     2  H    1.386077
     3  Cl  -0.718197
     4  F   -0.312368
     5  C   -3.012592
     6  H    1.859671
     7  C    3.033598
     8  N   -3.255891
     9  N   -3.889083
    10  H    0.543132
    11  H    0.629535
    12  N    4.589628
    13  O   -2.866323
    14  O   -2.932294
 Sum of Mulliken charges =  -1.00000

 Dipole moment (field-independent basis, Debye):
    X=             -0.3658    Y=             -6.0328    Z=              1.2979  Tot=              6.1816

 Test job not archived.
 1\1\GINC-SE249\SP\RHF\Aug-CC-pVDZ\C3H4Cl1F1N3O2(1-)\OHZDE\09-Apr-2025\
 0\\#t hf aug-cc-pvdz iop(5/13=1,5/36=2,99/5=2) pseudo=read geom=check
 guess=(read,tcheck) scf=(maxcycle=1)\\title\\-1,1\C,0,0.63680716,-0.09
 932635,0.09797145\H,0,1.77159678,1.44552604,0.94960884\Cl,0,-1.5917068
 1,-0.14754357,0.28482017\F,0,2.49989217,-0.13604339,-0.30021085\C,0,0.
 89748727,1.38659638,0.31054998\H,0,1.07132048,1.87562616,-0.64316072\C
 ,0,0.51123707,-0.58498114,-1.26900797\N,0,0.41535163,-1.00798213,-2.36
 227546\N,0,0.86175787,-0.99054912,1.19272178\H,0,1.75703266,-1.4230927

 Normal termination of Gaussian 16 at Wed Apr  9 02:51:40 2025.
