 Gaussian 16, Revision C.01,

 ----------------------------------------------------------------------
 #t hf aug-cc-pvdz symm=none int=(grid=ultrafine) guess=(read,tcheck) s
 table=(opt,rrhf)
 ----------------------------------------------------------------------
 -----
 title
 -----
 Symbolic Z-matrix:
 Charge = -1 Multiplicity = 1

 SCF Done:  E(RHF) =  -685.461624410     A.U. after   15 cycles
 Normal termination of Gaussian 16 at Wed Apr  9 02:34:23 2025.
 Gaussian 16:  ES64L-G16RevC.01  3-Jul-2019

 ----------------------------------------------------------------------
 #t hf aug-cc-pvdz iop(5/13=1,5/36=2,99/5=2) pseudo=read geom=check gue
 ss=(read,tcheck) scf=(maxcycle=1)
 ----------------------------------------------------------------------
 -----
 title
 -----
 Structure from the checkpoint file:  "E2SN2_123_mol2.chk"
 Charge = -1 Multiplicity = 1

                         Standard orientation:
 ---------------------------------------------------------------------
 Center     Atomic      Atomic             Coordinates (Angstroms)
 Number     Number       Type             X           Y           Z
 ---------------------------------------------------------------------
      1          6           0        0.608848    0.626399    0.263019
      2          6           0       -0.716647    0.340337    0.971402
      3         17           0        1.477929   -0.953761   -0.033259
      4          1           0       -1.075094    1.345593    1.207012
      5          1           0        1.226120    1.177502    0.973146
      6          1           0       -0.568074   -0.232828    1.891218
      7          7           0        0.508250    1.408664   -0.917343
      8          1           0       -0.238499    1.047463   -1.503941
      9          1           0        0.204764    2.334180   -0.530337
     10          6           0       -1.674906   -0.352874    0.120323
     11          7           0       -2.450368   -0.903353   -0.569100
     12          1           0       -0.382952    3.321672    0.804946
 ---------------------------------------------------------------------

 SCF Done:  E(RHF) =  -686.796782919     A.U. after    2 cycles

 The electronic state is 1-A.
 Alpha  occ. eigenvalues --  -99.75254 -15.64517 -15.59201 -11.35967 -11.33427
 Alpha  occ. eigenvalues --  -11.29193 -10.32621  -9.52560  -9.51801  -9.51755
 Alpha  occ. eigenvalues --   -1.29029  -1.18021  -1.13246  -0.99971  -0.77849
 Alpha  occ. eigenvalues --   -0.60310  -0.54922  -0.53163  -0.48977  -0.45100
 Alpha  occ. eigenvalues --   -0.40587  -0.39402  -0.36224  -0.34991  -0.31681
 Alpha  occ. eigenvalues --   -0.30930  -0.23773  -0.11555
 Alpha virt. eigenvalues --    0.13873   0.16010   0.16726   0.17285   0.18124
 Alpha virt. eigenvalues --    0.19139   0.20136   0.21680   0.22455   0.23435
 Alpha virt. eigenvalues --    0.24078   0.25639   0.25807   0.26179   0.27617

 Mulliken charges:
               1
     1  C   -1.038327
     2  C   -1.937695
     3  Cl  -0.101324
     4  H    1.537380
     5  H    1.819028
     6  H    1.287794
     7  N   -2.291405
     8  H    0.587381
     9  H    0.700409
    10  C    1.918329
    11  N   -2.412102
    12  H   -1.069469
 Sum of Mulliken charges =  -1.00000

 Dipole moment (field-independent basis, Debye):
    X=              1.6648    Y=             -8.5077    Z=             -0.5344  Tot=              8.6855

 Test job not archived.
 1\1\GINC-SE106\SP\RHF\Aug-CC-pVDZ\C3H6Cl1N2(1-)\OHZDE\09-Apr-2025\0\\#
 t hf aug-cc-pvdz iop(5/13=1,5/36=2,99/5=2) pseudo=read geom=check gues
 s=(read,tcheck) scf=(maxcycle=1)\\title\\-1,1\C,0,-0.480675,-0.405268,
 -1.213596\C,0,0.024767,-0.122334,0.202403\Cl,0,-1.558972,-1.880357,-1.
 176482\H,0,0.745757,0.681771,0.034697\H,0,0.392198,-0.688846,-1.802404
 \H,0,0.524887,-0.99382,0.63489\N,0,-1.10149,0.692319,-1.865673\H,0,-1.
 768182,1.13071,-1.23676\H,0,-0.291704,1.3451,-1.994438\C,0,-1.031517,0
 .323487,1.101649\N,0,-1.881609,0.691792,1.823708\H,0,1.37585,1.806737,

 Normal termination of Gaussian 16 at Wed Apr  9 02:34:27 2025.
