 Gaussian 16, Revision C.01,

 ----------------------------------------------------------------------
 #t hf aug-cc-pvdz symm=none int=(grid=ultrafine) guess=(read,tcheck) s
 table=(opt,rrhf)
 ----------------------------------------------------------------------
 -----
 title
 -----
 Symbolic Z-matrix:
 Charge = -1 Multiplicity = 1

 SCF Done:  E(RHF) =  -1099.64295270     A.U. after   16 cycles
 Normal termination of Gaussian 16 at Wed Apr  9 02:56:57 2025.
 Gaussian 16:  ES64L-G16RevC.01  3-Jul-2019

 ----------------------------------------------------------------------
 #t hf aug-cc-pvdz iop(5/13=1,5/36=2,99/5=2) pseudo=read geom=check gue
 ss=(read,tcheck) scf=(maxcycle=1)
 ----------------------------------------------------------------------
 -----
 title
 -----
 Structure from the checkpoint file:  "E2SN2_366_mol1.chk"
 Charge = -1 Multiplicity = 1

                         Standard orientation:
 ---------------------------------------------------------------------
 Center     Atomic      Atomic             Coordinates (Angstroms)
 Number     Number       Type             X           Y           Z
 ---------------------------------------------------------------------
      1          6           0        1.029721   -0.546022    0.356955
      2          1           0        0.156657    1.087900    1.357085
      3         17           0        0.033025   -1.948465   -1.030055
      4          9           0        1.938805    0.375966    1.777609
      5          6           0       -0.089615    0.472788    0.496691
      6          1           0        1.039536   -1.340470    1.079768
      7          7           0        2.091441   -0.181187   -0.521550
      8          1           0        2.324799   -0.956392   -1.122465
      9          1           0        2.852685    0.076545    0.091756
     10          7           0       -1.432602   -0.116311    0.785301
     11          8           0       -2.418876    0.353097    0.229270
     12          8           0       -1.439200   -0.964313    1.669469
     13          7           0       -0.157999    1.406943   -0.666756
     14          8           0        0.228247    2.552805   -0.426641
     15          8           0       -0.561527    1.001650   -1.746413
 ---------------------------------------------------------------------

 SCF Done:  E(RHF) =  -1102.55928960     A.U. after    2 cycles

 The electronic state is 1-A.
 Alpha  occ. eigenvalues --  -99.67876 -28.97089 -20.99541 -20.99096 -20.98467
 Alpha  occ. eigenvalues --  -20.98065 -15.89716 -15.88402 -15.62619 -11.48538
 Alpha  occ. eigenvalues --  -11.37670 -10.24967  -9.45064  -9.44620  -9.44426
 Alpha  occ. eigenvalues --   -1.90075  -1.86561  -1.59032  -1.57614  -1.28016
 Alpha  occ. eigenvalues --   -1.15519  -1.06060  -0.89265  -0.87486  -0.70081
 Alpha  occ. eigenvalues --   -0.63847  -0.63458  -0.58354  -0.58158  -0.53707
 Alpha  occ. eigenvalues --   -0.50913  -0.49350  -0.48311  -0.43561  -0.37331
 Alpha  occ. eigenvalues --   -0.33679  -0.32312  -0.31540  -0.29757  -0.25423
 Alpha  occ. eigenvalues --   -0.23327  -0.22129  -0.20462  -0.19101  -0.17713
 Alpha  occ. eigenvalues --   -0.06798  -0.04842  -0.04171
 Alpha virt. eigenvalues --    0.14297   0.15613   0.15950   0.16922   0.20762
 Alpha virt. eigenvalues --    0.21878   0.22632   0.23354   0.24594   0.25109
 Alpha virt. eigenvalues --    0.25786   0.25810   0.26629   0.27930   0.28350

 Mulliken charges:
               1
     1  C    2.110145
     2  H    1.614298
     3  Cl  -0.692933
     4  F   -0.522433
     5  C   -0.354393
     6  H    1.634079
     7  N   -3.347732
     8  H    0.570812
     9  H    0.489991
    10  N    4.617199
    11  O   -2.920009
    12  O   -3.087066
    13  N    4.769925
    14  O   -2.834750
    15  O   -3.047133
 Sum of Mulliken charges =  -1.00000

 Dipole moment (field-independent basis, Debye):
    X=              1.0047    Y=              2.9658    Z=              2.3067  Tot=              3.8893

 Test job not archived.
 1\1\GINC-SE159\SP\RHF\Aug-CC-pVDZ\C2H4Cl1F1N3O4(1-)\OHZDE\09-Apr-2025\
 0\\#t hf aug-cc-pvdz iop(5/13=1,5/36=2,99/5=2) pseudo=read geom=check
 guess=(read,tcheck) scf=(maxcycle=1)\\title\\-1,1\C,0,0.53267517,-0.10
 333336,-0.02762686\H,0,1.65005389,1.66849145,0.18285505\Cl,0,-1.644301
 66,-0.34996407,0.26218484\F,0,2.45443409,-0.11559773,0.01040584\C,0,0.
 6034924,1.41325641,0.0455406\H,0,0.66881255,-0.62874445,0.89925589\N,0
 ,0.58289381,-0.66192114,-1.33819281\H,0,-0.12540206,-1.3723688,-1.4385
 8302\H,0,1.51930147,-1.03384293,-1.42112535\N,0,-0.12024833,2.01304323

 Normal termination of Gaussian 16 at Wed Apr  9 02:57:06 2025.
