 Gaussian 16, Revision C.01,

 ----------------------------------------------------------------------
 #t hf aug-cc-pvdz symm=none int=(grid=ultrafine) guess=(read,tcheck) s
 table=(opt,rrhf)
 ----------------------------------------------------------------------
 -----
 title
 -----
 Symbolic Z-matrix:
 Charge = -1 Multiplicity = 1

 SCF Done:  E(RHF) =  -515.187531604     A.U. after   17 cycles
 Normal termination of Gaussian 16 at Wed Apr  9 02:54:48 2025.
 Gaussian 16:  ES64L-G16RevC.01  3-Jul-2019

 ----------------------------------------------------------------------
 #t hf aug-cc-pvdz iop(5/13=1,5/36=2,99/5=2) pseudo=read geom=check gue
 ss=(read,tcheck) scf=(maxcycle=1)
 ----------------------------------------------------------------------
 -----
 title
 -----
 Structure from the checkpoint file:  "E2SN2_343_mol1.chk"
 Charge = -1 Multiplicity = 1

                         Standard orientation:
 ---------------------------------------------------------------------
 Center     Atomic      Atomic             Coordinates (Angstroms)
 Number     Number       Type             X           Y           Z
 ---------------------------------------------------------------------
      1          6           0        1.074589    0.175546   -0.146729
      2          1           0       -0.304088   -0.190214   -1.786077
      3          9           0        0.492838   -0.034421    1.414766
      4          1           0        1.672444    0.261175   -2.069487
      5          6           0       -0.198726   -0.445153   -0.737973
      6          6           0        2.326665   -0.670430    0.048339
      7          1           0        2.560555   -0.707735    1.119557
      8          1           0        2.161121   -1.680140   -0.323173
      9          1           0        3.152879   -0.241539   -0.508477
     10          6           0        1.244283    1.684748   -0.149037
     11          1           0        2.294997    1.927093   -0.306626
     12          1           0        0.669466    2.157987   -0.937445
     13          1           0        0.918242    2.076013    0.820663
     14          7           0       -1.454795    0.235799   -0.087222
     15          8           0       -2.249460   -0.462319    0.541191
     16          8           0       -1.634867    1.426983   -0.329245
     17          7           0       -0.240943   -1.847400   -0.513532
     18          1           0       -1.135172   -2.216352   -0.807795
     19          1           0       -0.162071   -1.980882    0.488068
 ---------------------------------------------------------------------

 SCF Done:  E(RHF) =  -517.484064693     A.U. after    2 cycles

 The electronic state is 1-A.
 Alpha  occ. eigenvalues --  -29.01088 -20.95082 -20.94874 -15.83335 -15.61594
 Alpha  occ. eigenvalues --  -11.41023 -11.33714 -11.24381 -11.22366  -1.84013
 Alpha  occ. eigenvalues --   -1.54324  -1.26777  -1.08835  -0.95116  -0.87749
 Alpha  occ. eigenvalues --   -0.75511  -0.69043  -0.58076  -0.56621  -0.52166
 Alpha  occ. eigenvalues --   -0.50219  -0.48401  -0.44723  -0.42066  -0.41383
 Alpha  occ. eigenvalues --   -0.39375  -0.35370  -0.33930  -0.32208  -0.28638
 Alpha  occ. eigenvalues --   -0.21053  -0.17748  -0.16137  -0.15340  -0.06969
 Alpha  occ. eigenvalues --   -0.06175  -0.05492
 Alpha virt. eigenvalues --    0.13777   0.14484   0.14796   0.15230   0.15741
 Alpha virt. eigenvalues --    0.16084   0.17106   0.17998   0.18476   0.20435
 Alpha virt. eigenvalues --    0.23502   0.23654   0.24725   0.25486   0.26321

 Mulliken charges:
               1
     1  C    4.054962
     2  H    1.959288
     3  F   -0.439165
     4  H   -1.014926
     5  C   -1.892007
     6  C   -4.554915
     7  H    1.225936
     8  H    1.309371
     9  H    1.253990
    10  C   -4.565063
    11  H    1.208208
    12  H    1.534683
    13  H    1.169345
    14  N    5.442695
    15  O   -2.811225
    16  O   -3.198976
    17  N   -2.755371
    18  H    0.564597
    19  H    0.508574
 Sum of Mulliken charges =  -1.00000

 Dipole moment (field-independent basis, Debye):
    X=             -4.1390    Y=             -1.5649    Z=              6.9735  Tot=              8.2589

 Test job not archived.
 1\1\GINC-SE344\SP\RHF\Aug-CC-pVDZ\C4H10F1N2O2(1-)\OHZDE\09-Apr-2025\0\
 \#t hf aug-cc-pvdz iop(5/13=1,5/36=2,99/5=2) pseudo=read geom=check gu
 ess=(read,tcheck) scf=(maxcycle=1)\\title\\-1,1\C,0,0.51433098,-0.0504
 9643,0.00938364\H,0,1.679663,1.74059645,0.40432793\F,0,-1.15795241,0.1
 0375587,-0.01214887\H,0,2.52830808,-0.06228522,-0.06489336\C,0,0.68540
 327,1.47389724,0.06530431\C,0,0.61047496,-0.78958258,-1.31949837\H,0,-
 0.35472369,-1.2694237,-1.52382249\H,0,0.84757096,-0.09325371,-2.121901
 84\H,0,1.40289714,-1.52895911,-1.27463717\C,0,0.67306358,-0.87020919,1

 Normal termination of Gaussian 16 at Wed Apr  9 02:54:58 2025.
