 Gaussian 16, Revision C.01,

 ----------------------------------------------------------------------
 #t hf aug-cc-pvdz symm=none int=(grid=ultrafine) guess=(read,tcheck) s
 table=(opt,rrhf)
 ----------------------------------------------------------------------
 -----
 title
 -----
 Symbolic Z-matrix:
 Charge = -1 Multiplicity = 1

 SCF Done:  E(RHF) =  -380.390440113     A.U. after   17 cycles
 Normal termination of Gaussian 16 at Wed Apr  9 02:37:42 2025.
 Gaussian 16:  ES64L-G16RevC.01  3-Jul-2019

 ----------------------------------------------------------------------
 #t hf aug-cc-pvdz iop(5/13=1,5/36=2,99/5=2) pseudo=read geom=check gue
 ss=(read,tcheck) scf=(maxcycle=1)
 ----------------------------------------------------------------------
 -----
 title
 -----
 Structure from the checkpoint file:  "E2SN2_153_mol1.chk"
 Charge = -1 Multiplicity = 1

                         Standard orientation:
 ---------------------------------------------------------------------
 Center     Atomic      Atomic             Coordinates (Angstroms)
 Number     Number       Type             X           Y           Z
 ---------------------------------------------------------------------
      1          6           0       -0.304301   -0.378988   -0.058332
      2          6           0        1.063623   -0.589840    0.421175
      3          9           0       -0.505782   -0.666173   -1.474466
      4          1           0        0.535889   -0.106894    2.815875
      5          1           0        0.843412   -0.304072    1.831292
      6          7           0       -1.303972   -1.161187    0.642342
      7          1           0       -1.185566   -0.907424    1.628449
      8          1           0       -0.985486   -2.124524    0.572644
      9          6           0       -0.658201    1.059411    0.045979
     10          7           0       -0.898167    2.205711    0.133858
     11          7           0        2.109788    0.237927   -0.156992
     12          1           0        2.160115    1.113172    0.354466
     13          1           0        1.914873    0.465484   -1.127232
     14          1           0        1.308537   -1.660846    0.407310
 ---------------------------------------------------------------------

 SCF Done:  E(RHF) =  -382.096080966     A.U. after    2 cycles

 The electronic state is 1-A.
 Alpha  occ. eigenvalues --  -29.10075 -15.63023 -15.61057 -15.58471 -11.40014
 Alpha  occ. eigenvalues --  -11.30520 -11.21195  -1.29796  -1.15171  -1.14942
 Alpha  occ. eigenvalues --   -0.94591  -0.76857  -0.65812  -0.51833  -0.50257
 Alpha  occ. eigenvalues --   -0.49079  -0.46518  -0.40983  -0.38295  -0.35955
 Alpha  occ. eigenvalues --   -0.31063  -0.30175  -0.27217  -0.23106  -0.18939
 Alpha  occ. eigenvalues --   -0.12675  -0.11968  -0.05348
 Alpha virt. eigenvalues --    0.14312   0.15251   0.15552   0.17197   0.18135
 Alpha virt. eigenvalues --    0.19431   0.20139   0.21095   0.22510   0.23814
 Alpha virt. eigenvalues --    0.24599   0.25559   0.26622   0.26913   0.28773

 Mulliken charges:
               1
     1  C    3.871405
     2  C   -1.086134
     3  F    0.067278
     4  H   -0.114534
     5  H    0.131023
     6  N   -3.417017
     7  H    0.653840
     8  H    0.520196
     9  C    1.001856
    10  N   -2.436531
    11  N   -2.427956
    12  H    0.478564
    13  H    0.543269
    14  H    1.214742
 Sum of Mulliken charges =  -1.00000

 Dipole moment (field-independent basis, Debye):
    X=             -1.3748    Y=             -2.4950    Z=             -8.3298  Tot=              8.8035

 Test job not archived.
 1\1\GINC-SE208\SP\RHF\Aug-CC-pVDZ\C3H7F1N3(1-)\OHZDE\09-Apr-2025\0\\#t
  hf aug-cc-pvdz iop(5/13=1,5/36=2,99/5=2) pseudo=read geom=check guess
 =(read,tcheck) scf=(maxcycle=1)\\title\\-1,1\C,0,-0.10291741,0.0540257
 2,-0.3118645\C,0,-0.07182731,0.0028461,1.15169796\F,0,1.2039341,0.1913
 3525,-0.94573274\H,0,-2.52158171,-0.41897423,1.4107375\H,0,-1.48976215
 ,-0.22474943,1.38886598\N,0,-0.71492155,-1.10512627,-0.93149314\H,0,-1
 .65075722,-1.15574477,-0.51619543\H,0,-0.21090232,-1.90493118,-0.55654
 296\C,0,-0.82196972,1.27438441,-0.75774025\N,0,-1.3875536,2.254492,-1.

 Normal termination of Gaussian 16 at Wed Apr  9 02:37:46 2025.
