 Gaussian 16, Revision C.01,

 ----------------------------------------------------------------------
 #t hf aug-cc-pvdz symm=none int=(grid=ultrafine) guess=(read,tcheck) s
 table=(opt,rrhf)
 ----------------------------------------------------------------------
 -----
 title
 -----
 Symbolic Z-matrix:
 Charge = -1 Multiplicity = 1

 SCF Done:  E(RHF) =  -327.685774074     A.U. after   15 cycles
 Normal termination of Gaussian 16 at Wed Apr  9 03:00:58 2025.
 Gaussian 16:  ES64L-G16RevC.01  3-Jul-2019

 ----------------------------------------------------------------------
 #t hf aug-cc-pvdz iop(5/13=1,5/36=2,99/5=2) pseudo=read geom=check gue
 ss=(read,tcheck) scf=(maxcycle=1)
 ----------------------------------------------------------------------
 -----
 title
 -----
 Structure from the checkpoint file:  "E2SN2_71_mol1.chk"
 Charge = -1 Multiplicity = 1

                         Standard orientation:
 ---------------------------------------------------------------------
 Center     Atomic      Atomic             Coordinates (Angstroms)
 Number     Number       Type             X           Y           Z
 ---------------------------------------------------------------------
      1          6           0       -0.413903    0.013348   -0.008764
      2          6           0        0.807075    0.416532   -0.707595
      3          9           0       -0.727784   -1.432319   -0.172653
      4          1           0        1.518615    2.374457    0.644990
      5          1           0        1.160029    1.785736    0.009390
      6          1           0        0.691625    0.447872   -1.797239
      7          6           0       -1.650262    0.729069   -0.510035
      8          1           0       -2.535991    0.276605   -0.058468
      9          1           0       -1.604464    1.784666   -0.227945
     10          1           0       -1.714209    0.655584   -1.598918
     11          7           0        2.031522   -0.251704   -0.300805
     12          1           0        1.849842   -1.195306    0.028289
     13          1           0        2.452796    0.271824    0.471664
     14          7           0       -0.342083    0.129614    1.451717
     15          1           0        0.162841    0.998620    1.630063
     16          1           0        0.285445   -0.608254    1.754038
 ---------------------------------------------------------------------

 SCF Done:  E(RHF) =  -329.219188937     A.U. after    2 cycles

 The electronic state is 1-A.
 Alpha  occ. eigenvalues --  -29.04517 -15.56711 -15.55086 -11.32430 -11.23747
 Alpha  occ. eigenvalues --  -11.16183  -1.24150  -1.10777  -0.96266  -0.79031
 Alpha  occ. eigenvalues --   -0.68384  -0.54796  -0.48591  -0.45963  -0.45369
 Alpha  occ. eigenvalues --   -0.41345  -0.37454  -0.35817  -0.34969  -0.30345
 Alpha  occ. eigenvalues --   -0.21879  -0.19416  -0.16303  -0.08530  -0.07394
 Alpha  occ. eigenvalues --   -0.01919
 Alpha virt. eigenvalues --    0.14478   0.15189   0.15558   0.16072   0.16458
 Alpha virt. eigenvalues --    0.16788   0.17984   0.18377   0.19507   0.21813
 Alpha virt. eigenvalues --    0.22531   0.25823   0.26125   0.27113   0.27773

 Mulliken charges:
               1
     1  C    3.906003
     2  C   -1.501110
     3  F   -0.081676
     4  H   -0.184732
     5  H    0.168827
     6  H    1.195729
     7  C   -4.410075
     8  H    1.179013
     9  H    1.185124
    10  H    1.170950
    11  N   -2.413439
    12  H    0.585221
    13  H    0.512730
    14  N   -3.409806
    15  H    0.657838
    16  H    0.439404
 Sum of Mulliken charges =  -1.00000

 Dipole moment (field-independent basis, Debye):
    X=             -4.1965    Y=             -6.1921    Z=             -0.5017  Tot=              7.4969

 Test job not archived.
 1\1\GINC-SE423\SP\RHF\Aug-CC-pVDZ\C3H10F1N2(1-)\OHZDE\09-Apr-2025\0\\#
 t hf aug-cc-pvdz iop(5/13=1,5/36=2,99/5=2) pseudo=read geom=check gues
 s=(read,tcheck) scf=(maxcycle=1)\\title\\-1,1\C,0,-0.19244613,0.053982
 71,-0.35383104\C,0,-0.1407859,0.13629693,1.10639719\F,0,1.1455884,-0.1
 5059416,-0.97281926\H,0,-2.42275174,-0.62994357,1.71856747\H,0,-1.6490
 4775,-0.1449559,1.50565447\H,0,0.29797697,1.07206297,1.47172224\C,0,-0
 .7215152,1.31550064,-1.00249931\H,0,-0.59158338,1.24540787,-2.08479152
 \H,0,-1.78562046,1.42739751,-0.77640759\H,0,-0.18478145,2.18919584,-0.

 Normal termination of Gaussian 16 at Wed Apr  9 03:01:03 2025.
