 Gaussian 16, Revision C.01,

 ----------------------------------------------------------------------
 #t hf aug-cc-pvdz symm=none int=(grid=ultrafine) guess=(read,tcheck) s
 table=(opt,rrhf)
 ----------------------------------------------------------------------
 -----
 title
 -----
 Symbolic Z-matrix:
 Charge = -1 Multiplicity = 1

 SCF Done:  E(RHF) =  -515.245721337     A.U. after   16 cycles
 Normal termination of Gaussian 16 at Wed Apr  9 02:54:42 2025.
 Gaussian 16:  ES64L-G16RevC.01  3-Jul-2019

 ----------------------------------------------------------------------
 #t hf aug-cc-pvdz iop(5/13=1,5/36=2,99/5=2) pseudo=read geom=check gue
 ss=(read,tcheck) scf=(maxcycle=1)
 ----------------------------------------------------------------------
 -----
 title
 -----
 Structure from the checkpoint file:  "E2SN2_343_mol2.chk"
 Charge = -1 Multiplicity = 1

                         Standard orientation:
 ---------------------------------------------------------------------
 Center     Atomic      Atomic             Coordinates (Angstroms)
 Number     Number       Type             X           Y           Z
 ---------------------------------------------------------------------
      1          6           0       -0.934963   -0.374057    0.012812
      2          6           0        0.175765    0.508409   -0.565418
      3          9           0       -0.471606   -1.708688   -0.116150
      4          1           0        0.295453    0.247111   -1.624486
      5          6           0       -1.237828   -0.118808    1.471901
      6          1           0       -0.337058   -0.195054    2.078600
      7          1           0       -1.675187    0.878428    1.574976
      8          1           0       -1.966084   -0.865062    1.804211
      9          6           0       -2.177861   -0.232874   -0.839457
     10          1           0       -1.948149   -0.440171   -1.888806
     11          1           0       -2.926975   -0.953286   -0.498079
     12          1           0       -2.574014    0.782665   -0.725114
     13          7           0        1.531772   -0.012340   -0.018979
     14          8           0        2.272340   -0.573673   -0.830927
     15          8           0        1.810633    0.174620    1.160585
     16          7           0        0.013201    1.872941   -0.269670
     17          1           0        0.319782    2.453931   -1.038368
     18          1           0       -0.969115    2.187554   -0.003339
     19          1           0       -2.403462    2.754273    0.270001
 ---------------------------------------------------------------------

 SCF Done:  E(RHF) =  -517.524870907     A.U. after    2 cycles

 The electronic state is 1-A.
 Alpha  occ. eigenvalues --  -29.12683 -20.96555 -20.96380 -15.84700 -15.59130
 Alpha  occ. eigenvalues --  -11.40610 -11.35423 -11.27427 -11.24217  -1.85281
 Alpha  occ. eigenvalues --   -1.55581  -1.27897  -1.12872  -0.96991  -0.90618
 Alpha  occ. eigenvalues --   -0.79513  -0.70839  -0.62021  -0.57417  -0.56461
 Alpha  occ. eigenvalues --   -0.50465  -0.48433  -0.46822  -0.45946  -0.43270
 Alpha  occ. eigenvalues --   -0.41794  -0.39981  -0.36985  -0.35893  -0.25862
 Alpha  occ. eigenvalues --   -0.22982  -0.21119  -0.18529  -0.18052  -0.13134
 Alpha  occ. eigenvalues --   -0.12604  -0.11248
 Alpha virt. eigenvalues --    0.13282   0.13752   0.13963   0.15109   0.16038
 Alpha virt. eigenvalues --    0.16712   0.17843   0.18585   0.20565   0.21996
 Alpha virt. eigenvalues --    0.22672   0.23078   0.24003   0.24420   0.24993

 Mulliken charges:
               1
     1  C    3.443995
     2  C   -0.758409
     3  F   -0.177742
     4  H    1.919353
     5  C   -4.497536
     6  H    1.284161
     7  H    1.414015
     8  H    1.183195
     9  C   -4.445533
    10  H    1.118722
    11  H    1.084327
    12  H    1.391189
    13  N    4.793854
    14  O   -2.873413
    15  O   -2.965101
    16  N   -3.191540
    17  H    0.510812
    18  H    0.784826
    19  H   -1.019174
 Sum of Mulliken charges =  -1.00000

 Dipole moment (field-independent basis, Debye):
    X=              5.7800    Y=             -9.8006    Z=             -1.8590  Tot=             11.5289

 Test job not archived.
 1\1\GINC-SE419\SP\RHF\Aug-CC-pVDZ\C4H10F1N2O2(1-)\OHZDE\09-Apr-2025\0\
 \#t hf aug-cc-pvdz iop(5/13=1,5/36=2,99/5=2) pseudo=read geom=check gu
 ess=(read,tcheck) scf=(maxcycle=1)\\title\\-1,1\C,0,-0.022463,0.017072
 ,-0.009254\C,0,-0.366918,-0.067508,-1.49956\F,0,1.394195,0.054196,0.05
 6113\H,0,0.057292,-1.001222,-1.890008\C,0,-0.559136,1.247897,0.685636\
 H,0,-0.247972,2.155652,0.171396\H,0,-1.651003,1.190898,0.716691\H,0,-0
 .172012,1.257184,1.709223\C,0,-0.483094,-1.24875,0.681111\H,0,-0.07094
 4,-2.129741,0.180251\H,0,-0.128501,-1.238752,1.715938\H,0,-1.578708,-1

 Normal termination of Gaussian 16 at Wed Apr  9 02:54:51 2025.
