 Gaussian 16, Revision C.01,

 ----------------------------------------------------------------------
 #t hf aug-cc-pvdz symm=none int=(grid=ultrafine) guess=(read,tcheck) s
 table=(opt,rrhf)
 ----------------------------------------------------------------------
 -----
 title
 -----
 Symbolic Z-matrix:
 Charge = -1 Multiplicity = 1

 SCF Done:  E(RHF) =  -862.495273537     A.U. after   16 cycles
 Normal termination of Gaussian 16 at Wed Apr  9 02:54:52 2025.
 Gaussian 16:  ES64L-G16RevC.01  3-Jul-2019

 ----------------------------------------------------------------------
 #t hf aug-cc-pvdz iop(5/13=1,5/36=2,99/5=2) pseudo=read geom=check gue
 ss=(read,tcheck) scf=(maxcycle=1)
 ----------------------------------------------------------------------
 -----
 title
 -----
 Structure from the checkpoint file:  "E2SN2_347_mol2.chk"
 Charge = -1 Multiplicity = 1

                         Standard orientation:
 ---------------------------------------------------------------------
 Center     Atomic      Atomic             Coordinates (Angstroms)
 Number     Number       Type             X           Y           Z
 ---------------------------------------------------------------------
      1          6           0        0.154957   -0.617374    0.029493
      2          6           0        0.042291    0.728795   -0.736087
      3         17           0        1.916824   -1.117026   -0.097967
      4          1           0        0.577152    0.586897   -1.683841
      5          6           0       -0.214421   -0.493862    1.493008
      6          1           0       -1.286620   -0.247517    1.511926
      7          1           0        0.389801    0.263380    1.996984
      8          1           0       -0.060400   -1.454366    1.992947
      9          6           0       -0.706096   -1.664595   -0.650150
     10          1           0       -1.744840   -1.382486   -0.432554
     11          1           0       -0.496433   -2.649875   -0.225696
     12          1           0       -0.513071   -1.702024   -1.727441
     13          6           0        0.782753    1.788529   -0.017174
     14          7           0        1.367825    2.643641    0.535772
     15          7           0       -1.310571    1.181670   -1.011429
     16          1           0       -1.591460    0.764337   -1.890557
     17          1           0       -1.993000    0.797054   -0.304745
     18          9           0       -2.958312   -0.134676    0.560385
 ---------------------------------------------------------------------

 SCF Done:  E(RHF) =  -864.560686495     A.U. after    2 cycles

 The electronic state is 1-A.
 Alpha  occ. eigenvalues --  -99.74991 -28.90902 -15.63170 -15.57751 -11.38527
 Alpha  occ. eigenvalues --  -11.33899 -11.30477 -11.26209 -11.23348 -10.32378
 Alpha  occ. eigenvalues --   -9.52397  -9.51708  -9.51653  -1.29290  -1.18203
 Alpha  occ. eigenvalues --   -1.14400  -1.03653  -0.90205  -0.88582  -0.69924
 Alpha  occ. eigenvalues --   -0.59732  -0.56528  -0.52182  -0.48642  -0.47576
 Alpha  occ. eigenvalues --   -0.44928  -0.42316  -0.39105  -0.38741  -0.38172
 Alpha  occ. eigenvalues --   -0.37162  -0.35276  -0.31777  -0.30120  -0.28971
 Alpha  occ. eigenvalues --   -0.27014  -0.21650   0.00165   0.00720   0.02059
 Alpha virt. eigenvalues --    0.13189   0.14139   0.14439   0.15332   0.16279
 Alpha virt. eigenvalues --    0.16676   0.17245   0.18431   0.19403   0.19840
 Alpha virt. eigenvalues --    0.20978   0.22053   0.23369   0.24289   0.24396

 Mulliken charges:
               1
     1  C    2.153526
     2  C   -0.546667
     3  Cl  -0.352335
     4  H    1.743042
     5  C   -4.095497
     6  H    1.101907
     7  H    1.227238
     8  H    1.109991
     9  C   -3.991999
    10  H    1.197396
    11  H    1.063033
    12  H    1.092529
    13  C    2.407296
    14  N   -2.558949
    15  N   -2.666392
    16  H    0.335213
    17  H    0.351190
    18  F   -0.570519
 Sum of Mulliken charges =  -1.00000

 Dipole moment (field-independent basis, Debye):
    X=              2.8027    Y=             -2.7147    Z=             -2.0139  Tot=              4.3910

 Test job not archived.
 1\1\GINC-SE456\SP\RHF\Aug-CC-pVDZ\C5H9Cl1F1N2(1-)\OHZDE\09-Apr-2025\0\
 \#t hf aug-cc-pvdz iop(5/13=1,5/36=2,99/5=2) pseudo=read geom=check gu
 ess=(read,tcheck) scf=(maxcycle=1)\\title\\-1,1\C,0,-0.020256,-0.00332
 ,-0.03039\C,0,-0.311211,-0.221026,-1.540002\Cl,0,1.807696,0.078307,0.1
 17936\H,0,0.371481,-1.013827,-1.871436\C,0,-0.612843,1.284441,0.502605
 \H,0,-1.704378,1.16042,0.440767\H,0,-0.265314,2.150914,-0.063911\H,0,-
 0.327515,1.413896,1.550488\C,0,-0.527922,-1.191463,0.763707\H,0,-1.623
 28,-1.115521,0.745131\H,0,-0.172707,-1.127313,1.795504\H,0,-0.179476,-

 Normal termination of Gaussian 16 at Wed Apr  9 02:55:01 2025.
