 Gaussian 16, Revision C.01,

 ----------------------------------------------------------------------
 #t hf aug-cc-pvdz symm=none int=(grid=ultrafine) guess=(read,tcheck) s
 table=(opt,rrhf)
 ----------------------------------------------------------------------
 -----
 title
 -----
 Symbolic Z-matrix:
 Charge = -1 Multiplicity = 1

 SCF Done:  E(RHF) =  -836.232054863     A.U. after   16 cycles
 Normal termination of Gaussian 16 at Wed Apr  9 02:33:05 2025.
 Gaussian 16:  ES64L-G16RevC.01  3-Jul-2019

 ----------------------------------------------------------------------
 #t hf aug-cc-pvdz iop(5/13=1,5/36=2,99/5=2) pseudo=read geom=check gue
 ss=(read,tcheck) scf=(maxcycle=1)
 ----------------------------------------------------------------------
 -----
 title
 -----
 Structure from the checkpoint file:  "E2SN2_102_mol1.chk"
 Charge = -1 Multiplicity = 1

                         Standard orientation:
 ---------------------------------------------------------------------
 Center     Atomic      Atomic             Coordinates (Angstroms)
 Number     Number       Type             X           Y           Z
 ---------------------------------------------------------------------
      1          6           0        0.044551    0.227905    0.430275
      2          6           0       -1.358669   -0.256855    0.780562
      3         17           0       -0.052259    1.606095   -0.755050
      4          1           0       -0.171012   -2.048632    2.921064
      5          1           0       -1.178866   -1.105094    1.474619
      6          1           0       -1.787364    0.548676    1.386367
      7          6           0        0.816981    0.631178    1.680846
      8          1           0        1.146551    1.669016    1.619064
      9          1           0        0.187010    0.457317    2.552273
     10          1           0        1.678359   -0.017106    1.817477
     11          7           0        0.847534   -0.823836   -0.339624
     12          8           0        2.047468   -0.611267   -0.478373
     13          8           0        0.249739   -1.789312   -0.804623
     14          7           0       -2.291456   -0.594554   -0.277233
     15          1           0       -1.960312   -1.432657   -0.733263
     16          1           0       -2.313348    0.144852   -0.969883
 ---------------------------------------------------------------------

 SCF Done:  E(RHF) =  -838.208259888     A.U. after    2 cycles

 The electronic state is 1-A.
 Alpha  occ. eigenvalues --  -99.79191 -20.98501 -20.98066 -15.87761 -15.61423
 Alpha  occ. eigenvalues --  -11.41437 -11.30116 -11.26545 -10.36582  -9.56596
 Alpha  occ. eigenvalues --   -9.55873  -9.55801  -1.87940  -1.57791  -1.29070
 Alpha  occ. eigenvalues --   -1.19340  -1.07314  -0.91435  -0.85844  -0.68549
 Alpha  occ. eigenvalues --   -0.61684  -0.57427  -0.54867  -0.53683  -0.49781
 Alpha  occ. eigenvalues --   -0.47253  -0.43532  -0.41862  -0.41614  -0.39804
 Alpha  occ. eigenvalues --   -0.37776  -0.37361  -0.26693  -0.21610  -0.20040
 Alpha  occ. eigenvalues --   -0.19659  -0.09137
 Alpha virt. eigenvalues --    0.13198   0.13481   0.14990   0.15317   0.16965
 Alpha virt. eigenvalues --    0.17240   0.18097   0.19582   0.20893   0.22934
 Alpha virt. eigenvalues --    0.23585   0.23921   0.24949   0.25188   0.25975

 Mulliken charges:
               1
     1  C    1.080128
     2  C   -0.521832
     3  Cl  -0.189221
     4  H   -1.080985
     5  H    1.339342
     6  H    1.331062
     7  C   -3.833616
     8  H    1.180986
     9  H    1.316822
    10  H    1.510531
    11  N    4.200185
    12  O   -2.934132
    13  O   -2.903989
    14  N   -2.647033
    15  H    0.609769
    16  H    0.541984
 Sum of Mulliken charges =  -1.00000

 Dipole moment (field-independent basis, Debye):
    X=              0.6936    Y=              7.5710    Z=             -9.5641  Tot=             12.2177

 Test job not archived.
 1\1\GINC-SE253\SP\RHF\Aug-CC-pVDZ\C3H8Cl1N2O2(1-)\OHZDE\09-Apr-2025\0\
 \#t hf aug-cc-pvdz iop(5/13=1,5/36=2,99/5=2) pseudo=read geom=check gu
 ess=(read,tcheck) scf=(maxcycle=1)\\title\\-1,1\C,0,-0.16395848,0.0241
 1944,-0.19495012\C,0,-0.34359236,0.03758207,1.31973396\Cl,0,1.58036888
 ,0.32998872,-0.61631078\H,0,-3.19924947,-0.91999318,0.95777569\H,0,-1.
 43352878,-0.12569408,1.4573321\H,0,0.1490166,-0.8774482,1.66573271\C,0
 ,-0.65330448,-1.28796468,-0.79676465\H,0,0.14418682,-1.7859778,-1.3495
 1502\H,0,-1.04465153,-1.91519094,0.00317895\H,0,-1.4972453,-1.10828754

 Normal termination of Gaussian 16 at Wed Apr  9 02:33:11 2025.
