 Gaussian 16, Revision C.01,

 ----------------------------------------------------------------------
 #t hf aug-cc-pvdz symm=none int=(grid=ultrafine) guess=(read,tcheck) s
 table=(opt,rrhf)
 ----------------------------------------------------------------------
 -----
 title
 -----
 Symbolic Z-matrix:
 Charge = -1 Multiplicity = 1

 SCF Done:  E(RHF) =  -935.214408613     A.U. after   16 cycles
 Normal termination of Gaussian 16 at Wed Apr  9 03:01:35 2025.
 Gaussian 16:  ES64L-G16RevC.01  3-Jul-2019

 ----------------------------------------------------------------------
 #t hf aug-cc-pvdz iop(5/13=1,5/36=2,99/5=2) pseudo=read geom=check gue
 ss=(read,tcheck) scf=(maxcycle=1)
 ----------------------------------------------------------------------
 -----
 title
 -----
 Structure from the checkpoint file:  "E2SN2_6_mol2.chk"
 Charge = -1 Multiplicity = 1

                         Standard orientation:
 ---------------------------------------------------------------------
 Center     Atomic      Atomic             Coordinates (Angstroms)
 Number     Number       Type             X           Y           Z
 ---------------------------------------------------------------------
      1          6           0        0.060321    0.189314   -0.284266
      2          6           0       -0.756346   -0.124026    0.986633
      3         17           0        0.126647   -1.194588   -1.395689
      4          1           0       -0.706108    0.817888    1.543265
      5          1           0       -0.517117    1.028042   -0.774165
      6          7           0        1.437944    0.620498    0.096928
      7          8           0        2.433945   -0.003273   -0.265785
      8          8           0        1.471919    1.624268    0.812636
      9          6           0       -0.165125   -1.250477    1.817573
     10          1           0       -0.177645   -2.191185    1.260334
     11          1           0        0.867894   -1.043733    2.112860
     12          1           0       -0.769762   -1.378602    2.718070
     13          7           0       -2.155311   -0.349498    0.677278
     14          1           0       -2.217169   -1.183002    0.099486
     15          1           0       -2.393554    0.457683    0.066740
     16          9           0       -1.921998    1.783009   -0.912641
 ---------------------------------------------------------------------

 SCF Done:  E(RHF) =  -937.509083103     A.U. after    2 cycles

 The electronic state is 1-A.
 Alpha  occ. eigenvalues --  -99.76156 -28.91236 -20.97269 -20.96601 -15.86559
 Alpha  occ. eigenvalues --  -15.56868 -11.35992 -11.30230 -11.25001 -10.33603
 Alpha  occ. eigenvalues --   -9.53641  -9.52836  -9.52773  -1.86457  -1.56177
 Alpha  occ. eigenvalues --   -1.26790  -1.17561  -1.02592  -0.94560  -0.78253
 Alpha  occ. eigenvalues --   -0.68814  -0.60043  -0.58652  -0.55553  -0.51216
 Alpha  occ. eigenvalues --   -0.47603  -0.45295  -0.44623  -0.41013  -0.38040
 Alpha  occ. eigenvalues --   -0.36319  -0.35578  -0.34970  -0.28922  -0.23449
 Alpha  occ. eigenvalues --   -0.20030  -0.19125  -0.18166  -0.00245   0.00259
 Alpha  occ. eigenvalues --    0.02056
 Alpha virt. eigenvalues --    0.13318   0.14597   0.15187   0.16083   0.16357
 Alpha virt. eigenvalues --    0.18022   0.19316   0.19825   0.22337   0.24109
 Alpha virt. eigenvalues --    0.24473   0.25541   0.25876   0.26209   0.26963

 Mulliken charges:
               1
     1  C   -0.465493
     2  C    1.180483
     3  Cl  -0.077087
     4  H    1.774960
     5  H    1.227877
     6  N    4.002662
     7  O   -2.819280
     8  O   -2.856554
     9  C   -3.702455
    10  H    1.271816
    11  H    1.166773
    12  H    1.134791
    13  N   -3.017209
    14  H    0.488378
    15  H    0.272558
    16  F   -0.582219
 Sum of Mulliken charges =  -1.00000

 Dipole moment (field-independent basis, Debye):
    X=              2.9769    Y=             -2.6729    Z=              2.1149  Tot=              4.5253

 Test job not archived.
 1\1\GINC-SE042\SP\RHF\Aug-CC-pVDZ\C3H7Cl1F1N2O2(1-)\OHZDE\09-Apr-2025\
 0\\#t hf aug-cc-pvdz iop(5/13=1,5/36=2,99/5=2) pseudo=read geom=check
 guess=(read,tcheck) scf=(maxcycle=1)\\title\\-1,1\C,0,-0.103076,-0.026
 257,-1.414494\C,0,0.132537,-0.185721,0.101873\Cl,0,-1.761288,0.492364,
 -1.783561\H,0,1.183063,-0.491524,0.151315\H,0,0.614577,0.794094,-1.712
 652\N,0,0.210489,-1.309756,-2.109748\O,0,-0.640984,-1.92097,-2.75324\O
 ,0,1.371922,-1.695203,-1.956613\C,0,-0.748124,-1.248259,0.737755\H,0,-
 1.803491,-0.971676,0.66492\H,0,-0.619084,-2.225672,0.263332\H,0,-0.489

 Normal termination of Gaussian 16 at Wed Apr  9 03:01:43 2025.
