 Gaussian 16, Revision C.01,

 ----------------------------------------------------------------------
 #t hf aug-cc-pvdz symm=none int=(grid=ultrafine) guess=(read,tcheck) s
 table=(opt,rrhf)
 ----------------------------------------------------------------------
 -----
 title
 -----
 Symbolic Z-matrix:
 Charge = -1 Multiplicity = 1

 SCF Done:  E(RHF) =  -971.882864279     A.U. after   17 cycles
 Normal termination of Gaussian 16 at Wed Apr  9 02:44:47 2025.
 Gaussian 16:  ES64L-G16RevC.01  3-Jul-2019

 ----------------------------------------------------------------------
 #t hf aug-cc-pvdz iop(5/13=1,5/36=2,99/5=2) pseudo=read geom=check gue
 ss=(read,tcheck) scf=(maxcycle=1)
 ----------------------------------------------------------------------
 -----
 title
 -----
 Structure from the checkpoint file:  "E2SN2_229_mol2.chk"
 Charge = -1 Multiplicity = 1

                         Standard orientation:
 ---------------------------------------------------------------------
 Center     Atomic      Atomic             Coordinates (Angstroms)
 Number     Number       Type             X           Y           Z
 ---------------------------------------------------------------------
      1          6           0        0.081345    0.128886   -0.032483
      2          6           0        0.878744   -0.116567   -1.300060
      3         17           0        0.234389    1.926219    0.381769
      4          1           0        0.476738   -1.043572   -1.697965
      5          1           0        0.685706    0.708835   -1.989111
      6          7           0       -1.410712   -0.043668   -0.249728
      7          8           0       -1.811488    0.043560   -1.403932
      8          8           0       -2.109065   -0.136854    0.747370
      9          6           0        0.512517   -0.619062    1.142086
     10          7           0        1.031948   -0.857458    2.174019
     11          6           0        2.363699   -0.266022   -1.003028
     12          1           0        2.522827   -1.168570   -0.411691
     13          1           0        2.761166    0.589048   -0.450110
     14          1           0        2.924678   -0.360333   -1.937519
     15          9           0       -0.261977   -2.131145   -0.117813
 ---------------------------------------------------------------------

 SCF Done:  E(RHF) =  -974.324749814     A.U. after    2 cycles

 The electronic state is 1-A.
 Alpha  occ. eigenvalues --  -99.77999 -28.91676 -20.96313 -20.96121 -15.86752
 Alpha  occ. eigenvalues --  -15.60926 -11.44276 -11.32343 -11.30183 -11.25438
 Alpha  occ. eigenvalues --  -10.35283  -9.55309  -9.54586  -9.54575  -1.86264
 Alpha  occ. eigenvalues --   -1.56270  -1.27593  -1.14508  -1.08736  -0.99555
 Alpha  occ. eigenvalues --   -0.80483  -0.77258  -0.64015  -0.59413  -0.54365
 Alpha  occ. eigenvalues --   -0.51782  -0.46927  -0.46749  -0.43396  -0.40437
 Alpha  occ. eigenvalues --   -0.39950  -0.38827  -0.36809  -0.35752  -0.34894
 Alpha  occ. eigenvalues --   -0.29819  -0.24681  -0.22361  -0.18677  -0.17541
 Alpha  occ. eigenvalues --   -0.01340  -0.00044   0.00739
 Alpha virt. eigenvalues --    0.12564   0.14493   0.14723   0.16525   0.16799
 Alpha virt. eigenvalues --    0.18226   0.21104   0.21948   0.22916   0.23734
 Alpha virt. eigenvalues --    0.24445   0.24960   0.25493   0.26262   0.26679

 Mulliken charges:
               1
     1  C   -1.494800
     2  C   -2.251473
     3  Cl  -0.310988
     4  H    0.940839
     5  H    1.381686
     6  N    5.751570
     7  O   -3.160527
     8  O   -3.316967
     9  C    6.200666
    10  N   -3.557384
    11  C   -4.011639
    12  H    1.376657
    13  H    1.192838
    14  H    1.074097
    15  F   -0.814574
 Sum of Mulliken charges =  -1.00000

 Dipole moment (field-independent basis, Debye):
    X=             -0.1720    Y=             -0.5851    Z=             -4.5551  Tot=              4.5957

 Test job not archived.
 1\1\GINC-SE188\SP\RHF\Aug-CC-pVDZ\C4H5Cl1F1N2O2(1-)\OHZDE\09-Apr-2025\
 0\\#t hf aug-cc-pvdz iop(5/13=1,5/36=2,99/5=2) pseudo=read geom=check
 guess=(read,tcheck) scf=(maxcycle=1)\\title\\-1,1\C,0,-0.069105,0.0032
 38,-0.020953\C,0,-0.41156,0.083529,-1.497138\Cl,0,1.775037,-0.066742,0
 .119317\H,0,-1.420867,0.483599,-1.519891\H,0,0.284535,0.779457,-1.9709
 3\N,0,-0.417793,1.280877,0.720166\O,0,-0.535299,2.294441,0.04245\O,0,-
 0.437406,1.226705,1.939701\C,0,-0.59645,-1.155141,0.68969\N,0,-0.63340
 8,-2.214888,1.206505\C,0,-0.369413,-1.288729,-2.153484\H,0,-1.158709,-

 Normal termination of Gaussian 16 at Wed Apr  9 02:44:55 2025.
