 Gaussian 16, Revision C.01,

 ----------------------------------------------------------------------
 #t hf aug-cc-pvdz symm=none int=(grid=ultrafine) guess=(read,tcheck) s
 table=(opt,rrhf)
 ----------------------------------------------------------------------
 -----
 title
 -----
 Symbolic Z-matrix:
 Charge = -1 Multiplicity = 1

 SCF Done:  E(RHF) =  -1175.37011388     A.U. after   18 cycles
 Normal termination of Gaussian 16 at Wed Apr  9 02:51:10 2025.
 Gaussian 16:  ES64L-G16RevC.01  3-Jul-2019

 ----------------------------------------------------------------------
 #t hf aug-cc-pvdz iop(5/13=1,5/36=2,99/5=2) pseudo=read geom=check gue
 ss=(read,tcheck) scf=(maxcycle=1)
 ----------------------------------------------------------------------
 -----
 title
 -----
 Structure from the checkpoint file:  "E2SN2_280_mol2.chk"
 Charge = -1 Multiplicity = 1

                         Standard orientation:
 ---------------------------------------------------------------------
 Center     Atomic      Atomic             Coordinates (Angstroms)
 Number     Number       Type             X           Y           Z
 ---------------------------------------------------------------------
      1          6           0        0.888935   -0.414008   -0.238051
      2          6           0       -0.471192    0.222533   -0.510346
      3         17           0        2.029487    0.797677   -1.094751
      4          1           0       -0.504757    0.510063   -1.560959
      5          6           0        1.367666   -0.486398    1.142174
      6          7           0        2.118291   -0.444807    2.050926
      7          6           0        1.077632   -1.742905   -0.954106
      8          1           0        2.131264   -2.019586   -0.883147
      9          1           0        0.795960   -1.659559   -2.004772
     10          1           0        0.453057   -2.459488   -0.429335
     11          7           0       -0.706032    1.502682    0.229469
     12          8           0       -0.307692    1.607882    1.380480
     13          8           0       -1.324777    2.357723   -0.405871
     14          7           0       -1.717041   -0.617753   -0.339488
     15          8           0       -2.593616   -0.209001    0.402653
     16          8           0       -1.811992   -1.535506   -1.144233
     17          9           0       -0.457439   -1.584102    1.266707
 ---------------------------------------------------------------------

 SCF Done:  E(RHF) =  -1178.63286803     A.U. after    2 cycles

 The electronic state is 1-A.
 Alpha  occ. eigenvalues --  -99.78669 -28.92741 -21.00463 -20.99551 -20.98325
 Alpha  occ. eigenvalues --  -20.97614 -15.89936 -15.89458 -15.61031 -11.46979
 Alpha  occ. eigenvalues --  -11.42017 -11.32169 -11.28823 -10.35953  -9.55988
 Alpha  occ. eigenvalues --   -9.55378  -9.55280  -1.90346  -1.87153  -1.59462
 Alpha  occ. eigenvalues --   -1.58578  -1.30014  -1.16111  -1.14628  -1.03786
 Alpha  occ. eigenvalues --   -0.89721  -0.85475  -0.75470  -0.64527  -0.64005
 Alpha  occ. eigenvalues --   -0.62196  -0.58030  -0.52421  -0.52272  -0.49247
 Alpha  occ. eigenvalues --   -0.48579  -0.47163  -0.45921  -0.43853  -0.42275
 Alpha  occ. eigenvalues --   -0.38758  -0.37099  -0.35845  -0.31011  -0.26206
 Alpha  occ. eigenvalues --   -0.25157  -0.23106  -0.22837  -0.21231  -0.19565
 Alpha  occ. eigenvalues --   -0.18900  -0.03043  -0.00847  -0.00367
 Alpha virt. eigenvalues --    0.12990   0.13928   0.15011   0.16664   0.16974
 Alpha virt. eigenvalues --    0.20451   0.20860   0.21421   0.22762   0.23524
 Alpha virt. eigenvalues --    0.23722   0.24089   0.24908   0.25160   0.25980

 Mulliken charges:
               1
     1  C    0.692009
     2  C   -0.924263
     3  Cl  -0.256849
     4  H    2.172695
     5  C    4.182944
     6  N   -3.402543
     7  C   -3.926875
     8  H    1.034792
     9  H    1.182147
    10  H    1.245551
    11  N    4.297437
    12  O   -2.941595
    13  O   -2.822671
    14  N    5.737121
    15  O   -2.997932
    16  O   -3.286065
    17  F   -0.985906
 Sum of Mulliken charges =  -1.00000

 Dipole moment (field-independent basis, Debye):
    X=             -3.6204    Y=             -1.3650    Z=             -1.9208  Tot=              4.3197

 Test job not archived.
 1\1\GINC-SE208\SP\RHF\Aug-CC-pVDZ\C4H4Cl1F1N3O4(1-)\OHZDE\09-Apr-2025\
 0\\#t hf aug-cc-pvdz iop(5/13=1,5/36=2,99/5=2) pseudo=read geom=check
 guess=(read,tcheck) scf=(maxcycle=1)\\title\\-1,1\C,0,-0.053528,-0.030
 899,-0.003929\C,0,-0.332185,-0.122234,-1.501689\Cl,0,1.809116,0.152061
 ,0.003405\H,0,0.38732,-0.815368,-1.936966\C,0,-0.558773,1.125249,0.735
 999\N,0,-0.580066,2.01037,1.51517\C,0,-0.348725,-1.326933,0.735979\H,0
 ,0.072055,-1.247391,1.740142\H,0,0.101793,-2.177122,0.221783\H,0,-1.43
 0477,-1.412038,0.775194\N,0,-0.106293,1.157739,-2.244588\O,0,-0.429246

 Normal termination of Gaussian 16 at Wed Apr  9 02:51:23 2025.
