 Gaussian 16, Revision C.01,

 ----------------------------------------------------------------------
 #t hf aug-cc-pvdz symm=none int=(grid=ultrafine) guess=(read,tcheck) s
 table=(opt,rrhf)
 ----------------------------------------------------------------------
 -----
 title
 -----
 Symbolic Z-matrix:
 Charge = -1 Multiplicity = 1

 SCF Done:  E(RHF) =  -695.648112332     A.U. after   17 cycles
 Normal termination of Gaussian 16 at Wed Apr  9 02:59:45 2025.
 Gaussian 16:  ES64L-G16RevC.01  3-Jul-2019

 ----------------------------------------------------------------------
 #t hf aug-cc-pvdz iop(5/13=1,5/36=2,99/5=2) pseudo=read geom=check gue
 ss=(read,tcheck) scf=(maxcycle=1)
 ----------------------------------------------------------------------
 -----
 title
 -----
 Structure from the checkpoint file:  "E2SN2_407_mol1.chk"
 Charge = -1 Multiplicity = 1

                         Standard orientation:
 ---------------------------------------------------------------------
 Center     Atomic      Atomic             Coordinates (Angstroms)
 Number     Number       Type             X           Y           Z
 ---------------------------------------------------------------------
      1          6           0       -1.222442   -0.431248    0.142502
      2          1           0        0.230436    0.138841    1.591180
      3          9           0       -1.648086    0.880409   -0.674841
      4          1           0       -0.606855   -1.834190    1.150017
      5          6           0        0.194366   -0.041808    0.527133
      6          7           0       -1.455141   -1.334207   -0.952365
      7          1           0       -2.267414   -1.000568   -1.454465
      8          1           0       -1.579586   -2.266250   -0.595181
      9          7           0       -2.167734   -0.205708    1.227063
     10          1           0       -2.451358   -1.094157    1.604284
     11          1           0       -2.953199    0.296021    0.830471
     12          7           0        0.655772    1.307274   -0.100712
     13          8           0        1.125791    1.307178   -1.233365
     14          8           0        0.504598    2.298420    0.609015
     15          7           0        1.338047   -0.950741    0.196242
     16          8           0        2.255969   -0.917104    1.022955
     17          8           0        1.367717   -1.568663   -0.856372
 ---------------------------------------------------------------------

 SCF Done:  E(RHF) =  -698.628613469     A.U. after    2 cycles

 The electronic state is 1-A.
 Alpha  occ. eigenvalues --  -29.04499 -20.96259 -20.96078 -20.96032 -20.95403
 Alpha  occ. eigenvalues --  -15.86186 -15.85270 -15.61099 -15.60493 -11.51289
 Alpha  occ. eigenvalues --  -11.37345  -1.86678  -1.83714  -1.55738  -1.55080
 Alpha  occ. eigenvalues --   -1.31416  -1.13510  -1.12219  -0.86473  -0.83284
 Alpha  occ. eigenvalues --   -0.70162  -0.63007  -0.58731  -0.57214  -0.56255
 Alpha  occ. eigenvalues --   -0.51934  -0.48905  -0.48121  -0.46525  -0.46124
 Alpha  occ. eigenvalues --   -0.41537  -0.38708  -0.31499  -0.26438  -0.22963
 Alpha  occ. eigenvalues --   -0.21400  -0.19880  -0.18944  -0.17727  -0.16940
 Alpha  occ. eigenvalues --   -0.15531  -0.09670  -0.08573  -0.07864
 Alpha virt. eigenvalues --    0.13153   0.14028   0.15339   0.16126   0.16934
 Alpha virt. eigenvalues --    0.18547   0.22683   0.23178   0.24979   0.25916
 Alpha virt. eigenvalues --    0.26219   0.26689   0.27285   0.27556   0.28426

 Mulliken charges:
               1
     1  C    4.231868
     2  H    2.334787
     3  F    0.072220
     4  H   -0.824160
     5  C   -0.335391
     6  N   -3.106515
     7  H    0.381592
     8  H    0.603463
     9  N   -3.054078
    10  H    0.616569
    11  H    0.337600
    12  N    5.106797
    13  O   -3.023137
    14  O   -2.976458
    15  N    4.509742
    16  O   -2.862829
    17  O   -3.012068
 Sum of Mulliken charges =  -1.00000

 Dipole moment (field-independent basis, Debye):
    X=             -2.3741    Y=              3.6247    Z=             -3.4472  Tot=              5.5370

 Test job not archived.
 1\1\GINC-SE060\SP\RHF\Aug-CC-pVDZ\C2H6F1N4O4(1-)\OHZDE\09-Apr-2025\0\\
 #t hf aug-cc-pvdz iop(5/13=1,5/36=2,99/5=2) pseudo=read geom=check gue
 ss=(read,tcheck) scf=(maxcycle=1)\\title\\-1,1\C,0,0.43344475,-0.17298
 444,0.09549401\H,0,1.47411148,1.52925272,0.839756\F,0,-0.93461094,-0.3
 1613374,0.91865784\H,0,2.01900919,0.14810079,-0.7677382\C,0,0.6323687,
 1.32960977,0.19342576\N,0,-0.09067592,-0.75880959,-1.10880042\H,0,-0.7
 2170879,-1.50097617,-0.83641448\H,0,0.6703595,-1.08999901,-1.67705129\
 N,0,1.23447635,-0.89791846,1.07198502\H,0,1.98579795,-1.36746096,0.595

 Normal termination of Gaussian 16 at Wed Apr  9 02:59:55 2025.
