 Gaussian 16, Revision C.01,

 ----------------------------------------------------------------------
 #t hf aug-cc-pvdz symm=none int=(grid=ultrafine) guess=(read,tcheck) s
 table=(opt,rrhf)
 ----------------------------------------------------------------------
 -----
 title
 -----
 Symbolic Z-matrix:
 Charge = -1 Multiplicity = 1

 SCF Done:  E(RHF) =  -971.971652775     A.U. after   16 cycles
 Normal termination of Gaussian 16 at Wed Apr  9 02:47:45 2025.
 Gaussian 16:  ES64L-G16RevC.01  3-Jul-2019

 ----------------------------------------------------------------------
 #t hf aug-cc-pvdz iop(5/13=1,5/36=2,99/5=2) pseudo=read geom=check gue
 ss=(read,tcheck) scf=(maxcycle=1)
 ----------------------------------------------------------------------
 -----
 title
 -----
 Structure from the checkpoint file:  "E2SN2_256_mol2.chk"
 Charge = -1 Multiplicity = 1

                         Standard orientation:
 ---------------------------------------------------------------------
 Center     Atomic      Atomic             Coordinates (Angstroms)
 Number     Number       Type             X           Y           Z
 ---------------------------------------------------------------------
      1          6           0       -0.132103    0.632534    0.621833
      2          6           0        0.148210   -0.628111   -0.186651
      3          9           0        0.357638    0.519398    1.917754
      4          1           0       -0.388221   -0.522263   -1.129766
      5          1           0       -1.225140    0.728335    0.643464
      6          6           0        0.469185    1.828970    0.015678
      7          7           0        0.953191    2.792778   -0.447761
      8          6           0       -0.280639   -1.877589    0.553202
      9          1           0       -1.359920   -1.811741    0.695581
     10          1           0       -0.059288   -2.761151   -0.049924
     11          1           0        0.235885   -1.955136    1.508201
     12          7           0        1.606114   -0.694915   -0.528652
     13          8           0        2.388271   -1.008011    0.368808
     14          8           0        1.932321   -0.414190   -1.682948
     15         17           0       -3.184109   -0.082052   -0.447277
 ---------------------------------------------------------------------

 SCF Done:  E(RHF) =  -974.379445008     A.U. after    2 cycles

 The electronic state is 1-A.
 Alpha  occ. eigenvalues --  -99.62504 -29.17648 -20.99900 -20.99568 -15.88773
 Alpha  occ. eigenvalues --  -15.67777 -11.44499 -11.37647 -11.34508 -11.28949
 Alpha  occ. eigenvalues --  -10.19155  -9.39186  -9.38855  -9.38777  -1.88899
 Alpha  occ. eigenvalues --   -1.58854  -1.26644  -1.17561  -1.03586  -0.98229
 Alpha  occ. eigenvalues --   -0.92531  -0.74351  -0.68666  -0.63782  -0.60991
 Alpha  occ. eigenvalues --   -0.55413  -0.53621  -0.49561  -0.45726  -0.44404
 Alpha  occ. eigenvalues --   -0.42056  -0.41408  -0.35113  -0.34239  -0.29210
 Alpha  occ. eigenvalues --   -0.26964  -0.26257  -0.26109  -0.25308  -0.21859
 Alpha  occ. eigenvalues --   -0.21014  -0.17472  -0.15284
 Alpha virt. eigenvalues --    0.13048   0.14460   0.16382   0.16718   0.17573
 Alpha virt. eigenvalues --    0.19110   0.21332   0.21728   0.22091   0.22712
 Alpha virt. eigenvalues --    0.23523   0.24462   0.24910   0.25469   0.26433

 Mulliken charges:
               1
     1  C    0.404632
     2  C   -1.855836
     3  F    0.020700
     4  H    2.174876
     5  H    1.564188
     6  C    1.028657
     7  N   -2.352759
     8  C   -3.399515
     9  H    1.127352
    10  H    1.165181
    11  H    1.318673
    12  N    4.419676
    13  O   -2.874244
    14  O   -2.789765
    15  Cl  -0.951816
 Sum of Mulliken charges =  -1.00000

 Dipole moment (field-independent basis, Debye):
    X=              8.6207    Y=             -2.5899    Z=              4.6374  Tot=             10.1257

 Test job not archived.
 1\1\GINC-SE222\SP\RHF\Aug-CC-pVDZ\C4H5Cl1F1N2O2(1-)\OHZDE\09-Apr-2025\
 0\\#t hf aug-cc-pvdz iop(5/13=1,5/36=2,99/5=2) pseudo=read geom=check
 guess=(read,tcheck) scf=(maxcycle=1)\\title\\-1,1\C,0,-0.139069,0.0162
 48,0.045966\C,0,-0.505919,0.364212,-1.39132\F,0,1.046164,-0.707696,0.1
 02404\H,0,-1.506907,0.795181,-1.364544\H,0,-0.968935,-0.597676,0.41851
 8\C,0,0.022801,1.211973,0.885292\N,0,0.16848,2.156417,1.567031\C,0,-0.
 453345,-0.849697,-2.294731\H,0,-1.198751,-1.555864,-1.927101\H,0,-0.71
 3971,-0.564224,-3.316503\H,0,0.541375,-1.291635,-2.287173\N,0,0.408611

 Normal termination of Gaussian 16 at Wed Apr  9 02:47:52 2025.
