 Gaussian 16, Revision C.01,

 ----------------------------------------------------------------------
 #t hf aug-cc-pvdz symm=none int=(grid=ultrafine) guess=(read,tcheck) s
 table=(opt,rrhf)
 ----------------------------------------------------------------------
 -----
 title
 -----
 Symbolic Z-matrix:
 Charge = -1 Multiplicity = 1

 SCF Done:  E(RHF) =  -825.850080981     A.U. after   13 cycles
 Normal termination of Gaussian 16 at Wed Apr  9 02:55:32 2025.
 Gaussian 16:  ES64L-G16RevC.01  3-Jul-2019

 ----------------------------------------------------------------------
 #t hf aug-cc-pvdz iop(5/13=1,5/36=2,99/5=2) pseudo=read geom=check gue
 ss=(read,tcheck) scf=(maxcycle=1)
 ----------------------------------------------------------------------
 -----
 title
 -----
 Structure from the checkpoint file:  "E2SN2_354_mol2.chk"
 Charge = -1 Multiplicity = 1

                         Standard orientation:
 ---------------------------------------------------------------------
 Center     Atomic      Atomic             Coordinates (Angstroms)
 Number     Number       Type             X           Y           Z
 ---------------------------------------------------------------------
      1          6           0       -0.919495   -0.631988   -0.006212
      2          6           0       -0.975826    0.831117   -0.482085
      3          9           0       -2.243710   -1.142121   -0.193136
      4          1           0       -1.081357    0.790588   -1.580324
      5          6           0       -0.006361   -1.467541   -0.871310
      6          1           0       -0.040735   -2.510256   -0.543599
      7          1           0       -0.333434   -1.420489   -1.914267
      8          1           0        1.024719   -1.113663   -0.790854
      9          6           0       -0.587200   -0.753898    1.463214
     10          1           0       -1.203077   -0.067437    2.046750
     11          1           0        0.471981   -0.536842    1.617007
     12          1           0       -0.781019   -1.778934    1.790248
     13          7           0        0.183928    1.643418   -0.187329
     14          1           0        0.246736    1.741049    0.820228
     15          1           0        1.058344    1.203508   -0.472608
     16          7           0       -2.111801    1.490516    0.159777
     17          1           0       -2.131070    2.442049   -0.188697
     18          1           0       -2.964371    1.021190   -0.117155
     19         17           0        3.197357    0.041450    0.037807
 ---------------------------------------------------------------------

 SCF Done:  E(RHF) =  -827.777934921     A.U. after    2 cycles

 The electronic state is 1-A.
 Alpha  occ. eigenvalues --  -99.60185 -29.11683 -15.61428 -15.58778 -11.37088
 Alpha  occ. eigenvalues --  -11.32427 -11.27025 -11.23421 -10.16806  -9.36797
 Alpha  occ. eigenvalues --   -9.36515  -9.36428  -1.31010  -1.12565  -1.10458
 Alpha  occ. eigenvalues --   -0.95712  -0.90319  -0.83269  -0.72546  -0.57870
 Alpha  occ. eigenvalues --   -0.57248  -0.55387  -0.48565  -0.46562  -0.41716
 Alpha  occ. eigenvalues --   -0.40993  -0.39788  -0.38840  -0.35863  -0.34793
 Alpha  occ. eigenvalues --   -0.26537  -0.25315  -0.24126  -0.23840  -0.23532
 Alpha  occ. eigenvalues --   -0.20357  -0.12361  -0.11328
 Alpha virt. eigenvalues --    0.12626   0.13489   0.13944   0.14211   0.14370
 Alpha virt. eigenvalues --    0.14777   0.16739   0.17298   0.17985   0.19315
 Alpha virt. eigenvalues --    0.20260   0.22110   0.24013   0.24527   0.24964

 Mulliken charges:
               1
     1  C    4.590690
     2  C    0.725505
     3  F   -0.361914
     4  H    1.596856
     5  C   -4.762463
     6  H    1.080496
     7  H    1.078481
     8  H    1.330473
     9  C   -4.596199
    10  H    1.190725
    11  H    1.150217
    12  H    1.084705
    13  N   -3.131066
    14  H    0.440345
    15  H    0.521620
    16  N   -3.058348
    17  H    0.504293
    18  H    0.605721
    19  Cl  -0.990137
 Sum of Mulliken charges =  -1.00000

 Dipole moment (field-independent basis, Debye):
    X=            -12.8166    Y=             -1.1516    Z=             -0.5631  Tot=             12.8806

 Test job not archived.
 1\1\GINC-SE228\SP\RHF\Aug-CC-pVDZ\C4H11Cl1F1N2(1-)\OHZDE\09-Apr-2025\0
 \\#t hf aug-cc-pvdz iop(5/13=1,5/36=2,99/5=2) pseudo=read geom=check g
 uess=(read,tcheck) scf=(maxcycle=1)\\title\\-1,1\C,0,-0.043326,-0.0114
 54,-0.027229\C,0,-0.345196,0.294721,-1.505551\F,0,1.383149,-0.091654,0
 .05913\H,0,-0.020086,1.336334,-1.673643\C,0,-0.469996,1.119842,0.87747
 \H,0,-0.183185,0.895241,1.908549\H,0,0.024007,2.047641,0.573993\H,0,-1
 .554749,1.24943,0.840766\C,0,-0.602559,-1.34338,0.417437\H,0,-0.352368
 ,-2.118299,-0.309167\H,0,-1.68599,-1.26497,0.529954\H,0,-0.172432,-1.6

 Normal termination of Gaussian 16 at Wed Apr  9 02:55:40 2025.
