 Gaussian 16, Revision C.01,

 ----------------------------------------------------------------------
 #t hf aug-cc-pvdz symm=none int=(grid=ultrafine) guess=(read,tcheck) s
 table=(opt,rrhf)
 ----------------------------------------------------------------------
 -----
 title
 -----
 Symbolic Z-matrix:
 Charge = -1 Multiplicity = 1

 SCF Done:  E(RHF) =  -403.465465561     A.U. after   15 cycles
 Normal termination of Gaussian 16 at Wed Apr  9 02:37:08 2025.
 Gaussian 16:  ES64L-G16RevC.01  3-Jul-2019

 ----------------------------------------------------------------------
 #t hf aug-cc-pvdz iop(5/13=1,5/36=2,99/5=2) pseudo=read geom=check gue
 ss=(read,tcheck) scf=(maxcycle=1)
 ----------------------------------------------------------------------
 -----
 title
 -----
 Structure from the checkpoint file:  "E2SN2_148_mol2.chk"
 Charge = -1 Multiplicity = 1

                         Standard orientation:
 ---------------------------------------------------------------------
 Center     Atomic      Atomic             Coordinates (Angstroms)
 Number     Number       Type             X           Y           Z
 ---------------------------------------------------------------------
      1          6           0       -0.371177    0.388576    0.133000
      2          6           0        0.884337   -0.343029   -0.361752
      3          9           0       -0.404818    0.376527    1.539251
      4          1           0        0.811201   -0.385228   -1.462281
      5          6           0       -0.402471    1.830131   -0.323943
      6          1           0       -1.285104    2.337267    0.073329
      7          1           0       -0.401033    1.873878   -1.415458
      8          1           0        0.515523    2.290685    0.038164
      9          6           0       -1.595942   -0.317960   -0.301901
     10          7           0       -2.575429   -0.861575   -0.655361
     11          6           0        0.951174   -1.763945    0.186747
     12          1           0        1.093761   -1.744406    1.271356
     13          1           0        0.048290   -2.343180   -0.031240
     14          1           0        1.803916   -2.269969   -0.271578
     15          7           0        2.054237    0.455732   -0.057835
     16          1           0        2.524244    0.572551   -0.997957
     17          1           0        2.678868   -0.070063    0.543148
     18          1           0        2.706508    0.427987   -2.601283
 ---------------------------------------------------------------------

 SCF Done:  E(RHF) =  -405.297285299     A.U. after    2 cycles

 The electronic state is 1-A.
 Alpha  occ. eigenvalues --  -29.14800 -15.66333 -15.56367 -11.42009 -11.34338
 Alpha  occ. eigenvalues --  -11.31247 -11.28072 -11.25297  -1.28409  -1.18629
 Alpha  occ. eigenvalues --   -1.09861  -0.95877  -0.86735  -0.75342  -0.67626
 Alpha  occ. eigenvalues --   -0.54727  -0.53117  -0.50198  -0.46399  -0.44972
 Alpha  occ. eigenvalues --   -0.43936  -0.40641  -0.38623  -0.37560  -0.34386
 Alpha  occ. eigenvalues --   -0.33509  -0.31851  -0.25386  -0.21106  -0.15250
 Alpha  occ. eigenvalues --   -0.13986  -0.09976
 Alpha virt. eigenvalues --    0.13114   0.13801   0.14615   0.15280   0.15307
 Alpha virt. eigenvalues --    0.16387   0.16920   0.18189   0.18822   0.20674
 Alpha virt. eigenvalues --    0.21804   0.22121   0.22572   0.23300   0.24196

 Mulliken charges:
               1
     1  C    2.781002
     2  C   -0.220578
     3  F   -0.139521
     4  H    2.082974
     5  C   -4.109735
     6  H    1.055777
     7  H    1.274177
     8  H    1.340183
     9  C    0.870781
    10  N   -2.468999
    11  C   -4.256837
    12  H    1.227531
    13  H    1.205192
    14  H    1.106572
    15  N   -2.724887
    16  H    0.517958
    17  H    0.478530
    18  H   -1.020119
 Sum of Mulliken charges =  -1.00000

 Dipole moment (field-independent basis, Debye):
    X=             -6.5934    Y=             -0.8243    Z=             11.5633  Tot=             13.3365

 Test job not archived.
 1\1\GINC-SE412\SP\RHF\Aug-CC-pVDZ\C5H10F1N2(1-)\OHZDE\09-Apr-2025\0\\#
 t hf aug-cc-pvdz iop(5/13=1,5/36=2,99/5=2) pseudo=read geom=check gues
 s=(read,tcheck) scf=(maxcycle=1)\\title\\-1,1\C,0,-0.460389,-0.044249,
 -1.512633\C,0,0.054685,-0.121639,-0.068662\F,0,-1.857269,0.121704,-1.5
 10436\H,0,1.133849,-0.344908,-0.130706\C,0,0.147967,1.116123,-2.268474
 \H,0,-0.263905,1.171139,-3.279111\H,0,1.233916,1.004696,-2.308736\H,0,
 -0.082911,2.014072,-1.697224\C,0,-0.210226,-1.314763,-2.227892\N,0,-0.
 002206,-2.313204,-2.81072\C,0,-0.639092,-1.234197,0.709289\H,0,-1.6991

 Normal termination of Gaussian 16 at Wed Apr  9 02:37:16 2025.
