 Gaussian 16, Revision C.01,

 ----------------------------------------------------------------------
 #t hf aug-cc-pvdz symm=none int=(grid=ultrafine) guess=(read,tcheck) s
 table=(opt,rrhf)
 ----------------------------------------------------------------------
 -----
 title
 -----
 Symbolic Z-matrix:
 Charge = -1 Multiplicity = 1

 SCF Done:  E(RHF) =  -875.257089533     A.U. after   17 cycles
 Normal termination of Gaussian 16 at Wed Apr  9 02:54:44 2025.
 Gaussian 16:  ES64L-G16RevC.01  3-Jul-2019

 ----------------------------------------------------------------------
 #t hf aug-cc-pvdz iop(5/13=1,5/36=2,99/5=2) pseudo=read geom=check gue
 ss=(read,tcheck) scf=(maxcycle=1)
 ----------------------------------------------------------------------
 -----
 title
 -----
 Structure from the checkpoint file:  "E2SN2_344_mol1.chk"
 Charge = -1 Multiplicity = 1

                         Standard orientation:
 ---------------------------------------------------------------------
 Center     Atomic      Atomic             Coordinates (Angstroms)
 Number     Number       Type             X           Y           Z
 ---------------------------------------------------------------------
      1          6           0        0.982898    0.172560   -0.459084
      2          1           0       -0.541321   -0.236112   -1.897085
      3         17           0        0.702522   -0.037446    1.629536
      4          1           0        1.199406    0.169716   -2.640609
      5          6           0       -0.372455   -0.455676   -0.848588
      6          6           0        2.247314   -0.676974   -0.611709
      7          1           0        2.740121   -0.800539    0.360431
      8          1           0        1.997130   -1.652303   -1.020729
      9          1           0        2.922903   -0.188370   -1.304849
     10          6           0        1.187501    1.681667   -0.460043
     11          1           0        1.206098    2.049527   -1.479939
     12          1           0        0.416820    2.192291    0.110769
     13          1           0        2.150429    1.879435    0.019765
     14          7           0       -1.571608    0.261389   -0.165521
     15          8           0       -2.386502   -0.421815    0.455346
     16          8           0       -1.722648    1.457292   -0.411804
     17          7           0       -0.405429   -1.853180   -0.607205
     18          1           0       -1.297178   -2.228408   -0.898564
     19          1           0       -0.296359   -2.019398    0.385992
 ---------------------------------------------------------------------

 SCF Done:  E(RHF) =  -877.472582043     A.U. after    2 cycles

 The electronic state is 1-A.
 Alpha  occ. eigenvalues --  -99.69577 -20.96222 -20.95924 -15.84713 -15.62496
 Alpha  occ. eigenvalues --  -11.40783 -11.34564 -11.25301 -11.23847 -10.26765
 Alpha  occ. eigenvalues --   -9.46846  -9.46448  -9.46361  -1.85092  -1.55348
 Alpha  occ. eigenvalues --   -1.27755  -1.13331  -1.02763  -0.96430  -0.88735
 Alpha  occ. eigenvalues --   -0.76158  -0.66554  -0.59213  -0.56916  -0.51902
 Alpha  occ. eigenvalues --   -0.51029  -0.48307  -0.45907  -0.43510  -0.42669
 Alpha  occ. eigenvalues --   -0.40792  -0.36532  -0.35248  -0.32704  -0.31730
 Alpha  occ. eigenvalues --   -0.31338  -0.29031  -0.21455  -0.18415  -0.16923
 Alpha  occ. eigenvalues --   -0.11545
 Alpha virt. eigenvalues --    0.13691   0.14465   0.14833   0.15461   0.15954
 Alpha virt. eigenvalues --    0.16321   0.16809   0.17526   0.17793   0.19244
 Alpha virt. eigenvalues --    0.22434   0.22810   0.23643   0.24585   0.24835

 Mulliken charges:
               1
     1  C    3.839394
     2  H    1.866314
     3  Cl  -0.737151
     4  H   -1.053636
     5  C   -0.070416
     6  C   -4.615109
     7  H    1.045858
     8  H    1.301594
     9  H    1.372668
    10  C   -4.617520
    11  H    1.333572
    12  H    1.280117
    13  H    1.240165
    14  N    4.551050
    15  O   -2.765309
    16  O   -3.042855
    17  N   -2.976939
    18  H    0.578330
    19  H    0.469872
 Sum of Mulliken charges =  -1.00000

 Dipole moment (field-independent basis, Debye):
    X=             -2.3956    Y=             -0.9976    Z=              3.5276  Tot=              4.3793

 Test job not archived.
 1\1\GINC-SE332\SP\RHF\Aug-CC-pVDZ\C4H10Cl1N2O2(1-)\OHZDE\09-Apr-2025\0
 \\#t hf aug-cc-pvdz iop(5/13=1,5/36=2,99/5=2) pseudo=read geom=check g
 uess=(read,tcheck) scf=(maxcycle=1)\\title\\-1,1\C,0,0.43665259,-0.070
 27767,0.02261201\H,0,1.7218879,1.62201872,0.22853529\Cl,0,-1.67604375,
 0.05299895,0.10240635\H,0,2.61445874,-0.03458962,-0.22602032\C,0,0.668
 74019,1.45597747,0.03008874\C,0,0.57703843,-0.81931958,-1.30516029\H,0
 ,-0.36931437,-1.30899349,-1.56558279\H,0,0.8615444,-0.13068889,-2.0963
 632\H,0,1.36058146,-1.56308651,-1.21314112\C,0,0.61361472,-0.90598907,

 Normal termination of Gaussian 16 at Wed Apr  9 02:54:52 2025.
