 Gaussian 16, Revision C.01,

 ----------------------------------------------------------------------
 #t hf aug-cc-pvdz symm=none int=(grid=ultrafine) guess=(read,tcheck) s
 table=(opt,rrhf)
 ----------------------------------------------------------------------
 -----
 title
 -----
 Symbolic Z-matrix:
 Charge = -1 Multiplicity = 1

 SCF Done:  E(RHF) =  -777.175820238     A.U. after   16 cycles
 Normal termination of Gaussian 16 at Wed Apr  9 02:34:47 2025.
 Gaussian 16:  ES64L-G16RevC.01  3-Jul-2019

 ----------------------------------------------------------------------
 #t hf aug-cc-pvdz iop(5/13=1,5/36=2,99/5=2) pseudo=read geom=check gue
 ss=(read,tcheck) scf=(maxcycle=1)
 ----------------------------------------------------------------------
 -----
 title
 -----
 Structure from the checkpoint file:  "E2SN2_122_mol2.chk"
 Charge = -1 Multiplicity = 1

                         Standard orientation:
 ---------------------------------------------------------------------
 Center     Atomic      Atomic             Coordinates (Angstroms)
 Number     Number       Type             X           Y           Z
 ---------------------------------------------------------------------
      1          6           0        0.369455   -0.166406    0.210034
      2          6           0       -0.644888   -0.927573   -0.632025
      3         17           0        0.248694    1.619121   -0.232649
      4          1           0       -0.435860   -0.769776   -1.691454
      5          1           0       -0.492151   -1.996576   -0.451811
      6          7           0        0.175958   -0.379241    1.611066
      7          1           0        0.815624    0.194219    2.149434
      8          1           0       -0.776152   -0.132758    1.858674
      9          6           0        1.744597   -0.567769   -0.122617
     10          7           0        2.869127   -0.882858   -0.247326
     11          6           0       -1.995254   -0.564968   -0.245380
     12          7           0       -3.090840   -0.269660    0.066160
     13          1           0        0.137566   -0.737562   -3.179197
 ---------------------------------------------------------------------

 SCF Done:  E(RHF) =  -778.894229390     A.U. after    2 cycles

 The electronic state is 1-A.
 Alpha  occ. eigenvalues --  -99.78111 -15.67670 -15.66885 -15.65467 -11.44447
 Alpha  occ. eigenvalues --  -11.35560 -11.34496 -11.30849 -10.35457  -9.55420
 Alpha  occ. eigenvalues --   -9.54707  -9.54615  -1.36734  -1.19349  -1.18414
 Alpha  occ. eigenvalues --   -1.17510  -1.03611  -0.87715  -0.65839  -0.60824
 Alpha  occ. eigenvalues --   -0.59349  -0.54798  -0.50040  -0.45896  -0.44219
 Alpha  occ. eigenvalues --   -0.41428  -0.39786  -0.38294  -0.34616  -0.33277
 Alpha  occ. eigenvalues --   -0.32017  -0.31396  -0.30187  -0.09829
 Alpha virt. eigenvalues --    0.12207   0.14513   0.14864   0.16780   0.18389
 Alpha virt. eigenvalues --    0.19392   0.20025   0.20972   0.21819   0.21916
 Alpha virt. eigenvalues --    0.22342   0.24117   0.24695   0.25396   0.25828

 Mulliken charges:
               1
     1  C    2.077330
     2  C   -3.242930
     3  Cl  -0.038168
     4  H    1.912904
     5  H    1.484683
     6  N   -3.228994
     7  H    0.691294
     8  H    0.652632
     9  C    2.329731
    10  N   -2.599591
    11  C    2.499908
    12  N   -2.671043
    13  H   -0.867756
 Sum of Mulliken charges =  -1.00000

 Dipole moment (field-independent basis, Debye):
    X=             -0.1031    Y=              1.8615    Z=             12.3556  Tot=             12.4954

 Test job not archived.
 1\1\GINC-SE188\SP\RHF\Aug-CC-pVDZ\C4H5Cl1N3(1-)\OHZDE\09-Apr-2025\0\\#
 t hf aug-cc-pvdz iop(5/13=1,5/36=2,99/5=2) pseudo=read geom=check gues
 s=(read,tcheck) scf=(maxcycle=1)\\title\\-1,1\C,0,-0.526319,0.024175,-
 1.403081\C,0,0.003383,-0.054152,0.021914\Cl,0,0.115902,-1.435383,-2.32
 8231\H,0,1.094591,-0.062749,0.008776\H,0,-0.283456,0.869393,0.535101\N
 ,0,-1.954364,0.091689,-1.445011\H,0,-2.283314,0.069321,-2.40374\H,0,-2
 .341723,-0.701,-0.944836\C,0,0.002895,1.204455,-2.102822\N,0,0.293973,
 2.162403,-2.716833\C,0,-0.578823,-1.187741,0.71508\N,0,-1.048937,-2.10

 Normal termination of Gaussian 16 at Wed Apr  9 02:34:52 2025.
