 Gaussian 16, Revision C.01,

 ----------------------------------------------------------------------
 #t hf aug-cc-pvdz symm=none int=(grid=ultrafine) guess=(read,tcheck) s
 table=(opt,rrhf)
 ----------------------------------------------------------------------
 -----
 title
 -----
 Symbolic Z-matrix:
 Charge = -1 Multiplicity = 1

 SCF Done:  E(RHF) =  -915.158275106     A.U. after   17 cycles
 Normal termination of Gaussian 16 at Wed Apr  9 02:49:52 2025.
 Gaussian 16:  ES64L-G16RevC.01  3-Jul-2019

 ----------------------------------------------------------------------
 #t hf aug-cc-pvdz iop(5/13=1,5/36=2,99/5=2) pseudo=read geom=check gue
 ss=(read,tcheck) scf=(maxcycle=1)
 ----------------------------------------------------------------------
 -----
 title
 -----
 Structure from the checkpoint file:  "E2SN2_283_mol1.chk"
 Charge = -1 Multiplicity = 1

                         Standard orientation:
 ---------------------------------------------------------------------
 Center     Atomic      Atomic             Coordinates (Angstroms)
 Number     Number       Type             X           Y           Z
 ---------------------------------------------------------------------
      1          6           0       -0.298708    0.039770    0.324869
      2          1           0        0.431265   -1.097884   -1.360533
      3          9           0        0.930442    1.488880    0.855156
      4         17           0       -1.824476   -1.436749   -0.405385
      5          6           0        0.741919   -0.233528   -0.772499
      6          6           0       -1.225054    1.132820    0.146846
      7          7           0       -1.974945    2.032538    0.037771
      8          6           0       -0.175115   -0.608338    1.686365
      9          1           0       -1.142879   -0.594276    2.185501
     10          1           0        0.130207   -1.648925    1.575287
     11          1           0        0.562542   -0.052054    2.258615
     12          6           0        2.024473   -0.605080   -0.129480
     13          7           0        3.065540   -0.985948    0.260608
     14          7           0        0.846444    0.907260   -1.662976
     15          1           0        1.538341    0.715245   -2.377439
     16          1           0        1.158285    1.671899   -1.070722
 ---------------------------------------------------------------------

 SCF Done:  E(RHF) =  -917.411325587     A.U. after    2 cycles

 The electronic state is 1-A.
 Alpha  occ. eigenvalues --  -99.68813 -28.97038 -15.64332 -15.62646 -15.62516
 Alpha  occ. eigenvalues --  -11.47237 -11.38112 -11.32750 -11.31632 -11.27767
 Alpha  occ. eigenvalues --  -10.25855  -9.45951  -9.45474  -9.45396  -1.30517
 Alpha  occ. eigenvalues --   -1.17980  -1.16259  -1.10247  -1.03366  -0.91387
 Alpha  occ. eigenvalues --   -0.83900  -0.64348  -0.60694  -0.56337  -0.52737
 Alpha  occ. eigenvalues --   -0.46918  -0.45662  -0.42263  -0.40593  -0.40163
 Alpha  occ. eigenvalues --   -0.38035  -0.35747  -0.34137  -0.32197  -0.31884
 Alpha  occ. eigenvalues --   -0.29792  -0.29112  -0.27179  -0.25364  -0.07501
 Alpha  occ. eigenvalues --   -0.04679  -0.03853
 Alpha virt. eigenvalues --    0.13275   0.14571   0.15071   0.16110   0.16652
 Alpha virt. eigenvalues --    0.17973   0.18819   0.20004   0.20491   0.20662
 Alpha virt. eigenvalues --    0.22676   0.23804   0.24476   0.25367   0.25479

 Mulliken charges:
               1
     1  C    3.857561
     2  H    1.517126
     3  F   -0.455132
     4  Cl  -0.660471
     5  C   -2.906580
     6  C    2.605331
     7  N   -3.154261
     8  C   -4.911337
     9  H    1.134025
    10  H    1.167897
    11  H    1.147089
    12  C    4.316079
    13  N   -3.085025
    14  N   -2.761418
    15  H    0.655250
    16  H    0.533867
 Sum of Mulliken charges =  -1.00000

 Dipole moment (field-independent basis, Debye):
    X=              5.0996    Y=              2.4515    Z=              1.1565  Tot=              5.7753

 Test job not archived.
 1\1\GINC-SE042\SP\RHF\Aug-CC-pVDZ\C5H6Cl1F1N3(1-)\OHZDE\09-Apr-2025\0\
 \#t hf aug-cc-pvdz iop(5/13=1,5/36=2,99/5=2) pseudo=read geom=check gu
 ess=(read,tcheck) scf=(maxcycle=1)\\title\\-1,1\C,0,0.75174154,-0.0129
 8785,0.03516372\H,0,1.64176401,1.95250504,0.1464986\F,0,-1.21288737,0.
 04918877,-0.13306974\Cl,0,2.99419442,-0.11109999,-0.02075243\C,0,0.647
 84144,1.52028294,0.02524036\C,0,0.65795245,-0.72358175,-1.21816324\N,0
 ,0.55980183,-1.32798598,-2.22254694\C,0,0.64949368,-0.78655135,1.33136
 319\H,0,1.08971714,-1.77411853,1.20168745\H,0,1.20516248,-0.27162483,2

 Normal termination of Gaussian 16 at Wed Apr  9 02:50:00 2025.
