 Gaussian 16, Revision C.01,

 ----------------------------------------------------------------------
 #t hf aug-cc-pvdz symm=none int=(grid=ultrafine) guess=(read,tcheck) s
 table=(opt,rrhf)
 ----------------------------------------------------------------------
 -----
 title
 -----
 Symbolic Z-matrix:
 Charge = -1 Multiplicity = 1

 SCF Done:  E(RHF) =  -832.220283025     A.U. after   16 cycles
 Normal termination of Gaussian 16 at Wed Apr  9 02:36:07 2025.
 Gaussian 16:  ES64L-G16RevC.01  3-Jul-2019

 ----------------------------------------------------------------------
 #t hf aug-cc-pvdz iop(5/13=1,5/36=2,99/5=2) pseudo=read geom=check gue
 ss=(read,tcheck) scf=(maxcycle=1)
 ----------------------------------------------------------------------
 -----
 title
 -----
 Structure from the checkpoint file:  "E2SN2_138_mol2.chk"
 Charge = -1 Multiplicity = 1

                         Standard orientation:
 ---------------------------------------------------------------------
 Center     Atomic      Atomic             Coordinates (Angstroms)
 Number     Number       Type             X           Y           Z
 ---------------------------------------------------------------------
      1          6           0        0.457606    0.133433    0.396994
      2          6           0       -0.606111   -0.896187   -0.019215
      3         17           0        0.328461    1.579862   -0.745914
      4          1           0       -0.467593   -1.666406    0.759674
      5          7           0        0.354644    0.544613    1.751115
      6          1           0       -0.554722    0.985582    1.874846
      7          1           0        0.300969   -0.395339    2.287552
      8          6           0        1.789726   -0.442984    0.151313
      9          7           0        2.867175   -0.867368   -0.042617
     10          7           0       -0.383979   -1.432311   -1.347673
     11          1           0       -0.885050   -2.305300   -1.452077
     12          1           0       -0.712467   -0.781727   -2.050963
     13          6           0       -1.947579   -0.324936    0.179345
     14          7           0       -3.043405    0.092421    0.267998
     15          1           0        0.012124   -1.871902    2.609125
 ---------------------------------------------------------------------

 SCF Done:  E(RHF) =  -834.198262355     A.U. after    2 cycles

 The electronic state is 1-A.
 Alpha  occ. eigenvalues --  -99.77987 -15.65985 -15.65454 -15.65113 -15.60488
 Alpha  occ. eigenvalues --  -11.43931 -11.37988 -11.33839 -11.31564 -10.35341
 Alpha  occ. eigenvalues --   -9.55330  -9.54628  -9.54541  -1.36470  -1.23953
 Alpha  occ. eigenvalues --   -1.17767  -1.16752  -1.15760  -0.96220  -0.85734
 Alpha  occ. eigenvalues --   -0.65860  -0.61252  -0.58256  -0.54791  -0.50152
 Alpha  occ. eigenvalues --   -0.47216  -0.45903  -0.42909  -0.40640  -0.39187
 Alpha  occ. eigenvalues --   -0.37896  -0.34644  -0.33091  -0.31877  -0.31216
 Alpha  occ. eigenvalues --   -0.28020  -0.24926  -0.12544
 Alpha virt. eigenvalues --    0.12595   0.14364   0.15698   0.16299   0.17705
 Alpha virt. eigenvalues --    0.18692   0.19469   0.20455   0.20789   0.21617
 Alpha virt. eigenvalues --    0.22480   0.22799   0.23676   0.23917   0.25007

 Mulliken charges:
               1
     1  C    2.614488
     2  C    0.684650
     3  Cl  -0.214406
     4  H    1.840399
     5  N   -3.420521
     6  H    0.570800
     7  H    0.764955
     8  C    2.197939
     9  N   -2.678359
    10  N   -3.342875
    11  H    0.595627
    12  H    0.580151
    13  C    2.502613
    14  N   -2.662703
    15  H   -1.032756
 Sum of Mulliken charges =  -1.00000

 Dipole moment (field-independent basis, Debye):
    X=             -1.5683    Y=              3.6897    Z=             -7.8263  Tot=              8.7934

 Test job not archived.
 1\1\GINC-SE435\SP\RHF\Aug-CC-pVDZ\C4H6Cl1N4(1-)\OHZDE\09-Apr-2025\0\\#
 t hf aug-cc-pvdz iop(5/13=1,5/36=2,99/5=2) pseudo=read geom=check gues
 s=(read,tcheck) scf=(maxcycle=1)\\title\\-1,1\C,0,-0.194493,0.022035,-
 1.454717\C,0,0.039249,-0.064684,0.062743\Cl,0,-2.008868,0.224817,-1.74
 107\H,0,1.141174,-0.12253,0.101575\N,0,0.539032,1.059295,-2.086655\H,0
 ,0.236278,1.944629,-1.685115\H,0,1.547332,0.900982,-1.722752\C,0,0.155
 407,-1.274411,-2.058005\N,0,0.414711,-2.29843,-2.570601\N,0,-0.579448,
 -1.229762,0.66389\H,0,-0.147688,-1.422636,1.558577\H,0,-1.569269,-1.07

 Normal termination of Gaussian 16 at Wed Apr  9 02:36:14 2025.
