 Gaussian 16, Revision C.01,

 ----------------------------------------------------------------------
 #t hf aug-cc-pvdz symm=none int=(grid=ultrafine) guess=(read,tcheck) s
 table=(opt,rrhf)
 ----------------------------------------------------------------------
 -----
 title
 -----
 Symbolic Z-matrix:
 Charge = -1 Multiplicity = 1

 SCF Done:  E(RHF) =  -899.160174629     A.U. after   17 cycles
 Normal termination of Gaussian 16 at Wed Apr  9 02:54:32 2025.
 Gaussian 16:  ES64L-G16RevC.01  3-Jul-2019

 ----------------------------------------------------------------------
 #t hf aug-cc-pvdz iop(5/13=1,5/36=2,99/5=2) pseudo=read geom=check gue
 ss=(read,tcheck) scf=(maxcycle=1)
 ----------------------------------------------------------------------
 -----
 title
 -----
 Structure from the checkpoint file:  "E2SN2_336_mol1.chk"
 Charge = -1 Multiplicity = 1

                         Standard orientation:
 ---------------------------------------------------------------------
 Center     Atomic      Atomic             Coordinates (Angstroms)
 Number     Number       Type             X           Y           Z
 ---------------------------------------------------------------------
      1          6           0       -0.296832    0.026882   -0.374453
      2          1           0        0.470075   -1.476371    0.942128
      3          9           0        1.000115    1.495982   -0.740639
      4         17           0       -1.903177   -1.330380    0.248275
      5          6           0        0.729324   -0.451541    0.662540
      6          6           0       -0.188194   -0.484655   -1.792467
      7          1           0        0.619029    0.057028   -2.278790
      8          1           0        0.015493   -1.556619   -1.780732
      9          1           0       -1.129174   -0.323406   -2.318201
     10          6           0       -1.092999    1.204086   -0.110129
     11          7           0       -1.819150    2.102260    0.115542
     12          6           0        0.725897    0.417830    1.916133
     13          1           0        0.992427    1.432726    1.627759
     14          1           0       -0.270589    0.406719    2.362462
     15          1           0        1.444115    0.034002    2.645373
     16          6           0        2.075682   -0.528364    0.082525
     17          7           0        3.175482   -0.748958   -0.266946
 ---------------------------------------------------------------------

 SCF Done:  E(RHF) =  -901.368113695     A.U. after    2 cycles

 The electronic state is 1-A.
 Alpha  occ. eigenvalues --  -99.69882 -28.95537 -15.62966 -15.62260 -11.46139
 Alpha  occ. eigenvalues --  -11.37402 -11.32567 -11.31825 -11.27929 -11.27192
 Alpha  occ. eigenvalues --  -10.26941  -9.47054  -9.46548  -9.46483  -1.25662
 Alpha  occ. eigenvalues --   -1.17009  -1.12000  -1.06574  -1.00433  -0.85494
 Alpha  occ. eigenvalues --   -0.82896  -0.62875  -0.58490  -0.53480  -0.50879
 Alpha  occ. eigenvalues --   -0.46347  -0.44719  -0.42369  -0.41013  -0.39150
 Alpha  occ. eigenvalues --   -0.38408  -0.37358  -0.34391  -0.33466  -0.32727
 Alpha  occ. eigenvalues --   -0.31593  -0.29572  -0.27761  -0.25847  -0.05832
 Alpha  occ. eigenvalues --   -0.03592  -0.02458
 Alpha virt. eigenvalues --    0.13212   0.14329   0.14996   0.15563   0.15864
 Alpha virt. eigenvalues --    0.17080   0.17803   0.19029   0.19789   0.20537
 Alpha virt. eigenvalues --    0.21150   0.22655   0.24206   0.24572   0.25005

 Mulliken charges:
               1
     1  C    4.672984
     2  H    1.512689
     3  F   -0.435665
     4  Cl  -0.647721
     5  C   -3.760033
     6  C   -5.047979
     7  H    1.240061
     8  H    1.178139
     9  H    1.071062
    10  C    2.362169
    11  N   -3.077078
    12  C   -4.101847
    13  H    1.318082
    14  H    1.294036
    15  H    1.200649
    16  C    3.224582
    17  N   -3.004130
 Sum of Mulliken charges =  -1.00000

 Dipole moment (field-independent basis, Debye):
    X=              4.0341    Y=              1.6492    Z=             -0.6546  Tot=              4.4071

 Test job not archived.
 1\1\GINC-SE044\SP\RHF\Aug-CC-pVDZ\C6H7Cl1F1N2(1-)\OHZDE\09-Apr-2025\0\
 \#t hf aug-cc-pvdz iop(5/13=1,5/36=2,99/5=2) pseudo=read geom=check gu
 ess=(read,tcheck) scf=(maxcycle=1)\\title\\-1,1\C,0,0.72469648,-0.0437
 3333,-0.03470222\H,0,1.52656014,1.91276333,-0.36702489\F,0,-1.2682878,
 -0.0926599,-0.02844881\Cl,0,2.88586906,-0.03380051,0.33883349\C,0,0.56
 25036,1.48225551,-0.08257059\C,0,0.78521365,-0.80834093,-1.33698924\H,
 0,-0.22805433,-0.88563015,-1.72280354\H,0,1.42984171,-0.28091583,-2.04
 197888\H,0,1.20695221,-1.79875144,-1.16651163\C,0,0.4450366,-0.7598943

 Normal termination of Gaussian 16 at Wed Apr  9 02:54:41 2025.
