 Gaussian 16, Revision C.01,

 ----------------------------------------------------------------------
 #t hf aug-cc-pvdz symm=none int=(grid=ultrafine) guess=(read,tcheck) s
 table=(opt,rrhf)
 ----------------------------------------------------------------------
 -----
 title
 -----
 Symbolic Z-matrix:
 Charge = -1 Multiplicity = 1

 SCF Done:  E(RHF) =  -502.386901890     A.U. after   15 cycles
 Normal termination of Gaussian 16 at Wed Apr  9 02:55:39 2025.
 Gaussian 16:  ES64L-G16RevC.01  3-Jul-2019

 ----------------------------------------------------------------------
 #t hf aug-cc-pvdz iop(5/13=1,5/36=2,99/5=2) pseudo=read geom=check gue
 ss=(read,tcheck) scf=(maxcycle=1)
 ----------------------------------------------------------------------
 -----
 title
 -----
 Structure from the checkpoint file:  "E2SN2_363_mol1.chk"
 Charge = -1 Multiplicity = 1

                         Standard orientation:
 ---------------------------------------------------------------------
 Center     Atomic      Atomic             Coordinates (Angstroms)
 Number     Number       Type             X           Y           Z
 ---------------------------------------------------------------------
      1          6           0        0.688148   -0.193329    0.079098
      2          1           0       -0.330984    0.644035   -1.584211
      3          9           0       -0.277240   -0.448441    1.631075
      4          9           0        1.657369    0.168724   -1.435496
      5          6           0       -0.523075    0.546234   -0.514245
      6          6           0        0.833095   -1.680409   -0.179739
      7          1           0        0.475950   -2.244393    0.679212
      8          1           0        0.261851   -1.962287   -1.066800
      9          1           0        1.881578   -1.897306   -0.383606
     10          7           0        1.653449    0.546577    0.845509
     11          1           0        2.538203    0.439302    0.371606
     12          1           0        1.655690    0.147099    1.772629
     13          6           0       -0.693111    1.935419    0.091685
     14          1           0       -0.841306    1.829639    1.164322
     15          1           0        0.217615    2.505675   -0.086357
     16          1           0       -1.547628    2.449871   -0.359707
     17          6           0       -1.762323   -0.226311   -0.379628
     18          7           0       -2.794669   -0.787121   -0.395556
 ---------------------------------------------------------------------

 SCF Done:  E(RHF) =  -504.553365069     A.U. after    2 cycles

 The electronic state is 1-A.
 Alpha  occ. eigenvalues --  -28.95177 -28.94477 -15.60448 -15.58269 -11.44238
 Alpha  occ. eigenvalues --  -11.33202 -11.28875 -11.24241 -11.22655  -1.25463
 Alpha  occ. eigenvalues --   -1.15523  -1.05037  -0.95432  -0.81623  -0.70227
 Alpha  occ. eigenvalues --   -0.64224  -0.53923  -0.49925  -0.47588  -0.45243
 Alpha  occ. eigenvalues --   -0.42367  -0.40255  -0.37965  -0.35781  -0.35200
 Alpha  occ. eigenvalues --   -0.32556  -0.29849  -0.27748  -0.26799  -0.21239
 Alpha  occ. eigenvalues --   -0.11498  -0.03331  -0.02999  -0.01369  -0.00556
 Alpha  occ. eigenvalues --    0.03092
 Alpha virt. eigenvalues --    0.13932   0.14551   0.14752   0.15531   0.15978
 Alpha virt. eigenvalues --    0.16333   0.17008   0.17360   0.18180   0.20827
 Alpha virt. eigenvalues --    0.21826   0.23855   0.25030   0.25302   0.26225

 Mulliken charges:
               1
     1  C    7.927179
     2  H    1.504681
     3  F   -0.602566
     4  F   -0.752439
     5  C   -3.629090
     6  C   -5.766151
     7  H    1.172072
     8  H    1.237504
     9  H    1.132873
    10  N   -4.003542
    11  H    0.373997
    12  H    0.589414
    13  C   -4.034511
    14  H    1.325691
    15  H    1.366243
    16  H    1.148545
    17  C    2.904664
    18  N   -2.894562
 Sum of Mulliken charges =  -1.00000

 Dipole moment (field-independent basis, Debye):
    X=              2.0804    Y=              1.3043    Z=              0.7759  Tot=              2.5752

 Test job not archived.
 1\1\GINC-SE461\SP\RHF\Aug-CC-pVDZ\C5H9F2N2(1-)\OHZDE\09-Apr-2025\0\\#t
  hf aug-cc-pvdz iop(5/13=1,5/36=2,99/5=2) pseudo=read geom=check guess
 =(read,tcheck) scf=(maxcycle=1)\\title\\-1,1\C,0,0.64758645,-0.0692354
 9,-0.00846548\H,0,1.60351962,1.80908252,-0.26246964\F,0,-1.1958186,-0.
 10597246,-0.08718168\F,0,2.4710938,0.00436329,0.17557775\C,0,0.5868046
 9,1.46685862,-0.06131201\C,0,0.80633433,-0.83786733,-1.305931\H,0,-0.1
 602726,-1.20929141,-1.6393139\H,0,1.23485532,-0.18995791,-2.0735484\H,
 0,1.50634298,-1.6569274,-1.14146193\N,0,0.56899327,-0.7294506,1.266128

 Normal termination of Gaussian 16 at Wed Apr  9 02:55:47 2025.
