 Gaussian 16, Revision C.01,

 ----------------------------------------------------------------------
 #t hf aug-cc-pvdz symm=none int=(grid=ultrafine) guess=(read,tcheck) s
 table=(opt,rrhf)
 ----------------------------------------------------------------------
 -----
 title
 -----
 Symbolic Z-matrix:
 Charge = -1 Multiplicity = 1

 SCF Done:  E(RHF) =  -1083.65188018     A.U. after   16 cycles
 Normal termination of Gaussian 16 at Wed Apr  9 02:40:02 2025.
 Gaussian 16:  ES64L-G16RevC.01  3-Jul-2019

 ----------------------------------------------------------------------
 #t hf aug-cc-pvdz iop(5/13=1,5/36=2,99/5=2) pseudo=read geom=check gue
 ss=(read,tcheck) scf=(maxcycle=1)
 ----------------------------------------------------------------------
 -----
 title
 -----
 Structure from the checkpoint file:  "E2SN2_171_mol1.chk"
 Charge = -1 Multiplicity = 1

                         Standard orientation:
 ---------------------------------------------------------------------
 Center     Atomic      Atomic             Coordinates (Angstroms)
 Number     Number       Type             X           Y           Z
 ---------------------------------------------------------------------
      1          6           0        0.599084    0.299029   -0.482873
      2          1           0       -0.362551    1.400995    1.023264
      3         17           0       -0.035276   -1.679560   -1.081863
      4          9           0        1.370081    1.984450   -0.198011
      5          6           0       -0.665247    0.882743    0.117602
      6          1           0        0.891010    0.487625   -1.496480
      7          7           0        1.692595   -0.178434    0.391441
      8          8           0        1.485406   -0.212587    1.598715
      9          8           0        2.735695   -0.492886   -0.166741
     10          7           0       -1.690852   -0.120754    0.608528
     11          8           0       -2.717768   -0.279009   -0.048275
     12          8           0       -1.457899   -0.667038    1.682624
     13          6           0       -1.310168    1.816197   -0.886332
     14          1           0       -0.570194    2.575320   -1.125103
     15          1           0       -1.602437    1.266833   -1.781903
     16          1           0       -2.204557    2.280359   -0.466776
 ---------------------------------------------------------------------

 SCF Done:  E(RHF) =  -1086.52831423     A.U. after    2 cycles

 The electronic state is 1-A.
 Alpha  occ. eigenvalues --  -99.69880 -28.98374 -20.96940 -20.96771 -20.96230
 Alpha  occ. eigenvalues --  -20.95971 -15.87106 -15.86393 -11.47904 -11.37231
 Alpha  occ. eigenvalues --  -11.27919 -10.26948  -9.47014  -9.46631  -9.46413
 Alpha  occ. eigenvalues --   -1.87087  -1.85443  -1.56300  -1.55970  -1.20716
 Alpha  occ. eigenvalues --   -1.08651  -1.02489  -0.90955  -0.78049  -0.69753
 Alpha  occ. eigenvalues --   -0.62027  -0.59754  -0.58584  -0.56020  -0.50486
 Alpha  occ. eigenvalues --   -0.49066  -0.46047  -0.45029  -0.41795  -0.41053
 Alpha  occ. eigenvalues --   -0.38807  -0.34037  -0.33144  -0.32085  -0.23975
 Alpha  occ. eigenvalues --   -0.23386  -0.19580  -0.18586  -0.18135  -0.16609
 Alpha  occ. eigenvalues --   -0.07944  -0.05083  -0.04439
 Alpha virt. eigenvalues --    0.12979   0.14749   0.15292   0.16016   0.16314
 Alpha virt. eigenvalues --    0.20168   0.21537   0.22090   0.23343   0.25050
 Alpha virt. eigenvalues --    0.25432   0.25714   0.26200   0.26971   0.27156

 Mulliken charges:
               1
     1  C   -1.214739
     2  H    2.009865
     3  Cl  -0.643152
     4  F   -0.368932
     5  C   -0.301653
     6  H    1.765971
     7  N    5.503972
     8  O   -3.098756
     9  O   -3.286621
    10  N    4.191648
    11  O   -2.847411
    12  O   -2.946827
    13  C   -3.364187
    14  H    1.168732
    15  H    1.251552
    16  H    1.180537
 Sum of Mulliken charges =  -1.00000

 Dipole moment (field-independent basis, Debye):
    X=             -0.3063    Y=              5.9120    Z=              1.1151  Tot=              6.0240

 Test job not archived.
 1\1\GINC-SE424\SP\RHF\Aug-CC-pVDZ\C3H5Cl1F1N2O4(1-)\OHZDE\09-Apr-2025\
 0\\#t hf aug-cc-pvdz iop(5/13=1,5/36=2,99/5=2) pseudo=read geom=check
 guess=(read,tcheck) scf=(maxcycle=1)\\title\\-1,1\C,0,0.33436877,-0.03
 031295,0.07415322\H,0,1.52611575,1.59199163,0.67029603\Cl,0,-1.7375208
 2,-0.2456467,0.65460119\F,0,2.0828829,-0.11552812,-0.59790446\C,0,0.55
 699907,1.46482725,0.19587445\H,0,0.09791837,-0.49938458,-0.85979044\N,
 0,0.85175348,-0.95160035,1.1093847\O,0,1.33707067,-0.45951009,2.121274
 43\O,0,0.76495778,-2.14769198,0.86375586\N,0,-0.39097757,2.20334112,1.

 Normal termination of Gaussian 16 at Wed Apr  9 02:40:11 2025.
