 Gaussian 16, Revision C.01,

 ----------------------------------------------------------------------
 #t hf aug-cc-pvdz symm=none int=(grid=ultrafine) guess=(read,tcheck) s
 table=(opt,rrhf)
 ----------------------------------------------------------------------
 -----
 title
 -----
 Symbolic Z-matrix:
 Charge = -1 Multiplicity = 1

 SCF Done:  E(RHF) =  -531.255459055     A.U. after   16 cycles
 Normal termination of Gaussian 16 at Wed Apr  9 02:55:31 2025.
 Gaussian 16:  ES64L-G16RevC.01  3-Jul-2019

 ----------------------------------------------------------------------
 #t hf aug-cc-pvdz iop(5/13=1,5/36=2,99/5=2) pseudo=read geom=check gue
 ss=(read,tcheck) scf=(maxcycle=1)
 ----------------------------------------------------------------------
 -----
 title
 -----
 Structure from the checkpoint file:  "E2SN2_360_mol2.chk"
 Charge = -1 Multiplicity = 1

                         Standard orientation:
 ---------------------------------------------------------------------
 Center     Atomic      Atomic             Coordinates (Angstroms)
 Number     Number       Type             X           Y           Z
 ---------------------------------------------------------------------
      1          6           0       -0.945834   -0.367431   -0.042165
      2          6           0        0.185420    0.551728   -0.520912
      3          9           0       -0.512954   -1.683731   -0.312259
      4          1           0        0.282249    0.384562   -1.597640
      5          6           0       -1.238599   -0.297105    1.443557
      6          1           0       -0.349874   -0.488822    2.043236
      7          1           0       -1.644634    0.689126    1.674171
      8          1           0       -1.999916   -1.051837    1.665595
      9          7           0       -2.075408   -0.103465   -0.889261
     10          1           0       -2.828016   -0.713595   -0.579013
     11          1           0       -2.396611    0.864550   -0.672623
     12          7           0        1.521657   -0.009533   -0.010486
     13          8           0        2.269490   -0.501465   -0.859376
     14          8           0        1.788312    0.072643    1.184310
     15          7           0        0.023551    1.891495   -0.089703
     16          1           0       -0.984478    2.150619    0.049565
     17          1           0        0.392533    2.526849   -0.785986
     18          1           0       -2.611610    2.450077    0.056840
 ---------------------------------------------------------------------

 SCF Done:  E(RHF) =  -533.582033317     A.U. after    2 cycles

 The electronic state is 1-A.
 Alpha  occ. eigenvalues --  -29.12551 -20.96845 -20.96675 -15.85227 -15.59950
 Alpha  occ. eigenvalues --  -15.59158 -11.41480 -11.35253 -11.25121  -1.85741
 Alpha  occ. eigenvalues --   -1.55895  -1.31658  -1.19571  -1.02184  -0.95775
 Alpha  occ. eigenvalues --   -0.82443  -0.71600  -0.63157  -0.58185  -0.56844
 Alpha  occ. eigenvalues --   -0.50048  -0.48440  -0.47857  -0.47207  -0.45043
 Alpha  occ. eigenvalues --   -0.42601  -0.40845  -0.36958  -0.25982  -0.24657
 Alpha  occ. eigenvalues --   -0.23267  -0.21470  -0.18875  -0.18326  -0.13907
 Alpha  occ. eigenvalues --   -0.12487  -0.11722
 Alpha virt. eigenvalues --    0.13596   0.14370   0.15013   0.15416   0.16442
 Alpha virt. eigenvalues --    0.17831   0.19050   0.20437   0.20766   0.22251
 Alpha virt. eigenvalues --    0.23569   0.24009   0.24433   0.25162   0.25815

 Mulliken charges:
               1
     1  C    4.475525
     2  C   -0.579456
     3  F    0.084353
     4  H    1.884551
     5  C   -4.258272
     6  H    1.312056
     7  H    1.298814
     8  H    1.157381
     9  N   -3.615079
    10  H    0.466866
    11  H    0.728688
    12  N    4.512881
    13  O   -2.812914
    14  O   -2.901197
    15  N   -2.931778
    16  H    0.815866
    17  H    0.483586
    18  H   -1.121873
 Sum of Mulliken charges =  -1.00000

 Dipole moment (field-independent basis, Debye):
    X=              6.1985    Y=             -8.2389    Z=             -0.5476  Tot=             10.3247

 Test job not archived.
 1\1\GINC-SE424\SP\RHF\Aug-CC-pVDZ\C3H9F1N3O2(1-)\OHZDE\09-Apr-2025\0\\
 #t hf aug-cc-pvdz iop(5/13=1,5/36=2,99/5=2) pseudo=read geom=check gue
 ss=(read,tcheck) scf=(maxcycle=1)\\title\\-1,1\C,0,-0.028059,-0.001289
 ,-0.029315\C,0,-0.344783,0.114002,-1.526039\F,0,1.373412,-0.147219,0.0
 57663\H,0,-0.019906,-0.825743,-1.982106\C,0,-0.395264,1.216437,0.79550
 7\H,0,0.062477,2.124906,0.406458\H,0,-1.481813,1.316193,0.808113\H,0,-
 0.046221,1.039496,1.817949\N,0,-0.617655,-1.231089,0.421414\H,0,-0.407
 159,-1.315136,1.41316\H,0,-1.651706,-1.108772,0.367247\N,0,0.63968,1.1

 Normal termination of Gaussian 16 at Wed Apr  9 02:55:39 2025.
