 Gaussian 16, Revision C.01,

 ----------------------------------------------------------------------
 #t hf aug-cc-pvdz symm=none int=(grid=ultrafine) guess=(read,tcheck) s
 table=(opt,rrhf)
 ----------------------------------------------------------------------
 -----
 title
 -----
 Symbolic Z-matrix:
 Charge = -1 Multiplicity = 1

 SCF Done:  E(RHF) =  -364.384574280     A.U. after   16 cycles
 Normal termination of Gaussian 16 at Wed Apr  9 02:49:53 2025.
 Gaussian 16:  ES64L-G16RevC.01  3-Jul-2019

 ----------------------------------------------------------------------
 #t hf aug-cc-pvdz iop(5/13=1,5/36=2,99/5=2) pseudo=read geom=check gue
 ss=(read,tcheck) scf=(maxcycle=1)
 ----------------------------------------------------------------------
 -----
 title
 -----
 Structure from the checkpoint file:  "E2SN2_297_mol1.chk"
 Charge = -1 Multiplicity = 1

                         Standard orientation:
 ---------------------------------------------------------------------
 Center     Atomic      Atomic             Coordinates (Angstroms)
 Number     Number       Type             X           Y           Z
 ---------------------------------------------------------------------
      1          6           0       -0.291419   -0.339707   -0.225252
      2          1           0        1.359291   -1.172647   -1.317751
      3          9           0       -0.440981   -0.566920    1.424619
      4          1           0       -0.224777    0.205641   -1.998732
      5          6           0        1.164940   -0.766103   -0.328465
      6          1           0        1.276684   -1.570282    0.404721
      7          6           0       -0.640781    1.065903   -0.220549
      8          7           0       -0.975360    2.181799   -0.017126
      9          7           0       -1.296404   -1.328801   -0.569638
     10          1           0       -1.700115   -1.057848   -1.453283
     11          1           0       -1.989329   -1.287297    0.168898
     12          6           0        2.116578    0.376252   -0.012232
     13          1           0        1.999728    1.175852   -0.748416
     14          1           0        1.895487    0.781290    0.977162
     15          1           0        3.158300    0.038505   -0.027839
 ---------------------------------------------------------------------

 SCF Done:  E(RHF) =  -366.049744836     A.U. after    2 cycles

 The electronic state is 1-A.
 Alpha  occ. eigenvalues --  -29.00295 -15.59546 -15.57903 -11.41949 -11.28417
 Alpha  occ. eigenvalues --  -11.26816 -11.22228  -1.25298  -1.11008  -1.03654
 Alpha  occ. eigenvalues --   -0.86141  -0.74825  -0.60978  -0.52852  -0.49202
 Alpha  occ. eigenvalues --   -0.47259  -0.40464  -0.37238  -0.36213  -0.34285
 Alpha  occ. eigenvalues --   -0.33203  -0.29519  -0.25977  -0.22769  -0.16615
 Alpha  occ. eigenvalues --   -0.06307  -0.05551  -0.04801
 Alpha virt. eigenvalues --    0.13352   0.14861   0.15382   0.16066   0.16682
 Alpha virt. eigenvalues --    0.17307   0.17856   0.19628   0.20518   0.24298
 Alpha virt. eigenvalues --    0.24811   0.25183   0.25890   0.26701   0.27204

 Mulliken charges:
               1
     1  C    3.279267
     2  H    1.331088
     3  F   -0.156664
     4  H   -0.711306
     5  C   -3.760528
     6  H    1.310243
     7  C    2.933104
     8  N   -3.014497
     9  N   -3.423010
    10  H    0.646568
    11  H    0.443853
    12  C   -3.633358
    13  H    1.421554
    14  H    1.263807
    15  H    1.069878
 Sum of Mulliken charges =  -1.00000

 Dipole moment (field-independent basis, Debye):
    X=              1.5473    Y=             -3.3633    Z=              5.6433  Tot=              6.7493

 Test job not archived.
 1\1\GINC-SE423\SP\RHF\Aug-CC-pVDZ\C4H8F1N2(1-)\OHZDE\09-Apr-2025\0\\#t
  hf aug-cc-pvdz iop(5/13=1,5/36=2,99/5=2) pseudo=read geom=check guess
 =(read,tcheck) scf=(maxcycle=1)\\title\\-1,1\C,0,0.48815782,-0.0390928
 3,0.06760409\H,0,1.55489161,1.80263014,0.35452202\F,0,-1.15450496,-0.1
 4354275,0.36225317\H,0,2.25171621,-0.10561268,-0.50903662\C,0,0.564543
 14,1.47979879,0.04351221\H,0,-0.15942445,1.81118326,0.79371718\C,0,0.4
 71279,-0.78780049,-1.17214155\N,0,0.25955357,-1.44032313,-2.13543509\N
 ,0,0.86922715,-0.70122243,1.30181355\H,0,1.75780285,-1.15151937,1.1440

 Normal termination of Gaussian 16 at Wed Apr  9 02:49:58 2025.
