 Gaussian 16, Revision C.01,

 ----------------------------------------------------------------------
 #t hf aug-cc-pvdz symm=none int=(grid=ultrafine) guess=(read,tcheck) s
 table=(opt,rrhf)
 ----------------------------------------------------------------------
 -----
 title
 -----
 Symbolic Z-matrix:
 Charge = -1 Multiplicity = 1

 SCF Done:  E(RHF) =  -1291.30268860     A.U. after   16 cycles
 Normal termination of Gaussian 16 at Wed Apr  9 03:03:06 2025.
 Gaussian 16:  ES64L-G16RevC.01  3-Jul-2019

 ----------------------------------------------------------------------
 #t hf aug-cc-pvdz iop(5/13=1,5/36=2,99/5=2) pseudo=read geom=check gue
 ss=(read,tcheck) scf=(maxcycle=1)
 ----------------------------------------------------------------------
 -----
 title
 -----
 Structure from the checkpoint file:  "E2SN2_93_mol2.chk"
 Charge = -1 Multiplicity = 1

                         Standard orientation:
 ---------------------------------------------------------------------
 Center     Atomic      Atomic             Coordinates (Angstroms)
 Number     Number       Type             X           Y           Z
 ---------------------------------------------------------------------
      1          6           0        0.437855   -0.612994   -0.120555
      2          6           0       -0.049652    0.841417    0.131072
      3         17           0        1.838276   -0.519789   -1.340491
      4          1           0       -0.819887    0.757536    0.919477
      5          6           0        1.060370   -1.163051    1.093797
      6          7           0        1.499666   -1.642570    2.073923
      7          7           0       -0.609036   -1.386205   -0.643626
      8          1           0       -1.540902   -1.044801   -0.366140
      9          1           0       -0.501689   -2.374762   -0.470505
     10          7           0       -0.674759    1.479909   -0.998471
     11          1           0       -0.210169    1.210124   -1.856889
     12          1           0       -1.645883    1.176566   -1.017317
     13          6           0        1.062396    1.653567    0.651714
     14          7           0        1.928525    2.319496    1.081786
     15         17           0       -3.329926   -0.035076    0.261662
 ---------------------------------------------------------------------

 SCF Done:  E(RHF) =  -1293.49678774     A.U. after    2 cycles

 The electronic state is 1-A.
 Alpha  occ. eigenvalues --  -99.78986 -99.64111 -15.68392 -15.66234 -15.64546
 Alpha  occ. eigenvalues --  -15.63368 -11.46594 -11.39602 -11.35747 -11.33088
 Alpha  occ. eigenvalues --  -10.36341 -10.20872  -9.56338  -9.55646  -9.55557
 Alpha  occ. eigenvalues --   -9.40941  -9.40587  -9.40466  -1.37971  -1.24276
 Alpha  occ. eigenvalues --   -1.19708  -1.18007  -1.17712  -1.00594  -0.98706
 Alpha  occ. eigenvalues --   -0.85300  -0.68598  -0.65540  -0.60006  -0.53459
 Alpha  occ. eigenvalues --   -0.51874  -0.50663  -0.46134  -0.45418  -0.41239
 Alpha  occ. eigenvalues --   -0.40795  -0.40149  -0.36429  -0.34789  -0.32873
 Alpha  occ. eigenvalues --   -0.32628  -0.29188  -0.28917  -0.28067  -0.27417
 Alpha  occ. eigenvalues --   -0.24864
 Alpha virt. eigenvalues --    0.13363   0.14484   0.15618   0.16441   0.17763
 Alpha virt. eigenvalues --    0.18027   0.18336   0.19575   0.19820   0.21378
 Alpha virt. eigenvalues --    0.21738   0.22641   0.22996   0.24329   0.24486

 Mulliken charges:
               1
     1  C    3.090586
     2  C    0.584539
     3  Cl  -0.057955
     4  H    1.714739
     5  C    2.153588
     6  N   -2.612259
     7  N   -3.767121
     8  H    0.541207
     9  H    0.689137
    10  N   -2.874312
    11  H    0.606919
    12  H    0.440350
    13  C    1.844943
    14  N   -2.404483
    15  Cl  -0.949879
 Sum of Mulliken charges =  -1.00000

 Dipole moment (field-independent basis, Debye):
    X=              5.3574    Y=             -1.8206    Z=             -2.8614  Tot=              6.3407

 Test job not archived.
 1\1\GINC-SE459\SP\RHF\Aug-CC-pVDZ\C4H5Cl2N4(1-)\OHZDE\09-Apr-2025\0\\#
 t hf aug-cc-pvdz iop(5/13=1,5/36=2,99/5=2) pseudo=read geom=check gues
 s=(read,tcheck) scf=(maxcycle=1)\\title\\-1,1\C,0,-0.190735,-0.035025,
 -1.505186\C,0,0.026808,0.164346,0.020992\Cl,0,-1.967861,-0.526236,-1.7
 47353\H,0,1.06308,0.535902,0.120829\C,0,-0.077817,1.250416,-2.21203\N,
 0,0.07608,2.256814,-2.801135\N,0,0.659484,-1.042937,-1.983393\H,0,1.51
 8562,-1.145838,-1.423638\H,0,0.858255,-0.964271,-2.969821\N,0,-0.06582
 5,-1.035134,0.812803\H,0,-0.789498,-1.642524,0.448268\H,0,0.837812,-1.

 Normal termination of Gaussian 16 at Wed Apr  9 03:03:13 2025.
