 Gaussian 16, Revision C.01,

 ----------------------------------------------------------------------
 #t hf aug-cc-pvdz symm=none int=(grid=ultrafine) guess=(read,tcheck) s
 table=(opt,rrhf)
 ----------------------------------------------------------------------
 -----
 title
 -----
 Symbolic Z-matrix:
 Charge = -1 Multiplicity = 1

 SCF Done:  E(RHF) =  -778.623518988     A.U. after   16 cycles
 Normal termination of Gaussian 16 at Wed Apr  9 02:46:50 2025.
 Gaussian 16:  ES64L-G16RevC.01  3-Jul-2019

 ----------------------------------------------------------------------
 #t hf aug-cc-pvdz iop(5/13=1,5/36=2,99/5=2) pseudo=read geom=check gue
 ss=(read,tcheck) scf=(maxcycle=1)
 ----------------------------------------------------------------------
 -----
 title
 -----
 Structure from the checkpoint file:  "E2SN2_242_mol1.chk"
 Charge = -1 Multiplicity = 1

                         Standard orientation:
 ---------------------------------------------------------------------
 Center     Atomic      Atomic             Coordinates (Angstroms)
 Number     Number       Type             X           Y           Z
 ---------------------------------------------------------------------
      1          6           0       -0.435608   -0.227954    0.251681
      2          1           0        0.582813    0.076442   -1.586943
      3          9           0       -0.725440    1.169197    1.293453
      4          9           0       -0.434991   -1.612285   -0.811612
      5          6           0        0.696232    0.429898   -0.567846
      6          7           0       -1.834345    0.030851   -0.271100
      7          8           0       -1.949527    0.743097   -1.263215
      8          8           0       -2.759230   -0.499305    0.327531
      9          7           0       -0.201492   -1.047006    1.370822
     10          1           0       -0.571598   -1.963053    1.174076
     11          1           0       -0.625165   -0.612590    2.174638
     12          7           0        1.981075   -0.193499   -0.101636
     13          8           0        2.466615   -1.092761   -0.787739
     14          8           0        2.494079    0.255687    0.920941
     15          6           0        0.861853    1.934520   -0.528789
     16          1           0       -0.056368    2.396132   -0.885095
     17          1           0        1.058626    2.270655    0.482093
     18          1           0        1.688529    2.215251   -1.192362
 ---------------------------------------------------------------------

 SCF Done:  E(RHF) =  -781.856561471     A.U. after    2 cycles

 The electronic state is 1-A.
 Alpha  occ. eigenvalues --  -29.00021 -28.99560 -20.96167 -20.95851 -20.95597
 Alpha  occ. eigenvalues --  -20.95340 -15.85737 -15.85447 -15.61509 -11.55004
 Alpha  occ. eigenvalues --  -11.35816 -11.26222  -1.86165  -1.84735  -1.55713
 Alpha  occ. eigenvalues --   -1.55194  -1.29713  -1.12936  -1.00088  -0.89946
 Alpha  occ. eigenvalues --   -0.76058  -0.71442  -0.66022  -0.60179  -0.56905
 Alpha  occ. eigenvalues --   -0.53426  -0.52618  -0.51697  -0.47752  -0.46505
 Alpha  occ. eigenvalues --   -0.42340  -0.41954  -0.38463  -0.36689  -0.34709
 Alpha  occ. eigenvalues --   -0.29657  -0.23500  -0.21487  -0.18897  -0.18231
 Alpha  occ. eigenvalues --   -0.17888  -0.16847  -0.16039  -0.06693  -0.06094
 Alpha  occ. eigenvalues --   -0.04871  -0.04067   0.00413
 Alpha virt. eigenvalues --    0.13247   0.14704   0.15289   0.15891   0.16073
 Alpha virt. eigenvalues --    0.17603   0.22078   0.22573   0.23565   0.23949
 Alpha virt. eigenvalues --    0.24978   0.26371   0.26911   0.27506   0.27704

 Mulliken charges:
               1
     1  C    5.084170
     2  H    1.875118
     3  F   -0.533899
     4  F   -0.376020
     5  C   -1.341432
     6  N    5.553356
     7  O   -3.554591
     8  O   -3.397736
     9  N   -3.775525
    10  H    0.401817
    11  H    0.472777
    12  N    4.758822
    13  O   -2.810520
    14  O   -3.116818
    15  C   -3.891087
    16  H    1.275826
    17  H    1.268397
    18  H    1.107342
 Sum of Mulliken charges =  -1.00000

 Dipole moment (field-independent basis, Debye):
    X=              0.9011    Y=              0.3790    Z=              0.2722  Tot=              1.0147

 Test job not archived.
 1\1\GINC-SE115\SP\RHF\Aug-CC-pVDZ\C3H6F2N3O4(1-)\OHZDE\09-Apr-2025\0\\
 #t hf aug-cc-pvdz iop(5/13=1,5/36=2,99/5=2) pseudo=read geom=check gue
 ss=(read,tcheck) scf=(maxcycle=1)\\title\\-1,1\C,0,0.62495097,-0.07696
 852,0.00168031\H,0,1.64335353,1.71807148,-0.49938199\F,0,-1.007738,-0.
 32093951,-0.62770617\F,0,2.31163541,-0.05387716,0.45059646\C,0,0.63480
 524,1.45425785,-0.20007098\N,0,1.07297778,-0.88137335,-1.20204307\O,0,
 1.37596412,-0.26543386,-2.21873862\O,0,1.11335456,-2.0967777,-1.075555
 4\N,0,0.2765988,-0.69234652,1.21744868\H,0,1.07230217,-1.21612833,1.54

 Normal termination of Gaussian 16 at Wed Apr  9 02:47:01 2025.
