 Gaussian 16, Revision C.01,

 ----------------------------------------------------------------------
 #t hf aug-cc-pvdz symm=none int=(grid=ultrafine) guess=(read,tcheck) s
 table=(opt,rrhf)
 ----------------------------------------------------------------------
 -----
 title
 -----
 Symbolic Z-matrix:
 Charge = -1 Multiplicity = 1

 SCF Done:  E(RHF) =  -891.288355395     A.U. after   17 cycles
 Normal termination of Gaussian 16 at Wed Apr  9 02:38:43 2025.
 Gaussian 16:  ES64L-G16RevC.01  3-Jul-2019

 ----------------------------------------------------------------------
 #t hf aug-cc-pvdz iop(5/13=1,5/36=2,99/5=2) pseudo=read geom=check gue
 ss=(read,tcheck) scf=(maxcycle=1)
 ----------------------------------------------------------------------
 -----
 title
 -----
 Structure from the checkpoint file:  "E2SN2_158_mol1.chk"
 Charge = -1 Multiplicity = 1

                         Standard orientation:
 ---------------------------------------------------------------------
 Center     Atomic      Atomic             Coordinates (Angstroms)
 Number     Number       Type             X           Y           Z
 ---------------------------------------------------------------------
      1          6           0       -0.843948    0.244085    0.305130
      2          6           0        0.488409   -0.401600    0.612813
      3         17           0       -1.352236   -0.200625   -1.448094
      4          1           0        0.340567   -0.296286    3.044696
      5          1           0        0.571669   -0.181479    1.866454
      6          7           0       -1.875804   -0.308888    1.162013
      7          1           0       -1.499297   -0.190397    2.111861
      8          1           0       -1.890023   -1.313029    1.013544
      9          6           0       -0.905300    1.751188    0.410381
     10          1           0       -1.946481    2.053142    0.285680
     11          1           0       -0.554496    2.034866    1.407205
     12          1           0       -0.275234    2.240517   -0.326462
     13          7           0        1.624082    0.203887   -0.088126
     14          8           0        2.344096   -0.488158   -0.816517
     15          8           0        1.843274    1.408324    0.129007
     16          7           0        0.540225   -1.815781    0.560172
     17          1           0       -0.024285   -2.227802   -0.170710
     18          1           0        0.312138   -2.186800    1.477066
 ---------------------------------------------------------------------

 SCF Done:  E(RHF) =  -893.543029635     A.U. after    2 cycles

 The electronic state is 1-A.
 Alpha  occ. eigenvalues --  -99.74156 -20.93947 -20.93132 -15.83179 -15.61082
 Alpha  occ. eigenvalues --  -15.60623 -11.39096 -11.31261 -11.25151 -10.31485
 Alpha  occ. eigenvalues --   -9.51560  -9.50880  -9.50774  -1.82877  -1.52636
 Alpha  occ. eigenvalues --   -1.31774  -1.19467  -1.12977  -0.99666  -0.94221
 Alpha  occ. eigenvalues --   -0.76683  -0.66473  -0.60121  -0.56397  -0.54227
 Alpha  occ. eigenvalues --   -0.51930  -0.49487  -0.47113  -0.44885  -0.40817
 Alpha  occ. eigenvalues --   -0.39648  -0.39406  -0.37127  -0.35025  -0.34108
 Alpha  occ. eigenvalues --   -0.27214  -0.24269  -0.19485  -0.16243  -0.15394
 Alpha  occ. eigenvalues --   -0.11316
 Alpha virt. eigenvalues --    0.13869   0.14156   0.15136   0.15948   0.16251
 Alpha virt. eigenvalues --    0.16637   0.17576   0.18313   0.19904   0.20549
 Alpha virt. eigenvalues --    0.22724   0.24631   0.25237   0.26024   0.26299

 Mulliken charges:
               1
     1  C    3.140772
     2  C    1.926543
     3  Cl  -0.385262
     4  H    0.009222
     5  H    0.811632
     6  N   -3.156144
     7  H    0.651373
     8  H    0.631169
     9  C   -4.070416
    10  H    1.091603
    11  H    1.324952
    12  H    1.211085
    13  N    3.314154
    14  O   -2.680915
    15  O   -2.950909
    16  N   -2.824077
    17  H    0.538047
    18  H    0.417172
 Sum of Mulliken charges =  -1.00000

 Dipole moment (field-independent basis, Debye):
    X=             -2.0704    Y=              0.0253    Z=             -4.5455  Tot=              4.9948

 Test job not archived.
 1\1\GINC-SE149\SP\RHF\Aug-CC-pVDZ\C3H9Cl1N3O2(1-)\OHZDE\09-Apr-2025\0\
 \#t hf aug-cc-pvdz iop(5/13=1,5/36=2,99/5=2) pseudo=read geom=check gu
 ess=(read,tcheck) scf=(maxcycle=1)\\title\\-1,1\C,0,-0.24632065,0.0276
 9534,-0.31039349\C,0,-0.19203239,0.04233492,1.20076219\Cl,0,1.48961775
 ,-0.21868311,-0.98547303\H,0,-2.54362902,-0.45727986,1.60988681\H,0,-1
 .43587926,0.00204502,1.48044524\N,0,-1.00949493,-1.11696285,-0.7709124
 6\H,0,-1.9016998,-1.04009893,-0.26487859\H,0,-0.56912002,-1.94962725,-
 0.39238484\C,0,-0.80534205,1.26333259,-0.9788973\H,0,-0.89656405,1.054

 Normal termination of Gaussian 16 at Wed Apr  9 02:38:52 2025.
