 Gaussian 16, Revision C.01,

 ----------------------------------------------------------------------
 #t hf aug-cc-pvdz symm=none int=(grid=ultrafine) guess=(read,tcheck) s
 table=(opt,rrhf)
 ----------------------------------------------------------------------
 -----
 title
 -----
 Symbolic Z-matrix:
 Charge = -1 Multiplicity = 1

 SCF Done:  E(RHF) =  -836.263628350     A.U. after   16 cycles
 Normal termination of Gaussian 16 at Wed Apr  9 02:40:06 2025.
 Gaussian 16:  ES64L-G16RevC.01  3-Jul-2019

 ----------------------------------------------------------------------
 #t hf aug-cc-pvdz iop(5/13=1,5/36=2,99/5=2) pseudo=read geom=check gue
 ss=(read,tcheck) scf=(maxcycle=1)
 ----------------------------------------------------------------------
 -----
 title
 -----
 Structure from the checkpoint file:  "E2SN2_188_mol2.chk"
 Charge = -1 Multiplicity = 1

                         Standard orientation:
 ---------------------------------------------------------------------
 Center     Atomic      Atomic             Coordinates (Angstroms)
 Number     Number       Type             X           Y           Z
 ---------------------------------------------------------------------
      1          6           0       -0.940170    0.257045    0.288175
      2          6           0        0.349251    0.566503   -0.449889
      3         17           0       -1.464775   -1.413016   -0.176098
      4          1           0        0.288712    0.259469   -1.500006
      5          1           0       -0.731234    0.234046    1.356723
      6          6           0       -2.034977    1.253396   -0.019576
      7          1           0       -2.172880    1.369854   -1.097444
      8          1           0       -2.975295    0.921744    0.427613
      9          1           0       -1.740290    2.205727    0.422830
     10          7           0        1.462126   -0.389169    0.066938
     11          8           0        2.384367   -0.589728   -0.730084
     12          8           0        1.430471   -0.812518    1.217681
     13          7           0        0.692630    1.923181   -0.296833
     14          1           0        1.613468    2.119467   -0.671155
     15          1           0        0.583098    2.257045    0.716778
     16          1           0        0.188984    2.672133    2.134564
 ---------------------------------------------------------------------

 SCF Done:  E(RHF) =  -838.242262945     A.U. after    2 cycles

 The electronic state is 1-A.
 Alpha  occ. eigenvalues --  -99.76474 -20.97076 -20.96446 -15.84909 -15.59250
 Alpha  occ. eigenvalues --  -11.38381 -11.32981 -11.26065 -10.33857  -9.53859
 Alpha  occ. eigenvalues --   -9.53175  -9.52995  -1.85443  -1.55811  -1.28771
 Alpha  occ. eigenvalues --   -1.19021  -1.01232  -0.96029  -0.79529  -0.70477
 Alpha  occ. eigenvalues --   -0.59095  -0.58697  -0.54802  -0.51684  -0.47402
 Alpha  occ. eigenvalues --   -0.46337  -0.44130  -0.43305  -0.40322  -0.38647
 Alpha  occ. eigenvalues --   -0.35245  -0.34455  -0.28460  -0.19195  -0.18790
 Alpha  occ. eigenvalues --   -0.18331  -0.10835
 Alpha virt. eigenvalues --    0.13207   0.14141   0.15001   0.15563   0.16668
 Alpha virt. eigenvalues --    0.17622   0.18065   0.21261   0.21571   0.22500
 Alpha virt. eigenvalues --    0.23388   0.24622   0.25051   0.25663   0.25826

 Mulliken charges:
               1
     1  C   -1.889458
     2  C    0.781881
     3  Cl  -0.139927
     4  H    1.859362
     5  H    2.014559
     6  C   -3.659656
     7  H    1.215094
     8  H    1.150729
     9  H    1.335572
    10  N    4.530538
    11  O   -2.873267
    12  O   -2.855569
    13  N   -2.688805
    14  H    0.484179
    15  H    0.671191
    16  H   -0.936421
 Sum of Mulliken charges =  -1.00000

 Dipole moment (field-independent basis, Debye):
    X=             -1.4784    Y=             -6.3390    Z=             -6.8135  Tot=              9.4230

 Test job not archived.
 1\1\GINC-SE460\SP\RHF\Aug-CC-pVDZ\C3H8Cl1N2O2(1-)\OHZDE\09-Apr-2025\0\
 \#t hf aug-cc-pvdz iop(5/13=1,5/36=2,99/5=2) pseudo=read geom=check gu
 ess=(read,tcheck) scf=(maxcycle=1)\\title\\-1,1\C,0,-0.130519,0.000722
 ,0.019579\C,0,-0.470284,-0.004019,-1.459491\Cl,0,1.637147,0.357146,0.1
 87459\H,0,0.279717,-0.555975,-2.037007\H,0,-0.6625,0.823478,0.495023\C
 ,0,-0.465639,-1.310768,0.693163\H,0,-0.030067,-2.155606,0.153806\H,0,-
 0.088574,-1.308399,1.718827\H,0,-1.552589,-1.399216,0.707746\N,0,-0.26
 9433,1.43178,-2.022563\O,0,-0.039989,1.485552,-3.235188\O,0,-0.428134,

 Normal termination of Gaussian 16 at Wed Apr  9 02:40:12 2025.
