 Gaussian 16, Revision C.01,

 ----------------------------------------------------------------------
 #t hf aug-cc-pvdz symm=none int=(grid=ultrafine) guess=(read,tcheck) s
 table=(opt,rrhf)
 ----------------------------------------------------------------------
 -----
 title
 -----
 Symbolic Z-matrix:
 Charge = -1 Multiplicity = 1

 SCF Done:  E(RHF) =  -915.160775149     A.U. after   16 cycles
 Normal termination of Gaussian 16 at Wed Apr  9 02:58:45 2025.
 Gaussian 16:  ES64L-G16RevC.01  3-Jul-2019

 ----------------------------------------------------------------------
 #t hf aug-cc-pvdz iop(5/13=1,5/36=2,99/5=2) pseudo=read geom=check gue
 ss=(read,tcheck) scf=(maxcycle=1)
 ----------------------------------------------------------------------
 -----
 title
 -----
 Structure from the checkpoint file:  "E2SN2_403_mol1.chk"
 Charge = -1 Multiplicity = 1

                         Standard orientation:
 ---------------------------------------------------------------------
 Center     Atomic      Atomic             Coordinates (Angstroms)
 Number     Number       Type             X           Y           Z
 ---------------------------------------------------------------------
      1          6           0        0.865688   -0.053834   -0.018902
      2          1           0       -0.052757    0.700881   -1.738040
      3         17           0       -0.340828   -0.784972    1.784675
      4          9           0        1.822191    0.565432   -1.609231
      5          6           0       -0.424095    0.341138   -0.772183
      6          7           0        1.362239   -1.357343   -0.315595
      7          1           0        1.600436   -1.839520    0.538776
      8          1           0        2.161020   -1.207160   -0.917713
      9          6           0        1.604643    0.960548    0.832314
     10          1           0        2.316089    1.481001    0.196465
     11          1           0        0.915715    1.666851    1.294212
     12          1           0        2.122545    0.436909    1.635769
     13          6           0       -1.167178    1.437493   -0.151397
     14          7           0       -1.745102    2.371607    0.263868
     15          6           0       -1.310097   -0.793033   -1.038137
     16          7           0       -2.057489   -1.633865   -1.373422
 ---------------------------------------------------------------------

 SCF Done:  E(RHF) =  -917.413786629     A.U. after    2 cycles

 The electronic state is 1-A.
 Alpha  occ. eigenvalues --  -99.66580 -28.97157 -15.65505 -15.64294 -15.62167
 Alpha  occ. eigenvalues --  -11.48345 -11.40070 -11.34602 -11.32268 -11.26621
 Alpha  occ. eigenvalues --  -10.23713  -9.43794  -9.43347  -9.43282  -1.30438
 Alpha  occ. eigenvalues --   -1.20357  -1.16682  -1.07411  -1.03683  -0.97013
 Alpha  occ. eigenvalues --   -0.74833  -0.66001  -0.64076  -0.56185  -0.53296
 Alpha  occ. eigenvalues --   -0.48340  -0.47239  -0.43055  -0.40469  -0.39474
 Alpha  occ. eigenvalues --   -0.35920  -0.34469  -0.32624  -0.32338  -0.31670
 Alpha  occ. eigenvalues --   -0.30625  -0.29767  -0.27977  -0.24995  -0.07513
 Alpha  occ. eigenvalues --   -0.05030  -0.04260
 Alpha virt. eigenvalues --    0.13796   0.14513   0.15297   0.15644   0.16096
 Alpha virt. eigenvalues --    0.17065   0.19477   0.20313   0.21112   0.22229
 Alpha virt. eigenvalues --    0.23131   0.23973   0.24690   0.24962   0.25609

 Mulliken charges:
               1
     1  C    7.802603
     2  H    1.373974
     3  Cl  -0.849786
     4  F   -0.742987
     5  C   -2.829948
     6  N   -4.294521
     7  H    0.526312
     8  H    0.530629
     9  C   -5.478435
    10  H    1.058083
    11  H    1.200820
    12  H    1.183740
    13  C    2.498545
    14  N   -2.730810
    15  C    2.555199
    16  N   -2.803418
 Sum of Mulliken charges =  -1.00000

 Dipole moment (field-independent basis, Debye):
    X=              5.0714    Y=              1.5197    Z=             -3.0256  Tot=              6.0977

 Test job not archived.
 1\1\GINC-SE367\SP\RHF\Aug-CC-pVDZ\C5H6Cl1F1N3(1-)\OHZDE\09-Apr-2025\0\
 \#t hf aug-cc-pvdz iop(5/13=1,5/36=2,99/5=2) pseudo=read geom=check gu
 ess=(read,tcheck) scf=(maxcycle=1)\\title\\-1,1\C,0,0.5536841,-0.11367
 668,0.01641617\H,0,1.72108543,1.61718825,-0.08283562\Cl,0,-1.73456531,
 -0.0381831,0.05313863\F,0,2.50902952,-0.09397457,-0.04498728\C,0,0.643
 85954,1.42826726,-0.01895876\N,0,0.59140148,-0.74945738,-1.25954912\H,
 0,-0.1344998,-1.44851314,-1.31930388\H,0,1.52102061,-1.141072,-1.33437
 179\C,0,0.5930634,-0.85982285,1.33600327\H,0,1.63269931,-1.06625876,1.

 Normal termination of Gaussian 16 at Wed Apr  9 02:58:52 2025.
