 Gaussian 16, Revision C.01,

 ----------------------------------------------------------------------
 #t hf aug-cc-pvdz symm=none int=(grid=ultrafine) guess=(read,tcheck) s
 table=(opt,rrhf)
 ----------------------------------------------------------------------
 -----
 title
 -----
 Symbolic Z-matrix:
 Charge = -1 Multiplicity = 1

 SCF Done:  E(RHF) =  -932.933407669     A.U. after   16 cycles
 Normal termination of Gaussian 16 at Wed Apr  9 02:37:43 2025.
 Gaussian 16:  ES64L-G16RevC.01  3-Jul-2019

 ----------------------------------------------------------------------
 #t hf aug-cc-pvdz iop(5/13=1,5/36=2,99/5=2) pseudo=read geom=check gue
 ss=(read,tcheck) scf=(maxcycle=1)
 ----------------------------------------------------------------------
 -----
 title
 -----
 Structure from the checkpoint file:  "E2SN2_163_mol2.chk"
 Charge = -1 Multiplicity = 1

                         Standard orientation:
 ---------------------------------------------------------------------
 Center     Atomic      Atomic             Coordinates (Angstroms)
 Number     Number       Type             X           Y           Z
 ---------------------------------------------------------------------
      1          6           0       -0.147033   -0.571892   -0.367389
      2          6           0       -0.995713    0.025262    0.726495
      3          9           0       -0.723517   -1.720998   -0.867463
      4          1           0       -1.009419   -0.640152    1.590965
      5          1           0        0.069721    0.127534   -1.169371
      6          1           0       -0.528319    0.980889    0.990170
      7          7           0        1.191102   -1.023193    0.167179
      8          8           0        2.026640   -1.297286   -0.686845
      9          8           0        1.325981   -1.166326    1.379515
     10          6           0       -2.357908    0.241060    0.250419
     11          7           0       -3.462768    0.404483   -0.108953
     12         17           0        1.062605    2.405529   -0.188864
 ---------------------------------------------------------------------

 SCF Done:  E(RHF) =  -935.137233637     A.U. after    2 cycles

 The electronic state is 1-A.
 Alpha  occ. eigenvalues --  -99.61883 -29.19405 -20.99892 -20.99683 -15.88986
 Alpha  occ. eigenvalues --  -15.66500 -11.43950 -11.36425 -11.32281 -10.18542
 Alpha  occ. eigenvalues --   -9.38547  -9.38221  -9.38150  -1.88979  -1.59167
 Alpha  occ. eigenvalues --   -1.25030  -1.17288  -0.98758  -0.97500  -0.81156
 Alpha  occ. eigenvalues --   -0.67759  -0.64763  -0.59318  -0.54397  -0.52934
 Alpha  occ. eigenvalues --   -0.48622  -0.46874  -0.41704  -0.35467  -0.33430
 Alpha  occ. eigenvalues --   -0.30376  -0.27688  -0.26005  -0.25616  -0.25291
 Alpha  occ. eigenvalues --   -0.22085  -0.21475  -0.17704  -0.17376
 Alpha virt. eigenvalues --    0.13580   0.16906   0.17522   0.18920   0.20912
 Alpha virt. eigenvalues --    0.21372   0.22014   0.22191   0.23279   0.24214
 Alpha virt. eigenvalues --    0.25753   0.26282   0.26367   0.27590   0.28567

 Mulliken charges:
               1
     1  C   -0.906076
     2  C   -2.508972
     3  F    0.432237
     4  H    1.518592
     5  H    1.711750
     6  H    1.275578
     7  N    4.603525
     8  O   -2.890065
     9  O   -2.904821
    10  C    2.143078
    11  N   -2.533555
    12  Cl  -0.941272
 Sum of Mulliken charges =  -1.00000

 Dipole moment (field-independent basis, Debye):
    X=             -2.6359    Y=             -9.6776    Z=              0.3578  Tot=             10.0365

 Test job not archived.
 1\1\GINC-SE366\SP\RHF\Aug-CC-pVDZ\C3H3Cl1F1N2O2(1-)\OHZDE\09-Apr-2025\
 0\\#t hf aug-cc-pvdz iop(5/13=1,5/36=2,99/5=2) pseudo=read geom=check
 guess=(read,tcheck) scf=(maxcycle=1)\\title\\-1,1\C,0,-0.11571,-0.0103
 24,0.006311\C,0,-0.502526,0.041853,-1.450082\F,0,1.237996,0.202011,0.1
 65203\H,0,-0.056702,-0.799238,-1.983074\H,0,-0.685818,0.677052,0.62424
 7\H,0,-1.595996,-0.026393,-1.479613\N,0,-0.351915,-1.385676,0.583075\O
 ,0,-0.292318,-1.454201,1.805515\O,0,-0.496962,-2.332523,-0.185612\C,0,
 -0.056145,1.295458,-2.048422\N,0,0.311484,2.289677,-2.551362\Cl,0,-3.3

 Normal termination of Gaussian 16 at Wed Apr  9 02:37:48 2025.
