 Gaussian 16, Revision C.01,

 ----------------------------------------------------------------------
 #t hf aug-cc-pvdz symm=none int=(grid=ultrafine) guess=(read,tcheck) s
 table=(opt,rrhf)
 ----------------------------------------------------------------------
 -----
 title
 -----
 Symbolic Z-matrix:
 Charge = -1 Multiplicity = 1

 SCF Done:  E(RHF) =  -931.188349185     A.U. after   16 cycles
 Normal termination of Gaussian 16 at Wed Apr  9 02:38:36 2025.
 Gaussian 16:  ES64L-G16RevC.01  3-Jul-2019

 ----------------------------------------------------------------------
 #t hf aug-cc-pvdz iop(5/13=1,5/36=2,99/5=2) pseudo=read geom=check gue
 ss=(read,tcheck) scf=(maxcycle=1)
 ----------------------------------------------------------------------
 -----
 title
 -----
 Structure from the checkpoint file:  "E2SN2_152_mol2.chk"
 Charge = -1 Multiplicity = 1

                         Standard orientation:
 ---------------------------------------------------------------------
 Center     Atomic      Atomic             Coordinates (Angstroms)
 Number     Number       Type             X           Y           Z
 ---------------------------------------------------------------------
      1          6           0        0.406465   -0.189925   -0.341515
      2          6           0       -0.570897    0.459301    0.659323
      3         17           0       -0.018024   -1.970672   -0.471431
      4          1           0       -0.216251    1.503370    0.609901
      5          7           0        0.414583    0.409934   -1.634649
      6          1           0       -0.524409    0.334283   -2.017174
      7          1           0        0.586411    1.428493   -1.375577
      8          6           0        1.759793   -0.131007    0.233823
      9          7           0        2.849649   -0.133525    0.669271
     10          7           0       -0.457255   -0.104151    1.990888
     11          1           0       -0.812265    0.554141    2.671543
     12          1           0       -0.981826   -0.967246    2.063745
     13          6           0       -1.933799    0.411273    0.106667
     14          7           0       -3.048187    0.364166   -0.266378
     15          9           0        0.663760    2.621731   -0.355757
 ---------------------------------------------------------------------

 SCF Done:  E(RHF) =  -933.476702160     A.U. after    2 cycles

 The electronic state is 1-A.
 Alpha  occ. eigenvalues --  -99.77357 -28.92721 -15.65391 -15.64624 -15.63993
 Alpha  occ. eigenvalues --  -15.59716 -11.42756 -11.36901 -11.33111 -11.30620
 Alpha  occ. eigenvalues --  -10.34741  -9.54739  -9.54019  -9.53934  -1.35623
 Alpha  occ. eigenvalues --   -1.23326  -1.17195  -1.15896  -1.15269  -0.95752
 Alpha  occ. eigenvalues --   -0.84968  -0.66500  -0.60386  -0.58215  -0.54741
 Alpha  occ. eigenvalues --   -0.49412  -0.47996  -0.46625  -0.42320  -0.41347
 Alpha  occ. eigenvalues --   -0.38822  -0.37090  -0.34165  -0.33674  -0.31095
 Alpha  occ. eigenvalues --   -0.30477  -0.28754  -0.26910  -0.22996  -0.01881
 Alpha  occ. eigenvalues --   -0.01249   0.00647
 Alpha virt. eigenvalues --    0.12795   0.14721   0.15704   0.16595   0.17958
 Alpha virt. eigenvalues --    0.19060   0.19832   0.20354   0.21265   0.22823
 Alpha virt. eigenvalues --    0.23216   0.23544   0.23927   0.24995   0.25351

 Mulliken charges:
               1
     1  C    2.490356
     2  C    1.442382
     3  Cl  -0.231463
     4  H    1.146845
     5  N   -3.537977
     6  H    0.540510
     7  H    0.290432
     8  C    2.664022
     9  N   -2.901951
    10  N   -3.452688
    11  H    0.625476
    12  H    0.568957
    13  C    2.669015
    14  N   -2.769241
    15  F   -0.544677
 Sum of Mulliken charges =  -1.00000

 Dipole moment (field-independent basis, Debye):
    X=             -2.0951    Y=             -2.5790    Z=              2.2219  Tot=              3.9972

 Test job not archived.
 1\1\GINC-SE123\SP\RHF\Aug-CC-pVDZ\C4H5Cl1F1N4(1-)\OHZDE\09-Apr-2025\0\
 \#t hf aug-cc-pvdz iop(5/13=1,5/36=2,99/5=2) pseudo=read geom=check gu
 ess=(read,tcheck) scf=(maxcycle=1)\\title\\-1,1\C,0,-0.012453,0.103843
 ,-1.484725\C,0,0.047762,-0.044668,0.049135\Cl,0,-1.764749,0.375804,-1.
 957617\H,0,1.136708,-0.170846,0.17786\N,0,0.806868,1.14485,-2.011137\H
 ,0,0.498508,2.020964,-1.597504\H,0,1.747201,0.888094,-1.582236\C,0,0.3
 81012,-1.180309,-2.08649\N,0,0.657714,-2.195157,-2.606996\N,0,-0.70485
 2,-1.189137,0.525812\H,0,-0.360122,-1.470136,1.434037\H,0,-1.689854,-0

 Normal termination of Gaussian 16 at Wed Apr  9 02:38:44 2025.
