 Gaussian 16, Revision C.01,

 ----------------------------------------------------------------------
 #t hf aug-cc-pvdz symm=none int=(grid=ultrafine) guess=(read,tcheck) s
 table=(opt,rrhf)
 ----------------------------------------------------------------------
 -----
 title
 -----
 Symbolic Z-matrix:
 Charge = -1 Multiplicity = 1

 SCF Done:  E(RHF) =  -1063.60270837     A.U. after   18 cycles
 Normal termination of Gaussian 16 at Wed Apr  9 02:44:30 2025.
 Gaussian 16:  ES64L-G16RevC.01  3-Jul-2019

 ----------------------------------------------------------------------
 #t hf aug-cc-pvdz iop(5/13=1,5/36=2,99/5=2) pseudo=read geom=check gue
 ss=(read,tcheck) scf=(maxcycle=1)
 ----------------------------------------------------------------------
 -----
 title
 -----
 Structure from the checkpoint file:  "E2SN2_226_mol1.chk"
 Charge = -1 Multiplicity = 1

                         Standard orientation:
 ---------------------------------------------------------------------
 Center     Atomic      Atomic             Coordinates (Angstroms)
 Number     Number       Type             X           Y           Z
 ---------------------------------------------------------------------
      1          6           0       -0.166455   -0.184074   -0.011233
      2          1           0        0.881661    0.471587   -1.671950
      3         17           0       -0.860191    1.104151    1.577527
      4          9           0        0.195958   -1.481944   -1.354064
      5          6           0        1.015998    0.601877   -0.598465
      6          7           0       -1.460919   -0.073368   -0.757689
      7          8           0       -1.513400    0.801896   -1.613988
      8          8           0       -2.360518   -0.833052   -0.443593
      9          6           0       -0.016346   -1.317519    0.864993
     10          7           0        0.128752   -2.201238    1.626934
     11          6           0        2.259678   -0.089374   -0.255374
     12          7           0        3.314995   -0.535845    0.002091
     13          6           0        1.156956    2.095497   -0.305911
     14          1           0        0.225808    2.605106   -0.545484
     15          1           0        1.412088    2.290329    0.732896
     16          1           0        1.952630    2.483864   -0.949616
 ---------------------------------------------------------------------

 SCF Done:  E(RHF) =  -1066.43921855     A.U. after    2 cycles

 The electronic state is 1-A.
 Alpha  occ. eigenvalues --  -99.73062 -28.99487 -20.98845 -20.98473 -15.89933
 Alpha  occ. eigenvalues --  -15.65431 -15.65048 -11.54619 -11.39380 -11.35230
 Alpha  occ. eigenvalues --  -11.33501 -11.29623 -10.30134  -9.50221  -9.49836
 Alpha  occ. eigenvalues --   -9.49660  -1.89005  -1.58978  -1.27805  -1.19223
 Alpha  occ. eigenvalues --   -1.14568  -1.09573  -1.04520  -0.88208  -0.80809
 Alpha  occ. eigenvalues --   -0.66932  -0.65008  -0.60444  -0.56467  -0.51458
 Alpha  occ. eigenvalues --   -0.49513  -0.46207  -0.45686  -0.43114  -0.40442
 Alpha  occ. eigenvalues --   -0.39534  -0.37457  -0.36433  -0.34926  -0.33169
 Alpha  occ. eigenvalues --   -0.32359  -0.31719  -0.29333  -0.25495  -0.20965
 Alpha  occ. eigenvalues --   -0.20463  -0.09304  -0.06341  -0.05376
 Alpha virt. eigenvalues --    0.12595   0.14553   0.15061   0.15804   0.18609
 Alpha virt. eigenvalues --    0.19064   0.19985   0.21306   0.22301   0.22671
 Alpha virt. eigenvalues --    0.23285   0.23857   0.24281   0.24477   0.25366

 Mulliken charges:
               1
     1  C    1.659275
     2  H    1.661850
     3  Cl  -0.587724
     4  F   -0.207540
     5  C   -2.573233
     6  N    5.908515
     7  O   -3.338076
     8  O   -3.415019
     9  C    3.955176
    10  N   -3.338110
    11  C    2.296925
    12  N   -2.734174
    13  C   -3.864664
    14  H    1.233384
    15  H    1.286601
    16  H    1.056813
 Sum of Mulliken charges =  -1.00000

 Dipole moment (field-independent basis, Debye):
    X=              0.4276    Y=              0.3514    Z=             -6.6464  Tot=              6.6694

 Test job not archived.
 1\1\GINC-SE459\SP\RHF\Aug-CC-pVDZ\C5H4Cl1F1N3O2(1-)\OHZDE\09-Apr-2025\
 0\\#t hf aug-cc-pvdz iop(5/13=1,5/36=2,99/5=2) pseudo=read geom=check
 guess=(read,tcheck) scf=(maxcycle=1)\\title\\-1,1\C,0,0.44329099,-0.09
 636243,-0.06591044\H,0,1.66730439,1.48409193,-0.60477064\Cl,0,-1.57958
 122,-0.36594795,-0.77320482\F,0,2.23908921,-0.16131913,0.5585046\C,0,0
 .6559579,1.41901147,-0.20435401\N,0,1.01212508,-0.94006917,-1.16576332
 \O,0,1.37961196,-0.33839576,-2.16827606\O,0,1.04154591,-2.14623367,-0.
 9944266\C,0,0.17792129,-0.75489809,1.18745009\N,0,-0.09821952,-1.26299

 Normal termination of Gaussian 16 at Wed Apr  9 02:44:40 2025.
