 Gaussian 16, Revision C.01,

 ----------------------------------------------------------------------
 #t hf aug-cc-pvdz symm=none int=(grid=ultrafine) guess=(read,tcheck) s
 table=(opt,rrhf)
 ----------------------------------------------------------------------
 -----
 title
 -----
 Symbolic Z-matrix:
 Charge = -1 Multiplicity = 1

 SCF Done:  E(RHF) =  -1181.18264031     A.U. after   15 cycles
 Normal termination of Gaussian 16 at Wed Apr  9 02:45:35 2025.
 Gaussian 16:  ES64L-G16RevC.01  3-Jul-2019

 ----------------------------------------------------------------------
 #t hf aug-cc-pvdz iop(5/13=1,5/36=2,99/5=2) pseudo=read geom=check gue
 ss=(read,tcheck) scf=(maxcycle=1)
 ----------------------------------------------------------------------
 -----
 title
 -----
 Structure from the checkpoint file:  "E2SN2_252_mol1.chk"
 Charge = -1 Multiplicity = 1

                         Standard orientation:
 ---------------------------------------------------------------------
 Center     Atomic      Atomic             Coordinates (Angstroms)
 Number     Number       Type             X           Y           Z
 ---------------------------------------------------------------------
      1          6           0        0.042411   -0.304876   -0.167116
      2          1           0       -0.950258    0.509058    1.559737
      3         17           0        2.325955    0.018143   -0.427414
      4         17           0       -2.251783   -0.547964   -0.429018
      5          6           0       -0.088751    0.735718    0.931116
      6          1           0        0.011481   -0.056920   -1.209299
      7          1           0        0.811947    0.737423    1.545461
      8          6           0        0.208733   -1.669212    0.243306
      9          7           0        0.344547   -2.771507    0.632863
     10          6           0       -0.269109    2.076086    0.382310
     11          7           0       -0.415090    3.170234   -0.014899
 ---------------------------------------------------------------------

 SCF Done:  E(RHF) =  -1182.88831613     A.U. after    2 cycles

 The electronic state is 1-A.
 Alpha  occ. eigenvalues --  -99.68747 -99.68699 -15.65920 -15.65808 -11.44741
 Alpha  occ. eigenvalues --  -11.37704 -11.34613 -11.32553 -10.25699 -10.25627
 Alpha  occ. eigenvalues --   -9.45702  -9.45662  -9.45243  -9.45172  -9.45135
 Alpha  occ. eigenvalues --   -9.45092  -1.25079  -1.18560  -1.12042  -1.05430
 Alpha  occ. eigenvalues --   -1.03199  -0.90183  -0.65909  -0.58624  -0.56231
 Alpha  occ. eigenvalues --   -0.51704  -0.43161  -0.42544  -0.40336  -0.34767
 Alpha  occ. eigenvalues --   -0.34176  -0.33307  -0.33077  -0.32457  -0.31357
 Alpha  occ. eigenvalues --   -0.31076  -0.29519  -0.28312
 Alpha virt. eigenvalues --    0.13999   0.15588   0.15853   0.16872   0.18427
 Alpha virt. eigenvalues --    0.19436   0.20416   0.21109   0.22046   0.22940
 Alpha virt. eigenvalues --    0.23653   0.24145   0.24273   0.27106   0.27629

 Mulliken charges:
               1
     1  C   -0.751608
     2  H    1.336798
     3  Cl  -0.561171
     4  Cl  -0.560734
     5  C   -3.249062
     6  H    1.837515
     7  H    1.332374
     8  C    2.237355
     9  N   -2.705091
    10  C    2.704487
    11  N   -2.620863
 Sum of Mulliken charges =  -1.00000

 Dipole moment (field-independent basis, Debye):
    X=             -0.0599    Y=              0.6158    Z=              2.2974  Tot=              2.3793

 Test job not archived.
 1\1\GINC-SE461\SP\RHF\Aug-CC-pVDZ\C4H3Cl2N2(1-)\OHZDE\09-Apr-2025\0\\#
 t hf aug-cc-pvdz iop(5/13=1,5/36=2,99/5=2) pseudo=read geom=check gues
 s=(read,tcheck) scf=(maxcycle=1)\\title\\-1,1\C,0,0.55996058,-0.054231
 02,-0.03983782\H,0,1.50622452,1.83544764,-0.44431066\Cl,0,-1.74753168,
 -0.23401771,-0.21254202\Cl,0,2.80095154,-0.1884911,0.55256536\C,0,0.55
 193671,1.46405123,-0.06996808\H,0,0.41491925,-0.6183811,0.85976323\H,0
 ,-0.2489053,1.81462905,-0.7214483\C,0,0.77859057,-0.7303796,-1.2858501
 2\N,0,0.96019471,-1.2356422,-2.33321968\C,0,0.33753633,2.02656857,1.25

 Normal termination of Gaussian 16 at Wed Apr  9 02:45:40 2025.
