 Gaussian 16, Revision C.01,

 ----------------------------------------------------------------------
 #t hf aug-cc-pvdz symm=none int=(grid=ultrafine) guess=(read,tcheck) s
 table=(opt,rrhf)
 ----------------------------------------------------------------------
 -----
 title
 -----
 Symbolic Z-matrix:
 Charge = -1 Multiplicity = 1

 SCF Done:  E(RHF) =  -476.196872112     A.U. after   16 cycles
 Normal termination of Gaussian 16 at Wed Apr  9 02:44:12 2025.
 Gaussian 16:  ES64L-G16RevC.01  3-Jul-2019

 ----------------------------------------------------------------------
 #t hf aug-cc-pvdz iop(5/13=1,5/36=2,99/5=2) pseudo=read geom=check gue
 ss=(read,tcheck) scf=(maxcycle=1)
 ----------------------------------------------------------------------
 -----
 title
 -----
 Structure from the checkpoint file:  "E2SN2_230_mol2.chk"
 Charge = -1 Multiplicity = 1

                         Standard orientation:
 ---------------------------------------------------------------------
 Center     Atomic      Atomic             Coordinates (Angstroms)
 Number     Number       Type             X           Y           Z
 ---------------------------------------------------------------------
      1          6           0        0.025966    0.589677    0.028312
      2          6           0        1.074085    0.115988   -0.994223
      3          9           0       -0.665889    1.648356   -0.531659
      4          1           0        0.523769   -0.002340   -1.938506
      5          1           0        1.757782    0.963766   -1.109965
      6          7           0       -0.996823   -0.523512    0.151297
      7          8           0       -0.770249   -1.392727    0.992261
      8          8           0       -1.936794   -0.532370   -0.640508
      9          6           0        0.555684    0.975390    1.379157
     10          1           0        1.032845    1.950964    1.268546
     11          1           0       -0.252651    1.046242    2.111302
     12          1           0        1.342739    0.289478    1.703298
     13          7           0        1.853545   -1.045993   -0.669435
     14          1           0        2.540314   -0.800357    0.082281
     15          1           0        1.266771   -1.797444   -0.326904
     16          1           0        3.506313   -0.184539    1.328339
 ---------------------------------------------------------------------

 SCF Done:  E(RHF) =  -478.264104446     A.U. after    2 cycles

 The electronic state is 1-A.
 Alpha  occ. eigenvalues --  -29.16839 -20.99079 -20.98913 -15.87727 -15.57594
 Alpha  occ. eigenvalues --  -11.42829 -11.31609 -11.26142  -1.88404  -1.58497
 Alpha  occ. eigenvalues --   -1.25954  -1.13488  -0.92559  -0.86684  -0.75329
 Alpha  occ. eigenvalues --   -0.63035  -0.59393  -0.57838  -0.51532  -0.48552
 Alpha  occ. eigenvalues --   -0.46330  -0.43552  -0.41163  -0.39616  -0.38827
 Alpha  occ. eigenvalues --   -0.30301  -0.25783  -0.22791  -0.22454  -0.20240
 Alpha  occ. eigenvalues --   -0.14799  -0.13843  -0.09924
 Alpha virt. eigenvalues --    0.13597   0.14580   0.15213   0.15888   0.16760
 Alpha virt. eigenvalues --    0.18771   0.19395   0.21071   0.22551   0.23182
 Alpha virt. eigenvalues --    0.23953   0.24051   0.25028   0.25374   0.25907

 Mulliken charges:
               1
     1  C    2.786248
     2  C   -2.213861
     3  F    0.333303
     4  H    1.263087
     5  H    1.402525
     6  N    3.519134
     7  O   -2.852622
     8  O   -2.859514
     9  C   -3.764777
    10  H    1.173708
    11  H    1.167109
    12  H    1.219922
    13  N   -2.482585
    14  H    0.784050
    15  H    0.597018
    16  H   -1.072746
 Sum of Mulliken charges =  -1.00000

 Dipole moment (field-independent basis, Debye):
    X=            -12.8340    Y=              3.3569    Z=             -4.6336  Tot=             14.0517

 Test job not archived.
 1\1\GINC-SE336\SP\RHF\Aug-CC-pVDZ\C3H8F1N2O2(1-)\OHZDE\09-Apr-2025\0\\
 #t hf aug-cc-pvdz iop(5/13=1,5/36=2,99/5=2) pseudo=read geom=check gue
 ss=(read,tcheck) scf=(maxcycle=1)\\title\\-1,1\C,0,0.034076,0.025432,-
 0.046733\C,0,-0.566198,-0.142528,-1.453848\F,0,1.344669,-0.414609,-0.0
 88496\H,0,0.164143,0.315242,-2.136173\H,0,-0.561283,-1.22268,-1.634993
 \N,0,0.131246,1.517053,0.210243\O,0,-0.852498,2.05681,0.71522\O,0,1.14
 3047,2.102414,-0.169483\C,0,-0.70513,-0.658006,1.067109\H,0,-0.481998,
 -1.723931,0.991767\H,0,-0.377846,-0.285353,2.041007\H,0,-1.78647,-0.56

 Normal termination of Gaussian 16 at Wed Apr  9 02:44:18 2025.
