 Gaussian 16, Revision C.01,

 ----------------------------------------------------------------------
 #t hf aug-cc-pvdz symm=none int=(grid=ultrafine) guess=(read,tcheck) s
 table=(opt,rrhf)
 ----------------------------------------------------------------------
 -----
 title
 -----
 Symbolic Z-matrix:
 Charge = -1 Multiplicity = 1

 SCF Done:  E(RHF) =  -1042.96807032     A.U. after   16 cycles
 Normal termination of Gaussian 16 at Wed Apr  9 03:00:02 2025.
 Gaussian 16:  ES64L-G16RevC.01  3-Jul-2019

 ----------------------------------------------------------------------
 #t hf aug-cc-pvdz iop(5/13=1,5/36=2,99/5=2) pseudo=read geom=check gue
 ss=(read,tcheck) scf=(maxcycle=1)
 ----------------------------------------------------------------------
 -----
 title
 -----
 Structure from the checkpoint file:  "E2SN2_415_mol2.chk"
 Charge = -1 Multiplicity = 1

                         Standard orientation:
 ---------------------------------------------------------------------
 Center     Atomic      Atomic             Coordinates (Angstroms)
 Number     Number       Type             X           Y           Z
 ---------------------------------------------------------------------
      1          6           0       -0.826405    0.454038   -0.167402
      2          6           0        0.266609   -0.498454    0.408644
      3         17           0       -0.000138    1.968026   -0.743540
      4          1           0       -0.364346   -1.399951    0.630199
      5          7           0       -1.581579   -0.094432   -1.251962
      6          1           0       -1.971851   -0.948631   -0.819737
      7          1           0       -0.966380   -0.372763   -2.007616
      8          7           0       -1.658616    0.743816    0.963628
      9          1           0       -2.427662    1.304230    0.607459
     10          1           0       -2.034408   -0.196042    1.185185
     11          6           0        0.914341    0.028730    1.597237
     12          7           0        1.443674    0.400530    2.577728
     13          7           0        1.301793   -0.849588   -0.608053
     14          8           0        0.919527   -1.505072   -1.577963
     15          8           0        2.459322   -0.471045   -0.436648
     16          9           0       -1.991996   -1.926946    0.706814
 ---------------------------------------------------------------------

 SCF Done:  E(RHF) =  -1045.69299248     A.U. after    2 cycles

 The electronic state is 1-A.
 Alpha  occ. eigenvalues --  -99.76260 -28.94569 -20.99446 -20.98916 -15.89063
 Alpha  occ. eigenvalues --  -15.65285 -15.60707 -15.60536 -11.43079 -11.37751
 Alpha  occ. eigenvalues --  -11.32485 -10.33720  -9.53774  -9.52992  -9.52881
 Alpha  occ. eigenvalues --   -1.88802  -1.58538  -1.36472  -1.19508  -1.15940
 Alpha  occ. eigenvalues --   -1.13272  -1.09809  -0.82945  -0.75800  -0.66853
 Alpha  occ. eigenvalues --   -0.62145  -0.60727  -0.54947  -0.52051  -0.51404
 Alpha  occ. eigenvalues --   -0.48335  -0.45608  -0.44135  -0.41334  -0.37610
 Alpha  occ. eigenvalues --   -0.37456  -0.34340  -0.33549  -0.30496  -0.27515
 Alpha  occ. eigenvalues --   -0.25375  -0.23342  -0.20716  -0.19920  -0.03324
 Alpha  occ. eigenvalues --   -0.03163  -0.01381
 Alpha virt. eigenvalues --    0.14354   0.15176   0.16571   0.17942   0.18021
 Alpha virt. eigenvalues --    0.18524   0.20041   0.22188   0.22362   0.23282
 Alpha virt. eigenvalues --    0.23713   0.24595   0.25057   0.25593   0.26399

 Mulliken charges:
               1
     1  C    5.839063
     2  C    0.628223
     3  Cl  -0.192072
     4  H    1.277570
     5  N   -3.713798
     6  H    0.147256
     7  H    0.796209
     8  N   -3.790645
     9  H    0.558483
    10  H    0.346359
    11  C    2.806343
    12  N   -2.832067
    13  N    3.705559
    14  O   -2.997291
    15  O   -2.788633
    16  F   -0.790559
 Sum of Mulliken charges =  -1.00000

 Dipole moment (field-independent basis, Debye):
    X=              0.4591    Y=              0.6237    Z=             -2.9692  Tot=              3.0685

 Test job not archived.
 1\1\GINC-SE339\SP\RHF\Aug-CC-pVDZ\C3H5Cl1F1N4O2(1-)\OHZDE\09-Apr-2025\
 0\\#t hf aug-cc-pvdz iop(5/13=1,5/36=2,99/5=2) pseudo=read geom=check
 guess=(read,tcheck) scf=(maxcycle=1)\\title\\-1,1\C,0,-0.012639,0.0022
 09,0.008005\C,0,-0.511098,0.12381,-1.465257\Cl,0,1.805501,0.028649,-0.
 013873\H,0,-1.617509,0.186966,-1.287061\N,0,-0.473472,1.039471,0.87926
 7\H,0,-1.498848,0.945526,0.786723\H,0,-0.203725,1.948675,0.522144\N,0,
 -0.484204,-1.286426,0.423723\H,0,-0.241154,-1.368271,1.406871\H,0,-1.5
 10424,-1.155217,0.366296\C,0,-0.147671,-1.017708,-2.286896\N,0,0.09675

 Normal termination of Gaussian 16 at Wed Apr  9 03:00:11 2025.
