 Gaussian 16, Revision C.01,

 ----------------------------------------------------------------------
 #t hf aug-cc-pvdz symm=none int=(grid=ultrafine) guess=(read,tcheck) s
 table=(opt,rrhf)
 ----------------------------------------------------------------------
 -----
 title
 -----
 Symbolic Z-matrix:
 Charge = -1 Multiplicity = 1

 SCF Done:  E(RHF) =  -465.728466175     A.U. after   13 cycles
 Normal termination of Gaussian 16 at Wed Apr  9 02:55:23 2025.
 Gaussian 16:  ES64L-G16RevC.01  3-Jul-2019

 ----------------------------------------------------------------------
 #t hf aug-cc-pvdz iop(5/13=1,5/36=2,99/5=2) pseudo=read geom=check gue
 ss=(read,tcheck) scf=(maxcycle=1)
 ----------------------------------------------------------------------
 -----
 title
 -----
 Structure from the checkpoint file:  "E2SN2_353_mol2.chk"
 Charge = -1 Multiplicity = 1

                         Standard orientation:
 ---------------------------------------------------------------------
 Center     Atomic      Atomic             Coordinates (Angstroms)
 Number     Number       Type             X           Y           Z
 ---------------------------------------------------------------------
      1          6           0       -0.873742    0.046443   -0.002274
      2          6           0        0.281670   -1.000994    0.016189
      3          9           0       -2.089305   -0.708465   -0.044804
      4          1           0       -0.227900   -1.971682    0.036383
      5          6           0       -0.935643    0.896014    1.249399
      6          1           0       -0.028257    1.501156    1.273359
      7          1           0       -1.820067    1.539998    1.200058
      8          1           0       -0.980808    0.271441    2.140300
      9          6           0       -0.870152    0.933658   -1.228769
     10          1           0       -1.743165    1.594081   -1.195144
     11          1           0        0.052171    1.516725   -1.199091
     12          1           0       -0.895230    0.332461   -2.136392
     13          7           0        1.074075   -0.877748    1.245167
     14          1           0        1.746824   -1.639763    1.228857
     15          1           0        1.604199   -0.006018    1.072753
     16          7           0        1.064716   -0.924071   -1.222998
     17          1           0        1.600360   -0.051076   -1.083732
     18          1           0        1.734985   -1.687642   -1.185970
     19          9           0        1.908477    1.370945   -0.012288
 ---------------------------------------------------------------------

 SCF Done:  E(RHF) =  -467.751155406     A.U. after    2 cycles

 The electronic state is 1-A.
 Alpha  occ. eigenvalues --  -29.08009 -28.89404 -15.55166 -15.54968 -11.35861
 Alpha  occ. eigenvalues --  -11.27947 -11.23565 -11.19800  -1.26159  -1.08814
 Alpha  occ. eigenvalues --   -1.06129  -0.86250  -0.80955  -0.67435  -0.58850
 Alpha  occ. eigenvalues --   -0.49736  -0.46820  -0.45952  -0.44863  -0.40752
 Alpha  occ. eigenvalues --   -0.38874  -0.36788  -0.34658  -0.32198  -0.31232
 Alpha  occ. eigenvalues --   -0.28204  -0.23911  -0.18816  -0.16045  -0.08730
 Alpha  occ. eigenvalues --   -0.07965   0.01638   0.01842   0.03173
 Alpha virt. eigenvalues --    0.13998   0.14475   0.14715   0.15309   0.15415
 Alpha virt. eigenvalues --    0.15612   0.17320   0.18642   0.18952   0.20513
 Alpha virt. eigenvalues --    0.20625   0.22265   0.25510   0.25692   0.25796

 Mulliken charges:
               1
     1  C    2.774771
     2  C    2.407211
     3  F   -0.328752
     4  H    1.401705
     5  C   -4.234429
     6  H    1.248091
     7  H    1.074414
     8  H    1.201374
     9  C   -4.116631
    10  H    1.059613
    11  H    1.141612
    12  H    1.183484
    13  N   -3.108618
    14  H    0.559908
    15  H    0.202274
    16  N   -3.112876
    17  H    0.285748
    18  H    0.553070
    19  F   -1.191970
 Sum of Mulliken charges =  -1.00000

 Dipole moment (field-independent basis, Debye):
    X=             -4.1272    Y=             -3.1183    Z=             -0.0122  Tot=              5.1728

 Test job not archived.
 1\1\GINC-SE127\SP\RHF\Aug-CC-pVDZ\C4H11F2N2(1-)\OHZDE\09-Apr-2025\0\\#
 t hf aug-cc-pvdz iop(5/13=1,5/36=2,99/5=2) pseudo=read geom=check gues
 s=(read,tcheck) scf=(maxcycle=1)\\title\\-1,1\C,0,-0.012554,0.000959,0
 .020742\C,0,-0.538917,0.064137,-1.44602\F,0,1.415616,-0.024757,-0.0739
 \H,0,0.367415,0.113849,-2.061159\C,0,-0.369847,1.22218,0.84126\H,0,-1.
 45546,1.232163,0.948338\H,0,0.107684,1.144058,1.823714\H,0,-0.044463,2
 .133662,0.342099\C,0,-0.421707,-1.255253,0.759646\H,0,0.037227,-1.2509
 39,1.754032\H,0,-1.510159,-1.238684,0.840425\H,0,-0.107893,-2.141832,0

 Normal termination of Gaussian 16 at Wed Apr  9 02:55:32 2025.
