 Gaussian 16, Revision C.01,

 ----------------------------------------------------------------------
 #t hf aug-cc-pvdz symm=none int=(grid=ultrafine) guess=(read,tcheck) s
 table=(opt,rrhf)
 ----------------------------------------------------------------------
 -----
 title
 -----
 Symbolic Z-matrix:
 Charge = -1 Multiplicity = 1

 SCF Done:  E(RHF) =  -836.235552271     A.U. after   17 cycles
 Normal termination of Gaussian 16 at Wed Apr  9 02:56:19 2025.
 Gaussian 16:  ES64L-G16RevC.01  3-Jul-2019

 ----------------------------------------------------------------------
 #t hf aug-cc-pvdz iop(5/13=1,5/36=2,99/5=2) pseudo=read geom=check gue
 ss=(read,tcheck) scf=(maxcycle=1)
 ----------------------------------------------------------------------
 -----
 title
 -----
 Structure from the checkpoint file:  "E2SN2_367_mol1.chk"
 Charge = -1 Multiplicity = 1

                         Standard orientation:
 ---------------------------------------------------------------------
 Center     Atomic      Atomic             Coordinates (Angstroms)
 Number     Number       Type             X           Y           Z
 ---------------------------------------------------------------------
      1          6           0        0.961307    0.191586    0.727573
      2          1           0       -0.558280    1.615091    1.036142
      3         17           0        0.957560   -1.429941   -0.607623
      4          1           0        1.049177    1.447172    2.345260
      5          6           0       -0.303034    0.905141    0.251013
      6          1           0        0.851803   -0.390447    1.627663
      7          7           0        2.225731    0.765574    0.315587
      8          1           0        2.865452    0.005920    0.115435
      9          1           0        2.540267    1.292132    1.118225
     10          7           0       -1.466934   -0.050842    0.265395
     11          8           0       -2.261488   -0.041114   -0.675492
     12          8           0       -1.604792   -0.729644    1.280933
     13          6           0       -0.165766    1.600335   -1.081520
     14          1           0        0.667990    2.297362   -1.006846
     15          1           0        0.050826    0.883700   -1.872442
     16          1           0       -1.082138    2.138637   -1.326644
 ---------------------------------------------------------------------

 SCF Done:  E(RHF) =  -838.234500439     A.U. after    2 cycles

 The electronic state is 1-A.
 Alpha  occ. eigenvalues --  -99.69339 -20.96032 -20.95685 -15.85249 -15.60725
 Alpha  occ. eigenvalues --  -11.39684 -11.33181 -11.25651 -10.26448  -9.46515
 Alpha  occ. eigenvalues --   -9.46073  -9.45885  -1.85350  -1.55149  -1.24978
 Alpha  occ. eigenvalues --   -1.10450  -1.06875  -0.89541  -0.81417  -0.66510
 Alpha  occ. eigenvalues --   -0.58383  -0.57822  -0.54224  -0.49966  -0.48309
 Alpha  occ. eigenvalues --   -0.44343  -0.42303  -0.39363  -0.37948  -0.33618
 Alpha  occ. eigenvalues --   -0.32530  -0.32303  -0.25195  -0.21637  -0.18009
 Alpha  occ. eigenvalues --   -0.17610  -0.13378
 Alpha virt. eigenvalues --    0.13655   0.14552   0.15402   0.15812   0.16205
 Alpha virt. eigenvalues --    0.16974   0.17616   0.20084   0.20880   0.23301
 Alpha virt. eigenvalues --    0.23666   0.24927   0.25285   0.26405   0.26705

 Mulliken charges:
               1
     1  C   -0.460997
     2  H    1.984004
     3  Cl  -0.515538
     4  H   -0.967944
     5  C   -0.993705
     6  H    2.016034
     7  N   -2.591530
     8  H    0.541378
     9  H    0.700293
    10  N    4.437730
    11  O   -2.812852
    12  O   -3.020688
    13  C   -3.035421
    14  H    1.284947
    15  H    1.236185
    16  H    1.198102
 Sum of Mulliken charges =  -1.00000

 Dipole moment (field-independent basis, Debye):
    X=             -1.4629    Y=             -0.1780    Z=             -4.0248  Tot=              4.2861

 Test job not archived.
 1\1\GINC-SE108\SP\RHF\Aug-CC-pVDZ\C3H8Cl1N2O2(1-)\OHZDE\09-Apr-2025\0\
 \#t hf aug-cc-pvdz iop(5/13=1,5/36=2,99/5=2) pseudo=read geom=check gu
 ess=(read,tcheck) scf=(maxcycle=1)\\title\\-1,1\C,0,0.40751918,-0.0805
 5276,-0.0311722\H,0,1.69997163,1.57630001,0.09184121\Cl,0,-1.67400046,
 -0.11596715,0.24834954\H,0,2.43612245,-0.36785604,0.02671267\C,0,0.628
 70942,1.43134966,-0.03851998\H,0,0.66327485,-0.58033461,0.88845872\N,0
 ,0.43133497,-0.74691266,-1.31700281\H,0,-0.27400729,-1.47408156,-1.307
 3189\H,0,1.35558883,-1.14994327,-1.37820284\N,0,0.04859118,2.03989895,

 Normal termination of Gaussian 16 at Wed Apr  9 02:56:26 2025.
