 Gaussian 16, Revision C.01,

 ----------------------------------------------------------------------
 #t hf aug-cc-pvdz symm=none int=(grid=ultrafine) guess=(read,tcheck) s
 table=(opt,rrhf)
 ----------------------------------------------------------------------
 -----
 title
 -----
 Symbolic Z-matrix:
 Charge = -1 Multiplicity = 1

 SCF Done:  E(RHF) =  -1079.60478634     A.U. after   18 cycles
 Normal termination of Gaussian 16 at Wed Apr  9 02:45:39 2025.
 Gaussian 16:  ES64L-G16RevC.01  3-Jul-2019

 ----------------------------------------------------------------------
 #t hf aug-cc-pvdz iop(5/13=1,5/36=2,99/5=2) pseudo=read geom=check gue
 ss=(read,tcheck) scf=(maxcycle=1)
 ----------------------------------------------------------------------
 -----
 title
 -----
 Structure from the checkpoint file:  "E2SN2_228_mol1.chk"
 Charge = -1 Multiplicity = 1

                         Standard orientation:
 ---------------------------------------------------------------------
 Center     Atomic      Atomic             Coordinates (Angstroms)
 Number     Number       Type             X           Y           Z
 ---------------------------------------------------------------------
      1          6           0       -0.176724   -0.054530    0.134281
      2          1           0        0.762261    0.560691   -1.682812
      3          9           0       -0.212343    1.197893    1.558521
      4         17           0       -0.341680   -1.625499   -1.343159
      5          6           0        0.937684    0.736275   -0.621744
      6          7           0       -1.582297    0.404271   -0.077096
      7          8           0       -1.738416    1.273355   -0.929766
      8          8           0       -2.460097   -0.119473    0.586552
      9          6           0        0.061415   -0.969942    1.220195
     10          7           0        0.292040   -1.759163    2.060841
     11          6           0        2.221185    0.103033   -0.285360
     12          7           0        3.273953   -0.338679   -0.011397
     13          7           0        1.037721    2.164506   -0.424510
     14          1           0        0.919990    2.309608    0.574039
     15          1           0        0.214230    2.565537   -0.857592
 ---------------------------------------------------------------------

 SCF Done:  E(RHF) =  -1082.48832149     A.U. after    2 cycles

 The electronic state is 1-A.
 Alpha  occ. eigenvalues --  -99.73431 -29.01087 -20.99799 -20.99228 -15.90736
 Alpha  occ. eigenvalues --  -15.66088 -15.65423 -15.63354 -11.53944 -11.41107
 Alpha  occ. eigenvalues --  -11.35471 -11.33219 -10.30486  -9.50584  -9.50065
 Alpha  occ. eigenvalues --   -9.50002  -1.89805  -1.59764  -1.31788  -1.21275
 Alpha  occ. eigenvalues --   -1.17517  -1.14352  -1.07719  -0.94678  -0.82512
 Alpha  occ. eigenvalues --   -0.68162  -0.65617  -0.61235  -0.59892  -0.53006
 Alpha  occ. eigenvalues --   -0.50016  -0.48244  -0.47615  -0.41982  -0.40896
 Alpha  occ. eigenvalues --   -0.38603  -0.37019  -0.34959  -0.34129  -0.33061
 Alpha  occ. eigenvalues --   -0.32194  -0.31482  -0.28711  -0.24934  -0.21396
 Alpha  occ. eigenvalues --   -0.21373  -0.11125  -0.08190  -0.06266
 Alpha virt. eigenvalues --    0.13928   0.15178   0.16447   0.18843   0.19203
 Alpha virt. eigenvalues --    0.19972   0.21188   0.22350   0.22687   0.23317
 Alpha virt. eigenvalues --    0.23719   0.24430   0.24974   0.25547   0.26245

 Mulliken charges:
               1
     1  C    2.025225
     2  H    1.712740
     3  F   -0.179491
     4  Cl  -0.589306
     5  C   -0.438932
     6  N    4.824654
     7  O   -3.202160
     8  O   -3.208108
     9  C    3.121915
    10  N   -3.193692
    11  C    2.803670
    12  N   -2.860611
    13  N   -2.726703
    14  H    0.278597
    15  H    0.632201
 Sum of Mulliken charges =  -1.00000

 Dipole moment (field-independent basis, Debye):
    X=             -2.2092    Y=              7.2668    Z=              1.7973  Tot=              7.8049

 Test job not archived.
 1\1\GINC-SE106\SP\RHF\Aug-CC-pVDZ\C4H3Cl1F1N4O2(1-)\OHZDE\09-Apr-2025\
 0\\#t hf aug-cc-pvdz iop(5/13=1,5/36=2,99/5=2) pseudo=read geom=check
 guess=(read,tcheck) scf=(maxcycle=1)\\title\\-1,1\C,0,0.60374453,0.028
 64701,0.04188778\H,0,1.71822822,1.76594506,-0.50742122\F,0,-1.26574089
 ,0.06143578,-0.27786248\Cl,0,2.70581993,-0.29599064,0.43415304\C,0,0.7
 233241,1.57888231,-0.10413111\N,0,0.63294367,-0.76598088,-1.22244104\O
 ,0,0.8832945,-0.13466,-2.24493079\O,0,0.42781266,-1.96502769,-1.148435
 04\C,0,0.1777838,-0.6512118,1.23781724\N,0,-0.11145708,-1.18060508,2.2

 Normal termination of Gaussian 16 at Wed Apr  9 02:45:49 2025.
