 Gaussian 16, Revision C.01,

 ----------------------------------------------------------------------
 #t hf aug-cc-pvdz symm=none int=(grid=ultrafine) guess=(read,tcheck) s
 table=(opt,rrhf)
 ----------------------------------------------------------------------
 -----
 title
 -----
 Symbolic Z-matrix:
 Charge = -1 Multiplicity = 1

 SCF Done:  E(RHF) =  -500.035835878     A.U. after   15 cycles
 Normal termination of Gaussian 16 at Wed Apr  9 02:48:07 2025.
 Gaussian 16:  ES64L-G16RevC.01  3-Jul-2019

 ----------------------------------------------------------------------
 #t hf aug-cc-pvdz iop(5/13=1,5/36=2,99/5=2) pseudo=read geom=check gue
 ss=(read,tcheck) scf=(maxcycle=1)
 ----------------------------------------------------------------------
 -----
 title
 -----
 Structure from the checkpoint file:  "E2SN2_269_mol1.chk"
 Charge = -1 Multiplicity = 1

                         Standard orientation:
 ---------------------------------------------------------------------
 Center     Atomic      Atomic             Coordinates (Angstroms)
 Number     Number       Type             X           Y           Z
 ---------------------------------------------------------------------
      1          6           0       -0.179967   -0.066995    0.003429
      2          1           0        0.426046   -1.867388    0.938514
      3          9           0       -0.186396    0.003014   -1.780570
      4          9           0       -0.217694    0.065280    1.783886
      5          6           0        0.681230   -1.321557    0.030624
      6          1           0        0.414159   -1.913327   -0.844605
      7          6           0       -1.624670   -0.214579   -0.006413
      8          7           0       -2.787414   -0.380649   -0.013373
      9          6           0        0.388844    1.271311   -0.013977
     10          7           0        0.879104    2.338608   -0.028950
     11          6           0        2.162196   -0.978316    0.011616
     12          1           0        2.402726   -0.415379   -0.891792
     13          1           0        2.417163   -0.374488    0.884344
     14          1           0        2.769082   -1.888954    0.028278
 ---------------------------------------------------------------------

 SCF Done:  E(RHF) =  -502.123054435     A.U. after    2 cycles

 The electronic state is 1-A.
 Alpha  occ. eigenvalues --  -28.99559 -28.99543 -15.63077 -15.62423 -11.49908
 Alpha  occ. eigenvalues --  -11.32899 -11.32272 -11.31056 -11.25236  -1.24316
 Alpha  occ. eigenvalues --   -1.15422  -1.10689  -0.97150  -0.79033  -0.68648
 Alpha  occ. eigenvalues --   -0.63827  -0.53352  -0.47865  -0.43126  -0.40569
 Alpha  occ. eigenvalues --   -0.39158  -0.38161  -0.37171  -0.34925  -0.33599
 Alpha  occ. eigenvalues --   -0.30167  -0.29835  -0.26509  -0.15244  -0.06202
 Alpha  occ. eigenvalues --   -0.05551  -0.05061  -0.04844   0.01392
 Alpha virt. eigenvalues --    0.12477   0.15002   0.15667   0.16172   0.16499
 Alpha virt. eigenvalues --    0.19203   0.20377   0.22201   0.22569   0.23342
 Alpha virt. eigenvalues --    0.23578   0.24923   0.25607   0.25942   0.26896

 Mulliken charges:
               1
     1  C    5.669652
     2  H    1.177061
     3  F   -0.474582
     4  F   -0.489740
     5  C   -4.856463
     6  H    1.200722
     7  C    0.110416
     8  N   -2.735212
     9  C    2.581492
    10  N   -3.155904
    11  C   -3.795131
    12  H    1.368589
    13  H    1.378516
    14  H    1.020584
 Sum of Mulliken charges =  -1.00000

 Dipole moment (field-independent basis, Debye):
    X=              3.2231    Y=             -3.2641    Z=              0.0507  Tot=              4.5875

 Test job not archived.
 1\1\GINC-SE229\SP\RHF\Aug-CC-pVDZ\C5H5F2N2(1-)\OHZDE\09-Apr-2025\0\\#t
  hf aug-cc-pvdz iop(5/13=1,5/36=2,99/5=2) pseudo=read geom=check guess
 =(read,tcheck) scf=(maxcycle=1)\\title\\-1,1\C,0,0.5960888,-0.04177383
 ,-0.0070711\H,0,1.42953805,1.85176847,-0.45752887\F,0,-1.15758786,-0.2
 76381,-0.24618033\F,0,2.35156306,0.00408864,0.31720277\C,0,0.48292613,
 1.47459102,-0.0715496\H,0,-0.32068695,1.70714991,-0.76988119\C,0,0.852
 00344,-0.7734664,-1.23515007\N,0,1.05956608,-1.32428751,-2.25157317\C,
 0,0.45684106,-0.78382316,1.23586249\N,0,0.33803417,-1.35417825,2.25580

 Normal termination of Gaussian 16 at Wed Apr  9 02:48:14 2025.
