 Gaussian 16, Revision C.01,

 ----------------------------------------------------------------------
 #t hf aug-cc-pvdz symm=none int=(grid=ultrafine) guess=(read,tcheck) s
 table=(opt,rrhf)
 ----------------------------------------------------------------------
 -----
 title
 -----
 Symbolic Z-matrix:
 Charge = -1 Multiplicity = 1

 SCF Done:  E(RHF) =  -591.119438992     A.U. after   15 cycles
 Normal termination of Gaussian 16 at Wed Apr  9 02:57:15 2025.
 Gaussian 16:  ES64L-G16RevC.01  3-Jul-2019

 ----------------------------------------------------------------------
 #t hf aug-cc-pvdz iop(5/13=1,5/36=2,99/5=2) pseudo=read geom=check gue
 ss=(read,tcheck) scf=(maxcycle=1)
 ----------------------------------------------------------------------
 -----
 title
 -----
 Structure from the checkpoint file:  "E2SN2_377_mol1.chk"
 Charge = -1 Multiplicity = 1

                         Standard orientation:
 ---------------------------------------------------------------------
 Center     Atomic      Atomic             Coordinates (Angstroms)
 Number     Number       Type             X           Y           Z
 ---------------------------------------------------------------------
      1          6           0        0.029411   -0.516733    0.024194
      2          1           0       -1.757919   -1.549004   -0.211716
      3          9           0       -0.512642   -0.094509    1.646688
      4          9           0        0.787417   -0.750933   -1.596329
      5          6           0       -1.397800   -0.571583   -0.542495
      6          1           0       -1.324716   -0.577399   -1.626055
      7          7           0        0.689000   -1.674197    0.505273
      8          1           0        0.929782   -1.506520    1.470306
      9          1           0        1.508503   -1.804274   -0.067185
     10          7           0        0.775088    0.800587    0.006859
     11          8           0        0.228845    1.768618   -0.514499
     12          8           0        1.887093    0.825421    0.519602
     13          7           0       -2.360412    0.443648   -0.130993
     14          1           0       -2.018679    1.325812   -0.491724
     15          1           0       -2.252844    0.507685    0.874147
 ---------------------------------------------------------------------

 SCF Done:  E(RHF) =  -593.578548779     A.U. after    2 cycles

 The electronic state is 1-A.
 Alpha  occ. eigenvalues --  -28.99180 -28.97078 -20.94048 -20.93796 -15.84028
 Alpha  occ. eigenvalues --  -15.60096 -15.57778 -11.47177 -11.26292  -1.83938
 Alpha  occ. eigenvalues --   -1.54038  -1.27665  -1.17518  -0.99363  -0.84809
 Alpha  occ. eigenvalues --   -0.68883  -0.64886  -0.57318  -0.51621  -0.51117
 Alpha  occ. eigenvalues --   -0.50147  -0.42514  -0.41157  -0.38621  -0.35916
 Alpha  occ. eigenvalues --   -0.32134  -0.27833  -0.25171  -0.19130  -0.16990
 Alpha  occ. eigenvalues --   -0.15666  -0.14843  -0.05767  -0.05055  -0.03530
 Alpha  occ. eigenvalues --   -0.02057   0.01526
 Alpha virt. eigenvalues --    0.14570   0.15715   0.16046   0.16432   0.17310
 Alpha virt. eigenvalues --    0.17978   0.22568   0.23910   0.24086   0.27332
 Alpha virt. eigenvalues --    0.28281   0.28643   0.29714   0.30028   0.30495

 Mulliken charges:
               1
     1  C    5.089772
     2  H    1.065618
     3  F   -0.462782
     4  F   -0.623170
     5  C   -1.895307
     6  H    1.162981
     7  N   -3.388073
     8  H    0.347822
     9  H    0.404851
    10  N    5.265368
    11  O   -3.363959
    12  O   -3.348373
    13  N   -2.315504
    14  H    0.695639
    15  H    0.365119
 Sum of Mulliken charges =  -1.00000

 Dipole moment (field-independent basis, Debye):
    X=              0.5303    Y=              0.0612    Z=              0.9934  Tot=              1.1278

 Test job not archived.
 1\1\GINC-SE208\SP\RHF\Aug-CC-pVDZ\C2H6F2N3O2(1-)\OHZDE\09-Apr-2025\0\\
 #t hf aug-cc-pvdz iop(5/13=1,5/36=2,99/5=2) pseudo=read geom=check gue
 ss=(read,tcheck) scf=(maxcycle=1)\\title\\-1,1\C,0,0.72653425,-0.00767
 812,-0.23193086\H,0,1.14805929,1.53011114,-1.56358604\F,0,-0.87699318,
 -0.09797147,-0.95658856\F,0,2.25989958,-0.08224043,0.71609288\C,0,0.87
 139247,1.49716297,-0.50678789\H,0,1.70725211,1.86320911,0.08213119\N,0
 ,1.22725588,-0.98401291,-1.12762207\H,0,0.44986822,-1.55936952,-1.4140
 0252\H,0,1.92038406,-1.5157725,-0.62461165\N,0,0.0885781,-0.45809655,1

 Normal termination of Gaussian 16 at Wed Apr  9 02:57:21 2025.
