 Gaussian 16, Revision C.01,

 ----------------------------------------------------------------------
 #t hf aug-cc-pvdz symm=none int=(grid=ultrafine) guess=(read,tcheck) s
 table=(opt,rrhf)
 ----------------------------------------------------------------------
 -----
 title
 -----
 Symbolic Z-matrix:
 Charge = -1 Multiplicity = 1

 SCF Done:  E(RHF) =  -974.322165914     A.U. after   15 cycles
 Normal termination of Gaussian 16 at Wed Apr  9 02:56:23 2025.
 Gaussian 16:  ES64L-G16RevC.01  3-Jul-2019

 ----------------------------------------------------------------------
 #t hf aug-cc-pvdz iop(5/13=1,5/36=2,99/5=2) pseudo=read geom=check gue
 ss=(read,tcheck) scf=(maxcycle=1)
 ----------------------------------------------------------------------
 -----
 title
 -----
 Structure from the checkpoint file:  "E2SN2_350_mol2.chk"
 Charge = -1 Multiplicity = 1

                         Standard orientation:
 ---------------------------------------------------------------------
 Center     Atomic      Atomic             Coordinates (Angstroms)
 Number     Number       Type             X           Y           Z
 ---------------------------------------------------------------------
      1          6           0       -0.490029    1.093031   -0.063417
      2          6           0       -0.756741   -0.127220    0.835665
      3          9           0       -1.729545    1.751349   -0.209547
      4          1           0       -1.507589    0.164049    1.577283
      5          6           0        0.453085    2.051561    0.634474
      6          1           0        1.460402    1.634789    0.664622
      7          1           0        0.113061    2.254425    1.652659
      8          1           0        0.465071    2.987795    0.069700
      9          6           0       -0.001869    0.725502   -1.447420
     10          1           0        0.932319    0.162599   -1.386446
     11          1           0       -0.758024    0.147985   -1.982608
     12          1           0        0.186045    1.645629   -2.006121
     13          7           0        0.414511   -0.631130    1.423636
     14          1           0        0.270285   -1.525013    1.870147
     15          1           0        1.229307   -0.684655    0.805313
     16          7           0       -1.543850   -1.161504   -0.006771
     17          8           0       -0.931589   -2.122475   -0.464621
     18          8           0       -2.744622   -0.943033   -0.169682
     19         17           0        3.250789   -0.466735   -0.234004
 ---------------------------------------------------------------------

 SCF Done:  E(RHF) =  -976.819603023     A.U. after    2 cycles

 The electronic state is 1-A.
 Alpha  occ. eigenvalues --  -99.61254 -29.13475 -20.98167 -20.97799 -15.86236
 Alpha  occ. eigenvalues --  -15.62180 -11.42073 -11.36872 -11.28837 -11.25228
 Alpha  occ. eigenvalues --  -10.17916  -9.37979  -9.37641  -9.37565  -1.86855
 Alpha  occ. eigenvalues --   -1.57178  -1.29771  -1.14758  -0.98566  -0.96944
 Alpha  occ. eigenvalues --   -0.91820  -0.81597  -0.71783  -0.64789  -0.59485
 Alpha  occ. eigenvalues --   -0.56759  -0.52022  -0.50906  -0.48705  -0.46843
 Alpha  occ. eigenvalues --   -0.44767  -0.43440  -0.40529  -0.38360  -0.36471
 Alpha  occ. eigenvalues --   -0.29376  -0.25396  -0.25058  -0.24965  -0.24018
 Alpha  occ. eigenvalues --   -0.22436  -0.20556  -0.19223  -0.13594  -0.12171
 Alpha virt. eigenvalues --    0.12791   0.13452   0.13679   0.14713   0.14927
 Alpha virt. eigenvalues --    0.16293   0.17420   0.18110   0.19862   0.21492
 Alpha virt. eigenvalues --    0.21721   0.23146   0.23664   0.24813   0.24970

 Mulliken charges:
               1
     1  C    3.717060
     2  C   -0.221083
     3  F   -0.232625
     4  H    1.836962
     5  C   -4.078602
     6  H    1.188593
     7  H    1.157783
     8  H    1.101536
     9  C   -4.651342
    10  H    1.131974
    11  H    1.141185
    12  H    1.099173
    13  N   -2.924049
    14  H    0.503349
    15  H    0.602398
    16  N    4.432707
    17  O   -2.849638
    18  O   -2.978285
    19  Cl  -0.977094
 Sum of Mulliken charges =  -1.00000

 Dipole moment (field-independent basis, Debye):
    X=            -10.9743    Y=              3.0863    Z=              1.2247  Tot=             11.4657

 Test job not archived.
 1\1\GINC-SE123\SP\RHF\Aug-CC-pVDZ\C4H9Cl1F1N2O2(1-)\OHZDE\09-Apr-2025\
 0\\#t hf aug-cc-pvdz iop(5/13=1,5/36=2,99/5=2) pseudo=read geom=check
 guess=(read,tcheck) scf=(maxcycle=1)\\title\\-1,1\C,0,-0.022974,-0.007
 697,-0.016125\C,0,-0.335169,-0.273985,-1.499406\F,0,1.382084,-0.057146
 ,0.104296\H,0,0.454134,0.196167,-2.09486\C,0,-0.461377,1.392935,0.3598
 13\H,0,-1.549742,1.449928,0.398644\H,0,-0.084775,2.121676,-0.361698\H,
 0,-0.051007,1.623879,1.346681\C,0,-0.59852,-1.05061,0.916571\H,0,-1.68
 5925,-1.091031,0.820635\H,0,-0.163566,-2.031255,0.714404\H,0,-0.353353

 Normal termination of Gaussian 16 at Wed Apr  9 02:56:33 2025.
