 Gaussian 16, Revision C.01,

 ----------------------------------------------------------------------
 #t hf aug-cc-pvdz symm=none int=(grid=ultrafine) guess=(read,tcheck) s
 table=(opt,rrhf)
 ----------------------------------------------------------------------
 -----
 title
 -----
 Symbolic Z-matrix:
 Charge = -1 Multiplicity = 1

 SCF Done:  E(RHF) =  -971.891901977     A.U. after   16 cycles
 Normal termination of Gaussian 16 at Wed Apr  9 02:47:53 2025.
 Gaussian 16:  ES64L-G16RevC.01  3-Jul-2019

 ----------------------------------------------------------------------
 #t hf aug-cc-pvdz iop(5/13=1,5/36=2,99/5=2) pseudo=read geom=check gue
 ss=(read,tcheck) scf=(maxcycle=1)
 ----------------------------------------------------------------------
 -----
 title
 -----
 Structure from the checkpoint file:  "E2SN2_256_mol1.chk"
 Charge = -1 Multiplicity = 1

                         Standard orientation:
 ---------------------------------------------------------------------
 Center     Atomic      Atomic             Coordinates (Angstroms)
 Number     Number       Type             X           Y           Z
 ---------------------------------------------------------------------
      1          6           0       -0.691754   -0.012782    0.483287
      2          1           0        0.030019   -1.022710   -1.272257
      3          9           0        0.790757    0.685184    1.633067
      4         17           0       -2.367046   -0.883356   -0.403782
      5          6           0        0.395217   -0.759089   -0.277334
      6          1           0       -0.930864   -0.373372    1.466440
      7          6           0       -0.979347    1.380536    0.244638
      8          7           0       -1.322345    2.490209    0.062702
      9          6           0        0.816705   -1.977148    0.509787
     10          1           0        1.228173   -1.625977    1.453576
     11          1           0       -0.064304   -2.599390    0.683123
     12          1           0        1.564497   -2.560584   -0.027593
     13          7           0        1.576945    0.124926   -0.585345
     14          8           0        2.700678   -0.267854   -0.292957
     15          8           0        1.332863    1.135027   -1.237090
 ---------------------------------------------------------------------

 SCF Done:  E(RHF) =  -974.324857632     A.U. after    2 cycles

 The electronic state is 1-A.
 Alpha  occ. eigenvalues --  -99.72344 -28.94349 -20.96064 -20.95706 -15.85861
 Alpha  occ. eigenvalues --  -15.62584 -11.44087 -11.37397 -11.31895 -11.27444
 Alpha  occ. eigenvalues --  -10.29388  -9.49436  -9.48924  -9.48795  -1.85777
 Alpha  occ. eigenvalues --   -1.55694  -1.23109  -1.13940  -1.09710  -0.94797
 Alpha  occ. eigenvalues --   -0.90469  -0.71766  -0.63812  -0.60343  -0.56623
 Alpha  occ. eigenvalues --   -0.49539  -0.47883  -0.47359  -0.43873  -0.42810
 Alpha  occ. eigenvalues --   -0.40036  -0.38735  -0.35519  -0.34706  -0.31324
 Alpha  occ. eigenvalues --   -0.30022  -0.28872  -0.21774  -0.18237  -0.17678
 Alpha  occ. eigenvalues --   -0.04389  -0.02335  -0.02176
 Alpha virt. eigenvalues --    0.12941   0.14470   0.15015   0.15997   0.16376
 Alpha virt. eigenvalues --    0.18973   0.20768   0.21876   0.22964   0.23541
 Alpha virt. eigenvalues --    0.24202   0.25118   0.25896   0.26122   0.26324

 Mulliken charges:
               1
     1  C   -0.689364
     2  H    1.981109
     3  F   -0.517498
     4  Cl  -0.468714
     5  C   -1.626680
     6  H    1.506027
     7  C    2.431870
     8  N   -2.830928
     9  C   -3.234808
    10  H    1.132881
    11  H    1.173289
    12  H    1.173823
    13  N    5.011340
    14  O   -2.888310
    15  O   -3.154036
 Sum of Mulliken charges =  -1.00000

 Dipole moment (field-independent basis, Debye):
    X=              5.6820    Y=             -2.2377    Z=              2.2580  Tot=              6.5108

 Test job not archived.
 1\1\GINC-SE165\SP\RHF\Aug-CC-pVDZ\C4H5Cl1F1N2O2(1-)\OHZDE\09-Apr-2025\
 0\\#t hf aug-cc-pvdz iop(5/13=1,5/36=2,99/5=2) pseudo=read geom=check
 guess=(read,tcheck) scf=(maxcycle=1)\\title\\-1,1\C,0,0.66698164,-0.02
 090724,-0.02138773\H,0,1.67066217,1.84986747,-0.36149709\F,0,-1.317074
 57,0.11870819,-0.24725668\Cl,0,2.65435147,-0.33054148,0.53167936\C,0,0
 .6727851,1.49976963,-0.08871299\H,0,0.2697483,-0.46554063,0.87208638\C
 ,0,0.60693326,-0.84309289,-1.20519606\N,0,0.63029245,-1.58240745,-2.11
 897496\C,0,0.21919166,2.0655135,1.23607565\H,0,-0.80129212,1.72637837,

 Normal termination of Gaussian 16 at Wed Apr  9 02:48:04 2025.
