 Gaussian 16, Revision C.01,

 ----------------------------------------------------------------------
 #t hf aug-cc-pvdz symm=none int=(grid=ultrafine) guess=(read,tcheck) s
 table=(opt,rrhf)
 ----------------------------------------------------------------------
 -----
 title
 -----
 Symbolic Z-matrix:
 Charge = -1 Multiplicity = 1

 SCF Done:  E(RHF) =  -1024.59185108     A.U. after   16 cycles
 Normal termination of Gaussian 16 at Wed Apr  9 02:43:29 2025.
 Gaussian 16:  ES64L-G16RevC.01  3-Jul-2019

 ----------------------------------------------------------------------
 #t hf aug-cc-pvdz iop(5/13=1,5/36=2,99/5=2) pseudo=read geom=check gue
 ss=(read,tcheck) scf=(maxcycle=1)
 ----------------------------------------------------------------------
 -----
 title
 -----
 Structure from the checkpoint file:  "E2SN2_215_mol2.chk"
 Charge = -1 Multiplicity = 1

                         Standard orientation:
 ---------------------------------------------------------------------
 Center     Atomic      Atomic             Coordinates (Angstroms)
 Number     Number       Type             X           Y           Z
 ---------------------------------------------------------------------
      1          6           0        0.438756   -0.308249    0.246102
      2          6           0       -0.729391    0.156709   -0.625787
      3         17           0        0.884286   -1.976652   -0.165800
      4          1           0       -0.451051    0.079514   -1.683965
      5          1           0        0.032594   -0.184294    1.298162
      6          7           0        1.641557    0.543123   -0.018399
      7          8           0        1.721210    1.130792   -1.098995
      8          8           0        2.486650    0.579539    0.871206
      9          6           0       -1.058804    1.560361   -0.351060
     10          7           0       -1.289068    2.711116   -0.325778
     11          6           0       -1.901069   -0.695595   -0.398927
     12          7           0       -2.831110   -1.411144   -0.424340
     13          9           0       -1.269320    0.316022    1.909375
 ---------------------------------------------------------------------

 SCF Done:  E(RHF) =  -1027.18992178     A.U. after    2 cycles

 The electronic state is 1-A.
 Alpha  occ. eigenvalues --  -99.80749 -28.92606 -21.00305 -21.00060 -15.89715
 Alpha  occ. eigenvalues --  -15.65325 -15.65108 -11.44549 -11.38788 -11.35014
 Alpha  occ. eigenvalues --  -11.32868 -10.38133  -9.58170  -9.57359  -9.57211
 Alpha  occ. eigenvalues --   -1.89411  -1.59368  -1.30497  -1.21264  -1.17180
 Alpha  occ. eigenvalues --   -1.09783  -0.99306  -0.76686  -0.68283  -0.66785
 Alpha  occ. eigenvalues --   -0.60682  -0.58043  -0.54410  -0.49717  -0.48320
 Alpha  occ. eigenvalues --   -0.43623  -0.42613  -0.41595  -0.39931  -0.34823
 Alpha  occ. eigenvalues --   -0.33893  -0.33672  -0.31267  -0.27095  -0.25353
 Alpha  occ. eigenvalues --   -0.21717  -0.21115  -0.02006  -0.01439   0.00239
 Alpha virt. eigenvalues --    0.13469   0.15219   0.18119   0.18805   0.19338
 Alpha virt. eigenvalues --    0.20086   0.22129   0.22795   0.23048   0.23855
 Alpha virt. eigenvalues --    0.24326   0.24722   0.25231   0.25815   0.25895

 Mulliken charges:
               1
     1  C   -0.796813
     2  C   -2.455998
     3  Cl  -0.018232
     4  H    1.652947
     5  H    1.250936
     6  N    4.414125
     7  O   -2.863174
     8  O   -2.887297
     9  C    3.706777
    10  N   -3.090117
    11  C    3.868855
    12  N   -3.211623
    13  F   -0.570384
 Sum of Mulliken charges =  -1.00000

 Dipole moment (field-independent basis, Debye):
    X=              3.6771    Y=             -0.6275    Z=             -1.6262  Tot=              4.0693

 Test job not archived.
 1\1\GINC-SE015\SP\RHF\Aug-CC-pVDZ\C4H2Cl1F1N3O2(1-)\OHZDE\09-Apr-2025\
 0\\#t hf aug-cc-pvdz iop(5/13=1,5/36=2,99/5=2) pseudo=read geom=check
 guess=(read,tcheck) scf=(maxcycle=1)\\title\\-1,1\C,0,-0.092816,0.1138
 34,0.042489\C,0,-0.365189,0.427947,-1.429954\Cl,0,1.609458,-0.336959,0
 .267827\H,0,0.297441,1.236811,-1.761367\H,0,-0.825965,-0.723971,0.2609
 78\N,0,-0.33589,1.333298,0.876366\O,0,-0.265229,2.439418,0.337021\O,0,
 -0.574392,1.13913,2.064777\C,0,-1.749438,0.877387,-1.619914\N,0,-2.774
 616,1.40095,-1.849671\C,0,-0.094238,-0.751852,-2.257829\N,0,0.254558,-

 Normal termination of Gaussian 16 at Wed Apr  9 02:43:36 2025.
