 Gaussian 16, Revision C.01,

 ----------------------------------------------------------------------
 #t hf aug-cc-pvdz symm=none int=(grid=ultrafine) guess=(read,tcheck) s
 table=(opt,rrhf)
 ----------------------------------------------------------------------
 -----
 title
 -----
 Symbolic Z-matrix:
 Charge = -1 Multiplicity = 1

 SCF Done:  E(RHF) =  -876.120142881     A.U. after   16 cycles
 Normal termination of Gaussian 16 at Wed Apr  9 02:47:06 2025.
 Gaussian 16:  ES64L-G16RevC.01  3-Jul-2019

 ----------------------------------------------------------------------
 #t hf aug-cc-pvdz iop(5/13=1,5/36=2,99/5=2) pseudo=read geom=check gue
 ss=(read,tcheck) scf=(maxcycle=1)
 ----------------------------------------------------------------------
 -----
 title
 -----
 Structure from the checkpoint file:  "E2SN2_261_mol1.chk"
 Charge = -1 Multiplicity = 1

                         Standard orientation:
 ---------------------------------------------------------------------
 Center     Atomic      Atomic             Coordinates (Angstroms)
 Number     Number       Type             X           Y           Z
 ---------------------------------------------------------------------
      1          6           0       -0.640999    0.144624   -0.367415
      2          1           0        0.132250    1.387771    1.125336
      3         17           0        0.250640   -1.844421   -0.848468
      4          9           0       -1.576961    1.776549   -0.270426
      5          6           0        0.545630    0.893473    0.236996
      6          1           0       -0.836586    0.227542   -1.418727
      7          6           0       -1.623135   -0.417603    0.522139
      8          7           0       -2.407060   -0.852020    1.282873
      9          7           0        1.005562    1.851597   -0.769452
     10          1           0        1.750548    2.412387   -0.370925
     11          1           0        0.188265    2.439774   -0.908408
     12          6           0        1.689580    0.096559    0.703501
     13          7           0        2.668758   -0.342945    1.180748
 ---------------------------------------------------------------------

 SCF Done:  E(RHF) =  -878.162648919     A.U. after    2 cycles

 The electronic state is 1-A.
 Alpha  occ. eigenvalues --  -99.68150 -28.99144 -15.64467 -15.64023 -15.63347
 Alpha  occ. eigenvalues --  -11.45983 -11.37991 -11.33060 -11.31830 -10.25175
 Alpha  occ. eigenvalues --   -9.45162  -9.44754  -9.44631  -1.30363  -1.18270
 Alpha  occ. eigenvalues --   -1.16171  -1.08195  -1.00645  -0.87329  -0.66463
 Alpha  occ. eigenvalues --   -0.63519  -0.54321  -0.50489  -0.49082  -0.46440
 Alpha  occ. eigenvalues --   -0.39905  -0.39086  -0.34969  -0.33779  -0.33205
 Alpha  occ. eigenvalues --   -0.30756  -0.30712  -0.29025  -0.28330  -0.27119
 Alpha  occ. eigenvalues --   -0.08717  -0.06383  -0.05674
 Alpha virt. eigenvalues --    0.13260   0.15039   0.15817   0.16505   0.19383
 Alpha virt. eigenvalues --    0.20005   0.21066   0.22692   0.23275   0.23695
 Alpha virt. eigenvalues --    0.24455   0.25523   0.25776   0.26479   0.26873

 Mulliken charges:
               1
     1  C   -1.326478
     2  H    1.714475
     3  Cl  -0.590415
     4  F   -0.264494
     5  C   -0.153465
     6  H    1.496732
     7  C    2.689842
     8  N   -2.862004
     9  N   -2.975152
    10  H    0.680418
    11  H    0.521649
    12  C    2.711890
    13  N   -2.642998
 Sum of Mulliken charges =  -1.00000

 Dipole moment (field-independent basis, Debye):
    X=             -0.8328    Y=              8.0159    Z=             -0.4435  Tot=              8.0712

 Test job not archived.
 1\1\GINC-SE335\SP\RHF\Aug-CC-pVDZ\C4H4Cl1F1N3(1-)\OHZDE\09-Apr-2025\0\
 \#t hf aug-cc-pvdz iop(5/13=1,5/36=2,99/5=2) pseudo=read geom=check gu
 ess=(read,tcheck) scf=(maxcycle=1)\\title\\-1,1\C,0,0.41768822,-0.0415
 9822,-0.03660018\H,0,1.52730622,1.62534324,-0.63800611\Cl,0,-1.6757984
 8,-0.3969202,-0.72492436\F,0,2.11341909,-0.00495651,0.78301323\C,0,0.5
 4787894,1.47511071,-0.16629072\H,0,0.10324523,-0.46581151,0.89697105\C
 ,0,0.98580961,-0.87001889,-1.06759749\N,0,1.47239393,-1.50979058,-1.92
 544361\N,0,0.49199387,2.02753621,1.1880279\H,0,0.64509692,3.02879437,1

 Normal termination of Gaussian 16 at Wed Apr  9 02:47:12 2025.
