 Gaussian 16, Revision C.01,

 ----------------------------------------------------------------------
 #t hf aug-cc-pvdz symm=none int=(grid=ultrafine) guess=(read,tcheck) s
 table=(opt,rrhf)
 ----------------------------------------------------------------------
 -----
 title
 -----
 Symbolic Z-matrix:
 Charge = -1 Multiplicity = 1

 SCF Done:  E(RHF) =  -472.181388806     A.U. after   16 cycles
 Normal termination of Gaussian 16 at Wed Apr  9 02:52:04 2025.
 Gaussian 16:  ES64L-G16RevC.01  3-Jul-2019

 ----------------------------------------------------------------------
 #t hf aug-cc-pvdz iop(5/13=1,5/36=2,99/5=2) pseudo=read geom=check gue
 ss=(read,tcheck) scf=(maxcycle=1)
 ----------------------------------------------------------------------
 -----
 title
 -----
 Structure from the checkpoint file:  "E2SN2_311_mol2.chk"
 Charge = -1 Multiplicity = 1

                         Standard orientation:
 ---------------------------------------------------------------------
 Center     Atomic      Atomic             Coordinates (Angstroms)
 Number     Number       Type             X           Y           Z
 ---------------------------------------------------------------------
      1          6           0       -0.662333   -0.040472   -0.430623
      2          6           0        0.584271    0.814177   -0.086090
      3          9           0       -0.313944   -0.814876   -1.575307
      4          1           0        0.639772    1.544755   -0.902699
      5          6           0       -0.893217   -1.049462    0.634456
      6          7           0       -1.115329   -1.803179    1.508650
      7          7           0       -1.757665    0.777654   -0.673925
      8          1           0       -1.641500    1.799008   -0.390242
      9          1           0       -2.640070    0.397479   -0.364989
     10          6           0        1.794240   -0.023216   -0.134348
     11          7           0        2.766107   -0.682103   -0.141893
     12          7           0        0.516422    1.551792    1.152265
     13          1           0        0.195667    0.948029    1.901738
     14          1           0       -0.176141    2.309259    0.993372
     15          1           0       -1.356740    3.220040    0.124531
 ---------------------------------------------------------------------

 SCF Done:  E(RHF) =  -474.246622987     A.U. after    2 cycles

 The electronic state is 1-A.
 Alpha  occ. eigenvalues --  -29.14865 -15.67653 -15.65380 -15.61374 -15.61214
 Alpha  occ. eigenvalues --  -11.46451 -11.38091 -11.34721 -11.31963  -1.35680
 Alpha  occ. eigenvalues --   -1.22604  -1.18823  -1.16568  -1.00996  -0.87633
 Alpha  occ. eigenvalues --   -0.69787  -0.65916  -0.59067  -0.55738  -0.49790
 Alpha  occ. eigenvalues --   -0.47791  -0.46263  -0.42231  -0.39442  -0.36106
 Alpha  occ. eigenvalues --   -0.35506  -0.32381  -0.31981  -0.29369  -0.27256
 Alpha  occ. eigenvalues --   -0.21722  -0.16157  -0.14355  -0.12779
 Alpha virt. eigenvalues --    0.14449   0.15473   0.16083   0.17889   0.18620
 Alpha virt. eigenvalues --    0.19148   0.19994   0.20548   0.20991   0.21715
 Alpha virt. eigenvalues --    0.23115   0.23411   0.24314   0.24684   0.25124

 Mulliken charges:
               1
     1  C    4.129690
     2  C   -0.596310
     3  F    0.114975
     4  H    1.836937
     5  C    1.220529
     6  N   -2.423256
     7  N   -3.661002
     8  H    0.626338
     9  H    0.559866
    10  C    2.202837
    11  N   -2.544742
    12  N   -2.710966
    13  H    0.560665
    14  H    0.658232
    15  H   -0.973792
 Sum of Mulliken charges =  -1.00000

 Dipole moment (field-independent basis, Debye):
    X=              1.3684    Y=             -7.6435    Z=             -2.9123  Tot=              8.2932

 Test job not archived.
 1\1\GINC-SE094\SP\RHF\Aug-CC-pVDZ\C4H6F1N4(1-)\OHZDE\09-Apr-2025\0\\#t
  hf aug-cc-pvdz iop(5/13=1,5/36=2,99/5=2) pseudo=read geom=check guess
 =(read,tcheck) scf=(maxcycle=1)\\title\\-1,1\C,0,0.027673,0.05833,0.02
 5698\C,0,-0.456454,0.452287,-1.393305\F,0,1.348235,-0.455026,-0.129086
 \H,0,-0.595882,-0.509112,-1.903153\C,0,0.20631,1.277313,0.855113\N,0,0
 .283705,2.235478,1.531551\N,0,-0.829146,-0.879763,0.586162\H,0,-1.7565
 28,-1.017756,0.07817\H,0,-0.954318,-0.788238,1.583442\C,0,0.602639,1.1
 96304,-2.094976\N,0,1.426081,1.814405,-2.65943\N,0,-1.711688,1.16149,-

 Normal termination of Gaussian 16 at Wed Apr  9 02:52:10 2025.
