 Gaussian 16, Revision C.01,

 ----------------------------------------------------------------------
 #t hf aug-cc-pvdz symm=none int=(grid=ultrafine) guess=(read,tcheck) s
 table=(opt,rrhf)
 ----------------------------------------------------------------------
 -----
 title
 -----
 Symbolic Z-matrix:
 Charge = -1 Multiplicity = 1

 SCF Done:  E(RHF) =  -364.421148677     A.U. after   17 cycles
 Normal termination of Gaussian 16 at Wed Apr  9 03:02:37 2025.
 Gaussian 16:  ES64L-G16RevC.01  3-Jul-2019

 ----------------------------------------------------------------------
 #t hf aug-cc-pvdz iop(5/13=1,5/36=2,99/5=2) pseudo=read geom=check gue
 ss=(read,tcheck) scf=(maxcycle=1)
 ----------------------------------------------------------------------
 -----
 title
 -----
 Structure from the checkpoint file:  "E2SN2_97_mol1.chk"
 Charge = -1 Multiplicity = 1

                         Standard orientation:
 ---------------------------------------------------------------------
 Center     Atomic      Atomic             Coordinates (Angstroms)
 Number     Number       Type             X           Y           Z
 ---------------------------------------------------------------------
      1          6           0       -0.727166   -0.512532   -0.367055
      2          6           0        0.356347    0.508748   -0.174427
      3          9           0       -0.812893   -1.399822    0.752155
      4          1           0       -0.269608    2.371188   -1.656569
      5          1           0        0.183894    1.340965   -1.114421
      6          1           0       -0.476809   -1.154897   -1.219060
      7          6           0       -2.091863    0.109255   -0.546316
      8          1           0       -2.035168    0.881283   -1.319230
      9          1           0       -2.830896   -0.652197   -0.809115
     10          1           0       -2.405286    0.587920    0.383407
     11          6           0        1.671320   -0.090373   -0.213305
     12          7           0        2.744604   -0.571524   -0.301993
     13          7           0        0.191866    1.414033    0.948456
     14          1           0       -0.280189    2.241118    0.573324
     15          1           0       -0.377017    0.994856    1.673638
 ---------------------------------------------------------------------

 SCF Done:  E(RHF) =  -366.063565565     A.U. after    2 cycles

 The electronic state is 1-A.
 Alpha  occ. eigenvalues --  -29.10935 -15.60097 -15.59172 -11.36005 -11.30557
 Alpha  occ. eigenvalues --  -11.27066 -11.24099  -1.25193  -1.12238  -1.07560
 Alpha  occ. eigenvalues --   -0.88039  -0.77737  -0.59888  -0.56641  -0.53030
 Alpha  occ. eigenvalues --   -0.45922  -0.43199  -0.41121  -0.39416  -0.38515
 Alpha  occ. eigenvalues --   -0.34754  -0.28261  -0.27488  -0.23529  -0.21780
 Alpha  occ. eigenvalues --   -0.13179  -0.11685  -0.08201
 Alpha virt. eigenvalues --    0.12965   0.14500   0.15030   0.16259   0.16883
 Alpha virt. eigenvalues --    0.17314   0.19193   0.20000   0.20858   0.23044
 Alpha virt. eigenvalues --    0.24460   0.24600   0.25383   0.26333   0.26904

 Mulliken charges:
               1
     1  C   -0.419550
     2  C   -1.052878
     3  F    0.026977
     4  H   -0.442901
     5  H    1.526965
     6  H    1.781632
     7  C   -4.106055
     8  H    1.268887
     9  H    1.039731
    10  H    1.298725
    11  C    1.919308
    12  N   -2.517095
    13  N   -2.432196
    14  H    0.529418
    15  H    0.579032
 Sum of Mulliken charges =  -1.00000

 Dipole moment (field-independent basis, Debye):
    X=             -4.0442    Y=             -6.9672    Z=              5.6542  Tot=              9.8421

 Test job not archived.
 1\1\GINC-SE036\SP\RHF\Aug-CC-pVDZ\C4H8F1N2(1-)\OHZDE\09-Apr-2025\0\\#t
  hf aug-cc-pvdz iop(5/13=1,5/36=2,99/5=2) pseudo=read geom=check guess
 =(read,tcheck) scf=(maxcycle=1)\\title\\-1,1\C,0,-0.14531334,0.1689947
 1,-0.46186315\C,0,-0.0093688,0.14956397,1.03321577\F,0,1.12736491,0.31
 272003,-1.09974712\H,0,-2.04086319,-0.98805895,1.83076924\H,0,-1.15452
 147,-0.19158549,1.45530121\H,0,-0.71580272,1.05414973,-0.76561676\C,0,
 -0.77622431,-1.08980647,-1.00823568\H,0,-1.69899306,-1.29602866,-0.458
 13713\H,0,-0.97455573,-0.98837903,-2.07847837\H,0,-0.10187415,-1.93555

 Normal termination of Gaussian 16 at Wed Apr  9 03:02:42 2025.
