 Gaussian 16, Revision C.01,

 ----------------------------------------------------------------------
 #t hf aug-cc-pvdz symm=none int=(grid=ultrafine) guess=(read,tcheck) s
 table=(opt,rrhf)
 ----------------------------------------------------------------------
 -----
 title
 -----
 Symbolic Z-matrix:
 Charge = -1 Multiplicity = 1

 SCF Done:  E(RHF) =  -1024.58133226     A.U. after   17 cycles
 Normal termination of Gaussian 16 at Wed Apr  9 02:42:13 2025.
 Gaussian 16:  ES64L-G16RevC.01  3-Jul-2019

 ----------------------------------------------------------------------
 #t hf aug-cc-pvdz iop(5/13=1,5/36=2,99/5=2) pseudo=read geom=check gue
 ss=(read,tcheck) scf=(maxcycle=1)
 ----------------------------------------------------------------------
 -----
 title
 -----
 Structure from the checkpoint file:  "E2SN2_215_mol1.chk"
 Charge = -1 Multiplicity = 1

                         Standard orientation:
 ---------------------------------------------------------------------
 Center     Atomic      Atomic             Coordinates (Angstroms)
 Number     Number       Type             X           Y           Z
 ---------------------------------------------------------------------
      1          6           0       -0.374310    0.417343   -0.380592
      2          1           0        0.681842    0.949370    1.345512
      3         17           0       -0.306780   -1.473066   -1.362338
      4          9           0       -0.520046    2.173970    0.245922
      5          6           0        0.885989    0.328363    0.471130
      6          1           0       -0.431076    0.918508   -1.325571
      7          7           0       -1.644930    0.182725    0.327450
      8          8           0       -1.564198   -0.223753    1.483805
      9          8           0       -2.676058    0.407516   -0.288595
     10          6           0        1.980683    0.964329   -0.265307
     11          7           0        2.876392    1.472991   -0.827692
     12          6           0        1.307016   -0.994418    0.952004
     13          7           0        1.735779   -1.963616    1.457587
 ---------------------------------------------------------------------

 SCF Done:  E(RHF) =  -1027.19687907     A.U. after    2 cycles

 The electronic state is 1-A.
 Alpha  occ. eigenvalues --  -99.72094 -28.99575 -20.98652 -20.98358 -15.89363
 Alpha  occ. eigenvalues --  -15.67641 -15.66735 -11.50138 -11.42542 -11.36650
 Alpha  occ. eigenvalues --  -11.34296 -10.29178  -9.49201  -9.48761  -9.48637
 Alpha  occ. eigenvalues --   -1.88550  -1.58520  -1.28059  -1.18804  -1.16958
 Alpha  occ. eigenvalues --   -1.08439  -1.01371  -0.77620  -0.68905  -0.66468
 Alpha  occ. eigenvalues --   -0.60559  -0.59105  -0.55678  -0.47937  -0.44665
 Alpha  occ. eigenvalues --   -0.43430  -0.40960  -0.38250  -0.36176  -0.35875
 Alpha  occ. eigenvalues --   -0.34005  -0.33365  -0.32638  -0.32140  -0.25338
 Alpha  occ. eigenvalues --   -0.20673  -0.20617  -0.09029  -0.06818  -0.06023
 Alpha virt. eigenvalues --    0.14691   0.16062   0.18404   0.19440   0.19764
 Alpha virt. eigenvalues --    0.21350   0.21729   0.22582   0.23170   0.24115
 Alpha virt. eigenvalues --    0.24648   0.25037   0.25445   0.26191   0.27099

 Mulliken charges:
               1
     1  C   -1.772016
     2  H    1.336499
     3  Cl  -0.517978
     4  F   -0.231706
     5  C    0.757931
     6  H    1.510761
     7  N    5.747368
     8  O   -3.134708
     9  O   -3.298984
    10  C    2.282625
    11  N   -2.745678
    12  C    1.710434
    13  N   -2.644548
 Sum of Mulliken charges =  -1.00000

 Dipole moment (field-independent basis, Debye):
    X=             -1.5025    Y=              5.0562    Z=              2.5046  Tot=              5.8392

 Test job not archived.
 1\1\GINC-SE459\SP\RHF\Aug-CC-pVDZ\C4H2Cl1F1N3O2(1-)\OHZDE\09-Apr-2025\
 0\\#t hf aug-cc-pvdz iop(5/13=1,5/36=2,99/5=2) pseudo=read geom=check
 guess=(read,tcheck) scf=(maxcycle=1)\\title\\-1,1\C,0,0.37109203,-0.06
 573999,-0.0592529\H,0,1.66226434,1.53862332,-0.42916717\Cl,0,-1.694050
 93,-0.16176952,-0.57693596\F,0,2.12734183,-0.17199903,0.57619403\C,0,0
 .60899915,1.43584537,-0.16095507\H,0,0.17710784,-0.58632574,0.85657219
 \N,0,0.85636405,-0.87041914,-1.19408577\O,0,1.24966098,-0.25174014,-2.
 17970894\O,0,0.82795629,-2.08558606,-1.0682639\C,0,0.44371467,2.015818

 Normal termination of Gaussian 16 at Wed Apr  9 02:42:20 2025.
