 Gaussian 16, Revision C.01,

 ----------------------------------------------------------------------
 #t hf aug-cc-pvdz symm=none int=(grid=ultrafine) guess=(read,tcheck) s
 table=(opt,rrhf)
 ----------------------------------------------------------------------
 -----
 title
 -----
 Symbolic Z-matrix:
 Charge = -1 Multiplicity = 1

 SCF Done:  E(RHF) =  -1384.65844404     A.U. after   17 cycles
 Normal termination of Gaussian 16 at Wed Apr  9 02:43:43 2025.
 Gaussian 16:  ES64L-G16RevC.01  3-Jul-2019

 ----------------------------------------------------------------------
 #t hf aug-cc-pvdz iop(5/13=1,5/36=2,99/5=2) pseudo=read geom=check gue
 ss=(read,tcheck) scf=(maxcycle=1)
 ----------------------------------------------------------------------
 -----
 title
 -----
 Structure from the checkpoint file:  "E2SN2_216_mol1.chk"
 Charge = -1 Multiplicity = 1

                         Standard orientation:
 ---------------------------------------------------------------------
 Center     Atomic      Atomic             Coordinates (Angstroms)
 Number     Number       Type             X           Y           Z
 ---------------------------------------------------------------------
      1          6           0       -0.429478    0.069971   -0.374579
      2          1           0        0.144145    1.203225    1.334069
      3         17           0        1.027163   -1.445757   -1.352659
      4         17           0       -1.941745    1.636602    0.101296
      5          6           0        0.646050    0.675484    0.518254
      6          1           0       -0.590893    0.311515   -1.405149
      7          7           0       -1.239523   -1.012356    0.205311
      8          8           0       -1.021149   -1.283016    1.384437
      9          8           0       -2.076316   -1.531550   -0.518496
     10          6           0        1.376955    1.677502   -0.262417
     11          7           0        1.956176    2.508811   -0.854839
     12          6           0        1.593603   -0.248284    1.158055
     13          7           0        2.376431   -0.823684    1.818221
 ---------------------------------------------------------------------

 SCF Done:  E(RHF) =  -1387.19621701     A.U. after    2 cycles

 The electronic state is 1-A.
 Alpha  occ. eigenvalues --  -99.72337 -99.69504 -21.00051 -20.99798 -15.91014
 Alpha  occ. eigenvalues --  -15.68613 -15.66815 -11.49686 -11.44405 -11.37260
 Alpha  occ. eigenvalues --  -11.35161 -10.29340 -10.26523  -9.49426  -9.48900
 Alpha  occ. eigenvalues --   -9.48804  -9.46557  -9.46150  -9.46037  -1.89883
 Alpha  occ. eigenvalues --   -1.59796  -1.28667  -1.19390  -1.17129  -1.08884
 Alpha  occ. eigenvalues --   -1.06138  -1.01806  -0.77873  -0.69522  -0.65637
 Alpha  occ. eigenvalues --   -0.60940  -0.59147  -0.57471  -0.49134  -0.44844
 Alpha  occ. eigenvalues --   -0.43103  -0.40533  -0.38086  -0.37654  -0.36157
 Alpha  occ. eigenvalues --   -0.35431  -0.34134  -0.33238  -0.32888  -0.31204
 Alpha  occ. eigenvalues --   -0.30879  -0.26166  -0.21894  -0.21197
 Alpha virt. eigenvalues --    0.13833   0.14602   0.15755   0.18451   0.19243
 Alpha virt. eigenvalues --    0.19614   0.20578   0.21267   0.22160   0.22601
 Alpha virt. eigenvalues --    0.23752   0.24249   0.24743   0.25451   0.25806

 Mulliken charges:
               1
     1  C   -1.945948
     2  H    1.509326
     3  Cl  -0.538798
     4  Cl  -0.459423
     5  C    0.694417
     6  H    1.825901
     7  N    5.235188
     8  O   -2.996262
     9  O   -3.187444
    10  C    2.356597
    11  N   -2.761882
    12  C    2.009298
    13  N   -2.740968
 Sum of Mulliken charges =  -1.00000

 Dipole moment (field-independent basis, Debye):
    X=             -1.6757    Y=              0.0396    Z=              1.7038  Tot=              2.3901

 Test job not archived.
 1\1\GINC-SE029\SP\RHF\Aug-CC-pVDZ\C4H2Cl2N3O2(1-)\OHZDE\09-Apr-2025\0\
 \#t hf aug-cc-pvdz iop(5/13=1,5/36=2,99/5=2) pseudo=read geom=check gu
 ess=(read,tcheck) scf=(maxcycle=1)\\title\\-1,1\C,0,0.53243973,-0.0680
 2024,-0.03372381\H,0,1.6926448,1.68944005,-0.34684276\Cl,0,-1.76294592
 ,-0.06385182,-0.36093143\Cl,0,2.62839637,-0.34681967,0.67124327\C,0,0.
 64737958,1.44759952,-0.13493163\H,0,0.23005517,-0.61204989,0.83752202\
 N,0,0.75379993,-0.83302742,-1.27050952\O,0,1.08129358,-0.18255989,-2.2
 6092399\O,0,0.6222449,-2.04640582,-1.20657526\C,0,0.32671579,2.0185747

 Normal termination of Gaussian 16 at Wed Apr  9 02:43:50 2025.
