 Gaussian 16, Revision C.01,

 ----------------------------------------------------------------------
 #t hf aug-cc-pvdz symm=none int=(grid=ultrafine) guess=(read,tcheck) s
 table=(opt,rrhf)
 ----------------------------------------------------------------------
 -----
 title
 -----
 Symbolic Z-matrix:
 Charge = -1 Multiplicity = 1

 SCF Done:  E(RHF) =  -860.171492839     A.U. after   15 cycles
 Normal termination of Gaussian 16 at Wed Apr  9 02:48:26 2025.
 Gaussian 16:  ES64L-G16RevC.01  3-Jul-2019

 ----------------------------------------------------------------------
 #t hf aug-cc-pvdz iop(5/13=1,5/36=2,99/5=2) pseudo=read geom=check gue
 ss=(read,tcheck) scf=(maxcycle=1)
 ----------------------------------------------------------------------
 -----
 title
 -----
 Structure from the checkpoint file:  "E2SN2_270_mol2.chk"
 Charge = -1 Multiplicity = 1

                         Standard orientation:
 ---------------------------------------------------------------------
 Center     Atomic      Atomic             Coordinates (Angstroms)
 Number     Number       Type             X           Y           Z
 ---------------------------------------------------------------------
      1          6           0        0.646736    0.418437    0.039036
      2          6           0        0.759377   -0.420336   -1.227787
      3          9           0        1.937165    0.928954    0.315554
      4          1           0        1.241849    0.230265   -1.965505
      5          1           0       -0.255506   -0.648711   -1.549690
      6          6           0       -0.206010    1.604087   -0.150198
      7          7           0       -0.672500    2.667543   -0.327879
      8          6           0        0.281746   -0.350871    1.241117
      9          7           0        0.290510   -0.921320    2.269066
     10          6           0        1.564088   -1.692526   -0.999600
     11          1           0        1.741626   -2.196643   -1.952878
     12          1           0        1.011662   -2.377918   -0.354092
     13          1           0        2.531789   -1.478788   -0.539631
     14         17           0       -2.312211   -0.674418   -0.204818
 ---------------------------------------------------------------------

 SCF Done:  E(RHF) =  -862.153555202     A.U. after    2 cycles

 The electronic state is 1-A.
 Alpha  occ. eigenvalues --  -99.61006 -29.17477 -15.65970 -15.65431 -11.48096
 Alpha  occ. eigenvalues --  -11.34763 -11.34027 -11.31847 -11.27014 -10.17735
 Alpha  occ. eigenvalues --   -9.37735  -9.37425  -9.37369  -1.28425  -1.17533
 Alpha  occ. eigenvalues --   -1.13416  -1.00163  -0.97070  -0.80908  -0.70272
 Alpha  occ. eigenvalues --   -0.69007  -0.54898  -0.50979  -0.44742  -0.42865
 Alpha  occ. eigenvalues --   -0.41699  -0.40356  -0.38859  -0.35598  -0.34316
 Alpha  occ. eigenvalues --   -0.31961  -0.31776  -0.26794  -0.24907  -0.24472
 Alpha  occ. eigenvalues --   -0.24051  -0.17356  -0.16759
 Alpha virt. eigenvalues --    0.12082   0.13701   0.14034   0.15986   0.17532
 Alpha virt. eigenvalues --    0.19247   0.20001   0.21175   0.22007   0.22880
 Alpha virt. eigenvalues --    0.23546   0.24331   0.24570   0.25394   0.25883

 Mulliken charges:
               1
     1  C    2.976134
     2  C   -3.744260
     3  F   -0.056493
     4  H    1.317562
     5  H    1.342488
     6  C    1.388392
     7  N   -2.677944
     8  C    2.014019
     9  N   -2.784941
    10  C   -3.542754
    11  H    1.053703
    12  H    1.384461
    13  H    1.264452
    14  Cl  -0.934819
 Sum of Mulliken charges =  -1.00000

 Dipole moment (field-independent basis, Debye):
    X=             10.9580    Y=              1.0707    Z=             -1.6101  Tot=             11.1272

 Test job not archived.
 1\1\GINC-SE322\SP\RHF\Aug-CC-pVDZ\C5H5Cl1F1N2(1-)\OHZDE\09-Apr-2025\0\
 \#t hf aug-cc-pvdz iop(5/13=1,5/36=2,99/5=2) pseudo=read geom=check gu
 ess=(read,tcheck) scf=(maxcycle=1)\\title\\-1,1\C,0,-0.072587,0.008731
 ,-0.005938\C,0,-0.459093,0.160734,-1.471741\F,0,1.340979,-0.022863,0.0
 50003\H,0,0.105677,1.027158,-1.833171\H,0,-1.525011,0.38177,-1.498654\
 C,0,-0.46561,1.177416,0.799333\N,0,-0.544184,2.175263,1.414353\C,0,-0.
 500951,-1.262929,0.601874\N,0,-0.540243,-2.344345,1.061399\C,0,-0.1352
 69,-1.088698,-2.279302\H,0,-0.295336,-0.896142,-3.343113\H,0,-0.790895

 Normal termination of Gaussian 16 at Wed Apr  9 02:48:33 2025.
