 Gaussian 16, Revision C.01,

 ----------------------------------------------------------------------
 #t hf aug-cc-pvdz symm=none int=(grid=ultrafine) guess=(read,tcheck) s
 table=(opt,rrhf)
 ----------------------------------------------------------------------
 -----
 title
 -----
 Symbolic Z-matrix:
 Charge = -1 Multiplicity = 1

 SCF Done:  E(RHF) =  -888.906886512     A.U. after   17 cycles
 Normal termination of Gaussian 16 at Wed Apr  9 02:54:46 2025.
 Gaussian 16:  ES64L-G16RevC.01  3-Jul-2019

 ----------------------------------------------------------------------
 #t hf aug-cc-pvdz iop(5/13=1,5/36=2,99/5=2) pseudo=read geom=check gue
 ss=(read,tcheck) scf=(maxcycle=1)
 ----------------------------------------------------------------------
 -----
 title
 -----
 Structure from the checkpoint file:  "E2SN2_34_mol1.chk"
 Charge = -1 Multiplicity = 1

                         Standard orientation:
 ---------------------------------------------------------------------
 Center     Atomic      Atomic             Coordinates (Angstroms)
 Number     Number       Type             X           Y           Z
 ---------------------------------------------------------------------
      1          6           0        0.229682   -0.158754    0.179522
      2          6           0       -0.619344   -0.236504    1.415359
      3         17           0        0.069915   -1.593219   -0.949930
      4          1           0       -1.573490    2.084984    1.937164
      5          1           0       -0.669658    0.858503    1.834859
      6          1           0       -0.122882   -0.907382    2.124624
      7          7           0       -0.184262    1.071766   -0.626756
      8          8           0        0.519390    2.065924   -0.487469
      9          8           0       -1.235897    0.999139   -1.244763
     10          7           0       -2.016855   -0.520154    1.228102
     11          1           0       -2.206708   -0.956655    0.335972
     12          1           0       -2.469369    0.402298    1.266622
     13          6           0        1.644516   -0.047799    0.509739
     14          7           0        2.780616   -0.017210    0.810039
 ---------------------------------------------------------------------

 SCF Done:  E(RHF) =  -891.071537043     A.U. after    2 cycles

 The electronic state is 1-A.
 Alpha  occ. eigenvalues --  -99.81169 -20.99525 -20.99281 -15.89196 -15.68646
 Alpha  occ. eigenvalues --  -15.59496 -11.47155 -11.36645 -11.28972 -10.38466
 Alpha  occ. eigenvalues --   -9.58505  -9.57716  -9.57610  -1.88858  -1.59044
 Alpha  occ. eigenvalues --   -1.31666  -1.19923  -1.19404  -1.07173  -0.86815
 Alpha  occ. eigenvalues --   -0.78290  -0.64820  -0.62145  -0.59148  -0.53989
 Alpha  occ. eigenvalues --   -0.49407  -0.47979  -0.45541  -0.43620  -0.42867
 Alpha  occ. eigenvalues --   -0.40314  -0.38039  -0.35600  -0.34202  -0.27064
 Alpha  occ. eigenvalues --   -0.23119  -0.20558  -0.19094  -0.11002
 Alpha virt. eigenvalues --    0.13643   0.14555   0.15790   0.17088   0.18763
 Alpha virt. eigenvalues --    0.19888   0.20260   0.21350   0.21970   0.22151
 Alpha virt. eigenvalues --    0.23201   0.23840   0.24449   0.25379   0.26099

 Mulliken charges:
               1
     1  C   -0.378922
     2  C   -0.728400
     3  Cl  -0.052059
     4  H   -0.923068
     5  H    1.411030
     6  H    1.201629
     7  N    5.003460
     8  O   -2.880132
     9  O   -3.121912
    10  N   -2.571372
    11  H    0.677881
    12  H    0.549516
    13  C    3.653807
    14  N   -2.841459
 Sum of Mulliken charges =  -1.00000

 Dipole moment (field-independent basis, Debye):
    X=              2.9644    Y=             -5.6388    Z=             -6.2533  Tot=              8.9268

 Test job not archived.
 1\1\GINC-SE051\SP\RHF\Aug-CC-pVDZ\C3H5Cl1N3O2(1-)\OHZDE\09-Apr-2025\0\
 \#t hf aug-cc-pvdz iop(5/13=1,5/36=2,99/5=2) pseudo=read geom=check gu
 ess=(read,tcheck) scf=(maxcycle=1)\\title\\-1,1\C,0,-0.16262836,0.0885
 4143,-0.2974102\C,0,-0.24781077,0.17732749,1.19893325\Cl,0,1.51473442,
 -0.25910429,-0.9489281\H,0,-2.41587972,-0.93641042,1.99331489\H,0,-1.3
 8581332,0.05635391,1.45944669\H,0,0.12246296,1.16301429,1.50047672\N,0
 ,-1.05546641,-1.05604542,-0.77529635\O,0,-2.16216233,-0.73446197,-1.19
 325039\O,0,-0.64211989,-2.19162339,-0.59432889\N,0,0.31971017,-0.91084

 Normal termination of Gaussian 16 at Wed Apr  9 02:54:53 2025.
