 Gaussian 16, Revision C.01,

 ----------------------------------------------------------------------
 #t hf aug-cc-pvdz symm=none int=(grid=ultrafine) guess=(read,tcheck) s
 table=(opt,rrhf)
 ----------------------------------------------------------------------
 -----
 title
 -----
 Symbolic Z-matrix:
 Charge = -1 Multiplicity = 1

 SCF Done:  E(RHF) =  -611.845220109     A.U. after   16 cycles
 Normal termination of Gaussian 16 at Wed Apr  9 02:40:27 2025.
 Gaussian 16:  ES64L-G16RevC.01  3-Jul-2019

 ----------------------------------------------------------------------
 #t hf aug-cc-pvdz iop(5/13=1,5/36=2,99/5=2) pseudo=read geom=check gue
 ss=(read,tcheck) scf=(maxcycle=1)
 ----------------------------------------------------------------------
 -----
 title
 -----
 Structure from the checkpoint file:  "E2SN2_186_mol2.chk"
 Charge = -1 Multiplicity = 1

                         Standard orientation:
 ---------------------------------------------------------------------
 Center     Atomic      Atomic             Coordinates (Angstroms)
 Number     Number       Type             X           Y           Z
 ---------------------------------------------------------------------
      1          6           0       -1.184141   -0.543803    0.114043
      2          6           0        0.062549    0.005754   -0.573687
      3          9           0       -1.745267   -1.503831   -0.770236
      4          1           0        0.004279   -0.283926   -1.634898
      5          1           0       -0.868607   -1.059935    1.010424
      6          6           0       -2.225501    0.498881    0.425598
      7          1           0       -3.110484    0.008864    0.839950
      8          1           0       -1.767493    1.154174    1.164381
      9          1           0       -2.518782    1.059298   -0.466280
     10          7           0        1.320752   -0.676985   -0.101174
     11          8           0        1.214081   -1.829076    0.300758
     12          8           0        2.377486   -0.092027   -0.299037
     13          6           0        0.228075    1.453539   -0.505880
     14          7           0        0.267201    2.603004   -0.750658
     15          9           0        0.314932    0.672942    1.689683
 ---------------------------------------------------------------------

 SCF Done:  E(RHF) =  -614.358605880     A.U. after    2 cycles

 The electronic state is 1-A.
 Alpha  occ. eigenvalues --  -29.12431 -28.89808 -20.96068 -20.95865 -15.86315
 Alpha  occ. eigenvalues --  -15.62199 -11.42822 -11.35056 -11.31665 -11.25735
 Alpha  occ. eigenvalues --   -1.85948  -1.55771  -1.22210  -1.13104  -1.02261
 Alpha  occ. eigenvalues --   -0.83384  -0.77324  -0.65492  -0.59631  -0.57285
 Alpha  occ. eigenvalues --   -0.53008  -0.47506  -0.46428  -0.43415  -0.40867
 Alpha  occ. eigenvalues --   -0.39545  -0.37883  -0.33260  -0.31052  -0.27310
 Alpha  occ. eigenvalues --   -0.23813  -0.22657  -0.18753  -0.17337  -0.12837
 Alpha  occ. eigenvalues --   -0.12308   0.00781   0.01481   0.02409
 Alpha virt. eigenvalues --    0.13352   0.14289   0.15109   0.16809   0.18400
 Alpha virt. eigenvalues --    0.20172   0.21451   0.22453   0.24153   0.24613
 Alpha virt. eigenvalues --    0.24736   0.25654   0.25993   0.26123   0.27124

 Mulliken charges:
               1
     1  C    0.880684
     2  C   -5.904560
     3  F   -0.053512
     4  H    1.717107
     5  H    1.694820
     6  C   -4.071995
     7  H    1.012633
     8  H    1.094386
     9  H    1.205636
    10  N    6.187996
    11  O   -3.181111
    12  O   -3.232682
    13  C    6.122616
    14  N   -3.439068
    15  F   -1.032952
 Sum of Mulliken charges =  -1.00000

 Dipole moment (field-independent basis, Debye):
    X=             -2.5113    Y=             -4.8580    Z=             -1.6758  Tot=              5.7197

 Test job not archived.
 1\1\GINC-SE080\SP\RHF\Aug-CC-pVDZ\C4H5F2N2O2(1-)\OHZDE\09-Apr-2025\0\\
 #t hf aug-cc-pvdz iop(5/13=1,5/36=2,99/5=2) pseudo=read geom=check gue
 ss=(read,tcheck) scf=(maxcycle=1)\\title\\-1,1\C,0,-0.099768,0.017085,
 0.055789\C,0,-0.589165,-0.094355,-1.385492\F,0,1.283433,0.334931,-0.00
 8987\H,0,0.302362,-0.174724,-2.027519\H,0,-0.612413,0.850087,0.517043\
 C,0,-0.272973,-1.242188,0.863823\H,0,0.174573,-1.099025,1.850842\H,0,-
 1.348587,-1.387623,0.94679\H,0,0.202234,-2.101753,0.38335\N,0,-1.24237
 3,1.176991,-1.864527\O,0,-0.872846,2.22413,-1.347621\O,0,-1.976358,1.0

 Normal termination of Gaussian 16 at Wed Apr  9 02:40:34 2025.
