 Gaussian 16, Revision C.01,

 ----------------------------------------------------------------------
 #t hf aug-cc-pvdz symm=none int=(grid=ultrafine) guess=(read,tcheck) s
 table=(opt,rrhf)
 ----------------------------------------------------------------------
 -----
 title
 -----
 Symbolic Z-matrix:
 Charge = -1 Multiplicity = 1

 SCF Done:  E(RHF) =  -1347.96638009     A.U. after   16 cycles
 Normal termination of Gaussian 16 at Wed Apr  9 02:50:42 2025.
 Gaussian 16:  ES64L-G16RevC.01  3-Jul-2019

 ----------------------------------------------------------------------
 #t hf aug-cc-pvdz iop(5/13=1,5/36=2,99/5=2) pseudo=read geom=check gue
 ss=(read,tcheck) scf=(maxcycle=1)
 ----------------------------------------------------------------------
 -----
 title
 -----
 Structure from the checkpoint file:  "E2SN2_294_mol1.chk"
 Charge = -1 Multiplicity = 1

                         Standard orientation:
 ---------------------------------------------------------------------
 Center     Atomic      Atomic             Coordinates (Angstroms)
 Number     Number       Type             X           Y           Z
 ---------------------------------------------------------------------
      1          6           0       -0.468499    0.424748   -0.318534
      2          1           0        0.966648   -0.289531   -1.717660
      3         17           0       -2.435486   -0.921105   -0.252964
      4         17           0        1.470589    1.775266   -0.131632
      5          6           0        0.387071   -0.687979   -0.892655
      6          1           0       -0.241792   -1.511245   -1.225791
      7          6           0       -0.703510    0.655592    1.087046
      8          7           0       -0.952516    0.964759    2.196830
      9          7           0       -1.058106    1.266438   -1.316025
     10          1           0       -0.579748    2.157192   -1.313997
     11          1           0       -2.039639    1.383357   -1.106704
     12          7           0        1.363022   -1.298344    0.046976
     13          8           0        2.410830   -1.706687   -0.450266
     14          8           0        1.031746   -1.436395    1.219350
 ---------------------------------------------------------------------

 SCF Done:  E(RHF) =  -1350.37201068     A.U. after    2 cycles

 The electronic state is 1-A.
 Alpha  occ. eigenvalues --  -99.68817 -99.68405 -20.98619 -20.98298 -15.88419
 Alpha  occ. eigenvalues --  -15.65869 -15.64327 -11.50639 -11.36147 -11.33799
 Alpha  occ. eigenvalues --  -10.25848 -10.25407  -9.45911  -9.45486  -9.45482
 Alpha  occ. eigenvalues --   -9.45395  -9.44993  -9.44924  -1.88047  -1.57865
 Alpha  occ. eigenvalues --   -1.31716  -1.16453  -1.11415  -1.05978  -1.05591
 Alpha  occ. eigenvalues --   -0.90431  -0.77404  -0.63831  -0.62097  -0.58214
 Alpha  occ. eigenvalues --   -0.56485  -0.53135  -0.46900  -0.46539  -0.42572
 Alpha  occ. eigenvalues --   -0.41091  -0.34477  -0.33691  -0.33223  -0.32183
 Alpha  occ. eigenvalues --   -0.31835  -0.31519  -0.28319  -0.26752  -0.23731
 Alpha  occ. eigenvalues --   -0.20400  -0.19881
 Alpha virt. eigenvalues --    0.13670   0.14800   0.15506   0.15614   0.16467
 Alpha virt. eigenvalues --    0.19592   0.20518   0.22314   0.22432   0.22491
 Alpha virt. eigenvalues --    0.24100   0.24780   0.25056   0.25772   0.26533

 Mulliken charges:
               1
     1  C    3.564625
     2  H    1.632859
     3  Cl  -0.625644
     4  Cl  -0.625535
     5  C   -2.367604
     6  H    1.371971
     7  C    2.646743
     8  N   -2.974509
     9  N   -3.701373
    10  H    0.634157
    11  H    0.652474
    12  N    4.471430
    13  O   -2.812685
    14  O   -2.866909
 Sum of Mulliken charges =  -1.00000

 Dipole moment (field-independent basis, Debye):
    X=              0.9094    Y=             -0.4729    Z=             -2.4738  Tot=              2.6778

 Test job not archived.
 1\1\GINC-SE127\SP\RHF\Aug-CC-pVDZ\C3H4Cl2N3O2(1-)\OHZDE\09-Apr-2025\0\
 \#t hf aug-cc-pvdz iop(5/13=1,5/36=2,99/5=2) pseudo=read geom=check gu
 ess=(read,tcheck) scf=(maxcycle=1)\\title\\-1,1\C,0,0.54562046,-0.0862
 3326,-0.01331832\H,0,1.17912517,1.83040309,0.65941342\Cl,0,-1.77056057
 ,-0.48175544,0.39106385\Cl,0,2.81415114,0.19618122,-0.64013935\C,0,0.3
 9279297,1.42177694,0.0349063\H,0,-0.5872424,1.68745469,0.42626349\C,0,
 0.37468014,-0.90471472,-1.19019747\N,0,0.28860196,-1.67700957,-2.07640
 185\N,0,0.88238318,-0.66835941,1.25111257\H,0,1.85139837,-0.95608657,1

 Normal termination of Gaussian 16 at Wed Apr  9 02:50:49 2025.
