 Gaussian 16, Revision C.01,

 ----------------------------------------------------------------------
 #t hf aug-cc-pvdz symm=none int=(grid=ultrafine) guess=(read,tcheck) s
 table=(opt,rrhf)
 ----------------------------------------------------------------------
 -----
 title
 -----
 Symbolic Z-matrix:
 Charge = -1 Multiplicity = 1

 SCF Done:  E(RHF) =  -630.224270949     A.U. after   16 cycles
 Normal termination of Gaussian 16 at Wed Apr  9 02:56:04 2025.
 Gaussian 16:  ES64L-G16RevC.01  3-Jul-2019

 ----------------------------------------------------------------------
 #t hf aug-cc-pvdz iop(5/13=1,5/36=2,99/5=2) pseudo=read geom=check gue
 ss=(read,tcheck) scf=(maxcycle=1)
 ----------------------------------------------------------------------
 -----
 title
 -----
 Structure from the checkpoint file:  "E2SN2_361_mol2.chk"
 Charge = -1 Multiplicity = 1

                         Standard orientation:
 ---------------------------------------------------------------------
 Center     Atomic      Atomic             Coordinates (Angstroms)
 Number     Number       Type             X           Y           Z
 ---------------------------------------------------------------------
      1          6           0        0.439482    0.798307   -0.027124
      2          6           0       -0.326844   -0.401689   -0.599884
      3          9           0       -0.431513    1.901233   -0.149266
      4          1           0       -0.552898   -0.148871   -1.639529
      5          6           0        0.823273    0.675009    1.434395
      6          1           0       -0.026111    0.418287    2.066041
      7          1           0        1.232141    1.641300    1.747938
      8          1           0        1.608497   -0.080051    1.492745
      9          7           0        1.555819    1.025629   -0.908411
     10          1           0        1.991968    1.889045   -0.595029
     11          1           0        2.227828    0.260215   -0.679821
     12          7           0       -1.742736   -0.410176    0.013880
     13          8           0       -1.889660   -0.775099    1.176204
     14          8           0       -2.665516   -0.065033   -0.728914
     15          7           0        0.318069   -1.637608   -0.373580
     16          1           0        1.338381   -1.529826   -0.156103
     17          1           0        0.210952   -2.240776   -1.176406
     18          9           0        2.862304   -1.097116    0.081966
 ---------------------------------------------------------------------

 SCF Done:  E(RHF) =  -632.859230222     A.U. after    2 cycles

 The electronic state is 1-A.
 Alpha  occ. eigenvalues --  -29.11817 -28.92636 -20.96054 -20.95888 -15.84275
 Alpha  occ. eigenvalues --  -15.58690 -15.57823 -11.40591 -11.34314 -11.23771
 Alpha  occ. eigenvalues --   -1.84865  -1.55066  -1.30508  -1.18996  -1.01308
 Alpha  occ. eigenvalues --   -0.94660  -0.81581  -0.70745  -0.63303  -0.57350
 Alpha  occ. eigenvalues --   -0.56365  -0.50760  -0.49397  -0.47250  -0.46058
 Alpha  occ. eigenvalues --   -0.44900  -0.42023  -0.40516  -0.36348  -0.29700
 Alpha  occ. eigenvalues --   -0.25529  -0.23661  -0.21588  -0.20557  -0.18161
 Alpha  occ. eigenvalues --   -0.17354  -0.12944  -0.11655  -0.01042  -0.00666
 Alpha  occ. eigenvalues --    0.00593
 Alpha virt. eigenvalues --    0.13864   0.14428   0.15084   0.15542   0.16717
 Alpha virt. eigenvalues --    0.18218   0.18965   0.20459   0.21531   0.23384
 Alpha virt. eigenvalues --    0.24070   0.24748   0.25347   0.26105   0.26946

 Mulliken charges:
               1
     1  C    4.999174
     2  C   -0.714790
     3  F    0.079275
     4  H    1.928603
     5  C   -4.022484
     6  H    1.300659
     7  H    1.139211
     8  H    1.076810
     9  N   -3.616329
    10  H    0.405946
    11  H    0.328062
    12  N    4.564503
    13  O   -2.890917
    14  O   -2.829664
    15  N   -3.034005
    16  H    0.418235
    17  H    0.378585
    18  F   -0.510873
 Sum of Mulliken charges =  -1.00000

 Dipole moment (field-independent basis, Debye):
    X=             -4.2280    Y=              3.4638    Z=             -0.1959  Tot=              5.4692

 Test job not archived.
 1\1\GINC-SE080\SP\RHF\Aug-CC-pVDZ\C3H8F2N3O2(1-)\OHZDE\09-Apr-2025\0\\
 #t hf aug-cc-pvdz iop(5/13=1,5/36=2,99/5=2) pseudo=read geom=check gue
 ss=(read,tcheck) scf=(maxcycle=1)\\title\\-1,1\C,0,-0.046428,-0.0844,-
 0.035553\C,0,-0.318956,-0.403542,-1.511756\F,0,1.301322,-0.435587,0.18
 8577\H,0,-0.131079,-1.474318,-1.630162\C,0,-0.21128,1.373676,0.345726\
 H,0,0.352256,2.039284,-0.306753\H,0,0.144566,1.484849,1.375393\H,0,-1.
 279911,1.590537,0.312608\N,0,-0.864882,-0.986652,0.732969\H,0,-0.59567
 5,-0.854364,1.70454\H,0,-1.831086,-0.601751,0.643477\N,0,0.828556,0.19

 Normal termination of Gaussian 16 at Wed Apr  9 02:56:13 2025.
