 Gaussian 16, Revision C.01,

 ----------------------------------------------------------------------
 #t hf aug-cc-pvdz symm=none int=(grid=ultrafine) guess=(read,tcheck) s
 table=(opt,rrhf)
 ----------------------------------------------------------------------
 -----
 title
 -----
 Symbolic Z-matrix:
 Charge = -1 Multiplicity = 1

 SCF Done:  E(RHF) =  -927.978580364     A.U. after   18 cycles
 Normal termination of Gaussian 16 at Wed Apr  9 02:48:59 2025.
 Gaussian 16:  ES64L-G16RevC.01  3-Jul-2019

 ----------------------------------------------------------------------
 #t hf aug-cc-pvdz iop(5/13=1,5/36=2,99/5=2) pseudo=read geom=check gue
 ss=(read,tcheck) scf=(maxcycle=1)
 ----------------------------------------------------------------------
 -----
 title
 -----
 Structure from the checkpoint file:  "E2SN2_26_mol1.chk"
 Charge = -1 Multiplicity = 1

                         Standard orientation:
 ---------------------------------------------------------------------
 Center     Atomic      Atomic             Coordinates (Angstroms)
 Number     Number       Type             X           Y           Z
 ---------------------------------------------------------------------
      1          6           0        0.339597   -0.486964    0.171836
      2          6           0       -1.039203   -0.021176    0.592045
      3         17           0        0.393798   -1.111813   -1.536548
      4          1           0       -0.652968   -0.481345    3.056424
      5          1           0       -0.886235    0.081766    1.785822
      6          7           0        1.257935    0.758365    0.215118
      7          8           0        1.790974    0.970962    1.297118
      8          8           0        1.330936    1.474313   -0.777730
      9          6           0       -2.077772   -1.134051    0.540021
     10          1           0       -3.049888   -0.727154    0.828842
     11          1           0       -2.161224   -1.590716   -0.449151
     12          1           0       -1.808650   -1.882805    1.290368
     13          6           0       -1.502532    1.184857   -0.047796
     14          7           0       -1.948845    2.167120   -0.522395
     15          7           0        0.901475   -1.455342    1.043010
     16          1           0        0.529037   -1.237042    1.992086
     17          1           0        0.565597   -2.371082    0.775059
 ---------------------------------------------------------------------

 SCF Done:  E(RHF) =  -930.367323651     A.U. after    2 cycles

 The electronic state is 1-A.
 Alpha  occ. eigenvalues --  -99.78336 -20.97820 -20.97586 -15.86847 -15.63420
 Alpha  occ. eigenvalues --  -15.62507 -11.46006 -11.35036 -11.30810 -11.26894
 Alpha  occ. eigenvalues --  -10.35739  -9.55855  -9.54988  -9.54960  -1.87127
 Alpha  occ. eigenvalues --   -1.57325  -1.33667  -1.18421  -1.16625  -1.06831
 Alpha  occ. eigenvalues --   -0.97982  -0.82719  -0.71258  -0.63909  -0.61585
 Alpha  occ. eigenvalues --   -0.57842  -0.52633  -0.52229  -0.47835  -0.45255
 Alpha  occ. eigenvalues --   -0.44910  -0.41408  -0.40961  -0.40203  -0.38384
 Alpha  occ. eigenvalues --   -0.37717  -0.31772  -0.30303  -0.27991  -0.22186
 Alpha  occ. eigenvalues --   -0.19342  -0.18368  -0.12686
 Alpha virt. eigenvalues --    0.13185   0.14221   0.14544   0.15708   0.16790
 Alpha virt. eigenvalues --    0.17701   0.19114   0.19371   0.20517   0.21231
 Alpha virt. eigenvalues --    0.22762   0.23743   0.24374   0.25008   0.25324

 Mulliken charges:
               1
     1  C    4.006111
     2  C    0.076346
     3  Cl  -0.091137
     4  H   -0.776363
     5  H    1.738100
     6  N    3.804799
     7  O   -2.716053
     8  O   -3.011271
     9  C   -4.156798
    10  H    1.151573
    11  H    1.169406
    12  H    1.395953
    13  C    1.473722
    14  N   -2.652597
    15  N   -3.626383
    16  H    0.626927
    17  H    0.587667
 Sum of Mulliken charges =  -1.00000

 Dipole moment (field-independent basis, Debye):
    X=              1.5380    Y=             -2.2658    Z=             -5.5271  Tot=              6.1683

 Test job not archived.
 1\1\GINC-SE187\SP\RHF\Aug-CC-pVDZ\C4H7Cl1N3O2(1-)\OHZDE\09-Apr-2025\0\
 \#t hf aug-cc-pvdz iop(5/13=1,5/36=2,99/5=2) pseudo=read geom=check gu
 ess=(read,tcheck) scf=(maxcycle=1)\\title\\-1,1\C,0,0.08959587,-0.0069
 9475,-0.42469624\C,0,-0.18231476,0.00034706,1.06548266\Cl,0,1.8608074,
 -0.11641386,-0.8281664\H,0,-2.35257123,1.29670377,0.85680926\H,0,-1.34
 110999,0.34107032,1.07963025\N,0,-0.57069276,-1.28909461,-0.98710078\O
 ,0,-1.74176429,-1.1634532,-1.32304201\O,0,0.07176784,-2.333557,-0.9884
 5468\C,0,0.46356022,1.18269004,1.7759305\H,0,0.25112127,1.11420764,2.8

 Normal termination of Gaussian 16 at Wed Apr  9 02:49:09 2025.
