 Gaussian 16, Revision C.01,

 ----------------------------------------------------------------------
 #t hf aug-cc-pvdz symm=none int=(grid=ultrafine) guess=(read,tcheck) s
 table=(opt,rrhf)
 ----------------------------------------------------------------------
 -----
 title
 -----
 Symbolic Z-matrix:
 Charge = -1 Multiplicity = 1

 SCF Done:  E(RHF) =  -722.136296959     A.U. after   16 cycles
 Normal termination of Gaussian 16 at Wed Apr  9 03:01:43 2025.
 Gaussian 16:  ES64L-G16RevC.01  3-Jul-2019

 ----------------------------------------------------------------------
 #t hf aug-cc-pvdz iop(5/13=1,5/36=2,99/5=2) pseudo=read geom=check gue
 ss=(read,tcheck) scf=(maxcycle=1)
 ----------------------------------------------------------------------
 -----
 title
 -----
 Structure from the checkpoint file:  "E2SN2_85_mol2.chk"
 Charge = -1 Multiplicity = 1

                         Standard orientation:
 ---------------------------------------------------------------------
 Center     Atomic      Atomic             Coordinates (Angstroms)
 Number     Number       Type             X           Y           Z
 ---------------------------------------------------------------------
      1          6           0        0.399045   -0.119375   -0.388557
      2          6           0       -0.626668   -0.991039    0.326489
      3         17           0        0.264148    1.593467    0.125204
      4          1           0       -0.428605   -0.948654    1.400221
      5          1           0        0.232914   -0.107328   -1.468525
      6          1           0       -0.454097   -2.036209    0.047501
      7          6           0        1.768585   -0.595057   -0.176616
      8          7           0        2.882133   -0.968466   -0.164495
      9          6           0       -1.980679   -0.615407   -0.039324
     10          7           0       -3.087006   -0.318549   -0.306491
     11          1           0        0.231678   -1.062369    2.857285
 ---------------------------------------------------------------------

 SCF Done:  E(RHF) =  -723.595789077     A.U. after    2 cycles

 The electronic state is 1-A.
 Alpha  occ. eigenvalues --  -99.79207 -15.66743 -15.65099 -11.41644 -11.34771
 Alpha  occ. eigenvalues --  -11.34252 -11.30263 -10.36559  -9.56474  -9.55739
 Alpha  occ. eigenvalues --   -9.55630  -1.29701  -1.18809  -1.18136  -1.05751
 Alpha  occ. eigenvalues --   -0.89105  -0.65500  -0.59106  -0.57498  -0.50861
 Alpha  occ. eigenvalues --   -0.46578  -0.43460  -0.40957  -0.39704  -0.38273
 Alpha  occ. eigenvalues --   -0.34221  -0.33209  -0.31603  -0.30796  -0.09928
 Alpha virt. eigenvalues --    0.12625   0.14426   0.15728   0.18096   0.18631
 Alpha virt. eigenvalues --    0.20060   0.21193   0.21361   0.22106   0.22375
 Alpha virt. eigenvalues --    0.23428   0.23849   0.25316   0.25444   0.26747

 Mulliken charges:
               1
     1  C   -2.374436
     2  C   -2.923420
     3  Cl   0.104950
     4  H    1.928045
     5  H    1.810267
     6  H    1.550410
     7  C    2.410876
     8  N   -2.443213
     9  C    2.442483
    10  N   -2.602260
    11  H   -0.903703
 Sum of Mulliken charges =  -1.00000

 Dipole moment (field-independent basis, Debye):
    X=             -0.1503    Y=              2.8345    Z=            -10.2365  Tot=             10.6227

 Test job not archived.
 1\1\GINC-SE058\SP\RHF\Aug-CC-pVDZ\C4H4Cl1N2(1-)\OHZDE\09-Apr-2025\0\\#
 t hf aug-cc-pvdz iop(5/13=1,5/36=2,99/5=2) pseudo=read geom=check gues
 s=(read,tcheck) scf=(maxcycle=1)\\title\\-1,1\C,0,-0.507546,-0.013322,
 -1.40144\C,0,-0.002098,0.056328,0.034822\Cl,0,-0.00003,1.429706,-2.337
 428\H,0,1.090271,0.07459,0.0169\H,0,-1.599468,-0.01131,-1.443603\H,0,-
 0.261615,-0.878411,0.543654\C,0,-0.060206,-1.230382,-2.083705\N,0,0.14
 615,-2.226644,-2.670603\C,0,-0.599537,1.171166,0.747891\N,0,-1.056635,
 2.077758,1.341704\H,0,2.64037,-0.281726,-0.188458\\Version=ES64L-G16Re

 Normal termination of Gaussian 16 at Wed Apr  9 03:01:47 2025.
