 Gaussian 16, Revision C.01,

 ----------------------------------------------------------------------
 #t hf aug-cc-pvdz symm=none int=(grid=ultrafine) guess=(read,tcheck) s
 table=(opt,rrhf)
 ----------------------------------------------------------------------
 -----
 title
 -----
 Symbolic Z-matrix:
 Charge = -1 Multiplicity = 1

 SCF Done:  E(RHF) =  -1292.94658986     A.U. after   16 cycles
 Normal termination of Gaussian 16 at Wed Apr  9 02:38:41 2025.
 Gaussian 16:  ES64L-G16RevC.01  3-Jul-2019

 ----------------------------------------------------------------------
 #t hf aug-cc-pvdz iop(5/13=1,5/36=2,99/5=2) pseudo=read geom=check gue
 ss=(read,tcheck) scf=(maxcycle=1)
 ----------------------------------------------------------------------
 -----
 title
 -----
 Structure from the checkpoint file:  "E2SN2_174_mol1.chk"
 Charge = -1 Multiplicity = 1

                         Standard orientation:
 ---------------------------------------------------------------------
 Center     Atomic      Atomic             Coordinates (Angstroms)
 Number     Number       Type             X           Y           Z
 ---------------------------------------------------------------------
      1          6           0       -0.577786    0.072185   -0.172394
      2          1           0        0.379228   -1.012352    1.425918
      3         17           0       -0.139598    2.335484   -0.446779
      4         17           0       -0.995706   -2.202855   -0.394402
      5          6           0        0.523672   -0.110298    0.835756
      6          1           0       -0.395982    0.023788   -1.227590
      7          1           0        0.624675    0.755379    1.484502
      8          6           0       -1.888348    0.326444    0.349831
      9          7           0       -2.944576    0.531327    0.826902
     10          7           0        1.858379   -0.274940    0.185128
     11          8           0        2.808914   -0.324462    0.964224
     12          8           0        1.934887   -0.368814   -1.032490
 ---------------------------------------------------------------------

 SCF Done:  E(RHF) =  -1295.08737061     A.U. after    2 cycles

 The electronic state is 1-A.
 Alpha  occ. eigenvalues --  -99.68887 -99.68839 -20.99743 -20.98874 -15.89219
 Alpha  occ. eigenvalues --  -15.66147 -11.45161 -11.37193 -11.34611 -10.25844
 Alpha  occ. eigenvalues --  -10.25768  -9.45880  -9.45814  -9.45423  -9.45320
 Alpha  occ. eigenvalues --   -9.45299  -9.45237  -1.88879  -1.58663  -1.23532
 Alpha  occ. eigenvalues --   -1.14694  -1.05969  -1.05611  -0.95099  -0.75411
 Alpha  occ. eigenvalues --   -0.65993  -0.62088  -0.58574  -0.54121  -0.49380
 Alpha  occ. eigenvalues --   -0.46855  -0.42416  -0.41847  -0.35049  -0.33797
 Alpha  occ. eigenvalues --   -0.33315  -0.32380  -0.32070  -0.29707  -0.28603
 Alpha  occ. eigenvalues --   -0.25315  -0.21152  -0.20764
 Alpha virt. eigenvalues --    0.14578   0.15622   0.16036   0.16541   0.19449
 Alpha virt. eigenvalues --    0.19900   0.21850   0.22567   0.23051   0.23441
 Alpha virt. eigenvalues --    0.24264   0.25261   0.26287   0.26647   0.27514

 Mulliken charges:
               1
     1  C   -1.355612
     2  H    1.474791
     3  Cl  -0.552198
     4  Cl  -0.543762
     5  C   -1.929547
     6  H    1.882523
     7  H    1.529542
     8  C    2.674091
     9  N   -2.871722
    10  N    4.303812
    11  O   -2.831182
    12  O   -2.780737
 Sum of Mulliken charges =  -1.00000

 Dipole moment (field-independent basis, Debye):
    X=              3.0325    Y=             -0.5066    Z=              1.2023  Tot=              3.3013

 Test job not archived.
 1\1\GINC-SE455\SP\RHF\Aug-CC-pVDZ\C3H3Cl2N2O2(1-)\OHZDE\09-Apr-2025\0\
 \#t hf aug-cc-pvdz iop(5/13=1,5/36=2,99/5=2) pseudo=read geom=check gu
 ess=(read,tcheck) scf=(maxcycle=1)\\title\\-1,1\C,0,0.53886501,-0.0602
 0021,0.04961533\H,0,1.56400291,1.81752093,0.31410333\Cl,0,-1.77057912,
 -0.14788142,0.27006608\Cl,0,2.77244713,-0.2829096,-0.55143559\C,0,0.57
 30569,1.44359706,0.06699134\H,0,0.36152379,-0.61413664,-0.8506835\H,0,
 -0.16831704,1.8564661,0.74549894\C,0,0.74531603,-0.72007929,1.30535282
 \N,0,0.92094614,-1.21491109,2.35867527\N,0,0.25401624,2.02770918,-1.27

 Normal termination of Gaussian 16 at Wed Apr  9 02:38:47 2025.
