 Gaussian 16, Revision C.01,

 ----------------------------------------------------------------------
 #t hf aug-cc-pvdz symm=none int=(grid=ultrafine) guess=(read,tcheck) s
 table=(opt,rrhf)
 ----------------------------------------------------------------------
 -----
 title
 -----
 Symbolic Z-matrix:
 Charge = -1 Multiplicity = 1

 SCF Done:  E(RHF) =  -516.054047321     A.U. after   15 cycles
 Normal termination of Gaussian 16 at Wed Apr  9 02:41:00 2025.
 Gaussian 16:  ES64L-G16RevC.01  3-Jul-2019

 ----------------------------------------------------------------------
 #t hf aug-cc-pvdz iop(5/13=1,5/36=2,99/5=2) pseudo=read geom=check gue
 ss=(read,tcheck) scf=(maxcycle=1)
 ----------------------------------------------------------------------
 -----
 title
 -----
 Structure from the checkpoint file:  "E2SN2_200_mol1.chk"
 Charge = -1 Multiplicity = 1

                         Standard orientation:
 ---------------------------------------------------------------------
 Center     Atomic      Atomic             Coordinates (Angstroms)
 Number     Number       Type             X           Y           Z
 ---------------------------------------------------------------------
      1          6           0        0.918001   -0.300399    0.307161
      2          1           0       -0.116476   -0.481558   -1.539955
      3          9           0        0.141223    0.609195    1.630933
      4          9           0        1.633982   -1.390490   -0.885685
      5          6           0       -0.359892   -0.157677   -0.525454
      6          1           0        0.996558   -1.113759    1.009935
      7          7           0        1.914432    0.700328    0.100897
      8          1           0        2.762576    0.224965   -0.167666
      9          1           0        2.012585    1.203255    0.970025
     10          6           0       -0.842924    1.227387   -0.587483
     11          7           0       -1.282424    2.299977   -0.770252
     12          6           0       -1.418797   -1.027248   -0.007995
     13          7           0       -2.262068   -1.750824    0.369794
 ---------------------------------------------------------------------

 SCF Done:  E(RHF) =  -518.184196562     A.U. after    2 cycles

 The electronic state is 1-A.
 Alpha  occ. eigenvalues --  -28.98274 -28.97256 -15.64554 -15.63286 -15.60566
 Alpha  occ. eigenvalues --  -11.44628 -11.37628 -11.33397 -11.30759  -1.28046
 Alpha  occ. eigenvalues --   -1.19341  -1.15872  -1.04989  -0.82898  -0.66793
 Alpha  occ. eigenvalues --   -0.65186  -0.56358  -0.52603  -0.47428  -0.41619
 Alpha  occ. eigenvalues --   -0.39333  -0.37943  -0.35637  -0.32337  -0.31423
 Alpha  occ. eigenvalues --   -0.30134  -0.29139  -0.24961  -0.14492  -0.06042
 Alpha  occ. eigenvalues --   -0.05554  -0.04256  -0.03697   0.03390
 Alpha virt. eigenvalues --    0.14288   0.15205   0.16221   0.16946   0.19473
 Alpha virt. eigenvalues --    0.20424   0.22469   0.23024   0.24114   0.24224
 Alpha virt. eigenvalues --    0.25662   0.26471   0.26774   0.27814   0.27999

 Mulliken charges:
               1
     1  C    1.539520
     2  H    1.485851
     3  F   -0.405473
     4  F   -0.511207
     5  C   -2.166625
     6  H    1.700302
     7  N   -3.565592
     8  H    0.492884
     9  H    0.541067
    10  C    3.416793
    11  N   -3.019285
    12  C    2.198137
    13  N   -2.706371
 Sum of Mulliken charges =  -1.00000

 Dipole moment (field-independent basis, Debye):
    X=              2.2191    Y=             -0.3053    Z=              0.4921  Tot=              2.2934

 Test job not archived.
 1\1\GINC-SE452\SP\RHF\Aug-CC-pVDZ\C4H4F2N3(1-)\OHZDE\09-Apr-2025\0\\#t
  hf aug-cc-pvdz iop(5/13=1,5/36=2,99/5=2) pseudo=read geom=check guess
 =(read,tcheck) scf=(maxcycle=1)\\title\\-1,1\C,0,0.66570939,-0.0856372
 9,0.02473026\H,0,1.69252147,1.76635935,0.19955349\F,0,-1.11365357,-0.0
 8676807,0.15505443\F,0,2.3970165,-0.11569168,-0.32950251\C,0,0.656542,
 1.44558482,0.0683577\H,0,0.52401077,-0.58305548,-0.92084616\N,0,0.8348
 2641,-0.74648891,1.27834433\H,0,1.64198626,-1.34531341,1.19264401\H,0,
 -0.01265582,-1.26426383,1.45621137\C,0,-0.13468183,1.97494734,1.186082

 Normal termination of Gaussian 16 at Wed Apr  9 02:41:05 2025.
