 Gaussian 16, Revision C.01,

 ----------------------------------------------------------------------
 #t hf aug-cc-pvdz symm=none int=(grid=ultrafine) guess=(read,tcheck) s
 table=(opt,rrhf)
 ----------------------------------------------------------------------
 -----
 title
 -----
 Symbolic Z-matrix:
 Charge = -1 Multiplicity = 1

 SCF Done:  E(RHF) =  -516.052825077     A.U. after   16 cycles
 Normal termination of Gaussian 16 at Wed Apr  9 02:57:03 2025.
 Gaussian 16:  ES64L-G16RevC.01  3-Jul-2019

 ----------------------------------------------------------------------
 #t hf aug-cc-pvdz iop(5/13=1,5/36=2,99/5=2) pseudo=read geom=check gue
 ss=(read,tcheck) scf=(maxcycle=1)
 ----------------------------------------------------------------------
 -----
 title
 -----
 Structure from the checkpoint file:  "E2SN2_382_mol1.chk"
 Charge = -1 Multiplicity = 1

                         Standard orientation:
 ---------------------------------------------------------------------
 Center     Atomic      Atomic             Coordinates (Angstroms)
 Number     Number       Type             X           Y           Z
 ---------------------------------------------------------------------
      1          6           0       -0.558899   -0.280405    0.051594
      2          1           0        0.765923   -1.874814    0.406167
      3          9           0       -1.139922   -0.249490   -1.631322
      4          9           0        0.032920   -0.150461    1.731640
      5          6           0        0.695881   -1.062502   -0.316801
      6          1           0        0.581407   -1.463251   -1.322366
      7          7           0       -1.700999   -1.041646    0.470336
      8          1           0       -2.456812   -0.804424   -0.155286
      9          1           0       -1.897915   -0.772980    1.423690
     10          6           0       -0.585951    1.182218    0.009972
     11          7           0       -0.668505    2.354136   -0.003527
     12          6           0        1.926034   -0.280087   -0.240542
     13          7           0        2.956365    0.281752   -0.221152
 ---------------------------------------------------------------------

 SCF Done:  E(RHF) =  -518.192468655     A.U. after    2 cycles

 The electronic state is 1-A.
 Alpha  occ. eigenvalues --  -28.99038 -28.98691 -15.63045 -15.61866 -15.61602
 Alpha  occ. eigenvalues --  -11.48998 -11.33832 -11.30910 -11.29194  -1.29621
 Alpha  occ. eigenvalues --   -1.17293  -1.14512  -1.03660  -0.86185  -0.67621
 Alpha  occ. eigenvalues --   -0.64237  -0.52930  -0.51101  -0.48932  -0.42228
 Alpha  occ. eigenvalues --   -0.39681  -0.38287  -0.35687  -0.31185  -0.30452
 Alpha  occ. eigenvalues --   -0.29349  -0.27407  -0.25653  -0.15105  -0.06399
 Alpha  occ. eigenvalues --   -0.05248  -0.05061  -0.04709   0.01119
 Alpha virt. eigenvalues --    0.14236   0.14889   0.15999   0.16706   0.19206
 Alpha virt. eigenvalues --    0.20117   0.22056   0.22613   0.23711   0.24453
 Alpha virt. eigenvalues --    0.25511   0.25895   0.26705   0.28150   0.28623

 Mulliken charges:
               1
     1  C    5.803380
     2  H    1.451762
     3  F   -0.493145
     4  F   -0.339855
     5  C   -4.390077
     6  H    1.179887
     7  N   -3.997987
     8  H    0.453152
     9  H    0.515610
    10  C    2.089931
    11  N   -3.143004
    12  C    2.490577
    13  N   -2.620230
 Sum of Mulliken charges =  -1.00000

 Dipole moment (field-independent basis, Debye):
    X=             -1.7402    Y=             -3.8524    Z=              0.4471  Tot=              4.2508

 Test job not archived.
 1\1\GINC-SE362\SP\RHF\Aug-CC-pVDZ\C4H4F2N3(1-)\OHZDE\09-Apr-2025\0\\#t
  hf aug-cc-pvdz iop(5/13=1,5/36=2,99/5=2) pseudo=read geom=check guess
 =(read,tcheck) scf=(maxcycle=1)\\title\\-1,1\C,0,0.52527289,-0.0727478
 5,-0.01516062\H,0,1.23137016,1.80098558,-0.65824971\F,0,-1.20602757,-0
 .29642997,-0.36632022\F,0,2.23510508,0.07804739,0.47821948\C,0,0.41014
 978,1.44652173,-0.03584195\H,0,-0.54439664,1.72373624,-0.47953003\N,0,
 0.89483666,-0.71441049,-1.24435501\H,0,0.15837475,-1.36789529,-1.46686
 669\H,0,1.77690719,-1.1774276,-1.07880347\C,0,0.29972296,-0.83832659,1

 Normal termination of Gaussian 16 at Wed Apr  9 02:57:07 2025.
