 Gaussian 16, Revision C.01,

 ----------------------------------------------------------------------
 #t hf aug-cc-pvdz symm=none int=(grid=ultrafine) guess=(read,tcheck) s
 table=(opt,rrhf)
 ----------------------------------------------------------------------
 -----
 title
 -----
 Symbolic Z-matrix:
 Charge = -1 Multiplicity = 1

 SCF Done:  E(RHF) =  -585.609442654     A.U. after   18 cycles
 Normal termination of Gaussian 16 at Wed Apr  9 02:41:58 2025.
 Gaussian 16:  ES64L-G16RevC.01  3-Jul-2019

 ----------------------------------------------------------------------
 #t hf aug-cc-pvdz iop(5/13=1,5/36=2,99/5=2) pseudo=read geom=check gue
 ss=(read,tcheck) scf=(maxcycle=1)
 ----------------------------------------------------------------------
 -----
 title
 -----
 Structure from the checkpoint file:  "E2SN2_210_mol2.chk"
 Charge = -1 Multiplicity = 1

                         Standard orientation:
 ---------------------------------------------------------------------
 Center     Atomic      Atomic             Coordinates (Angstroms)
 Number     Number       Type             X           Y           Z
 ---------------------------------------------------------------------
      1          6           0        0.516749   -0.616882    0.298037
      2          6           0       -0.587701    0.173090    0.976355
      3          9           0        0.104851   -0.911924   -1.037748
      4          1           0       -0.303918    1.209871    1.105805
      5          1           0        0.779021   -1.550522    0.770407
      6          1           0       -0.865776   -0.288273    1.914282
      7          7           0        1.767551    0.158279    0.079202
      8          8           0        1.662204    1.366330   -0.153183
      9          8           0        2.788375   -0.507864   -0.111751
     10          7           0       -1.820014    0.164010    0.098265
     11          8           0       -2.040629    1.146164   -0.608192
     12          8           0       -2.542996   -0.830886    0.162151
     13          1           0        1.304318   -0.146981    2.348417
 ---------------------------------------------------------------------

 SCF Done:  E(RHF) =  -588.038705314     A.U. after    2 cycles

 The electronic state is 1-A.
 Alpha  occ. eigenvalues --  -29.14756 -20.97987 -20.97610 -20.95359 -20.95192
 Alpha  occ. eigenvalues --  -15.86742 -15.85642 -11.43487 -11.32902  -1.86915
 Alpha  occ. eigenvalues --   -1.84427  -1.56893  -1.54670  -1.19442  -1.02231
 Alpha  occ. eigenvalues --   -0.78676  -0.75824  -0.63528  -0.59693  -0.59202
 Alpha  occ. eigenvalues --   -0.54700  -0.52044  -0.48556  -0.45820  -0.43424
 Alpha  occ. eigenvalues --   -0.42102  -0.27347  -0.25440  -0.23300  -0.20703
 Alpha  occ. eigenvalues --   -0.19471  -0.18533  -0.16983  -0.14419  -0.13893
 Alpha  occ. eigenvalues --   -0.11018
 Alpha virt. eigenvalues --    0.15403   0.15841   0.16543   0.20221   0.22261
 Alpha virt. eigenvalues --    0.22705   0.23263   0.23972   0.24444   0.25861
 Alpha virt. eigenvalues --    0.27338   0.27734   0.28410   0.29017   0.30299

 Mulliken charges:
               1
     1  C   -0.867931
     2  C   -2.727832
     3  F    0.204906
     4  H    1.681764
     5  H    1.881634
     6  H    1.570759
     7  N    5.128478
     8  O   -2.957775
     9  O   -3.029511
    10  N    4.788854
    11  O   -2.822592
    12  O   -2.846890
    13  H   -1.003866
 Sum of Mulliken charges =  -1.00000

 Dipole moment (field-independent basis, Debye):
    X=             -4.4165    Y=             -0.7472    Z=             -7.7620  Tot=              8.9617

 Test job not archived.
 1\1\GINC-SE423\SP\RHF\Aug-CC-pVDZ\C2H4F1N2O4(1-)\OHZDE\09-Apr-2025\0\\
 #t hf aug-cc-pvdz iop(5/13=1,5/36=2,99/5=2) pseudo=read geom=check gue
 ss=(read,tcheck) scf=(maxcycle=1)\\title\\-1,1\C,0,-0.077443,-0.017067
 ,-0.000911\C,0,-0.530931,0.07213,-1.446723\F,0,1.350575,-0.052539,0.02
 2251\H,0,-0.919938,1.056527,-1.674413\H,0,-0.432273,-0.876331,0.546232
 \H,0,-1.248451,-0.705806,-1.670039\N,0,-0.376509,1.198799,0.802518\O,0
 ,-0.341888,2.290894,0.227523\O,0,-0.378291,1.048943,2.027194\N,0,0.657
 039,-0.149349,-2.357434\O,0,1.210922,0.83487,-2.844163\O,0,0.985841,-1

 Normal termination of Gaussian 16 at Wed Apr  9 02:42:03 2025.
