 Gaussian 16, Revision C.01,

 ----------------------------------------------------------------------
 #t hf aug-cc-pvdz symm=none int=(grid=ultrafine) guess=(read,tcheck) s
 table=(opt,rrhf)
 ----------------------------------------------------------------------
 -----
 title
 -----
 Symbolic Z-matrix:
 Charge = -1 Multiplicity = 1

 SCF Done:  E(RHF) =  -1083.66515163     A.U. after   16 cycles
 Normal termination of Gaussian 16 at Wed Apr  9 02:40:03 2025.
 Gaussian 16:  ES64L-G16RevC.01  3-Jul-2019

 ----------------------------------------------------------------------
 #t hf aug-cc-pvdz iop(5/13=1,5/36=2,99/5=2) pseudo=read geom=check gue
 ss=(read,tcheck) scf=(maxcycle=1)
 ----------------------------------------------------------------------
 -----
 title
 -----
 Structure from the checkpoint file:  "E2SN2_171_mol2.chk"
 Charge = -1 Multiplicity = 1

                         Standard orientation:
 ---------------------------------------------------------------------
 Center     Atomic      Atomic             Coordinates (Angstroms)
 Number     Number       Type             X           Y           Z
 ---------------------------------------------------------------------
      1          6           0       -0.513413    0.335970   -0.239317
      2          6           0        0.722223    0.354614    0.656623
      3         17           0       -1.587440    1.761159    0.252738
      4          1           0        0.783196    1.354619    1.104840
      5          1           0       -0.263047    0.498650   -1.273894
      6          7           0       -1.462051   -0.821103   -0.207244
      7          8           0       -2.082786   -1.011593   -1.245129
      8          8           0       -1.682874   -1.382892    0.859581
      9          7           0        1.942140    0.358455   -0.241901
     10          8           0        1.891132    1.080930   -1.233355
     11          8           0        2.954208   -0.206277    0.151389
     12          6           0        0.850851   -0.688308    1.741752
     13          1           0        0.858845   -1.659952    1.258080
     14          1           0        0.010932   -0.608786    2.430494
     15          1           0        1.781651   -0.518452    2.284041
     16          9           0        0.606541   -1.513582   -0.907816
 ---------------------------------------------------------------------

 SCF Done:  E(RHF) =  -1086.53441947     A.U. after    2 cycles

 The electronic state is 1-A.
 Alpha  occ. eigenvalues --  -99.77729 -28.90640 -20.95715 -20.95370 -20.95179
 Alpha  occ. eigenvalues --  -20.95137 -15.86303 -15.85534 -11.42798 -11.35929
 Alpha  occ. eigenvalues --  -11.26102 -10.34996  -9.55066  -9.54387  -9.54217
 Alpha  occ. eigenvalues --   -1.86400  -1.84543  -1.55683  -1.54999  -1.25080
 Alpha  occ. eigenvalues --   -1.12511  -1.00585  -0.89671  -0.76836  -0.68511
 Alpha  occ. eigenvalues --   -0.62066  -0.59744  -0.56447  -0.55451  -0.49151
 Alpha  occ. eigenvalues --   -0.48491  -0.45791  -0.44377  -0.42537  -0.41705
 Alpha  occ. eigenvalues --   -0.40377  -0.38005  -0.35126  -0.30266  -0.22298
 Alpha  occ. eigenvalues --   -0.22152  -0.18585  -0.17862  -0.17218  -0.16865
 Alpha  occ. eigenvalues --   -0.01232   0.00523   0.01243
 Alpha virt. eigenvalues --    0.13523   0.14290   0.15070   0.16307   0.17833
 Alpha virt. eigenvalues --    0.18311   0.21834   0.22901   0.23218   0.24506
 Alpha virt. eigenvalues --    0.25165   0.25894   0.25978   0.26675   0.27049

 Mulliken charges:
               1
     1  C   -2.354739
     2  C   -0.753745
     3  Cl  -0.227125
     4  H    1.856598
     5  H    1.991530
     6  N    6.029646
     7  O   -3.128558
     8  O   -3.302457
     9  N    5.178170
    10  O   -3.222398
    11  O   -2.988581
    12  C   -2.497961
    13  H    0.905177
    14  H    1.283264
    15  H    1.200839
    16  F   -0.969662
 Sum of Mulliken charges =  -1.00000

 Dipole moment (field-independent basis, Debye):
    X=              1.7145    Y=             -1.2495    Z=              0.6261  Tot=              2.2120

 Test job not archived.
 1\1\GINC-SE402\SP\RHF\Aug-CC-pVDZ\C3H5Cl1F1N2O4(1-)\OHZDE\09-Apr-2025\
 0\\#t hf aug-cc-pvdz iop(5/13=1,5/36=2,99/5=2) pseudo=read geom=check
 guess=(read,tcheck) scf=(maxcycle=1)\\title\\-1,1\C,0,-0.042437,0.0021
 99,-0.014964\C,0,-0.44941,-0.028758,-1.485769\Cl,0,1.806203,-0.059663,
 0.059317\H,0,0.437979,0.238293,-2.073861\H,0,-0.326135,0.925013,0.4619
 28\N,0,-0.448937,-1.099522,0.912792\O,0,-0.547882,-0.776445,2.089497\O
 ,0,-0.491355,-2.249833,0.491521\N,0,-1.34409,1.167061,-1.740955\O,0,-1
 .006909,2.225987,-1.218903\O,0,-2.232855,1.059172,-2.575423\C,0,-1.059

 Normal termination of Gaussian 16 at Wed Apr  9 02:40:12 2025.
