 Gaussian 16, Revision C.01,

 ----------------------------------------------------------------------
 #t hf aug-cc-pvdz symm=none int=(grid=ultrafine) guess=(read,tcheck) s
 table=(opt,rrhf)
 ----------------------------------------------------------------------
 -----
 title
 -----
 Symbolic Z-matrix:
 Charge = -1 Multiplicity = 1

 SCF Done:  E(RHF) =  -463.407270795     A.U. after   14 cycles
 Normal termination of Gaussian 16 at Wed Apr  9 02:56:05 2025.
 Gaussian 16:  ES64L-G16RevC.01  3-Jul-2019

 ----------------------------------------------------------------------
 #t hf aug-cc-pvdz iop(5/13=1,5/36=2,99/5=2) pseudo=read geom=check gue
 ss=(read,tcheck) scf=(maxcycle=1)
 ----------------------------------------------------------------------
 -----
 title
 -----
 Structure from the checkpoint file:  "E2SN2_372_mol2.chk"
 Charge = -1 Multiplicity = 1

                         Standard orientation:
 ---------------------------------------------------------------------
 Center     Atomic      Atomic             Coordinates (Angstroms)
 Number     Number       Type             X           Y           Z
 ---------------------------------------------------------------------
      1          6           0       -0.491766    0.775968    0.346469
      2          6           0        0.291744   -0.540858    0.288849
      3          9           0        0.406752    1.819834    0.642059
      4          1           0       -0.538398   -1.237492    0.030562
      5          1           0       -1.186022    0.692014    1.184957
      6          7           0       -1.250569    1.076000   -0.819810
      7          1           0       -1.894857    0.250962   -0.828715
      8          1           0       -0.639073    0.997702   -1.628331
      9          6           0        0.945952   -0.899539    1.621330
     10          1           0        1.661073   -0.132054    1.927781
     11          1           0        1.464403   -1.860152    1.564997
     12          1           0        0.168002   -0.979923    2.385257
     13          6           0        1.278035   -0.499327   -0.784356
     14          7           0        2.082716   -0.468316   -1.641092
     15          9           0       -2.296079   -1.264536   -0.224720
 ---------------------------------------------------------------------

 SCF Done:  E(RHF) =  -465.349560787     A.U. after    2 cycles

 The electronic state is 1-A.
 Alpha  occ. eigenvalues --  -29.10855 -28.90508 -15.62799 -15.56568 -11.35309
 Alpha  occ. eigenvalues --  -11.32759 -11.29101 -11.25478  -1.26476  -1.16424
 Alpha  occ. eigenvalues --   -1.05342  -0.88389  -0.80743  -0.64002  -0.53940
 Alpha  occ. eigenvalues --   -0.50897  -0.47875  -0.44315  -0.44187  -0.40804
 Alpha  occ. eigenvalues --   -0.40331  -0.36464  -0.31025  -0.30195  -0.26373
 Alpha  occ. eigenvalues --   -0.23278  -0.19756  -0.11930  -0.11418   0.00436
 Alpha  occ. eigenvalues --    0.01288   0.02900
 Alpha virt. eigenvalues --    0.13304   0.14678   0.15078   0.16444   0.16834
 Alpha virt. eigenvalues --    0.18455   0.19950   0.20225   0.22245   0.23702
 Alpha virt. eigenvalues --    0.24202   0.25151   0.25578   0.26265   0.27212

 Mulliken charges:
               1
     1  C    0.358537
     2  C    0.022298
     3  F    0.101663
     4  H    1.226702
     5  H    1.708246
     6  N   -2.873464
     7  H    0.234163
     8  H    0.554142
     9  C   -3.895215
    10  H    1.259351
    11  H    1.221600
    12  H    1.217110
    13  C    1.140760
    14  N   -2.468997
    15  F   -0.806895
 Sum of Mulliken charges =  -1.00000

 Dipole moment (field-independent basis, Debye):
    X=              4.1980    Y=              2.7633    Z=              3.4569  Tot=              6.1000

 Test job not archived.
 1\1\GINC-SE455\SP\RHF\Aug-CC-pVDZ\C4H7F2N2(1-)\OHZDE\09-Apr-2025\0\\#t
  hf aug-cc-pvdz iop(5/13=1,5/36=2,99/5=2) pseudo=read geom=check guess
 =(read,tcheck) scf=(maxcycle=1)\\title\\-1,1\C,0,0.013127,0.016069,-0.
 001217\C,0,-0.462829,0.045742,-1.458552\F,0,1.42138,0.048168,0.011347\
 H,0,-1.564398,0.038326,-1.292307\H,0,-0.297823,-0.945826,0.411299\N,0,
 -0.52417,1.040571,0.82807\H,0,-1.542783,0.809935,0.756592\H,0,-0.37803
 1,1.934938,0.367075\C,0,0.003213,-1.168686,-2.258623\H,0,1.094222,-1.2
 20924,-2.294871\H,0,-0.38132,-1.143581,-3.281485\H,0,-0.376041,-2.0741

 Normal termination of Gaussian 16 at Wed Apr  9 02:56:10 2025.
