 Gaussian 16, Revision C.01,

 ----------------------------------------------------------------------
 #t hf aug-cc-pvdz symm=none int=(grid=ultrafine) guess=(read,tcheck) s
 table=(opt,rrhf)
 ----------------------------------------------------------------------
 -----
 title
 -----
 Symbolic Z-matrix:
 Charge = -1 Multiplicity = 1

 SCF Done:  E(RHF) =  -1000.68383677     A.U. after   17 cycles
 Normal termination of Gaussian 16 at Wed Apr  9 02:46:28 2025.
 Gaussian 16:  ES64L-G16RevC.01  3-Jul-2019

 ----------------------------------------------------------------------
 #t hf aug-cc-pvdz iop(5/13=1,5/36=2,99/5=2) pseudo=read geom=check gue
 ss=(read,tcheck) scf=(maxcycle=1)
 ----------------------------------------------------------------------
 -----
 title
 -----
 Structure from the checkpoint file:  "E2SN2_24_mol2.chk"
 Charge = -1 Multiplicity = 1

                         Standard orientation:
 ---------------------------------------------------------------------
 Center     Atomic      Atomic             Coordinates (Angstroms)
 Number     Number       Type             X           Y           Z
 ---------------------------------------------------------------------
      1          6           0       -0.040542   -0.193691    0.012135
      2          6           0       -1.033616   -0.746436   -0.991972
      3         17           0       -0.324123   -0.763192    1.631062
      4          1           0       -1.084996   -1.833307   -0.877313
      5          1           0       -0.636173   -0.512987   -1.984722
      6          7           0        1.413051   -0.518442   -0.327229
      7          8           0        2.273181    0.210728    0.156162
      8          8           0        1.608817   -1.503443   -1.028410
      9          7           0       -0.083255    1.332495   -0.052022
     10          8           0        0.202904    1.773916   -1.161533
     11          8           0       -0.384877    1.981358    0.933391
     12          7           0       -2.324011   -0.173536   -0.691900
     13          1           0       -2.945995   -1.037279   -0.576026
     14          1           0       -2.659957    0.326081   -1.506986
     15          1           0       -3.358537   -2.511561   -0.602814
 ---------------------------------------------------------------------

 SCF Done:  E(RHF) =  -1003.29350729     A.U. after    2 cycles

 The electronic state is 1-A.
 Alpha  occ. eigenvalues --  -99.81946 -21.02685 -21.02162 -21.02096 -21.00850
 Alpha  occ. eigenvalues --  -15.92145 -15.91381 -15.58082 -11.48172 -11.31341
 Alpha  occ. eigenvalues --  -10.39475  -9.59640  -9.58548  -9.58484  -1.93055
 Alpha  occ. eigenvalues --   -1.89713  -1.62125  -1.61217  -1.33046  -1.20117
 Alpha  occ. eigenvalues --   -1.10632  -0.92045  -0.87372  -0.70544  -0.66112
 Alpha  occ. eigenvalues --   -0.65927  -0.59585  -0.58256  -0.53179  -0.52406
 Alpha  occ. eigenvalues --   -0.51728  -0.48128  -0.45302  -0.43911  -0.40296
 Alpha  occ. eigenvalues --   -0.38795  -0.30831  -0.26717  -0.24622  -0.23903
 Alpha  occ. eigenvalues --   -0.23508  -0.22421  -0.21499  -0.10955
 Alpha virt. eigenvalues --    0.14123   0.15150   0.16181   0.17310   0.19512
 Alpha virt. eigenvalues --    0.19596   0.20633   0.21866   0.22089   0.22578
 Alpha virt. eigenvalues --    0.24014   0.24372   0.25000   0.26122   0.26466

 Mulliken charges:
               1
     1  C    1.047702
     2  C   -0.582127
     3  Cl   0.292729
     4  H    1.496794
     5  H    1.474199
     6  N    4.329512
     7  O   -3.020483
     8  O   -2.838555
     9  N    4.961532
    10  O   -3.151469
    11  O   -3.017350
    12  N   -2.084048
    13  H    0.600592
    14  H    0.464602
    15  H   -0.973632
 Sum of Mulliken charges =  -1.00000

 Dipole moment (field-independent basis, Debye):
    X=             10.5894    Y=              8.0651    Z=              0.7449  Tot=             13.3317

 Test job not archived.
 1\1\GINC-SE398\SP\RHF\Aug-CC-pVDZ\C2H5Cl1N3O4(1-)\OHZDE\09-Apr-2025\0\
 \#t hf aug-cc-pvdz iop(5/13=1,5/36=2,99/5=2) pseudo=read geom=check gu
 ess=(read,tcheck) scf=(maxcycle=1)\\title\\-1,1\C,0,-0.52794,-0.061179
 ,-1.496999\C,0,0.060122,-0.156385,-0.102341\Cl,0,0.320806,1.06443,-2.5
 15974\H,0,1.139473,-0.316015,-0.183555\H,0,-0.393735,-1.034162,0.36833
 1\N,0,-0.559444,-1.39725,-2.236921\O,0,-1.368395,-1.506742,-3.152776\O
 ,0,0.250168,-2.24434,-1.880307\N,0,-2.005863,0.30828,-1.376876\O,0,-2.
 655682,-0.515503,-0.739011\O,0,-2.426507,1.33375,-1.881362\N,0,-0.1875

 Normal termination of Gaussian 16 at Wed Apr  9 02:46:35 2025.
