 Gaussian 16, Revision C.01,

 ----------------------------------------------------------------------
 #t hf aug-cc-pvdz symm=none int=(grid=ultrafine) guess=(read,tcheck) s
 table=(opt,rrhf)
 ----------------------------------------------------------------------
 -----
 title
 -----
 Symbolic Z-matrix:
 Charge = -1 Multiplicity = 1

 SCF Done:  E(RHF) =  -862.481567264     A.U. after   16 cycles
 Normal termination of Gaussian 16 at Wed Apr  9 02:33:39 2025.
 Gaussian 16:  ES64L-G16RevC.01  3-Jul-2019

 ----------------------------------------------------------------------
 #t hf aug-cc-pvdz iop(5/13=1,5/36=2,99/5=2) pseudo=read geom=check gue
 ss=(read,tcheck) scf=(maxcycle=1)
 ----------------------------------------------------------------------
 -----
 title
 -----
 Structure from the checkpoint file:  "E2SN2_108_mol1.chk"
 Charge = -1 Multiplicity = 1

                         Standard orientation:
 ---------------------------------------------------------------------
 Center     Atomic      Atomic             Coordinates (Angstroms)
 Number     Number       Type             X           Y           Z
 ---------------------------------------------------------------------
      1          6           0        0.411973   -0.471224   -0.264271
      2          6           0       -0.671124    0.324939    0.389442
      3         17           0        2.131832    0.165802    0.241458
      4          9           0       -2.554900   -1.230318   -0.309810
      5          1           0       -1.789047   -0.434469   -0.054365
      6          6           0        0.394507   -1.923633    0.184081
      7          1           0        0.572204   -2.001677    1.257504
      8          1           0       -0.596838   -2.320282   -0.043759
      9          1           0        1.167973   -2.495607   -0.334067
     10          6           0        0.359263   -0.361539   -1.776882
     11          1           0        1.153264   -0.954156   -2.238423
     12          1           0       -0.616430   -0.739316   -2.094752
     13          1           0        0.460984    0.676151   -2.097455
     14          7           0       -0.751879    0.271288    1.841696
     15          1           0        0.177263    0.289153    2.254592
     16          1           0       -1.212726   -0.587962    2.112080
     17          6           0       -0.746162    1.679069   -0.091033
     18          7           0       -0.827327    2.776815   -0.516820
 ---------------------------------------------------------------------

 SCF Done:  E(RHF) =  -864.571020749     A.U. after    2 cycles

 The electronic state is 1-A.
 Alpha  occ. eigenvalues --  -99.72572 -28.99962 -15.59715 -15.59002 -11.35405
 Alpha  occ. eigenvalues --  -11.30341 -11.27351 -11.26657 -11.23404 -10.29850
 Alpha  occ. eigenvalues --   -9.49896  -9.49258  -9.49239  -1.26745  -1.15495
 Alpha  occ. eigenvalues --   -1.11514  -1.03677  -0.90153  -0.85987  -0.68897
 Alpha  occ. eigenvalues --   -0.63620  -0.53311  -0.50154  -0.49478  -0.48914
 Alpha  occ. eigenvalues --   -0.45119  -0.42681  -0.39294  -0.38699  -0.37303
 Alpha  occ. eigenvalues --   -0.35027  -0.33663  -0.31384  -0.30564  -0.26260
 Alpha  occ. eigenvalues --   -0.22535  -0.21429  -0.07063  -0.06633  -0.03176
 Alpha virt. eigenvalues --    0.13296   0.14209   0.14439   0.15803   0.16011
 Alpha virt. eigenvalues --    0.16558   0.16744   0.17609   0.18584   0.20192
 Alpha virt. eigenvalues --    0.21346   0.23125   0.23746   0.24552   0.25133

 Mulliken charges:
               1
     1  C    2.447136
     2  C    0.512128
     3  Cl  -0.556722
     4  F    0.780597
     5  H    0.870309
     6  C   -4.424120
     7  H    1.258197
     8  H    1.109590
     9  H    1.101330
    10  C   -4.236471
    11  H    1.183761
    12  H    1.220722
    13  H    1.184399
    14  N   -3.256128
    15  H    0.531378
    16  H    0.400962
    17  C    1.386816
    18  N   -2.513886
 Sum of Mulliken charges =  -1.00000

 Dipole moment (field-independent basis, Debye):
    X=              0.9062    Y=             -5.6166    Z=             -0.1732  Tot=              5.6918

 Test job not archived.
 1\1\GINC-SE070\SP\RHF\Aug-CC-pVDZ\C5H9Cl1F1N2(1-)\OHZDE\09-Apr-2025\0\
 \#t hf aug-cc-pvdz iop(5/13=1,5/36=2,99/5=2) pseudo=read geom=check gu
 ess=(read,tcheck) scf=(maxcycle=1)\\title\\-1,1\C,0,-0.15927251,0.0122
 5869,-0.34092349\C,0,-0.0249838,0.0904876,1.1457376\Cl,0,1.53808485,-0
 .20531825,-1.17225795\F,0,-2.51795359,-0.06696136,1.61124988\H,0,-1.40
 692985,0.1174819,1.48176079\C,0,-0.95635597,-1.20801979,-0.77265765\H,
 0,-0.45485476,-2.12784322,-0.46880724\H,0,-1.92810737,-1.15076995,-0.2
 7826125\H,0,-1.07576592,-1.22513879,-1.85862725\C,0,-0.74408761,1.2857

 Normal termination of Gaussian 16 at Wed Apr  9 02:33:48 2025.
