 Gaussian 16, Revision C.01,

 ----------------------------------------------------------------------
 #t hf aug-cc-pvdz symm=none int=(grid=ultrafine) guess=(read,tcheck) s
 table=(opt,rrhf)
 ----------------------------------------------------------------------
 -----
 title
 -----
 Symbolic Z-matrix:
 Charge = -1 Multiplicity = 1

 SCF Done:  E(RHF) =  -1387.07491430     A.U. after   16 cycles
 Normal termination of Gaussian 16 at Wed Apr  9 03:01:19 2025.
 Gaussian 16:  ES64L-G16RevC.01  3-Jul-2019

 ----------------------------------------------------------------------
 #t hf aug-cc-pvdz iop(5/13=1,5/36=2,99/5=2) pseudo=read geom=check gue
 ss=(read,tcheck) scf=(maxcycle=1)
 ----------------------------------------------------------------------
 -----
 title
 -----
 Structure from the checkpoint file:  "E2SN2_43_mol2.chk"
 Charge = -1 Multiplicity = 1

                         Standard orientation:
 ---------------------------------------------------------------------
 Center     Atomic      Atomic             Coordinates (Angstroms)
 Number     Number       Type             X           Y           Z
 ---------------------------------------------------------------------
      1          6           0       -0.282250   -0.483355   -0.027146
      2          6           0        0.212259    0.956837   -0.155181
      3         17           0       -0.667604   -0.780391    1.770831
      4          1           0        1.162112    0.952680    0.396217
      5          7           0       -1.655854   -0.717389   -0.676228
      6          8           0       -1.987218   -1.887732   -0.823146
      7          8           0       -2.316646    0.261012   -1.008299
      8          7           0        0.605968   -1.368020   -0.595451
      9          1           0        1.588392   -1.133627   -0.375313
     10          1           0        0.373900   -2.333750   -0.412361
     11          6           0       -0.675508    1.932368    0.476029
     12          7           0       -1.311419    2.791900    0.961630
     13          6           0        0.535146    1.350534   -1.600352
     14          1           0       -0.353137    1.308969   -2.231443
     15          1           0        0.927390    2.369501   -1.606391
     16          1           0        1.309587    0.688111   -1.980894
     17         17           0        3.444893   -0.179719    0.045168
 ---------------------------------------------------------------------

 SCF Done:  E(RHF) =  -1389.67198246     A.U. after    2 cycles

 The electronic state is 1-A.
 Alpha  occ. eigenvalues --  -99.78787 -99.63406 -21.01098 -21.00638 -15.90114
 Alpha  occ. eigenvalues --  -15.65513 -15.64726 -11.47665 -11.39305 -11.33532
 Alpha  occ. eigenvalues --  -11.28708 -10.36122 -10.20142  -9.56220  -9.55423
 Alpha  occ. eigenvalues --   -9.55382  -9.40247  -9.39871  -9.39705  -1.90434
 Alpha  occ. eigenvalues --   -1.60596  -1.35626  -1.20226  -1.18367  -1.09203
 Alpha  occ. eigenvalues --   -1.00163  -0.98988  -0.87272  -0.73024  -0.67072
 Alpha  occ. eigenvalues --   -0.62843  -0.59479  -0.56207  -0.53156  -0.50817
 Alpha  occ. eigenvalues --   -0.49771  -0.47497  -0.44815  -0.43045  -0.41913
 Alpha  occ. eigenvalues --   -0.39231  -0.37901  -0.33594  -0.31802  -0.29496
 Alpha  occ. eigenvalues --   -0.27970  -0.27308  -0.27279  -0.24589  -0.22631
 Alpha  occ. eigenvalues --   -0.22274
 Alpha virt. eigenvalues --    0.13370   0.14434   0.14666   0.16041   0.16295
 Alpha virt. eigenvalues --    0.17299   0.18648   0.18853   0.19486   0.21443
 Alpha virt. eigenvalues --    0.22295   0.23160   0.23575   0.23723   0.24771

 Mulliken charges:
               1
     1  C    3.117826
     2  C    1.225365
     3  Cl  -0.065090
     4  H    1.461100
     5  N    4.284954
     6  O   -2.973853
     7  O   -2.901505
     8  N   -3.652120
     9  H    0.536862
    10  H    0.676730
    11  C    0.972064
    12  N   -2.463620
    13  C   -4.086073
    14  H    1.382117
    15  H    1.153685
    16  H    1.291613
    17  Cl  -0.960054
 Sum of Mulliken charges =  -1.00000

 Dipole moment (field-independent basis, Debye):
    X=             -7.6119    Y=             -1.5847    Z=             -2.9211  Tot=              8.3057

 Test job not archived.
 1\1\GINC-SE029\SP\RHF\Aug-CC-pVDZ\C4H6Cl2N3O2(1-)\OHZDE\09-Apr-2025\0\
 \#t hf aug-cc-pvdz iop(5/13=1,5/36=2,99/5=2) pseudo=read geom=check gu
 ess=(read,tcheck) scf=(maxcycle=1)\\title\\-1,1\C,0,-0.291236,-0.02392
 4,-1.469668\C,0,-0.04353,-0.110147,0.035753\Cl,0,-0.022377,-1.726724,-
 2.175101\H,0,1.028363,-0.338586,0.107437\N,0,-1.763505,0.227778,-1.832
 9\O,0,-1.981712,0.550534,-2.994495\O,0,-2.609326,0.101781,-0.953754\N,
 0,0.458807,0.978328,-2.04191\H,0,1.423116,1.007565,-1.670679\H,0,0.418
 005,0.975642,-3.051038\C,0,-0.783283,-1.192498,0.683441\N,0,-1.321422,

 Normal termination of Gaussian 16 at Wed Apr  9 03:01:29 2025.
