 Gaussian 16, Revision C.01,

 ----------------------------------------------------------------------
 #t hf aug-cc-pvdz symm=none int=(grid=ultrafine) guess=(read,tcheck) s
 table=(opt,rrhf)
 ----------------------------------------------------------------------
 -----
 title
 -----
 Symbolic Z-matrix:
 Charge = -1 Multiplicity = 1

 SCF Done:  E(RHF) =  -685.462289333     A.U. after   15 cycles
 Normal termination of Gaussian 16 at Wed Apr  9 02:42:26 2025.
 Gaussian 16:  ES64L-G16RevC.01  3-Jul-2019

 ----------------------------------------------------------------------
 #t hf aug-cc-pvdz iop(5/13=1,5/36=2,99/5=2) pseudo=read geom=check gue
 ss=(read,tcheck) scf=(maxcycle=1)
 ----------------------------------------------------------------------
 -----
 title
 -----
 Structure from the checkpoint file:  "E2SN2_21_mol2.chk"
 Charge = -1 Multiplicity = 1

                         Standard orientation:
 ---------------------------------------------------------------------
 Center     Atomic      Atomic             Coordinates (Angstroms)
 Number     Number       Type             X           Y           Z
 ---------------------------------------------------------------------
      1          6           0        0.614273    0.358334   -0.344693
      2          6           0       -0.594018    0.867499    0.422521
      3         17           0        0.887426   -1.436318    0.080180
      4          1           0       -0.626231    1.944344    0.221808
      5          1           0        0.381152    0.289219   -1.413991
      6          1           0       -0.406904    0.737545    1.490777
      7          7           0        1.722753    1.147044    0.019532
      8          1           0        1.397506    2.167352   -0.010797
      9          1           0        2.466460    1.037030   -0.661029
     10          6           0       -1.844182    0.219349    0.052712
     11          7           0       -2.862779   -0.282207   -0.247316
     12          1           0        0.625522    3.516960   -0.178574
 ---------------------------------------------------------------------

 SCF Done:  E(RHF) =  -686.798998568     A.U. after    2 cycles

 The electronic state is 1-A.
 Alpha  occ. eigenvalues --  -99.74669 -15.64297 -15.58855 -11.36863 -11.33571
 Alpha  occ. eigenvalues --  -11.28842 -10.31982  -9.51904  -9.51214  -9.51147
 Alpha  occ. eigenvalues --   -1.28749  -1.17721  -1.12629  -0.99870  -0.76992
 Alpha  occ. eigenvalues --   -0.61751  -0.56387  -0.50808  -0.48394  -0.43695
 Alpha  occ. eigenvalues --   -0.41539  -0.38849  -0.36400  -0.35715  -0.30882
 Alpha  occ. eigenvalues --   -0.30068  -0.24195  -0.11783
 Alpha virt. eigenvalues --    0.14324   0.15298   0.15952   0.17280   0.18303
 Alpha virt. eigenvalues --    0.19573   0.21242   0.21378   0.22458   0.23753
 Alpha virt. eigenvalues --    0.24102   0.24863   0.26121   0.26970   0.27649

 Mulliken charges:
               1
     1  C   -0.987723
     2  C   -2.597048
     3  Cl  -0.036997
     4  H    1.685853
     5  H    1.859453
     6  H    1.429059
     7  N   -2.561585
     8  H    0.809173
     9  H    0.496669
    10  C    2.489980
    11  N   -2.578125
    12  H   -1.008709
 Sum of Mulliken charges =  -1.00000

 Dipole moment (field-independent basis, Debye):
    X=              0.3707    Y=             -8.2676    Z=              0.1369  Tot=              8.2770

 Test job not archived.
 1\1\GINC-SE024\SP\RHF\Aug-CC-pVDZ\C3H6Cl1N2(1-)\OHZDE\09-Apr-2025\0\\#
 t hf aug-cc-pvdz iop(5/13=1,5/36=2,99/5=2) pseudo=read geom=check gues
 s=(read,tcheck) scf=(maxcycle=1)\\title\\-1,1\C,0,-0.204606,-0.051934,
 -1.455414\C,0,-0.016584,0.058558,0.048007\Cl,0,-1.995623,-0.425039,-1.
 814514\H,0,1.064958,0.158556,0.193556\H,0,-0.096246,0.933968,-1.923148
 \H,0,-0.324365,-0.883842,0.506509\N,0,0.637977,-1.078906,-1.923211\H,0
 ,1.593102,-0.92697,-1.462357\H,0,0.76019,-0.99842,-2.926681\C,0,-0.740
 07,1.167476,0.653511\N,0,-1.303988,2.06809,1.153517\H,0,2.836117,-0.41

 Normal termination of Gaussian 16 at Wed Apr  9 02:42:30 2025.
