 Gaussian 16, Revision C.01,

 ----------------------------------------------------------------------
 #t hf aug-cc-pvdz symm=none int=(grid=ultrafine) guess=(read,tcheck) s
 table=(opt,rrhf)
 ----------------------------------------------------------------------
 -----
 title
 -----
 Symbolic Z-matrix:
 Charge = -1 Multiplicity = 1

 SCF Done:  E(RHF) =  -1295.32603031     A.U. after   15 cycles
 Normal termination of Gaussian 16 at Wed Apr  9 03:00:45 2025.
 Gaussian 16:  ES64L-G16RevC.01  3-Jul-2019

 ----------------------------------------------------------------------
 #t hf aug-cc-pvdz iop(5/13=1,5/36=2,99/5=2) pseudo=read geom=check gue
 ss=(read,tcheck) scf=(maxcycle=1)
 ----------------------------------------------------------------------
 -----
 title
 -----
 Structure from the checkpoint file:  "E2SN2_56_mol2.chk"
 Charge = -1 Multiplicity = 1

                         Standard orientation:
 ---------------------------------------------------------------------
 Center     Atomic      Atomic             Coordinates (Angstroms)
 Number     Number       Type             X           Y           Z
 ---------------------------------------------------------------------
      1          6           0       -0.225237    0.338908    0.094803
      2          6           0       -0.019388   -0.707013   -1.028867
      3         17           0       -0.764432    1.897315   -0.543111
      4          1           0        0.565862   -0.158986   -1.775101
      5          1           0        0.724067    0.488690    0.616164
      6          7           0       -1.231190   -0.193333    1.072578
      7          8           0       -0.797378   -1.073531    1.819042
      8          8           0       -2.400563    0.177364    1.032845
      9          6           0       -1.341416   -1.160649   -1.631137
     10          1           0       -1.903104   -1.767605   -0.913872
     11          1           0       -1.130991   -1.784382   -2.501104
     12          1           0       -1.969426   -0.319319   -1.930173
     13          7           0        0.776886   -1.846711   -0.625370
     14          1           0        0.357305   -2.278822    0.190847
     15          1           0        1.689263   -1.488745   -0.337734
     16         17           0        3.114251    0.333940    0.313501
 ---------------------------------------------------------------------

 SCF Done:  E(RHF) =  -1297.52712581     A.U. after    2 cycles

 The electronic state is 1-A.
 Alpha  occ. eigenvalues --  -99.78595 -99.61486 -20.99526 -20.99020 -15.88672
 Alpha  occ. eigenvalues --  -15.59895 -11.40019 -11.33291 -11.26969 -10.36044
 Alpha  occ. eigenvalues --  -10.18158  -9.56080  -9.55183  -9.55154  -9.38191
 Alpha  occ. eigenvalues --   -9.37888  -9.37717  -1.88764  -1.58711  -1.29296
 Alpha  occ. eigenvalues --   -1.20447  -1.04394  -0.97321  -0.96967  -0.81404
 Alpha  occ. eigenvalues --   -0.70309  -0.62818  -0.58734  -0.57450  -0.53702
 Alpha  occ. eigenvalues --   -0.49951  -0.47651  -0.45919  -0.42753  -0.40858
 Alpha  occ. eigenvalues --   -0.38272  -0.37835  -0.35710  -0.28237  -0.25419
 Alpha  occ. eigenvalues --   -0.25308  -0.24497  -0.22879  -0.20852  -0.20228
 Alpha virt. eigenvalues --    0.12702   0.14031   0.14513   0.15621   0.16042
 Alpha virt. eigenvalues --    0.16757   0.18293   0.18902   0.21225   0.22922
 Alpha virt. eigenvalues --    0.23404   0.23941   0.24412   0.25416   0.26066

 Mulliken charges:
               1
     1  C   -1.902057
     2  C    1.286069
     3  Cl  -0.008375
     4  H    1.837637
     5  H    1.786593
     6  N    4.685657
     7  O   -2.860127
     8  O   -2.951178
     9  C   -3.609021
    10  H    1.269330
    11  H    1.102700
    12  H    1.286997
    13  N   -3.110260
    14  H    0.693399
    15  H    0.486422
    16  Cl  -0.993785
 Sum of Mulliken charges =  -1.00000

 Dipole moment (field-independent basis, Debye):
    X=             -9.6119    Y=             -1.8014    Z=             -1.2334  Tot=              9.8567

 Test job not archived.
 1\1\GINC-SE459\SP\RHF\Aug-CC-pVDZ\C3H7Cl2N2O2(1-)\OHZDE\09-Apr-2025\0\
 \#t hf aug-cc-pvdz iop(5/13=1,5/36=2,99/5=2) pseudo=read geom=check gu
 ess=(read,tcheck) scf=(maxcycle=1)\\title\\-1,1\C,0,-0.142579,-0.27309
 5,-1.360126\C,0,0.040435,-0.230494,0.177291\Cl,0,0.362915,-1.823508,-2
 .043495\H,0,1.056065,-0.615735,0.318006\H,0,0.464326,0.517223,-1.81011
 8\N,0,-1.584712,-0.013582,-1.682884\O,0,-1.927794,1.164621,-1.563376\O
 ,0,-2.344508,-0.940762,-1.946466\C,0,-0.9619,-1.124425,0.89317\H,0,-1.
 971964,-0.709601,0.81539\H,0,-0.699237,-1.163,1.951322\H,0,-0.977589,-

 Normal termination of Gaussian 16 at Wed Apr  9 03:00:52 2025.
