 Gaussian 16, Revision C.01,

 ----------------------------------------------------------------------
 #t hf aug-cc-pvdz symm=none int=(grid=ultrafine) guess=(read,tcheck) s
 table=(opt,rrhf)
 ----------------------------------------------------------------------
 -----
 title
 -----
 Symbolic Z-matrix:
 Charge = -1 Multiplicity = 1

 SCF Done:  E(RHF) =  -823.523926775     A.U. after   14 cycles
 Normal termination of Gaussian 16 at Wed Apr  9 02:56:12 2025.
 Gaussian 16:  ES64L-G16RevC.01  3-Jul-2019

 ----------------------------------------------------------------------
 #t hf aug-cc-pvdz iop(5/13=1,5/36=2,99/5=2) pseudo=read geom=check gue
 ss=(read,tcheck) scf=(maxcycle=1)
 ----------------------------------------------------------------------
 -----
 title
 -----
 Structure from the checkpoint file:  "E2SN2_373_mol2.chk"
 Charge = -1 Multiplicity = 1

                         Standard orientation:
 ---------------------------------------------------------------------
 Center     Atomic      Atomic             Coordinates (Angstroms)
 Number     Number       Type             X           Y           Z
 ---------------------------------------------------------------------
      1          6           0        0.192935    0.823753    0.493572
      2          6           0        0.544138   -0.614221    0.089327
      3          9           0        1.328134    1.360325    1.124210
      4          1           0       -0.365014   -0.990372   -0.394610
      5          1           0       -0.608969    0.774331    1.230424
      6          7           0       -0.221385    1.688735   -0.556085
      7          1           0       -1.189149    1.442503   -0.757558
      8          1           0        0.335422    1.531682   -1.388886
      9          6           0        0.879184   -1.489917    1.296536
     10          1           0        1.737806   -1.088727    1.837304
     11          1           0        1.098628   -2.515022    0.990080
     12          1           0        0.012266   -1.510110    1.960528
     13          6           0        1.639751   -0.607228   -0.880243
     14          7           0        2.522538   -0.596278   -1.655386
     15         17           0       -2.859901   -0.365219   -0.241766
 ---------------------------------------------------------------------

 SCF Done:  E(RHF) =  -825.370620305     A.U. after    2 cycles

 The electronic state is 1-A.
 Alpha  occ. eigenvalues --  -99.61765 -29.12727 -15.65047 -15.60883 -11.38159
 Alpha  occ. eigenvalues --  -11.35041 -11.31419 -11.27672 -10.18410  -9.38425
 Alpha  occ. eigenvalues --   -9.38118  -9.38017  -1.29116  -1.18799  -1.08025
 Alpha  occ. eigenvalues --   -0.97418  -0.90929  -0.82862  -0.65008  -0.56802
 Alpha  occ. eigenvalues --   -0.53822  -0.50928  -0.46188  -0.44107  -0.43099
 Alpha  occ. eigenvalues --   -0.41960  -0.38156  -0.32579  -0.31662  -0.26843
 Alpha  occ. eigenvalues --   -0.25753  -0.25340  -0.24991  -0.21541  -0.13476
 Alpha  occ. eigenvalues --   -0.13236
 Alpha virt. eigenvalues --    0.13009   0.14382   0.15226   0.15875   0.16642
 Alpha virt. eigenvalues --    0.17382   0.18748   0.19426   0.21378   0.22907
 Alpha virt. eigenvalues --    0.22944   0.23895   0.24712   0.25503   0.26135

 Mulliken charges:
               1
     1  C    0.235728
     2  C   -0.690343
     3  F    0.068214
     4  H    1.541165
     5  H    1.808827
     6  N   -2.905011
     7  H    0.466331
     8  H    0.563804
     9  C   -3.946658
    10  H    1.296406
    11  H    1.230474
    12  H    1.254075
    13  C    1.454534
    14  N   -2.410778
    15  Cl  -0.966768
 Sum of Mulliken charges =  -1.00000

 Dipole moment (field-independent basis, Debye):
    X=              8.2806    Y=              1.0618    Z=              3.4386  Tot=              9.0289

 Test job not archived.
 1\1\GINC-SE462\SP\RHF\Aug-CC-pVDZ\C4H7Cl1F1N2(1-)\OHZDE\09-Apr-2025\0\
 \#t hf aug-cc-pvdz iop(5/13=1,5/36=2,99/5=2) pseudo=read geom=check gu
 ess=(read,tcheck) scf=(maxcycle=1)\\title\\-1,1\C,0,-0.058225,0.039958
 ,-0.011502\C,0,-0.438079,0.226891,-1.486389\F,0,1.340394,-0.085325,0.0
 38084\H,0,-1.530653,0.318661,-1.476256\H,0,-0.492104,-0.901601,0.32563
 2\N,0,-0.475697,1.065638,0.880312\H,0,-1.46702,0.903827,1.050272\H,0,-
 0.362626,1.978205,0.452884\C,0,-0.034694,-0.971744,-2.344882\H,0,1.044
 758,-1.126695,-2.307622\H,0,-0.338576,-0.831034,-3.384482\H,0,-0.53991

 Normal termination of Gaussian 16 at Wed Apr  9 02:56:17 2025.
