 Gaussian 16, Revision C.01,

 ----------------------------------------------------------------------
 #t hf aug-cc-pvdz symm=none int=(grid=ultrafine) guess=(read,tcheck) s
 table=(opt,rrhf)
 ----------------------------------------------------------------------
 -----
 title
 -----
 Symbolic Z-matrix:
 Charge = -1 Multiplicity = 1

 SCF Done:  E(RHF) =  -974.243372345     A.U. after   16 cycles
 Normal termination of Gaussian 16 at Wed Apr  9 03:02:55 2025.
 Gaussian 16:  ES64L-G16RevC.01  3-Jul-2019

 ----------------------------------------------------------------------
 #t hf aug-cc-pvdz iop(5/13=1,5/36=2,99/5=2) pseudo=read geom=check gue
 ss=(read,tcheck) scf=(maxcycle=1)
 ----------------------------------------------------------------------
 -----
 title
 -----
 Structure from the checkpoint file:  "E2SN2_78_mol2.chk"
 Charge = -1 Multiplicity = 1

                         Standard orientation:
 ---------------------------------------------------------------------
 Center     Atomic      Atomic             Coordinates (Angstroms)
 Number     Number       Type             X           Y           Z
 ---------------------------------------------------------------------
      1          6           0       -0.211043    0.045845   -0.362238
      2          6           0        0.692960   -0.447756    0.794832
      3         17           0       -1.213265   -1.302776   -1.003531
      4          1           0        1.197233    0.476196    1.122744
      5          7           0       -1.157197    1.084801    0.229801
      6          8           0       -2.348594    0.837591    0.395774
      7          8           0       -0.606141    2.132849    0.560379
      8          6           0        0.575483    0.689731   -1.486021
      9          1           0       -0.070022    1.343228   -2.079255
     10          1           0        1.466876    1.184476   -1.064565
     11          1           0        0.958085   -0.102729   -2.129495
     12          7           0        1.768102   -1.303136    0.349060
     13          1           0        2.475876   -0.628462   -0.025138
     14          1           0        1.445173   -1.953253   -0.358458
     15          6           0       -0.102722   -1.069286    1.936056
     16          1           0       -0.895448   -0.416611    2.314310
     17          1           0       -0.554332   -2.014811    1.626288
     18          1           0        0.597519   -1.279123    2.746385
     19          9           0        3.070892    0.887990   -0.232200
 ---------------------------------------------------------------------

 SCF Done:  E(RHF) =  -976.750384823     A.U. after    2 cycles

 The electronic state is 1-A.
 Alpha  occ. eigenvalues --  -99.77275 -28.89484 -20.98163 -20.97753 -15.87219
 Alpha  occ. eigenvalues --  -15.56112 -11.41345 -11.31422 -11.26283 -11.23930
 Alpha  occ. eigenvalues --  -10.34742  -9.54846  -9.54058  -9.53959  -1.87554
 Alpha  occ. eigenvalues --   -1.57409  -1.28573  -1.17984  -1.05733  -0.95650
 Alpha  occ. eigenvalues --   -0.89481  -0.77547  -0.66952  -0.60739  -0.57871
 Alpha  occ. eigenvalues --   -0.54108  -0.52818  -0.49604  -0.46045  -0.45313
 Alpha  occ. eigenvalues --   -0.42558  -0.41926  -0.40442  -0.38163  -0.35996
 Alpha  occ. eigenvalues --   -0.34434  -0.33354  -0.26940  -0.24547  -0.19962
 Alpha  occ. eigenvalues --   -0.19613  -0.18782   0.01340   0.02094   0.03312
 Alpha virt. eigenvalues --    0.13615   0.14257   0.14483   0.15398   0.15720
 Alpha virt. eigenvalues --    0.16441   0.17025   0.19286   0.19516   0.20146
 Alpha virt. eigenvalues --    0.21159   0.22793   0.24639   0.25125   0.25622

 Mulliken charges:
               1
     1  C    2.722039
     2  C    1.005888
     3  Cl  -0.194497
     4  H    1.984916
     5  N    3.876822
     6  O   -2.914124
     7  O   -2.944527
     8  C   -4.320662
     9  H    1.103487
    10  H    0.815865
    11  H    1.284247
    12  N   -3.051806
    13  H    0.119555
    14  H    0.484901
    15  C   -3.849433
    16  H    1.229181
    17  H    1.254435
    18  H    1.173285
    19  F   -0.779572
 Sum of Mulliken charges =  -1.00000

 Dipole moment (field-independent basis, Debye):
    X=             -5.9153    Y=             -0.7878    Z=              0.3416  Tot=              5.9773

 Test job not archived.
 1\1\GINC-SE023\SP\RHF\Aug-CC-pVDZ\C4H9Cl1F1N2O2(1-)\OHZDE\09-Apr-2025\
 0\\#t hf aug-cc-pvdz iop(5/13=1,5/36=2,99/5=2) pseudo=read geom=check
 guess=(read,tcheck) scf=(maxcycle=1)\\title\\-1,1\C,0,-0.222855,0.0123
 76,-1.502618\C,0,0.043885,0.141064,0.017896\Cl,0,-1.953901,-0.36382,-1
 .813171\H,0,1.108632,0.424486,0.056524\N,0,0.072477,1.375433,-2.119061
 \O,0,-0.833274,2.099553,-2.523231\O,0,1.263723,1.679183,-2.114787\C,0,
 0.661999,-1.023002,-2.16679\H,0,0.729729,-0.835384,-3.241906\H,0,1.633
 035,-1.055684,-1.644295\H,0,0.212749,-2.003817,-2.009909\N,0,-0.015013

 Normal termination of Gaussian 16 at Wed Apr  9 03:03:06 2025.
