 Gaussian 16, Revision C.01,

 ----------------------------------------------------------------------
 #t hf aug-cc-pvdz symm=none int=(grid=ultrafine) guess=(read,tcheck) s
 table=(opt,rrhf)
 ----------------------------------------------------------------------
 -----
 title
 -----
 Symbolic Z-matrix:
 Charge = -1 Multiplicity = 1

 SCF Done:  E(RHF) =  -364.429102389     A.U. after   15 cycles
 Normal termination of Gaussian 16 at Wed Apr  9 02:36:45 2025.
 Gaussian 16:  ES64L-G16RevC.01  3-Jul-2019

 ----------------------------------------------------------------------
 #t hf aug-cc-pvdz iop(5/13=1,5/36=2,99/5=2) pseudo=read geom=check gue
 ss=(read,tcheck) scf=(maxcycle=1)
 ----------------------------------------------------------------------
 -----
 title
 -----
 Structure from the checkpoint file:  "E2SN2_146_mol2.chk"
 Charge = -1 Multiplicity = 1

                         Standard orientation:
 ---------------------------------------------------------------------
 Center     Atomic      Atomic             Coordinates (Angstroms)
 Number     Number       Type             X           Y           Z
 ---------------------------------------------------------------------
      1          6           0        0.301103   -0.635359   -0.094834
      2          6           0       -0.803832    0.359514   -0.465225
      3          9           0        0.160047   -1.005909    1.253812
      4          1           0       -0.626427    0.603825   -1.519369
      5          1           0        0.134607   -1.523762   -0.735382
      6          6           0        1.650951   -0.084156   -0.261402
      7          7           0        2.721438    0.374971   -0.417647
      8          6           0       -0.753358    1.623384    0.380859
      9          1           0       -1.576374    2.279370    0.091041
     10          1           0       -0.871751    1.371845    1.438465
     11          1           0        0.193775    2.157563    0.260967
     12          7           0       -2.111698   -0.275377   -0.391833
     13          1           0       -2.207210   -0.661310    0.544016
     14          1           0       -2.042260   -1.091299   -1.027552
     15          1           0       -1.082149   -2.360506   -2.026518
 ---------------------------------------------------------------------

 SCF Done:  E(RHF) =  -366.051215403     A.U. after    2 cycles

 The electronic state is 1-A.
 Alpha  occ. eigenvalues --  -29.14427 -15.65668 -15.58091 -11.38804 -11.32968
 Alpha  occ. eigenvalues --  -11.30599 -11.25769  -1.26871  -1.18243  -1.05141
 Alpha  occ. eigenvalues --   -0.95055  -0.74851  -0.65056  -0.58468  -0.53455
 Alpha  occ. eigenvalues --   -0.50682  -0.45699  -0.42169  -0.40460  -0.37067
 Alpha  occ. eigenvalues --   -0.34935  -0.33338  -0.32215  -0.26382  -0.22220
 Alpha  occ. eigenvalues --   -0.15197  -0.14468  -0.09291
 Alpha virt. eigenvalues --    0.13110   0.14438   0.14799   0.15568   0.16343
 Alpha virt. eigenvalues --    0.17900   0.19043   0.20355   0.21536   0.23213
 Alpha virt. eigenvalues --    0.24116   0.24192   0.24708   0.25418   0.25998

 Mulliken charges:
               1
     1  C    0.189672
     2  C   -0.554250
     3  F    0.003193
     4  H    1.908946
     5  H    1.775010
     6  C    1.002858
     7  N   -2.342549
     8  C   -3.936063
     9  H    1.092572
    10  H    1.193825
    11  H    1.256874
    12  N   -2.745222
    13  H    0.565735
    14  H    0.658538
    15  H   -1.069138
 Sum of Mulliken charges =  -1.00000

 Dipole moment (field-independent basis, Debye):
    X=              1.3283    Y=              6.6660    Z=              9.1376  Tot=             11.3884

 Test job not archived.
 1\1\GINC-SE113\SP\RHF\Aug-CC-pVDZ\C4H8F1N2(1-)\OHZDE\09-Apr-2025\0\\#t
  hf aug-cc-pvdz iop(5/13=1,5/36=2,99/5=2) pseudo=read geom=check guess
 =(read,tcheck) scf=(maxcycle=1)\\title\\-1,1\C,0,-0.112038,-0.104623,-
 1.379947\C,0,0.085789,-0.24739,0.132774\F,0,-1.40549,0.382855,-1.63567
 4\H,0,1.105111,-0.633513,0.252233\H,0,0.6318,0.64611,-1.712195\C,0,0.0
 30665,-1.374725,-2.101152\N,0,0.164912,-2.401289,-2.657296\C,0,-0.9146
 15,-1.20724,0.760192\H,0,-0.742433,-1.247577,1.837408\H,0,-1.934284,-0
 .851048,0.589248\H,0,-0.830609,-2.215027,0.34295\N,0,0.047791,1.055677

 Normal termination of Gaussian 16 at Wed Apr  9 02:36:50 2025.
