 Gaussian 16, Revision C.01,

 ----------------------------------------------------------------------
 #t hf aug-cc-pvdz symm=none int=(grid=ultrafine) guess=(read,tcheck) s
 table=(opt,rrhf)
 ----------------------------------------------------------------------
 -----
 title
 -----
 Symbolic Z-matrix:
 Charge = -1 Multiplicity = 1

 SCF Done:  E(RHF) =  -684.552544773     A.U. after   15 cycles
 Normal termination of Gaussian 16 at Wed Apr  9 02:42:02 2025.
 Gaussian 16:  ES64L-G16RevC.01  3-Jul-2019

 ----------------------------------------------------------------------
 #t hf aug-cc-pvdz iop(5/13=1,5/36=2,99/5=2) pseudo=read geom=check gue
 ss=(read,tcheck) scf=(maxcycle=1)
 ----------------------------------------------------------------------
 -----
 title
 -----
 Structure from the checkpoint file:  "E2SN2_211_mol1.chk"
 Charge = -1 Multiplicity = 1

                         Standard orientation:
 ---------------------------------------------------------------------
 Center     Atomic      Atomic             Coordinates (Angstroms)
 Number     Number       Type             X           Y           Z
 ---------------------------------------------------------------------
      1          6           0       -0.432686    0.331959   -0.323735
      2          1           0        0.795466    1.453763    1.024904
      3          9           0        0.108575   -1.240323   -0.834056
      4          9           0       -1.143899    1.836178    0.191377
      5          6           0        0.678423    0.430268    0.679617
      6          1           0       -0.361331    0.697046   -1.329537
      7          1           0        0.485839   -0.253888    1.498941
      8          7           0       -1.709504   -0.315355    0.061624
      9          8           0       -1.825206   -0.739562    1.207365
     10          8           0       -2.575744   -0.377018   -0.801468
     11          7           0        1.989691    0.046014    0.088736
     12          8           0        2.692318   -0.747665    0.711246
     13          8           0        2.328908    0.620796   -0.941895
 ---------------------------------------------------------------------

 SCF Done:  E(RHF) =  -687.307936686     A.U. after    2 cycles

 The electronic state is 1-A.
 Alpha  occ. eigenvalues --  -29.00454 -29.00128 -20.97190 -20.96768 -20.95560
 Alpha  occ. eigenvalues --  -20.95323 -15.86751 -15.86040 -11.47741 -11.33046
 Alpha  occ. eigenvalues --   -1.86894  -1.85065  -1.56307  -1.55427  -1.18648
 Alpha  occ. eigenvalues --   -1.02526  -0.78327  -0.72640  -0.67076  -0.60109
 Alpha  occ. eigenvalues --   -0.57724  -0.56116  -0.51856  -0.47653  -0.44986
 Alpha  occ. eigenvalues --   -0.42248  -0.40274  -0.35952  -0.24438  -0.24202
 Alpha  occ. eigenvalues --   -0.19837  -0.18662  -0.18523  -0.17421  -0.16325
 Alpha  occ. eigenvalues --   -0.07434  -0.06135  -0.05175  -0.04673   0.01650
 Alpha virt. eigenvalues --    0.15159   0.16005   0.16605   0.22097   0.22870
 Alpha virt. eigenvalues --    0.24106   0.25055   0.25592   0.25842   0.27029
 Alpha virt. eigenvalues --    0.27454   0.27948   0.28673   0.30646   0.30889

 Mulliken charges:
               1
     1  C   -0.276653
     2  H    1.362736
     3  F   -0.659466
     4  F   -0.612684
     5  C   -2.360466
     6  H    1.458624
     7  H    1.430228
     8  N    6.069795
     9  O   -3.209732
    10  O   -3.430488
    11  N    5.122285
    12  O   -2.915047
    13  O   -2.979133
 Sum of Mulliken charges =  -1.00000

 Dipole moment (field-independent basis, Debye):
    X=              1.4906    Y=             -0.1302    Z=              0.2710  Tot=              1.5207

 Test job not archived.
 1\1\GINC-SE252\SP\RHF\Aug-CC-pVDZ\C2H3F2N2O4(1-)\OHZDE\09-Apr-2025\0\\
 #t hf aug-cc-pvdz iop(5/13=1,5/36=2,99/5=2) pseudo=read geom=check gue
 ss=(read,tcheck) scf=(maxcycle=1)\\title\\-1,1\C,0,0.62292512,-0.07410
 095,0.02156071\H,0,1.90272169,1.57414718,0.5022129\F,0,-1.0895463,0.20
 615356,-0.09826457\F,0,2.31910861,-0.46948866,-0.00009993\C,0,0.893321
 47,1.39676378,0.14150572\H,0,0.47091241,-0.72250336,0.86208758\H,0,0.7
 1546793,1.8751979,-0.8155309\N,0,0.53958553,-0.69409369,-1.32247925\O,
 0,0.71372433,0.01985595,-2.30533903\O,0,0.30552539,-1.89533598,-1.3589

 Normal termination of Gaussian 16 at Wed Apr  9 02:42:07 2025.
