 Gaussian 16, Revision C.01,

 ----------------------------------------------------------------------
 #t hf aug-cc-pvdz symm=none int=(grid=ultrafine) guess=(read,tcheck) s
 table=(opt,rrhf)
 ----------------------------------------------------------------------
 -----
 title
 -----
 Symbolic Z-matrix:
 Charge = -1 Multiplicity = 1

 SCF Done:  E(RHF) =  -876.149442604     A.U. after   16 cycles
 Normal termination of Gaussian 16 at Wed Apr  9 02:46:41 2025.
 Gaussian 16:  ES64L-G16RevC.01  3-Jul-2019

 ----------------------------------------------------------------------
 #t hf aug-cc-pvdz iop(5/13=1,5/36=2,99/5=2) pseudo=read geom=check gue
 ss=(read,tcheck) scf=(maxcycle=1)
 ----------------------------------------------------------------------
 -----
 title
 -----
 Structure from the checkpoint file:  "E2SN2_253_mol2.chk"
 Charge = -1 Multiplicity = 1

                         Standard orientation:
 ---------------------------------------------------------------------
 Center     Atomic      Atomic             Coordinates (Angstroms)
 Number     Number       Type             X           Y           Z
 ---------------------------------------------------------------------
      1          6           0        0.536790    0.120788    0.195225
      2          6           0       -0.556216   -0.254885   -0.820461
      3         17           0        2.107832   -0.577689   -0.317343
      4          1           0       -0.243903    0.062230   -1.824349
      5          1           0        0.190734   -0.398565    1.143722
      6          6           0        0.690693    1.558889    0.326059
      7          7           0        0.820424    2.721765    0.443592
      8          6           0       -1.777338    0.517420   -0.485063
      9          7           0       -2.790238    1.088591   -0.313721
     10          7           0       -0.752664   -1.690770   -0.773900
     11          1           0       -0.922170   -1.876844    0.240090
     12          1           0       -1.580604   -1.924813   -1.309943
     13          9           0       -0.842604   -1.392407    1.817661
 ---------------------------------------------------------------------

 SCF Done:  E(RHF) =  -878.179353600     A.U. after    2 cycles

 The electronic state is 1-A.
 Alpha  occ. eigenvalues --  -99.77359 -28.92863 -15.65355 -15.64351 -15.59724
 Alpha  occ. eigenvalues --  -11.39160 -11.35691 -11.32570 -11.30584 -10.34693
 Alpha  occ. eigenvalues --   -9.54692  -9.53925  -9.53793  -1.31189  -1.20404
 Alpha  occ. eigenvalues --   -1.16778  -1.15432  -0.99048  -0.83892  -0.65925
 Alpha  occ. eigenvalues --   -0.63304  -0.54134  -0.50317  -0.47689  -0.46185
 Alpha  occ. eigenvalues --   -0.42898  -0.40274  -0.39661  -0.37155  -0.34244
 Alpha  occ. eigenvalues --   -0.32101  -0.31534  -0.30749  -0.26009  -0.23642
 Alpha  occ. eigenvalues --   -0.01829  -0.01401   0.00335
 Alpha virt. eigenvalues --    0.13565   0.14815   0.16362   0.18159   0.18985
 Alpha virt. eigenvalues --    0.19242   0.19858   0.21543   0.22642   0.22763
 Alpha virt. eigenvalues --    0.23659   0.24786   0.25862   0.26379   0.26736

 Mulliken charges:
               1
     1  C   -2.296041
     2  C    1.484790
     3  Cl  -0.054526
     4  H    1.833072
     5  H    1.388915
     6  C    2.290477
     7  N   -2.545514
     8  C    2.173465
     9  N   -2.613059
    10  N   -2.902617
    11  H    0.218400
    12  H    0.553869
    13  F   -0.531229
 Sum of Mulliken charges =  -1.00000

 Dipole moment (field-independent basis, Debye):
    X=              0.9666    Y=             -1.0334    Z=             -2.9132  Tot=              3.2387

 Test job not archived.
 1\1\GINC-SE023\SP\RHF\Aug-CC-pVDZ\C4H4Cl1F1N3(1-)\OHZDE\09-Apr-2025\0\
 \#t hf aug-cc-pvdz iop(5/13=1,5/36=2,99/5=2) pseudo=read geom=check gu
 ess=(read,tcheck) scf=(maxcycle=1)\\title\\-1,1\C,0,-0.208584,0.13608,
 0.045062\C,0,-0.44164,0.131238,-1.475817\Cl,0,1.18019,-0.925157,0.4498
 47\H,0,0.488133,0.414558,-1.98684\H,0,-1.162214,-0.329166,0.449124\C,0
 ,0.064819,1.469149,0.552128\N,0,0.282351,2.544949,0.974337\C,0,-1.4422
 3,1.180542,-1.788654\N,0,-2.215504,1.990793,-2.145165\N,0,-0.86007,-1.
 199289,-1.872226\H,0,-1.667182,-1.395583,-1.23853\H,0,-1.177392,-1.168

 Normal termination of Gaussian 16 at Wed Apr  9 02:46:46 2025.
