 Gaussian 16, Revision C.01,

 ----------------------------------------------------------------------
 #t hf aug-cc-pvdz symm=none int=(grid=ultrafine) guess=(read,tcheck) s
 table=(opt,rrhf)
 ----------------------------------------------------------------------
 -----
 title
 -----
 Symbolic Z-matrix:
 Charge = -1 Multiplicity = 1

 SCF Done:  E(RHF) =  -479.428670513     A.U. after   14 cycles
 Normal termination of Gaussian 16 at Wed Apr  9 02:59:06 2025.
 Gaussian 16:  ES64L-G16RevC.01  3-Jul-2019

 ----------------------------------------------------------------------
 #t hf aug-cc-pvdz iop(5/13=1,5/36=2,99/5=2) pseudo=read geom=check gue
 ss=(read,tcheck) scf=(maxcycle=1)
 ----------------------------------------------------------------------
 -----
 title
 -----
 Structure from the checkpoint file:  "E2SN2_413_mol2.chk"
 Charge = -1 Multiplicity = 1

                         Standard orientation:
 ---------------------------------------------------------------------
 Center     Atomic      Atomic             Coordinates (Angstroms)
 Number     Number       Type             X           Y           Z
 ---------------------------------------------------------------------
      1          6           0       -0.333346    0.631208    0.004630
      2          6           0        0.493960   -0.371884   -0.815048
      3          9           0        0.358305    1.849053    0.016460
      4          1           0        0.568411   -0.021211   -1.846847
      5          1           0       -0.109507   -1.291936   -0.758140
      6          7           0       -1.578183    0.793309   -0.684467
      7          1           0       -2.147631    1.375074   -0.075460
      8          1           0       -1.970815   -0.165466   -0.620265
      9          7           0       -0.539926    0.232614    1.370135
     10          1           0       -1.070113   -0.646318    1.252078
     11          1           0        0.353669    0.024944    1.805950
     12          6           0        1.826287   -0.571829   -0.263926
     13          7           0        2.896790   -0.733957    0.191582
     14          9           0       -1.802326   -1.787254    0.044429
 ---------------------------------------------------------------------

 SCF Done:  E(RHF) =  -481.422166619     A.U. after    2 cycles

 The electronic state is 1-A.
 Alpha  occ. eigenvalues --  -29.11056 -28.91591 -15.63385 -15.57753 -15.57419
 Alpha  occ. eigenvalues --  -11.37365 -11.32702 -11.27121  -1.32761  -1.17414
 Alpha  occ. eigenvalues --   -1.10585  -0.99592  -0.82229  -0.63451  -0.55472
 Alpha  occ. eigenvalues --   -0.52987  -0.49711  -0.45789  -0.45038  -0.43782
 Alpha  occ. eigenvalues --   -0.37545  -0.31438  -0.30974  -0.28775  -0.24129
 Alpha  occ. eigenvalues --   -0.23746  -0.19969  -0.12325  -0.11869  -0.00284
 Alpha  occ. eigenvalues --   -0.00064   0.01495
 Alpha virt. eigenvalues --    0.14622   0.15311   0.16474   0.17981   0.18641
 Alpha virt. eigenvalues --    0.19485   0.20134   0.20838   0.22453   0.24271
 Alpha virt. eigenvalues --    0.24958   0.26341   0.27536   0.27999   0.28834

 Mulliken charges:
               1
     1  C    6.044874
     2  C   -2.903274
     3  F    0.394346
     4  H    1.400415
     5  H    1.170624
     6  N   -3.797779
     7  H    0.483190
     8  H    0.321902
     9  N   -3.470397
    10  H    0.198049
    11  H    0.606955
    12  C    2.014094
    13  N   -2.521992
    14  F   -0.941008
 Sum of Mulliken charges =  -1.00000

 Dipole moment (field-independent basis, Debye):
    X=              1.8527    Y=              4.3431    Z=             -0.4146  Tot=              4.7399

 Test job not archived.
 1\1\GINC-SE042\SP\RHF\Aug-CC-pVDZ\C3H6F2N3(1-)\OHZDE\09-Apr-2025\0\\#t
  hf aug-cc-pvdz iop(5/13=1,5/36=2,99/5=2) pseudo=read geom=check guess
 =(read,tcheck) scf=(maxcycle=1)\\title\\-1,1\C,0,-0.008656,0.001092,-0
 .005128\C,0,-0.456492,0.124789,-1.470271\F,0,1.391768,-0.003376,0.0162
 95\H,0,-0.114267,1.080566,-1.87338\H,0,-1.555396,0.104679,-1.393389\N,
 0,-0.494933,1.166478,0.670268\H,0,-0.280621,1.015688,1.652584\H,0,-1.5
 21016,1.041855,0.574587\N,0,-0.459465,-1.202382,0.638751\H,0,-1.485606
 ,-1.090407,0.593432\H,0,-0.189149,-2.009777,0.085023\C,0,0.041449,-0.9

 Normal termination of Gaussian 16 at Wed Apr  9 02:59:10 2025.
