 Gaussian 16, Revision C.01,

 ----------------------------------------------------------------------
 #t hf aug-cc-pvdz symm=none int=(grid=ultrafine) guess=(read,tcheck) s
 table=(opt,rrhf)
 ----------------------------------------------------------------------
 -----
 title
 -----
 Symbolic Z-matrix:
 Charge = -1 Multiplicity = 1

 SCF Done:  E(RHF) =  -935.180938141     A.U. after   16 cycles
 Normal termination of Gaussian 16 at Wed Apr  9 02:39:12 2025.
 Gaussian 16:  ES64L-G16RevC.01  3-Jul-2019

 ----------------------------------------------------------------------
 #t hf aug-cc-pvdz iop(5/13=1,5/36=2,99/5=2) pseudo=read geom=check gue
 ss=(read,tcheck) scf=(maxcycle=1)
 ----------------------------------------------------------------------
 -----
 title
 -----
 Structure from the checkpoint file:  "E2SN2_172_mol1.chk"
 Charge = -1 Multiplicity = 1

                         Standard orientation:
 ---------------------------------------------------------------------
 Center     Atomic      Atomic             Coordinates (Angstroms)
 Number     Number       Type             X           Y           Z
 ---------------------------------------------------------------------
      1          6           0       -0.119786   -0.083642   -0.496757
      2          1           0        0.807577   -1.872192   -0.102139
      3         17           0        0.465924    1.913176   -0.190123
      4          9           0       -0.980584   -1.825731   -0.973262
      5          6           0        1.093607   -0.830891    0.029404
      6          1           0       -0.238750    0.020841   -1.556375
      7          7           0       -1.399587    0.008722    0.236949
      8          8           0       -1.439977   -0.376499    1.402336
      9          8           0       -2.337695    0.511920   -0.367391
     10          6           0        1.492802   -0.594700    1.483598
     11          1           0        1.752296    0.450812    1.656753
     12          1           0        0.697462   -0.877941    2.169962
     13          1           0        2.375289   -1.210561    1.693045
     14          7           0        2.181272   -0.554149   -0.919979
     15          1           0        2.938045   -1.198673   -0.720579
     16          1           0        2.522478    0.385309   -0.745047
 ---------------------------------------------------------------------

 SCF Done:  E(RHF) =  -937.486772236     A.U. after    2 cycles

 The electronic state is 1-A.
 Alpha  occ. eigenvalues --  -99.70292 -28.92614 -20.94166 -20.93970 -15.85205
 Alpha  occ. eigenvalues --  -15.61060 -11.42053 -11.31005 -11.24502 -10.27381
 Alpha  occ. eigenvalues --   -9.47438  -9.47009  -9.46872  -1.84355  -1.54117
 Alpha  occ. eigenvalues --   -1.25349  -1.11772  -1.02866  -0.94792  -0.79854
 Alpha  occ. eigenvalues --   -0.67991  -0.59866  -0.56853  -0.54789  -0.48170
 Alpha  occ. eigenvalues --   -0.46684  -0.44698  -0.42609  -0.40425  -0.37967
 Alpha  occ. eigenvalues --   -0.33996  -0.33790  -0.32953  -0.28605  -0.23580
 Alpha  occ. eigenvalues --   -0.20989  -0.16861  -0.16111  -0.02888  -0.00489
 Alpha  occ. eigenvalues --    0.00845
 Alpha virt. eigenvalues --    0.12589   0.13947   0.15158   0.15545   0.16149
 Alpha virt. eigenvalues --    0.17118   0.17415   0.20571   0.23058   0.23951
 Alpha virt. eigenvalues --    0.25730   0.25928   0.26299   0.27163   0.27425

 Mulliken charges:
               1
     1  C   -1.485972
     2  H    1.159255
     3  Cl  -0.551842
     4  F   -0.626525
     5  C    1.613622
     6  H    1.679651
     7  N    5.745826
     8  O   -3.143212
     9  O   -3.285155
    10  C   -3.827409
    11  H    1.248330
    12  H    1.396010
    13  H    1.111453
    14  N   -3.129303
    15  H    0.558376
    16  H    0.536895
 Sum of Mulliken charges =  -1.00000

 Dipole moment (field-independent basis, Debye):
    X=              1.8950    Y=             -3.9040    Z=              0.6377  Tot=              4.3862

 Test job not archived.
 1\1\GINC-SE340\SP\RHF\Aug-CC-pVDZ\C3H7Cl1F1N2O2(1-)\OHZDE\09-Apr-2025\
 0\\#t hf aug-cc-pvdz iop(5/13=1,5/36=2,99/5=2) pseudo=read geom=check
 guess=(read,tcheck) scf=(maxcycle=1)\\title\\-1,1\C,0,0.56734234,-0.01
 178201,0.05434024\H,0,1.63845268,1.73588762,0.16840125\Cl,0,-1.4970955
 9,-0.40395176,-0.03874066\F,0,2.56781769,-0.02132062,0.08451817\C,0,0.
 57715053,1.50650951,0.10170824\H,0,0.79162143,-0.49798465,-0.87365011\
 N,0,0.84103046,-0.86423153,1.23042223\O,0,0.90207974,-0.33801665,2.338
 35962\O,0,0.94791442,-2.06511787,1.01845899\C,0,-0.16085774,2.18204575

 Normal termination of Gaussian 16 at Wed Apr  9 02:39:18 2025.
