 Gaussian 16, Revision C.01,

 ----------------------------------------------------------------------
 #t hf aug-cc-pvdz symm=none int=(grid=ultrafine) guess=(read,tcheck) s
 table=(opt,rrhf)
 ----------------------------------------------------------------------
 -----
 title
 -----
 Symbolic Z-matrix:
 Charge = -1 Multiplicity = 1

 SCF Done:  E(RHF) =  -876.216700455     A.U. after   15 cycles
 Normal termination of Gaussian 16 at Wed Apr  9 02:41:04 2025.
 Gaussian 16:  ES64L-G16RevC.01  3-Jul-2019

 ----------------------------------------------------------------------
 #t hf aug-cc-pvdz iop(5/13=1,5/36=2,99/5=2) pseudo=read geom=check gue
 ss=(read,tcheck) scf=(maxcycle=1)
 ----------------------------------------------------------------------
 -----
 title
 -----
 Structure from the checkpoint file:  "E2SN2_201_mol2.chk"
 Charge = -1 Multiplicity = 1

                         Standard orientation:
 ---------------------------------------------------------------------
 Center     Atomic      Atomic             Coordinates (Angstroms)
 Number     Number       Type             X           Y           Z
 ---------------------------------------------------------------------
      1          6           0       -0.182946   -0.680720   -0.893419
      2          6           0       -0.446227    0.339687    0.221067
      3          9           0       -1.397517   -1.178285   -1.353055
      4          1           0        0.559638    0.699136    0.518657
      5          1           0        0.268501   -0.145868   -1.738364
      6          7           0        0.586764   -1.755096   -0.359199
      7          1           0        0.816637   -2.392415   -1.113528
      8          1           0        1.464336   -1.343664   -0.030406
      9          6           0       -1.121423   -0.278789    1.363640
     10          7           0       -1.676708   -0.733119    2.292286
     11          6           0       -1.239411    1.462237   -0.281815
     12          7           0       -1.871828    2.354996   -0.707087
     13         17           0        2.831822    0.568553    0.206018
 ---------------------------------------------------------------------

 SCF Done:  E(RHF) =  -878.237447927     A.U. after    2 cycles

 The electronic state is 1-A.
 Alpha  occ. eigenvalues --  -99.63566 -29.15938 -15.67310 -15.66467 -15.62847
 Alpha  occ. eigenvalues --  -11.42514 -11.38606 -11.36029 -11.33076 -10.20273
 Alpha  occ. eigenvalues --   -9.40284  -9.39996  -9.39830  -1.32682  -1.21776
 Alpha  occ. eigenvalues --   -1.18595  -1.07090  -0.99627  -0.90948  -0.69094
 Alpha  occ. eigenvalues --   -0.66942  -0.57895  -0.55069  -0.50770  -0.48052
 Alpha  occ. eigenvalues --   -0.43432  -0.41520  -0.35261  -0.34862  -0.33293
 Alpha  occ. eigenvalues --   -0.32806  -0.29036  -0.27965  -0.27120  -0.26686
 Alpha  occ. eigenvalues --   -0.25270  -0.16520  -0.16135
 Alpha virt. eigenvalues --    0.13428   0.15196   0.16695   0.17525   0.19633
 Alpha virt. eigenvalues --    0.19917   0.21048   0.21403   0.21880   0.23612
 Alpha virt. eigenvalues --    0.24120   0.25021   0.25211   0.25894   0.26986

 Mulliken charges:
               1
     1  C    0.258467
     2  C   -1.378247
     3  F    0.377059
     4  H    1.642308
     5  H    1.657720
     6  N   -2.767022
     7  H    0.543761
     8  H    0.554215
     9  C    1.942570
    10  N   -2.513939
    11  C    2.181612
    12  N   -2.567557
    13  Cl  -0.930947
 Sum of Mulliken charges =  -1.00000

 Dipole moment (field-independent basis, Debye):
    X=             -6.7714    Y=             -3.9370    Z=             -3.6788  Tot=              8.6536

 Test job not archived.
 1\1\GINC-SE455\SP\RHF\Aug-CC-pVDZ\C4H4Cl1F1N3(1-)\OHZDE\09-Apr-2025\0\
 \#t hf aug-cc-pvdz iop(5/13=1,5/36=2,99/5=2) pseudo=read geom=check gu
 ess=(read,tcheck) scf=(maxcycle=1)\\title\\-1,1\C,0,-0.023575,0.060853
 ,0.023203\C,0,-0.514437,0.434853,-1.381006\F,0,1.353477,0.243601,0.089
 154\H,0,-1.611999,0.280776,-1.347174\H,0,-0.461592,0.77387,0.732816\N,
 0,-0.321808,-1.312394,0.262745\H,0,-0.058267,-1.537427,1.215601\H,0,-1
 .339561,-1.400259,0.19972\C,0,0.086129,-0.423864,-2.40365\N,0,0.557937
 ,-1.0802,-3.254392\C,0,-0.224994,1.839444,-1.673407\N,0,0.012374,2.969

 Normal termination of Gaussian 16 at Wed Apr  9 02:41:08 2025.
