 Gaussian 16, Revision C.01,

 ----------------------------------------------------------------------
 #t hf aug-cc-pvdz symm=none int=(grid=ultrafine) guess=(read,tcheck) s
 table=(opt,rrhf)
 ----------------------------------------------------------------------
 -----
 title
 -----
 Symbolic Z-matrix:
 Charge = -1 Multiplicity = 1

 SCF Done:  E(RHF) =  -552.785677107     A.U. after   16 cycles
 Normal termination of Gaussian 16 at Wed Apr  9 03:00:02 2025.
 Gaussian 16:  ES64L-G16RevC.01  3-Jul-2019

 ----------------------------------------------------------------------
 #t hf aug-cc-pvdz iop(5/13=1,5/36=2,99/5=2) pseudo=read geom=check gue
 ss=(read,tcheck) scf=(maxcycle=1)
 ----------------------------------------------------------------------
 -----
 title
 -----
 Structure from the checkpoint file:  "E2SN2_53_mol2.chk"
 Charge = -1 Multiplicity = 1

                         Standard orientation:
 ---------------------------------------------------------------------
 Center     Atomic      Atomic             Coordinates (Angstroms)
 Number     Number       Type             X           Y           Z
 ---------------------------------------------------------------------
      1          6           0       -0.440515   -0.481860    0.663892
      2          6           0        0.573615   -0.012940   -0.380617
      3          9           0       -0.155767    0.049089    1.922934
      4          1           0        0.206345   -0.640473   -1.207163
      5          1           0       -0.385856   -1.566291    0.698822
      6          6           0       -1.802998   -0.079024    0.295184
      7          7           0       -2.900145    0.306874    0.138296
      8          6           0        1.920838   -0.403817    0.012109
      9          7           0        3.004948   -0.745095    0.310103
     10          6           0        0.502281    1.418768   -0.634634
     11          7           0        0.441013    2.568977   -0.868069
     12          9           0       -0.750958   -1.755232   -1.510663
 ---------------------------------------------------------------------

 SCF Done:  E(RHF) =  -555.027958492     A.U. after    2 cycles

 The electronic state is 1-A.
 Alpha  occ. eigenvalues --  -29.17448 -28.93660 -15.66803 -15.66639 -15.65749
 Alpha  occ. eigenvalues --  -11.43794 -11.38786 -11.35712 -11.33662 -11.32362
 Alpha  occ. eigenvalues --   -1.29132  -1.19794  -1.18423  -1.12769  -0.97329
 Alpha  occ. eigenvalues --   -0.71553  -0.69957  -0.61169  -0.56863  -0.54254
 Alpha  occ. eigenvalues --   -0.43909  -0.42566  -0.41066  -0.38122  -0.35142
 Alpha  occ. eigenvalues --   -0.34959  -0.33559  -0.33161  -0.31867  -0.27880
 Alpha  occ. eigenvalues --   -0.26926  -0.17544  -0.16962  -0.02501  -0.02083
 Alpha  occ. eigenvalues --   -0.00165
 Alpha virt. eigenvalues --    0.15349   0.16729   0.18851   0.19159   0.19784
 Alpha virt. eigenvalues --    0.20869   0.21558   0.22279   0.22995   0.23386
 Alpha virt. eigenvalues --    0.24618   0.24737   0.25601   0.25982   0.27104

 Mulliken charges:
               1
     1  C   -0.290408
     2  C   -0.811848
     3  F    0.112105
     4  H    1.096480
     5  H    1.444080
     6  C    2.247905
     7  N   -2.758948
     8  C    2.085366
     9  N   -2.619161
    10  C    1.413658
    11  N   -2.441302
    12  F   -0.477929
 Sum of Mulliken charges =  -1.00000

 Dipole moment (field-independent basis, Debye):
    X=              0.8756    Y=              0.3325    Z=              4.7315  Tot=              4.8233

 Test job not archived.
 1\1\GINC-SE402\SP\RHF\Aug-CC-pVDZ\C5H2F2N3(1-)\OHZDE\09-Apr-2025\0\\#t
  hf aug-cc-pvdz iop(5/13=1,5/36=2,99/5=2) pseudo=read geom=check guess
 =(read,tcheck) scf=(maxcycle=1)\\title\\-1,1\C,0,-0.109041,-0.066178,-
 1.43364\C,0,0.007028,0.016009,0.089225\F,0,-1.43648,-0.226086,-1.83427
 9\H,0,1.106946,0.017544,0.134416\H,0,0.479505,-0.921336,-1.753822\C,0,
 0.41758,1.14738,-2.069666\N,0,0.704071,2.127199,-2.648578\C,0,-0.53847
 6,-1.18712,0.703174\N,0,-0.948729,-2.169708,1.199944\C,0,-0.619398,1.2
 09101,0.640154\N,0,-1.099909,2.179046,1.097911\F,0,2.326076,-0.16305,-

 Normal termination of Gaussian 16 at Wed Apr  9 03:00:09 2025.
