 Gaussian 16, Revision C.01,

 ----------------------------------------------------------------------
 #t hf aug-cc-pvdz symm=none int=(grid=ultrafine) guess=(read,tcheck) s
 table=(opt,rrhf)
 ----------------------------------------------------------------------
 -----
 title
 -----
 Symbolic Z-matrix:
 Charge = -1 Multiplicity = 1

 SCF Done:  E(RHF) =  -784.403571536     A.U. after   15 cycles
 Normal termination of Gaussian 16 at Wed Apr  9 02:40:33 2025.
 Gaussian 16:  ES64L-G16RevC.01  3-Jul-2019

 ----------------------------------------------------------------------
 #t hf aug-cc-pvdz iop(5/13=1,5/36=2,99/5=2) pseudo=read geom=check gue
 ss=(read,tcheck) scf=(maxcycle=1)
 ----------------------------------------------------------------------
 -----
 title
 -----
 Structure from the checkpoint file:  "E2SN2_193_mol1.chk"
 Charge = -1 Multiplicity = 1

                         Standard orientation:
 ---------------------------------------------------------------------
 Center     Atomic      Atomic             Coordinates (Angstroms)
 Number     Number       Type             X           Y           Z
 ---------------------------------------------------------------------
      1          6           0        0.320289    0.513037   -0.147584
      2          1           0       -1.122667    0.782304    1.349391
      3         17           0        1.764223   -1.151772   -0.186768
      4          9           0       -1.055158    1.922508   -0.507944
      5          6           0       -0.662346   -0.064926    0.843656
      6          1           0        0.168984    0.368188   -1.201952
      7          1           0       -0.151080   -0.701043    1.566793
      8          7           0        1.181824    1.512918    0.387656
      9          1           0        0.652891    2.356908    0.178902
     10          1           0        2.050108    1.506342   -0.130409
     11          6           0       -1.717354   -0.833301    0.191121
     12          7           0       -2.572843   -1.473490   -0.293275
 ---------------------------------------------------------------------

 SCF Done:  E(RHF) =  -786.060328986     A.U. after    2 cycles

 The electronic state is 1-A.
 Alpha  occ. eigenvalues --  -99.66951 -28.93712 -15.62584 -15.60899 -11.39589
 Alpha  occ. eigenvalues --  -11.32741 -11.28360 -10.23982  -9.44019  -9.43481
 Alpha  occ. eigenvalues --   -9.43414  -1.26040  -1.16519  -1.05371  -1.00327
 Alpha  occ. eigenvalues --   -0.76534  -0.60560  -0.58473  -0.50011  -0.48175
 Alpha  occ. eigenvalues --   -0.45099  -0.37534  -0.34971  -0.31923  -0.31071
 Alpha  occ. eigenvalues --   -0.30008  -0.29354  -0.28303  -0.25503  -0.03802
 Alpha  occ. eigenvalues --   -0.02029  -0.01370
 Alpha virt. eigenvalues --    0.14518   0.15646   0.16560   0.16766   0.17963
 Alpha virt. eigenvalues --    0.19695   0.21012   0.22831   0.23990   0.24879
 Alpha virt. eigenvalues --    0.26222   0.27075   0.28135   0.29506   0.29820

 Mulliken charges:
               1
     1  C    1.131334
     2  H    1.223111
     3  Cl  -0.598613
     4  F   -0.573690
     5  C   -3.103908
     6  H    1.664011
     7  H    1.402386
     8  N   -3.147660
     9  H    0.511563
    10  H    0.583764
    11  C    2.502303
    12  N   -2.594602
 Sum of Mulliken charges =  -1.00000

 Dipole moment (field-independent basis, Debye):
    X=             -1.0280    Y=              3.6998    Z=              0.9282  Tot=              3.9505

 Test job not archived.
 1\1\GINC-SE120\SP\RHF\Aug-CC-pVDZ\C3H5Cl1F1N2(1-)\OHZDE\09-Apr-2025\0\
 \#t hf aug-cc-pvdz iop(5/13=1,5/36=2,99/5=2) pseudo=read geom=check gu
 ess=(read,tcheck) scf=(maxcycle=1)\\title\\-1,1\C,0,0.45500382,-0.0737
 2937,0.07181033\H,0,1.50913316,1.68885449,0.49331845\Cl,0,-1.72590402,
 -0.29421953,0.302229\F,0,2.37096398,-0.04554955,-0.5083834\C,0,0.53131
 207,1.43494751,0.08729022\H,0,0.38000352,-0.59905229,-0.86305699\H,0,-
 0.25587594,1.85413854,0.71464884\N,0,0.84930173,-0.69868261,1.28936934
 \H,0,1.83787237,-0.86284195,1.11202934\H,0,0.35839898,-1.57816052,1.37

 Normal termination of Gaussian 16 at Wed Apr  9 02:40:38 2025.
