 Gaussian 16, Revision C.01,

 ----------------------------------------------------------------------
 #t hf aug-cc-pvdz symm=none int=(grid=ultrafine) guess=(read,tcheck) s
 table=(opt,rrhf)
 ----------------------------------------------------------------------
 -----
 title
 -----
 Symbolic Z-matrix:
 Charge = -1 Multiplicity = 1

 SCF Done:  E(RHF) =  -1334.32244902     A.U. after   16 cycles
 Normal termination of Gaussian 16 at Wed Apr  9 02:34:06 2025.
 Gaussian 16:  ES64L-G16RevC.01  3-Jul-2019

 ----------------------------------------------------------------------
 #t hf aug-cc-pvdz iop(5/13=1,5/36=2,99/5=2) pseudo=read geom=check gue
 ss=(read,tcheck) scf=(maxcycle=1)
 ----------------------------------------------------------------------
 -----
 title
 -----
 Structure from the checkpoint file:  "E2SN2_109_mol1.chk"
 Charge = -1 Multiplicity = 1

                         Standard orientation:
 ---------------------------------------------------------------------
 Center     Atomic      Atomic             Coordinates (Angstroms)
 Number     Number       Type             X           Y           Z
 ---------------------------------------------------------------------
      1          6           0       -0.558412   -0.738635    0.290128
      2          6           0        0.147796    0.243685   -0.389983
      3         17           0       -2.860113   -0.096081   -0.205008
      4         17           0        2.967487   -0.892051   -0.131657
      5          1           0        1.640323   -0.448116   -0.157762
      6          6           0       -0.649333   -2.079335   -0.385998
      7          1           0       -0.725752   -1.981875   -1.464454
      8          1           0        0.267646   -2.637678   -0.147946
      9          1           0       -1.507992   -2.631111   -0.006748
     10          6           0       -0.691105   -0.789398    1.782408
     11          1           0       -1.433024   -1.545400    2.040875
     12          1           0        0.275533   -1.059924    2.224243
     13          1           0       -0.994898    0.164650    2.202038
     14          7           0        0.030591    0.294142   -1.794013
     15          1           0        0.639917    1.008283   -2.168507
     16          1           0       -0.936428    0.540521   -2.006966
     17          7           0        0.390786    1.534049    0.264751
     18          8           0        0.371167    2.547274   -0.446225
     19          8           0        0.692082    1.549435    1.462980
 ---------------------------------------------------------------------

 SCF Done:  E(RHF) =  -1336.75454550     A.U. after    2 cycles

 The electronic state is 1-A.
 Alpha  occ. eigenvalues --  -99.74052 -99.65015 -20.95170 -20.94830 -15.85133
 Alpha  occ. eigenvalues --  -15.61917 -11.41335 -11.33212 -11.28200 -11.26188
 Alpha  occ. eigenvalues --  -10.31096 -10.21879  -9.51256  -9.50563  -9.50511
 Alpha  occ. eigenvalues --   -9.42036  -9.41569  -9.41464  -1.84777  -1.54630
 Alpha  occ. eigenvalues --   -1.27365  -1.13376  -1.10945  -1.01288  -0.97464
 Alpha  occ. eigenvalues --   -0.91043  -0.77939  -0.63103  -0.59624  -0.57222
 Alpha  occ. eigenvalues --   -0.53003  -0.50081  -0.49689  -0.48460  -0.46115
 Alpha  occ. eigenvalues --   -0.44304  -0.43347  -0.37941  -0.37311  -0.37143
 Alpha  occ. eigenvalues --   -0.36485  -0.33482  -0.29679  -0.28922  -0.28499
 Alpha  occ. eigenvalues --   -0.22273  -0.18283  -0.17639  -0.16344
 Alpha virt. eigenvalues --    0.13370   0.14427   0.14568   0.14745   0.15258
 Alpha virt. eigenvalues --    0.16250   0.16392   0.16833   0.17885   0.21704
 Alpha virt. eigenvalues --    0.22181   0.22641   0.22976   0.24562   0.24638

 Mulliken charges:
               1
     1  C    3.904953
     2  C    4.561577
     3  Cl  -0.894121
     4  Cl  -0.962288
     5  H    0.932124
     6  C   -5.127239
     7  H    1.188410
     8  H    1.121577
     9  H    1.240142
    10  C   -5.018588
    11  H    1.127535
    12  H    1.181166
    13  H    1.272143
    14  N   -3.945608
    15  H    0.771330
    16  H    0.505730
    17  N    2.928279
    18  O   -2.733510
    19  O   -3.053613
 Sum of Mulliken charges =  -1.00000

 Dipole moment (field-independent basis, Debye):
    X=              2.5509    Y=             -1.0580    Z=              0.6368  Tot=              2.8341

 Test job not archived.
 1\1\GINC-SE435\SP\RHF\Aug-CC-pVDZ\C4H9Cl2N2O2(1-)\OHZDE\09-Apr-2025\0\
 \#t hf aug-cc-pvdz iop(5/13=1,5/36=2,99/5=2) pseudo=read geom=check gu
 ess=(read,tcheck) scf=(maxcycle=1)\\title\\-1,1\C,0,-0.4049291,0.04572
 514,-0.24487462\C,0,-0.19226831,-0.08839111,1.12005076\Cl,0,1.87100729
 ,-0.15993826,-1.1014237\Cl,0,-3.08574142,-0.30571922,2.06231846\H,0,-1
 .80255004,-0.16025873,1.52251602\C,0,-0.92321167,-1.17266793,-0.958870
 98\H,0,-0.51072779,-2.08755829,-0.54506221\H,0,-2.01587133,-1.19334413
 ,-0.83666771\H,0,-0.68702016,-1.11205052,-2.02006013\C,0,-0.74394414,1

 Normal termination of Gaussian 16 at Wed Apr  9 02:34:17 2025.
