 Gaussian 16, Revision C.01,

 ----------------------------------------------------------------------
 #t hf aug-cc-pvdz symm=none int=(grid=ultrafine) guess=(read,tcheck) s
 table=(opt,rrhf)
 ----------------------------------------------------------------------
 -----
 title
 -----
 Symbolic Z-matrix:
 Charge = -1 Multiplicity = 1

 SCF Done:  E(RHF) =  -943.992177585     A.U. after   18 cycles
 Normal termination of Gaussian 16 at Wed Apr  9 02:36:41 2025.
 Gaussian 16:  ES64L-G16RevC.01  3-Jul-2019

 ----------------------------------------------------------------------
 #t hf aug-cc-pvdz iop(5/13=1,5/36=2,99/5=2) pseudo=read geom=check gue
 ss=(read,tcheck) scf=(maxcycle=1)
 ----------------------------------------------------------------------
 -----
 title
 -----
 Structure from the checkpoint file:  "E2SN2_130_mol2.chk"
 Charge = -1 Multiplicity = 1

                         Standard orientation:
 ---------------------------------------------------------------------
 Center     Atomic      Atomic             Coordinates (Angstroms)
 Number     Number       Type             X           Y           Z
 ---------------------------------------------------------------------
      1          6           0        0.251182   -0.536488   -0.156454
      2          6           0       -1.099638    0.090234   -0.565645
      3         17           0        0.269111   -0.885505    1.586361
      4          1           0       -0.993084    0.297465   -1.634735
      5          7           0        0.569719   -1.645696   -0.957415
      6          1           0       -0.143845   -1.768050   -1.729717
      7          1           0        0.614029   -2.492067   -0.409519
      8          7           0        1.353628    0.547973   -0.408959
      9          8           0        2.245613    0.733180    0.407927
     10          8           0        1.264893    1.102503   -1.501227
     11          6           0       -1.330230    1.353190    0.135027
     12          7           0       -1.545190    2.363710    0.694499
     13          7           0       -2.152604   -0.879303   -0.306359
     14          1           0       -3.040748   -0.390572   -0.263154
     15          1           0       -2.150216   -1.465598   -1.169421
     16          1           0       -1.451812   -1.961453   -2.645139
 ---------------------------------------------------------------------

 SCF Done:  E(RHF) =  -946.417571389     A.U. after    2 cycles

 The electronic state is 1-A.
 Alpha  occ. eigenvalues --  -99.78653 -20.98891 -20.98259 -15.87377 -15.66385
 Alpha  occ. eigenvalues --  -15.61992 -15.61192 -11.46078 -11.38049 -11.32752
 Alpha  occ. eigenvalues --  -10.36183  -9.56266  -9.55301  -9.55276  -1.87877
 Alpha  occ. eigenvalues --   -1.58110  -1.35769  -1.23471  -1.17506  -1.16837
 Alpha  occ. eigenvalues --   -1.00683  -0.89804  -0.72676  -0.65970  -0.62752
 Alpha  occ. eigenvalues --   -0.59181  -0.55543  -0.51531  -0.49545  -0.48908
 Alpha  occ. eigenvalues --   -0.46080  -0.44363  -0.41352  -0.40248  -0.38961
 Alpha  occ. eigenvalues --   -0.33806  -0.33086  -0.29354  -0.26809  -0.21494
 Alpha  occ. eigenvalues --   -0.20160  -0.19914  -0.14044
 Alpha virt. eigenvalues --    0.14177   0.14652   0.15851   0.16962   0.18164
 Alpha virt. eigenvalues --    0.19217   0.19816   0.20400   0.22088   0.22348
 Alpha virt. eigenvalues --    0.22651   0.23223   0.23897   0.24741   0.26076

 Mulliken charges:
               1
     1  C    3.284886
     2  C    0.458508
     3  Cl   0.064289
     4  H    2.120421
     5  N   -3.767564
     6  H    0.746881
     7  H    0.632913
     8  N    4.676393
     9  O   -2.980912
    10  O   -3.011411
    11  C    2.184619
    12  N   -2.617573
    13  N   -2.956535
    14  H    0.578221
    15  H    0.683886
    16  H   -1.097023
 Sum of Mulliken charges =  -1.00000

 Dipole moment (field-independent basis, Debye):
    X=              3.0270    Y=              2.7247    Z=              5.3451  Tot=              6.7199

 Test job not archived.
 1\1\GINC-SE106\SP\RHF\Aug-CC-pVDZ\C3H6Cl1N4O2(1-)\OHZDE\09-Apr-2025\0\
 \#t hf aug-cc-pvdz iop(5/13=1,5/36=2,99/5=2) pseudo=read geom=check gu
 ess=(read,tcheck) scf=(maxcycle=1)\\title\\-1,1\C,0,-0.308677,0.016171
 ,-1.408546\C,0,0.033218,-0.175752,0.085177\Cl,0,-2.015739,0.473502,-1.
 599137\H,0,1.082099,-0.487345,0.08852\N,0,0.58573,0.900844,-2.033635\H
 ,0,1.358593,1.185167,-1.368475\H,0,0.111356,1.728066,-2.364044\N,0,-0.
 13747,-1.379529,-2.099858\O,0,-0.9583,-1.776783,-2.915742\O,0,0.903417
 ,-1.958573,-1.800377\C,0,-0.773323,-1.241406,0.679351\N,0,-1.417804,-2

 Normal termination of Gaussian 16 at Wed Apr  9 02:36:50 2025.
