 Gaussian 16, Revision C.01,

 ----------------------------------------------------------------------
 #t hf aug-cc-pvdz symm=none int=(grid=ultrafine) guess=(read,tcheck) s
 table=(opt,rrhf)
 ----------------------------------------------------------------------
 -----
 title
 -----
 Symbolic Z-matrix:
 Charge = -1 Multiplicity = 1

 SCF Done:  E(RHF) =  -463.341248479     A.U. after   15 cycles
 Normal termination of Gaussian 16 at Wed Apr  9 02:39:54 2025.
 Gaussian 16:  ES64L-G16RevC.01  3-Jul-2019

 ----------------------------------------------------------------------
 #t hf aug-cc-pvdz iop(5/13=1,5/36=2,99/5=2) pseudo=read geom=check gue
 ss=(read,tcheck) scf=(maxcycle=1)
 ----------------------------------------------------------------------
 -----
 title
 -----
 Structure from the checkpoint file:  "E2SN2_179_mol1.chk"
 Charge = -1 Multiplicity = 1

                         Standard orientation:
 ---------------------------------------------------------------------
 Center     Atomic      Atomic             Coordinates (Angstroms)
 Number     Number       Type             X           Y           Z
 ---------------------------------------------------------------------
      1          6           0        0.265167    0.170985   -0.581591
      2          1           0       -0.898369    1.559002    0.480320
      3          9           0       -0.246906   -1.468328   -0.959214
      4          9           0        1.024606    1.840473   -0.316440
      5          6           0       -0.952910    0.491932    0.276779
      6          1           0        0.247837    0.429521   -1.624827
      7          6           0        1.489856   -0.328338    0.009672
      8          7           0        2.456341   -0.778290    0.503163
      9          6           0       -0.916474   -0.282206    1.592639
     10          1           0       -0.890906   -1.351984    1.380735
     11          1           0       -0.036062   -0.017281    2.184397
     12          1           0       -1.809078   -0.051545    2.185885
     13          7           0       -2.156248    0.234967   -0.525550
     14          1           0       -2.965106    0.297820    0.083830
     15          1           0       -2.062095   -0.725806   -0.837739
 ---------------------------------------------------------------------

 SCF Done:  E(RHF) =  -465.293221075     A.U. after    2 cycles

 The electronic state is 1-A.
 Alpha  occ. eigenvalues --  -28.98718 -28.94637 -15.59965 -15.58977 -11.42144
 Alpha  occ. eigenvalues --  -11.30176 -11.29273 -11.23977  -1.24448  -1.14586
 Alpha  occ. eigenvalues --   -1.01535  -0.91987  -0.74093  -0.61199  -0.57713
 Alpha  occ. eigenvalues --   -0.50995  -0.45473  -0.44569  -0.40997  -0.37772
 Alpha  occ. eigenvalues --   -0.37127  -0.35432  -0.31207  -0.27426  -0.26493
 Alpha  occ. eigenvalues --   -0.21947  -0.13246  -0.05675  -0.04357  -0.01345
 Alpha  occ. eigenvalues --   -0.00769   0.04266
 Alpha virt. eigenvalues --    0.12976   0.14186   0.15590   0.16339   0.16817
 Alpha virt. eigenvalues --    0.16979   0.17896   0.20506   0.23393   0.23661
 Alpha virt. eigenvalues --    0.25157   0.25775   0.26384   0.27085   0.27965

 Mulliken charges:
               1
     1  C   -0.061147
     2  H    1.488860
     3  F   -0.493077
     4  F   -0.646113
     5  C   -0.056734
     6  H    1.559463
     7  C    2.442176
     8  N   -2.902781
     9  C   -3.840174
    10  H    1.221789
    11  H    1.286011
    12  H    1.078883
    13  N   -3.138597
    14  H    0.583337
    15  H    0.478103
 Sum of Mulliken charges =  -1.00000

 Dipole moment (field-independent basis, Debye):
    X=             -4.7097    Y=             -0.6128    Z=              0.5195  Tot=              4.7777

 Test job not archived.
 1\1\GINC-SE042\SP\RHF\Aug-CC-pVDZ\C4H7F2N2(1-)\OHZDE\09-Apr-2025\0\\#t
  hf aug-cc-pvdz iop(5/13=1,5/36=2,99/5=2) pseudo=read geom=check guess
 =(read,tcheck) scf=(maxcycle=1)\\title\\-1,1\C,0,0.6372319,0.00180671,
 -0.01229849\H,0,1.71178501,1.80324322,-0.10299218\F,0,-1.11085566,-0.1
 1789146,-0.16072271\F,0,2.47696182,-0.13458476,0.16385921\C,0,0.663235
 55,1.52586661,-0.02144568\H,0,0.76414378,-0.52519854,-0.94054454\C,0,0
 .60076541,-0.74106243,1.2309208\N,0,0.5219753,-1.32286972,2.24845416\C
 ,0,0.08350856,2.09249166,1.27275558\H,0,-0.94414733,1.74566355,1.38943

 Normal termination of Gaussian 16 at Wed Apr  9 02:39:59 2025.
