 Gaussian 16, Revision C.01,

 ----------------------------------------------------------------------
 #t hf aug-cc-pvdz symm=none int=(grid=ultrafine) guess=(read,tcheck) s
 table=(opt,rrhf)
 ----------------------------------------------------------------------
 -----
 title
 -----
 Symbolic Z-matrix:
 Charge = -1 Multiplicity = 1

 SCF Done:  E(RHF) =  -403.470391631     A.U. after   16 cycles
 Normal termination of Gaussian 16 at Wed Apr  9 02:52:24 2025.
 Gaussian 16:  ES64L-G16RevC.01  3-Jul-2019

 ----------------------------------------------------------------------
 #t hf aug-cc-pvdz iop(5/13=1,5/36=2,99/5=2) pseudo=read geom=check gue
 ss=(read,tcheck) scf=(maxcycle=1)
 ----------------------------------------------------------------------
 -----
 title
 -----
 Structure from the checkpoint file:  "E2SN2_314_mol2.chk"
 Charge = -1 Multiplicity = 1

                         Standard orientation:
 ---------------------------------------------------------------------
 Center     Atomic      Atomic             Coordinates (Angstroms)
 Number     Number       Type             X           Y           Z
 ---------------------------------------------------------------------
      1          6           0       -0.299311   -0.411511    0.163433
      2          6           0        0.855914    0.348053   -0.489659
      3          9           0       -0.235669   -0.160756    1.582791
      4          1           0        0.729995    0.189881   -1.568749
      5          6           0       -1.607919    0.208890   -0.201721
      6          7           0       -2.649314    0.656157   -0.515115
      7          7           0       -0.222774   -1.774662   -0.106560
      8          1           0        0.198383   -1.987472   -1.102694
      9          1           0       -1.122242   -2.231967   -0.014297
     10          6           0        2.184573   -0.286454   -0.087175
     11          1           0        2.260226   -0.360718    1.000727
     12          1           0        2.268451   -1.279536   -0.527584
     13          1           0        3.012102    0.329631   -0.456366
     14          6           0        0.816078    1.835809   -0.154021
     15          1           0       -0.126474    2.299873   -0.457920
     16          1           0        0.941539    1.990004    0.920513
     17          1           0        1.627645    2.355554   -0.672419
     18          1           0        0.740006   -2.197641   -2.399758
 ---------------------------------------------------------------------

 SCF Done:  E(RHF) =  -405.311528429     A.U. after    2 cycles

 The electronic state is 1-A.
 Alpha  occ. eigenvalues --  -29.11748 -15.64714 -15.57461 -11.42843 -11.32415
 Alpha  occ. eigenvalues --  -11.29554 -11.27004 -11.23665  -1.30344  -1.16202
 Alpha  occ. eigenvalues --   -1.08614  -0.92541  -0.88690  -0.73868  -0.65617
 Alpha  occ. eigenvalues --   -0.56014  -0.53213  -0.48946  -0.46406  -0.42916
 Alpha  occ. eigenvalues --   -0.42640  -0.40578  -0.36784  -0.35240  -0.33393
 Alpha  occ. eigenvalues --   -0.32504  -0.30473  -0.24760  -0.20250  -0.13767
 Alpha  occ. eigenvalues --   -0.12745  -0.09215
 Alpha virt. eigenvalues --    0.12948   0.13916   0.14383   0.14888   0.15683
 Alpha virt. eigenvalues --    0.15904   0.17577   0.18466   0.19493   0.21174
 Alpha virt. eigenvalues --    0.21608   0.23134   0.23353   0.23745   0.24472

 Mulliken charges:
               1
     1  C    4.616644
     2  C   -2.387481
     3  F   -0.009892
     4  H    1.995427
     5  C    0.989530
     6  N   -2.421952
     7  N   -3.513254
     8  H    0.591346
     9  H    0.512438
    10  C   -3.794212
    11  H    1.264176
    12  H    1.289646
    13  H    1.195880
    14  C   -3.993550
    15  H    1.157715
    16  H    1.230427
    17  H    1.128850
    18  H   -0.851738
 Sum of Mulliken charges =  -1.00000

 Dipole moment (field-independent basis, Debye):
    X=              0.4364    Y=              6.7812    Z=              9.5376  Tot=             11.7108

 Test job not archived.
 1\1\GINC-SE128\SP\RHF\Aug-CC-pVDZ\C5H10F1N2(1-)\OHZDE\09-Apr-2025\0\\#
 t hf aug-cc-pvdz iop(5/13=1,5/36=2,99/5=2) pseudo=read geom=check gues
 s=(read,tcheck) scf=(maxcycle=1)\\title\\-1,1\C,0,0.014826,0.121228,0.
 014887\C,0,-0.489784,0.195481,-1.426594\F,0,1.450267,-0.014998,-0.0346
 93\H,0,-1.570648,0.369282,-1.343914\C,0,-0.147149,1.440556,0.695937\N,
 0,-0.308914,2.458524,1.261923\N,0,-0.564432,-0.944404,0.697398\H,0,-1.
 598231,-1.145572,0.372228\H,0,-0.545417,-0.808738,1.701348\C,0,-0.2955
 28,-1.154364,-2.11224\H,0,0.742332,-1.485008,-2.02119\H,0,-0.955594,-1

 Normal termination of Gaussian 16 at Wed Apr  9 02:52:32 2025.
