 Gaussian 16, Revision C.01,

 ----------------------------------------------------------------------
 #t hf aug-cc-pvdz symm=none int=(grid=ultrafine) guess=(read,tcheck) s
 table=(opt,rrhf)
 ----------------------------------------------------------------------
 -----
 title
 -----
 Symbolic Z-matrix:
 Charge = -1 Multiplicity = 1

 SCF Done:  E(RHF) =  -516.066363856     A.U. after   16 cycles
 Normal termination of Gaussian 16 at Wed Apr  9 02:48:02 2025.
 Gaussian 16:  ES64L-G16RevC.01  3-Jul-2019

 ----------------------------------------------------------------------
 #t hf aug-cc-pvdz iop(5/13=1,5/36=2,99/5=2) pseudo=read geom=check gue
 ss=(read,tcheck) scf=(maxcycle=1)
 ----------------------------------------------------------------------
 -----
 title
 -----
 Structure from the checkpoint file:  "E2SN2_267_mol2.chk"
 Charge = -1 Multiplicity = 1

                         Standard orientation:
 ---------------------------------------------------------------------
 Center     Atomic      Atomic             Coordinates (Angstroms)
 Number     Number       Type             X           Y           Z
 ---------------------------------------------------------------------
      1          6           0       -0.245421    0.368834    0.321397
      2          6           0        0.608671   -0.502236    1.295954
      3          9           0       -0.721802    1.462125    1.099174
      4          1           0       -0.072948   -1.241984    1.723834
      5          1           0        0.902643    0.191277    2.090723
      6          6           0        0.586687    0.960264   -0.734037
      7          7           0        1.287382    1.617502   -1.411074
      8          6           0       -1.449527   -0.295257   -0.193609
      9          7           0       -2.576094   -0.607635   -0.335618
     10          7           0        1.769533   -1.176528    0.761635
     11          1           0        1.412898   -1.567720   -0.124317
     12          1           0        2.451022   -0.470744    0.502002
     13          9           0        0.159377   -1.343662   -1.258626
 ---------------------------------------------------------------------

 SCF Done:  E(RHF) =  -518.192094093     A.U. after    2 cycles

 The electronic state is 1-A.
 Alpha  occ. eigenvalues --  -29.15336 -28.92825 -15.63887 -15.61905 -15.58601
 Alpha  occ. eigenvalues --  -11.45492 -11.33475 -11.31874 -11.29754  -1.27753
 Alpha  occ. eigenvalues --   -1.17678  -1.15714  -1.06998  -0.83067  -0.69452
 Alpha  occ. eigenvalues --   -0.67239  -0.55108  -0.53302  -0.43392  -0.42645
 Alpha  occ. eigenvalues --   -0.40279  -0.38575  -0.36506  -0.33426  -0.30964
 Alpha  occ. eigenvalues --   -0.29967  -0.28796  -0.25147  -0.22218  -0.15642
 Alpha  occ. eigenvalues --   -0.13630  -0.01591  -0.00621   0.00030
 Alpha virt. eigenvalues --    0.13851   0.15281   0.15855   0.19033   0.19787
 Alpha virt. eigenvalues --    0.20724   0.21030   0.22211   0.23479   0.24689
 Alpha virt. eigenvalues --    0.25488   0.25976   0.26231   0.26559   0.27230

 Mulliken charges:
               1
     1  C    0.278334
     2  C   -1.706393
     3  F   -0.010531
     4  H    1.373636
     5  H    1.166231
     6  C    3.027846
     7  N   -3.159654
     8  C    3.292152
     9  N   -3.237598
    10  N   -2.282017
    11  H    0.471101
    12  H    0.456619
    13  F   -0.669725
 Sum of Mulliken charges =  -1.00000

 Dipole moment (field-independent basis, Debye):
    X=              1.0793    Y=              2.2725    Z=              3.8567  Tot=              4.6047

 Test job not archived.
 1\1\GINC-SE109\SP\RHF\Aug-CC-pVDZ\C4H4F2N3(1-)\OHZDE\09-Apr-2025\0\\#t
  hf aug-cc-pvdz iop(5/13=1,5/36=2,99/5=2) pseudo=read geom=check guess
 =(read,tcheck) scf=(maxcycle=1)\\title\\-1,1\C,0,-0.002622,-0.001507,-
 0.065583\C,0,-0.19973,-0.067347,-1.6131\F,0,1.404982,0.053375,0.1413\H
 ,0,-0.227454,-1.128495,-1.87408\H,0,0.721859,0.360738,-2.021087\C,0,-0
 .538128,1.248768,0.487752\N,0,-0.738552,2.339662,0.876461\C,0,-0.45524
 1,-1.196373,0.657985\N,0,-0.439859,-2.222846,1.235061\N,0,-1.354301,0.
 592776,-2.177877\H,0,-2.110441,0.309859,-1.534962\H,0,-1.237917,1.5928

 Normal termination of Gaussian 16 at Wed Apr  9 02:48:07 2025.
