 Gaussian 16, Revision C.01,

 ----------------------------------------------------------------------
 #t hf aug-cc-pvdz symm=none int=(grid=ultrafine) guess=(read,tcheck) s
 table=(opt,rrhf)
 ----------------------------------------------------------------------
 -----
 title
 -----
 Symbolic Z-matrix:
 Charge = -1 Multiplicity = 1

 SCF Done:  E(RHF) =  -502.452123384     A.U. after   15 cycles
 Normal termination of Gaussian 16 at Wed Apr  9 02:56:18 2025.
 Gaussian 16:  ES64L-G16RevC.01  3-Jul-2019

 ----------------------------------------------------------------------
 #t hf aug-cc-pvdz iop(5/13=1,5/36=2,99/5=2) pseudo=read geom=check gue
 ss=(read,tcheck) scf=(maxcycle=1)
 ----------------------------------------------------------------------
 -----
 title
 -----
 Structure from the checkpoint file:  "E2SN2_363_mol2.chk"
 Charge = -1 Multiplicity = 1

                         Standard orientation:
 ---------------------------------------------------------------------
 Center     Atomic      Atomic             Coordinates (Angstroms)
 Number     Number       Type             X           Y           Z
 ---------------------------------------------------------------------
      1          6           0       -0.408414    0.682197    0.119515
      2          6           0        0.448925   -0.591784    0.179908
      3          9           0        0.262807    1.714095    0.819211
      4          1           0       -0.181768   -1.321516   -0.370035
      5          6           0       -0.596835    1.149848   -1.312093
      6          1           0        0.353330    1.364642   -1.807655
      7          1           0       -1.206956    2.059041   -1.313444
      8          1           0       -1.131372    0.339353   -1.811819
      9          7           0       -1.638957    0.390280    0.793619
     10          1           0       -1.986793   -0.446882    0.259701
     11          1           0       -2.277950    1.158711    0.609667
     12          6           0        0.676226   -1.067899    1.616340
     13          1           0       -0.290412   -1.280948    2.068581
     14          1           0        1.289593   -1.973061    1.626310
     15          1           0        1.175647   -0.293939    2.203697
     16          6           0        1.729342   -0.396748   -0.492540
     17          7           0        2.776120   -0.263511   -1.010840
     18          9           0       -1.907133   -1.619258   -0.887125
 ---------------------------------------------------------------------

 SCF Done:  E(RHF) =  -504.603533829     A.U. after    2 cycles

 The electronic state is 1-A.
 Alpha  occ. eigenvalues --  -29.10427 -28.90830 -15.62552 -15.56525 -11.37115
 Alpha  occ. eigenvalues --  -11.33260 -11.29469 -11.25887 -11.23321  -1.28479
 Alpha  occ. eigenvalues --   -1.16686  -1.04694  -0.96447  -0.82913  -0.77963
 Alpha  occ. eigenvalues --   -0.63284  -0.52621  -0.50676  -0.48713  -0.45953
 Alpha  occ. eigenvalues --   -0.44061  -0.42079  -0.41455  -0.39208  -0.36269
 Alpha  occ. eigenvalues --   -0.34812  -0.30663  -0.28692  -0.26980  -0.22844
 Alpha  occ. eigenvalues --   -0.19120  -0.11849  -0.10951   0.00289   0.01022
 Alpha  occ. eigenvalues --    0.02444
 Alpha virt. eigenvalues --    0.13702   0.14223   0.14982   0.15243   0.15653
 Alpha virt. eigenvalues --    0.16959   0.17922   0.18515   0.19510   0.20844
 Alpha virt. eigenvalues --    0.21439   0.22482   0.24455   0.25511   0.26130

 Mulliken charges:
               1
     1  C    5.858108
     2  C   -1.295371
     3  F   -0.173716
     4  H    1.384590
     5  C   -4.388022
     6  H    1.255423
     7  H    1.120548
     8  H    0.959805
     9  N   -3.671932
    10  H   -0.009937
    11  H    0.479851
    12  C   -4.186780
    13  H    1.385022
    14  H    1.135941
    15  H    1.285874
    16  C    1.209066
    17  N   -2.516922
    18  F   -0.831548
 Sum of Mulliken charges =  -1.00000

 Dipole moment (field-independent basis, Debye):
    X=              1.6610    Y=              4.2077    Z=              3.0790  Tot=              5.4721

 Test job not archived.
 1\1\GINC-SE044\SP\RHF\Aug-CC-pVDZ\C5H9F2N2(1-)\OHZDE\09-Apr-2025\0\\#t
  hf aug-cc-pvdz iop(5/13=1,5/36=2,99/5=2) pseudo=read geom=check guess
 =(read,tcheck) scf=(maxcycle=1)\\title\\-1,1\C,0,-0.008171,0.026539,0.
 005989\C,0,-0.51972,0.289224,-1.419149\F,0,1.405871,-0.040211,-0.02487
 7\H,0,-1.620283,0.294808,-1.27269\C,0,-0.3909,1.156916,0.943789\H,0,0.
 010045,2.120345,0.618862\H,0,-0.006267,0.936154,1.94489\H,0,-1.482766,
 1.164363,0.955299\N,0,-0.523249,-1.249474,0.406429\H,0,-1.55966,-1.113
 486,0.287021\H,0,-0.340099,-1.354716,1.40042\C,0,-0.122271,-0.824562,-

 Normal termination of Gaussian 16 at Wed Apr  9 02:56:27 2025.
