 Gaussian 16, Revision C.01,

 ----------------------------------------------------------------------
 #t hf aug-cc-pvdz symm=none int=(grid=ultrafine) guess=(read,tcheck) s
 table=(opt,rrhf)
 ----------------------------------------------------------------------
 -----
 title
 -----
 Symbolic Z-matrix:
 Charge = -1 Multiplicity = 1

 SCF Done:  E(RHF) =  -1295.29745599     A.U. after   16 cycles
 Normal termination of Gaussian 16 at Wed Apr  9 02:41:08 2025.
 Gaussian 16:  ES64L-G16RevC.01  3-Jul-2019

 ----------------------------------------------------------------------
 #t hf aug-cc-pvdz iop(5/13=1,5/36=2,99/5=2) pseudo=read geom=check gue
 ss=(read,tcheck) scf=(maxcycle=1)
 ----------------------------------------------------------------------
 -----
 title
 -----
 Structure from the checkpoint file:  "E2SN2_189_mol1.chk"
 Charge = -1 Multiplicity = 1

                         Standard orientation:
 ---------------------------------------------------------------------
 Center     Atomic      Atomic             Coordinates (Angstroms)
 Number     Number       Type             X           Y           Z
 ---------------------------------------------------------------------
      1          6           0       -0.644339    0.559182    0.018750
      2          1           0       -0.644913   -1.558254   -0.248880
      3         17           0        1.291251    1.886718   -0.298937
      4         17           0       -2.848736   -0.310608   -0.220945
      5          6           0        0.019849   -0.719672   -0.455395
      6          1           0       -1.008250    1.193158   -0.764545
      7          6           0       -0.833120    0.916314    1.464230
      8          1           0       -1.358651    0.131205    2.003015
      9          1           0        0.120668    1.092349    1.954265
     10          1           0       -1.433168    1.825142    1.513056
     11          7           0        1.241632   -1.083902    0.433732
     12          8           0        2.301697   -1.340901   -0.127520
     13          8           0        1.036163   -1.208806    1.638132
     14          7           0        0.341892   -0.658444   -1.828545
     15          1           0        0.765934   -1.522905   -2.134040
     16          1           0        0.993747    0.104558   -1.971590
 ---------------------------------------------------------------------

 SCF Done:  E(RHF) =  -1297.51735182     A.U. after    2 cycles

 The electronic state is 1-A.
 Alpha  occ. eigenvalues --  -99.66748 -99.65767 -20.97710 -20.97256 -15.86287
 Alpha  occ. eigenvalues --  -15.63456 -11.42345 -11.36349 -11.26558 -10.23736
 Alpha  occ. eigenvalues --  -10.22703  -9.43834  -9.43457  -9.43324  -9.42789
 Alpha  occ. eigenvalues --   -9.42324  -9.42231  -1.86663  -1.56937  -1.28685
 Alpha  occ. eigenvalues --   -1.09809  -1.03289  -1.00863  -0.96345  -0.81646
 Alpha  occ. eigenvalues --   -0.70138  -0.61309  -0.57856  -0.54723  -0.52196
 Alpha  occ. eigenvalues --   -0.48034  -0.47561  -0.43440  -0.42302  -0.37798
 Alpha  occ. eigenvalues --   -0.34224  -0.31929  -0.31059  -0.30355  -0.30164
 Alpha  occ. eigenvalues --   -0.28800  -0.27815  -0.21812  -0.19570  -0.18388
 Alpha virt. eigenvalues --    0.13518   0.14658   0.15335   0.16017   0.16226
 Alpha virt. eigenvalues --    0.17151   0.17739   0.19579   0.21590   0.22354
 Alpha virt. eigenvalues --    0.23255   0.23851   0.25346   0.25649   0.26427

 Mulliken charges:
               1
     1  C    0.213562
     2  H    1.712149
     3  Cl  -0.763838
     4  Cl  -0.717411
     5  C    0.271538
     6  H    1.446018
     7  C   -3.524698
     8  H    1.241106
     9  H    1.314386
    10  H    1.037348
    11  N    4.646821
    12  O   -2.827047
    13  O   -3.050879
    14  N   -3.119470
    15  H    0.608747
    16  H    0.511668
 Sum of Mulliken charges =  -1.00000

 Dipole moment (field-independent basis, Debye):
    X=              3.0021    Y=             -2.5205    Z=              0.6433  Tot=              3.9723

 Test job not archived.
 1\1\GINC-SE024\SP\RHF\Aug-CC-pVDZ\C3H7Cl2N2O2(1-)\OHZDE\09-Apr-2025\0\
 \#t hf aug-cc-pvdz iop(5/13=1,5/36=2,99/5=2) pseudo=read geom=check gu
 ess=(read,tcheck) scf=(maxcycle=1)\\title\\-1,1\C,0,0.52957058,-0.0223
 5771,0.07202171\H,0,1.75165869,1.71694221,0.263071\Cl,0,-1.8349632,0.0
 8100644,-0.01786847\Cl,0,2.79428387,-0.45116295,-0.52844121\C,0,0.7064
 8391,1.48428879,0.05994697\H,0,0.3836137,-0.46499592,-0.89269319\C,0,0
 .59388677,-0.86120279,1.31492051\H,0,1.52370438,-0.70087246,1.85584581
 \H,0,-0.23561905,-0.64162617,1.98165863\H,0,0.54682149,-1.90935861,1.0

 Normal termination of Gaussian 16 at Wed Apr  9 02:41:16 2025.
