 Gaussian 16, Revision C.01,

 ----------------------------------------------------------------------
 #t hf aug-cc-pvdz symm=none int=(grid=ultrafine) guess=(read,tcheck) s
 table=(opt,rrhf)
 ----------------------------------------------------------------------
 -----
 title
 -----
 Symbolic Z-matrix:
 Charge = -1 Multiplicity = 1

 SCF Done:  E(RHF) =  -1334.29608865     A.U. after   16 cycles
 Normal termination of Gaussian 16 at Wed Apr  9 02:45:41 2025.
 Gaussian 16:  ES64L-G16RevC.01  3-Jul-2019

 ----------------------------------------------------------------------
 #t hf aug-cc-pvdz iop(5/13=1,5/36=2,99/5=2) pseudo=read geom=check gue
 ss=(read,tcheck) scf=(maxcycle=1)
 ----------------------------------------------------------------------
 -----
 title
 -----
 Structure from the checkpoint file:  "E2SN2_235_mol1.chk"
 Charge = -1 Multiplicity = 1

                         Standard orientation:
 ---------------------------------------------------------------------
 Center     Atomic      Atomic             Coordinates (Angstroms)
 Number     Number       Type             X           Y           Z
 ---------------------------------------------------------------------
      1          6           0        0.087955   -0.009124    0.288143
      2          1           0        0.805169    1.094786   -1.336553
      3         17           0       -2.371058   -0.285322    0.481444
      4         17           0        2.419308   -0.381554    0.029423
      5          6           0        0.197882    1.320451   -0.456681
      6          7           0       -0.074289   -1.234217   -0.557968
      7          8           0       -0.219763   -1.046569   -1.762699
      8          8           0       -0.028871   -2.325183   -0.009895
      9          6           0        0.125912   -0.123369    1.785189
     10          1           0        1.115440    0.121034    2.161444
     11          1           0       -0.598474    0.565754    2.209795
     12          1           0       -0.133227   -1.141536    2.065244
     13          7           0        0.857555    2.265807    0.450560
     14          1           0        0.864256    3.172767   -0.002041
     15          1           0        1.821141    1.965411    0.555054
     16          6           0       -1.084043    1.964745   -0.966757
     17          1           0       -1.633654    1.279361   -1.605438
     18          1           0       -1.726143    2.269894   -0.143848
     19          1           0       -0.794794    2.846096   -1.555149
 ---------------------------------------------------------------------

 SCF Done:  E(RHF) =  -1336.73615471     A.U. after    2 cycles

 The electronic state is 1-A.
 Alpha  occ. eigenvalues --  -99.67686 -99.65269 -20.95934 -20.95673 -15.87143
 Alpha  occ. eigenvalues --  -15.61778 -11.47485 -11.33463 -11.28007 -11.25330
 Alpha  occ. eigenvalues --  -10.24726 -10.22282  -9.44840  -9.44437  -9.44359
 Alpha  occ. eigenvalues --   -9.42363  -9.42040  -9.41954  -1.86141  -1.55885
 Alpha  occ. eigenvalues --   -1.27137  -1.11872  -1.04431  -1.01593  -0.96736
 Alpha  occ. eigenvalues --   -0.91701  -0.79897  -0.63227  -0.59622  -0.57143
 Alpha  occ. eigenvalues --   -0.55068  -0.50832  -0.47877  -0.47643  -0.45901
 Alpha  occ. eigenvalues --   -0.43425  -0.40662  -0.37522  -0.35955  -0.31840
 Alpha  occ. eigenvalues --   -0.31679  -0.31066  -0.29607  -0.28895  -0.28491
 Alpha  occ. eigenvalues --   -0.25713  -0.22146  -0.17731  -0.17437
 Alpha virt. eigenvalues --    0.12408   0.13664   0.14777   0.15288   0.15496
 Alpha virt. eigenvalues --    0.16002   0.16835   0.17004   0.17593   0.18045
 Alpha virt. eigenvalues --    0.21254   0.21275   0.22565   0.23713   0.24144

 Mulliken charges:
               1
     1  C    5.161983
     2  H    1.749710
     3  Cl  -0.840851
     4  Cl  -0.826859
     5  C   -0.123283
     6  N    4.363628
     7  O   -3.088206
     8  O   -3.253355
     9  C   -5.555069
    10  H    1.222355
    11  H    1.158868
    12  H    1.291849
    13  N   -3.196233
    14  H    0.640585
    15  H    0.516802
    16  C   -3.513871
    17  H    1.213662
    18  H    1.173178
    19  H    0.905107
 Sum of Mulliken charges =  -1.00000

 Dipole moment (field-independent basis, Debye):
    X=              1.0710    Y=              3.3058    Z=             -0.6195  Tot=              3.5298

 Test job not archived.
 1\1\GINC-SE073\SP\RHF\Aug-CC-pVDZ\C4H9Cl2N2O2(1-)\OHZDE\09-Apr-2025\0\
 \#t hf aug-cc-pvdz iop(5/13=1,5/36=2,99/5=2) pseudo=read geom=check gu
 ess=(read,tcheck) scf=(maxcycle=1)\\title\\-1,1\C,0,0.61214649,-0.0604
 0322,0.00082045\H,0,1.64773117,1.58172477,-0.77611643\Cl,0,-1.67233451
 ,-0.48374034,-0.8722935\Cl,0,2.91430811,-0.22307638,0.56156444\C,0,0.7
 4251348,1.45140695,-0.17820722\N,0,0.97007074,-0.90391909,-1.18385256\
 O,0,1.22350653,-0.30084276,-2.22299726\O,0,1.01000728,-2.11638677,-1.0
 3900722\C,0,0.14505018,-0.7045469,1.2746104\H,0,0.88296238,-0.5735026,

 Normal termination of Gaussian 16 at Wed Apr  9 02:45:53 2025.
