 Gaussian 16, Revision C.01,

 ----------------------------------------------------------------------
 #t hf aug-cc-pvdz symm=none int=(grid=ultrafine) guess=(read,tcheck) s
 table=(opt,rrhf)
 ----------------------------------------------------------------------
 -----
 title
 -----
 Symbolic Z-matrix:
 Charge = -1 Multiplicity = 1

 SCF Done:  E(RHF) =  -987.932327644     A.U. after   16 cycles
 Normal termination of Gaussian 16 at Wed Apr  9 02:45:22 2025.
 Gaussian 16:  ES64L-G16RevC.01  3-Jul-2019

 ----------------------------------------------------------------------
 #t hf aug-cc-pvdz iop(5/13=1,5/36=2,99/5=2) pseudo=read geom=check gue
 ss=(read,tcheck) scf=(maxcycle=1)
 ----------------------------------------------------------------------
 -----
 title
 -----
 Structure from the checkpoint file:  "E2SN2_239_mol2.chk"
 Charge = -1 Multiplicity = 1

                         Standard orientation:
 ---------------------------------------------------------------------
 Center     Atomic      Atomic             Coordinates (Angstroms)
 Number     Number       Type             X           Y           Z
 ---------------------------------------------------------------------
      1          6           0       -0.077873   -0.140924   -0.232656
      2          6           0        0.874189    0.442072    0.796422
      3         17           0        0.132196   -1.952935   -0.382256
      4          1           0        0.642228    1.528803    0.744247
      5          1           0        0.671391    0.033380    1.785017
      6          7           0       -1.531036   -0.069722    0.396872
      7          8           0       -1.655651   -0.146719    1.614534
      8          8           0       -2.452228    0.031912   -0.404149
      9          7           0        0.017897    0.506808   -1.438169
     10          1           0       -0.055122    1.559040   -1.163700
     11          1           0       -0.728209    0.214789   -2.057302
     12          6           0        2.261947    0.200429    0.433328
     13          7           0        3.399281    0.016962    0.206518
     14          9           0       -0.163017    2.732727   -0.292456
 ---------------------------------------------------------------------

 SCF Done:  E(RHF) =  -990.418156499     A.U. after    2 cycles

 The electronic state is 1-A.
 Alpha  occ. eigenvalues --  -99.78156 -28.93817 -20.98181 -20.97976 -15.86655
 Alpha  occ. eigenvalues --  -15.64206 -15.59814 -11.43513 -11.34428 -11.29868
 Alpha  occ. eigenvalues --  -10.35535  -9.55587  -9.54781  -9.54673  -1.87063
 Alpha  occ. eigenvalues --   -1.57469  -1.32906  -1.18229  -1.16723  -1.02703
 Alpha  occ. eigenvalues --   -0.93235  -0.71135  -0.64881  -0.62557  -0.55626
 Alpha  occ. eigenvalues --   -0.55091  -0.52792  -0.48770  -0.45560  -0.44528
 Alpha  occ. eigenvalues --   -0.40862  -0.39681  -0.38571  -0.33870  -0.31846
 Alpha  occ. eigenvalues --   -0.29662  -0.27041  -0.21822  -0.20120  -0.18516
 Alpha  occ. eigenvalues --   -0.02830  -0.02008  -0.00499
 Alpha virt. eigenvalues --    0.14415   0.15336   0.16188   0.17962   0.19103
 Alpha virt. eigenvalues --    0.19971   0.20650   0.22562   0.23445   0.24188
 Alpha virt. eigenvalues --    0.24831   0.25868   0.25907   0.26952   0.27204

 Mulliken charges:
               1
     1  C    3.765076
     2  C   -1.768547
     3  Cl  -0.141788
     4  H    1.261823
     5  H    1.534300
     6  N    4.488246
     7  O   -3.061897
     8  O   -2.923476
     9  N   -3.566609
    10  H   -0.095578
    11  H    0.584881
    12  C    1.914300
    13  N   -2.594364
    14  F   -0.396367
 Sum of Mulliken charges =  -1.00000

 Dipole moment (field-independent basis, Debye):
    X=             -3.0177    Y=             -2.4774    Z=              1.0781  Tot=              4.0505

 Test job not archived.
 1\1\GINC-SE195\SP\RHF\Aug-CC-pVDZ\C3H4Cl1F1N3O2(1-)\OHZDE\09-Apr-2025\
 0\\#t hf aug-cc-pvdz iop(5/13=1,5/36=2,99/5=2) pseudo=read geom=check
 guess=(read,tcheck) scf=(maxcycle=1)\\title\\-1,1\C,0,-0.003995,-0.000
 298,0.009693\C,0,-0.541544,0.476525,-1.327838\Cl,0,1.824023,-0.090369,
 -0.001709\H,0,-1.64153,0.448012,-1.164347\H,0,-0.192354,1.484239,-1.54
 7052\N,0,-0.228357,1.182865,1.040638\O,0,-0.211595,2.338905,0.631434\O
 ,0,-0.378644,0.847485,2.209181\N,0,-0.591837,-1.175431,0.404022\H,0,-1
 .656573,-0.975047,0.285532\H,0,-0.342176,-1.39257,1.360993\C,0,-0.1640

 Normal termination of Gaussian 16 at Wed Apr  9 02:45:29 2025.
