 Gaussian 16, Revision C.01,

 ----------------------------------------------------------------------
 #t hf aug-cc-pvdz symm=none int=(grid=ultrafine) guess=(read,tcheck) s
 table=(opt,rrhf)
 ----------------------------------------------------------------------
 -----
 title
 -----
 Symbolic Z-matrix:
 Charge = -1 Multiplicity = 1

 SCF Done:  E(RHF) =  -739.587006039     A.U. after   16 cycles
 Normal termination of Gaussian 16 at Wed Apr  9 02:42:24 2025.
 Gaussian 16:  ES64L-G16RevC.01  3-Jul-2019

 ----------------------------------------------------------------------
 #t hf aug-cc-pvdz iop(5/13=1,5/36=2,99/5=2) pseudo=read geom=check gue
 ss=(read,tcheck) scf=(maxcycle=1)
 ----------------------------------------------------------------------
 -----
 title
 -----
 Structure from the checkpoint file:  "E2SN2_213_mol1.chk"
 Charge = -1 Multiplicity = 1

                         Standard orientation:
 ---------------------------------------------------------------------
 Center     Atomic      Atomic             Coordinates (Angstroms)
 Number     Number       Type             X           Y           Z
 ---------------------------------------------------------------------
      1          6           0       -0.467597   -0.406356    0.125290
      2          1           0        0.736876   -0.282864   -1.641760
      3          9           0       -0.084072    0.493502    1.509760
      4          9           0       -1.019396   -1.357474   -1.307860
      5          6           0        0.669623    0.205338   -0.673436
      6          1           0       -0.327551   -1.344353    0.621372
      7          7           0       -1.860276    0.099424    0.161096
      8          8           0       -2.159004    1.104070   -0.471066
      9          8           0       -2.630682   -0.544366    0.866736
     10          7           0        1.968013   -0.293422    0.046585
     11          8           0        2.866937    0.525173    0.231926
     12          8           0        2.056443   -1.489539    0.302526
     13          7           0        0.642047    1.611111   -0.778943
     14          1           0        1.542202    1.946067   -1.092787
     15          1           0        0.449496    1.980502    0.142810
 ---------------------------------------------------------------------

 SCF Done:  E(RHF) =  -742.602926550     A.U. after    2 cycles

 The electronic state is 1-A.
 Alpha  occ. eigenvalues --  -29.03070 -28.97838 -20.97662 -20.97461 -20.95173
 Alpha  occ. eigenvalues --  -20.94911 -15.85990 -15.85921 -15.62837 -11.49120
 Alpha  occ. eigenvalues --  -11.36324  -1.86886  -1.84889  -1.56832  -1.55012
 Alpha  occ. eigenvalues --   -1.28606  -1.11457  -0.97924  -0.78070  -0.73307
 Alpha  occ. eigenvalues --   -0.66565  -0.61612  -0.58520  -0.55353  -0.52513
 Alpha  occ. eigenvalues --   -0.50478  -0.47872  -0.45707  -0.41955  -0.40860
 Alpha  occ. eigenvalues --   -0.35355  -0.30962  -0.24341  -0.21642  -0.20090
 Alpha  occ. eigenvalues --   -0.18646  -0.18312  -0.16928  -0.16616  -0.08872
 Alpha  occ. eigenvalues --   -0.07973  -0.04203  -0.03211   0.01504
 Alpha virt. eigenvalues --    0.13649   0.15434   0.16564   0.17268   0.21900
 Alpha virt. eigenvalues --    0.22981   0.24235   0.25029   0.25171   0.25944
 Alpha virt. eigenvalues --    0.27018   0.27254   0.27618   0.28739   0.29176

 Mulliken charges:
               1
     1  C    0.010680
     2  H    1.709786
     3  F   -0.604780
     4  F   -0.753834
     5  C    0.271035
     6  H    1.915193
     7  N    5.823189
     8  O   -3.219400
     9  O   -3.350079
    10  N    5.046575
    11  O   -2.902096
    12  O   -3.188356
    13  N   -2.727273
    14  H    0.627560
    15  H    0.341799
 Sum of Mulliken charges =  -1.00000

 Dipole moment (field-independent basis, Debye):
    X=              2.8723    Y=              1.6081    Z=              0.7349  Tot=              3.3729

 Test job not archived.
 1\1\GINC-SE462\SP\RHF\Aug-CC-pVDZ\C2H4F2N3O4(1-)\OHZDE\09-Apr-2025\0\\
 #t hf aug-cc-pvdz iop(5/13=1,5/36=2,99/5=2) pseudo=read geom=check gue
 ss=(read,tcheck) scf=(maxcycle=1)\\title\\-1,1\C,0,0.50415744,0.004946
 45,-0.07569858\H,0,1.78826494,1.69999528,0.18188297\F,0,-1.1681106,0.1
 9707126,-0.27619662\F,0,2.27539551,-0.32426699,0.05606204\C,0,0.744033
 06,1.5039275,-0.04538485\H,0,0.3939531,-0.53681039,0.84076461\N,0,0.56
 844928,-0.85015175,-1.28455002\O,0,0.80822365,-0.34631125,-2.37396878\
 O,0,0.3474192,-2.04185632,-1.09243689\N,0,0.01873169,1.99155946,1.2542

 Normal termination of Gaussian 16 at Wed Apr  9 02:42:32 2025.
