 Gaussian 16, Revision C.01,

 ----------------------------------------------------------------------
 #t hf aug-cc-pvdz symm=none int=(grid=ultrafine) guess=(read,tcheck) s
 table=(opt,rrhf)
 ----------------------------------------------------------------------
 -----
 title
 -----
 Symbolic Z-matrix:
 Charge = -1 Multiplicity = 1

 SCF Done:  E(RHF) =  -536.073026363     A.U. after   16 cycles
 Normal termination of Gaussian 16 at Wed Apr  9 02:42:47 2025.
 Gaussian 16:  ES64L-G16RevC.01  3-Jul-2019

 ----------------------------------------------------------------------
 #t hf aug-cc-pvdz iop(5/13=1,5/36=2,99/5=2) pseudo=read geom=check gue
 ss=(read,tcheck) scf=(maxcycle=1)
 ----------------------------------------------------------------------
 -----
 title
 -----
 Structure from the checkpoint file:  "E2SN2_222_mol1.chk"
 Charge = -1 Multiplicity = 1

                         Standard orientation:
 ---------------------------------------------------------------------
 Center     Atomic      Atomic             Coordinates (Angstroms)
 Number     Number       Type             X           Y           Z
 ---------------------------------------------------------------------
      1          6           0       -0.155758    0.103207   -0.403923
      2          1           0       -1.088824    0.029221    1.471621
      3          9           0        0.483647    1.813185   -0.500420
      4          9           0       -0.507339   -1.577431   -0.383824
      5          6           0       -1.305792    0.473783    0.493992
      6          1           0       -0.207367    0.141944   -1.474274
      7          1           0       -1.332394    1.554968    0.586918
      8          7           0        1.177424   -0.191555    0.163686
      9          8           0        1.315213   -0.152974    1.383734
     10          8           0        2.066337   -0.483156   -0.627795
     11          7           0       -2.563601   -0.002565   -0.101618
     12          1           0       -3.306538    0.137470    0.573817
     13          1           0       -2.431512   -0.999449   -0.222282
 ---------------------------------------------------------------------

 SCF Done:  E(RHF) =  -538.260745005     A.U. after    2 cycles

 The electronic state is 1-A.
 Alpha  occ. eigenvalues --  -28.99971 -28.95071 -20.93225 -20.93023 -15.83659
 Alpha  occ. eigenvalues --  -15.59588 -11.42216 -11.26809  -1.83251  -1.53078
 Alpha  occ. eigenvalues --   -1.22235  -1.07450  -0.83760  -0.70352  -0.63189
 Alpha  occ. eigenvalues --   -0.56426  -0.54056  -0.47279  -0.44959  -0.42076
 Alpha  occ. eigenvalues --   -0.38972  -0.37081  -0.31679  -0.23847  -0.20988
 Alpha  occ. eigenvalues --   -0.16683  -0.15300  -0.14236  -0.06006  -0.05058
 Alpha  occ. eigenvalues --   -0.01718  -0.00729   0.03858
 Alpha virt. eigenvalues --    0.13146   0.15970   0.16150   0.16810   0.17773
 Alpha virt. eigenvalues --    0.23149   0.24365   0.25509   0.26243   0.27478
 Alpha virt. eigenvalues --    0.28285   0.29364   0.30227   0.31042   0.32239

 Mulliken charges:
               1
     1  C   -0.571669
     2  H    1.285939
     3  F   -0.742870
     4  F   -0.495798
     5  C   -1.232346
     6  H    1.469287
     7  H    1.110584
     8  N    6.092344
     9  O   -3.211788
    10  O   -3.400508
    11  N   -2.393658
    12  H    0.569382
    13  H    0.521103
 Sum of Mulliken charges =  -1.00000

 Dipole moment (field-independent basis, Debye):
    X=             -1.9939    Y=             -1.4399    Z=              1.0809  Tot=              2.6865

 Test job not archived.
 1\1\GINC-SE247\SP\RHF\Aug-CC-pVDZ\C2H5F2N2O2(1-)\OHZDE\09-Apr-2025\0\\
 #t hf aug-cc-pvdz iop(5/13=1,5/36=2,99/5=2) pseudo=read geom=check gue
 ss=(read,tcheck) scf=(maxcycle=1)\\title\\-1,1\C,0,0.35484939,0.019600
 73,-0.00784809\H,0,1.23619586,1.80469196,-0.66391748\F,0,-1.21462113,-
 0.05544313,-0.94235566\F,0,1.86787945,-0.1620156,0.78355233\C,0,0.4036
 761,1.52418367,-0.00917001\H,0,-0.15222004,-0.55306641,0.74364965\H,0,
 -0.52616292,1.89607569,-0.42797717\N,0,0.88603726,-0.75152416,-1.15224
 505\O,0,1.39073839,-0.13643431,-2.08815749\O,0,0.80999449,-1.97260538,

 Normal termination of Gaussian 16 at Wed Apr  9 02:42:51 2025.
