 Gaussian 16, Revision C.01,

 ----------------------------------------------------------------------
 #t hf aug-cc-pvdz symm=none int=(grid=ultrafine) guess=(read,tcheck) s
 table=(opt,rrhf)
 ----------------------------------------------------------------------
 -----
 title
 -----
 Symbolic Z-matrix:
 Charge = -1 Multiplicity = 1

 SCF Done:  E(RHF) =  -627.815420909     A.U. after   16 cycles
 Normal termination of Gaussian 16 at Wed Apr  9 02:50:17 2025.
 Gaussian 16:  ES64L-G16RevC.01  3-Jul-2019

 ----------------------------------------------------------------------
 #t hf aug-cc-pvdz iop(5/13=1,5/36=2,99/5=2) pseudo=read geom=check gue
 ss=(read,tcheck) scf=(maxcycle=1)
 ----------------------------------------------------------------------
 -----
 title
 -----
 Structure from the checkpoint file:  "E2SN2_291_mol1.chk"
 Charge = -1 Multiplicity = 1

                         Standard orientation:
 ---------------------------------------------------------------------
 Center     Atomic      Atomic             Coordinates (Angstroms)
 Number     Number       Type             X           Y           Z
 ---------------------------------------------------------------------
      1          6           0       -0.759128   -0.357909    0.047209
      2          1           0        0.430249   -0.620258   -1.733550
      3          9           0        0.140280   -0.164580    1.580733
      4          9           0       -1.666282   -0.485599   -1.465316
      5          6           0        0.530182   -0.745079   -0.658849
      6          1           0        0.742220   -1.773134   -0.381926
      7          6           0       -1.177099    1.039301    0.151845
      8          7           0       -1.595407    2.128225    0.292405
      9          7           0       -1.546476   -1.409622    0.632346
     10          1           0       -2.460834   -1.366702    0.207406
     11          1           0       -1.578924   -1.235032    1.626146
     12          7           0        1.718453    0.057355   -0.267246
     13          8           0        2.711445   -0.543049    0.139902
     14          8           0        1.663754    1.267691   -0.464976
 ---------------------------------------------------------------------

 SCF Done:  E(RHF) =  -630.392724224     A.U. after    2 cycles

 The electronic state is 1-A.
 Alpha  occ. eigenvalues --  -28.99939 -28.98894 -20.96088 -20.95795 -15.85770
 Alpha  occ. eigenvalues --  -15.61952 -15.61810 -11.50324 -11.33325 -11.30278
 Alpha  occ. eigenvalues --   -1.85452  -1.55346  -1.29444  -1.14573  -1.09157
 Alpha  occ. eigenvalues --   -0.90725  -0.75282  -0.68104  -0.61421  -0.56660
 Alpha  occ. eigenvalues --   -0.54221  -0.50995  -0.44928  -0.44050  -0.41813
 Alpha  occ. eigenvalues --   -0.38874  -0.36399  -0.31020  -0.28795  -0.26043
 Alpha  occ. eigenvalues --   -0.22121  -0.18398  -0.17876  -0.15460  -0.06696
 Alpha  occ. eigenvalues --   -0.06038  -0.05242  -0.04626   0.00699
 Alpha virt. eigenvalues --    0.14256   0.15129   0.15487   0.16884   0.20129
 Alpha virt. eigenvalues --    0.21793   0.22672   0.23201   0.24537   0.25407
 Alpha virt. eigenvalues --    0.26408   0.27558   0.27662   0.28294   0.29029

 Mulliken charges:
               1
     1  C    5.197555
     2  H    1.382023
     3  F   -0.520343
     4  F   -0.477700
     5  C   -3.047690
     6  H    1.491736
     7  C    1.786881
     8  N   -3.029602
     9  N   -3.887567
    10  H    0.494011
    11  H    0.463167
    12  N    5.082953
    13  O   -2.937129
    14  O   -2.998296
 Sum of Mulliken charges =  -1.00000

 Dipole moment (field-independent basis, Debye):
    X=              1.2054    Y=             -2.8724    Z=              0.0504  Tot=              3.1155

 Test job not archived.
 1\1\GINC-SE049\SP\RHF\Aug-CC-pVDZ\C3H4F2N3O2(1-)\OHZDE\09-Apr-2025\0\\
 #t hf aug-cc-pvdz iop(5/13=1,5/36=2,99/5=2) pseudo=read geom=check gue
 ss=(read,tcheck) scf=(maxcycle=1)\\title\\-1,1\C,0,0.73247076,-0.07281
 179,-0.0261473\H,0,1.84923332,1.72592401,-0.44080414\F,0,-1.0482465,0.
 05814001,-0.12567225\F,0,2.49240456,-0.2392206,0.0175188\C,0,0.8483445
 8,1.43931846,-0.1299506\H,0,0.58942079,1.84079552,0.84489254\C,0,0.706
 53966,-0.91579948,-1.22052734\N,0,0.67270586,-1.67578529,-2.11594401\N
 ,0,0.62461184,-0.64967452,1.28686336\H,0,1.39451052,-1.29366906,1.3917

 Normal termination of Gaussian 16 at Wed Apr  9 02:50:25 2025.
