 Gaussian 16, Revision C.01,

 ----------------------------------------------------------------------
 #t hf aug-cc-pvdz symm=none int=(grid=ultrafine) guess=(read,tcheck) s
 table=(opt,rrhf)
 ----------------------------------------------------------------------
 -----
 title
 -----
 Symbolic Z-matrix:
 Charge = -1 Multiplicity = 1

 SCF Done:  E(RHF) =  -932.854033203     A.U. after   16 cycles
 Normal termination of Gaussian 16 at Wed Apr  9 02:41:41 2025.
 Gaussian 16:  ES64L-G16RevC.01  3-Jul-2019

 ----------------------------------------------------------------------
 #t hf aug-cc-pvdz iop(5/13=1,5/36=2,99/5=2) pseudo=read geom=check gue
 ss=(read,tcheck) scf=(maxcycle=1)
 ----------------------------------------------------------------------
 -----
 title
 -----
 Structure from the checkpoint file:  "E2SN2_208_mol1.chk"
 Charge = -1 Multiplicity = 1

                         Standard orientation:
 ---------------------------------------------------------------------
 Center     Atomic      Atomic             Coordinates (Angstroms)
 Number     Number       Type             X           Y           Z
 ---------------------------------------------------------------------
      1          6           0        0.413945    0.011289   -0.649665
      2          1           0       -0.296517   -1.965457   -0.663358
      3         17           0       -0.686980    1.804271   -0.382746
      4          9           0        1.620467   -1.423263   -1.059493
      5          6           0       -0.723309   -0.973490   -0.790955
      6          1           0        0.950633    0.426079   -1.476891
      7          1           0       -1.089195   -0.885074   -1.817218
      8          7           0        1.132927    0.043471    0.635818
      9          8           0        0.665871   -0.629177    1.550704
     10          8           0        2.135267    0.742204    0.698610
     11          6           0       -1.862832   -0.826001    0.115229
     12          7           0       -2.825267   -0.845440    0.786672
 ---------------------------------------------------------------------

 SCF Done:  E(RHF) =  -935.085998631     A.U. after    2 cycles

 The electronic state is 1-A.
 Alpha  occ. eigenvalues --  -99.70931 -28.96501 -20.96482 -20.96293 -15.87139
 Alpha  occ. eigenvalues --  -15.63680 -11.44893 -11.35144 -11.30811 -10.28001
 Alpha  occ. eigenvalues --   -9.48009  -9.47528  -9.47424  -1.86404  -1.56344
 Alpha  occ. eigenvalues --   -1.21579  -1.14654  -1.05907  -0.96448  -0.73987
 Alpha  occ. eigenvalues --   -0.62565  -0.60008  -0.57063  -0.53428  -0.49598
 Alpha  occ. eigenvalues --   -0.45407  -0.40945  -0.38067  -0.35132  -0.34426
 Alpha  occ. eigenvalues --   -0.32027  -0.31206  -0.29835  -0.23265  -0.18636
 Alpha  occ. eigenvalues --   -0.18508  -0.06267  -0.04101  -0.03024
 Alpha virt. eigenvalues --    0.14043   0.15638   0.16350   0.19214   0.20029
 Alpha virt. eigenvalues --    0.22119   0.22761   0.24130   0.24531   0.25274
 Alpha virt. eigenvalues --    0.26081   0.26878   0.27430   0.27985   0.28802

 Mulliken charges:
               1
     1  C   -1.788377
     2  H    1.185315
     3  Cl  -0.497144
     4  F   -0.416084
     5  C   -0.888290
     6  H    1.473428
     7  H    1.322695
     8  N    5.954250
     9  O   -3.123912
    10  O   -3.300198
    11  C    1.609406
    12  N   -2.531089
 Sum of Mulliken charges =  -1.00000

 Dipole moment (field-independent basis, Debye):
    X=              3.0814    Y=             -3.8393    Z=             -1.9368  Tot=              5.2902

 Test job not archived.
 1\1\GINC-SE149\SP\RHF\Aug-CC-pVDZ\C3H3Cl1F1N2O2(1-)\OHZDE\09-Apr-2025\
 0\\#t hf aug-cc-pvdz iop(5/13=1,5/36=2,99/5=2) pseudo=read geom=check
 guess=(read,tcheck) scf=(maxcycle=1)\\title\\-1,1\C,0,0.48109956,-0.03
 648144,-0.0398757\H,0,1.82892319,1.54352442,-0.35518987\Cl,0,-1.634140
 79,-0.01299461,-0.19243277\F,0,2.34852156,-0.30372245,0.31071031\C,0,0
 .76603847,1.44341512,-0.14858707\H,0,0.44049007,-0.57008567,0.88641007
 \H,0,0.56399663,1.87490269,0.83523351\N,0,0.74209798,-0.87051886,-1.22
 591869\O,0,1.03511662,-0.28402089,-2.26407769\O,0,0.64038865,-2.082237

 Normal termination of Gaussian 16 at Wed Apr  9 02:41:48 2025.
