 Gaussian 16, Revision C.01,

 ----------------------------------------------------------------------
 #t hf aug-cc-pvdz symm=none int=(grid=ultrafine) guess=(read,tcheck) s
 table=(opt,rrhf)
 ----------------------------------------------------------------------
 -----
 title
 -----
 Symbolic Z-matrix:
 Charge = -1 Multiplicity = 1

 SCF Done:  E(RHF) =  -627.888041730     A.U. after   16 cycles
 Normal termination of Gaussian 16 at Wed Apr  9 02:36:04 2025.
 Gaussian 16:  ES64L-G16RevC.01  3-Jul-2019

 ----------------------------------------------------------------------
 #t hf aug-cc-pvdz iop(5/13=1,5/36=2,99/5=2) pseudo=read geom=check gue
 ss=(read,tcheck) scf=(maxcycle=1)
 ----------------------------------------------------------------------
 -----
 title
 -----
 Structure from the checkpoint file:  "E2SN2_137_mol2.chk"
 Charge = -1 Multiplicity = 1

                         Standard orientation:
 ---------------------------------------------------------------------
 Center     Atomic      Atomic             Coordinates (Angstroms)
 Number     Number       Type             X           Y           Z
 ---------------------------------------------------------------------
      1          6           0       -0.105051   -0.436025    0.130779
      2          6           0       -0.676191    0.816257   -0.502471
      3          9           0       -0.012112   -0.226128    1.517124
      4          1           0       -1.746625    0.745658   -0.285783
      5          1           0       -0.564162    0.746304   -1.584179
      6          7           0       -0.807492   -1.552967   -0.249251
      7          1           0       -1.864915   -1.282340   -0.253251
      8          1           0       -0.560932   -2.340619    0.336260
      9          7           0        1.382216   -0.637718   -0.239702
     10          8           0        1.865516    0.048042   -1.138017
     11          8           0        1.971717   -1.530850    0.362892
     12          6           0       -0.059125    2.040031   -0.013601
     13          7           0        0.410843    3.046979    0.364677
     14          9           0       -3.078776   -0.498558   -0.276054
 ---------------------------------------------------------------------

 SCF Done:  E(RHF) =  -630.456800461     A.U. after    2 cycles

 The electronic state is 1-A.
 Alpha  occ. eigenvalues --  -29.15192 -28.93783 -20.98856 -20.98325 -15.87054
 Alpha  occ. eigenvalues --  -15.64467 -15.59643 -11.44894 -11.34605 -11.29920
 Alpha  occ. eigenvalues --   -1.87697  -1.58024  -1.32332  -1.18504  -1.05503
 Alpha  occ. eigenvalues --   -0.96422  -0.78392  -0.66741  -0.64237  -0.57969
 Alpha  occ. eigenvalues --   -0.55103  -0.51942  -0.49488  -0.47304  -0.46182
 Alpha  occ. eigenvalues --   -0.39325  -0.34200  -0.32578  -0.30612  -0.30041
 Alpha  occ. eigenvalues --   -0.26670  -0.21666  -0.20713  -0.19231  -0.14439
 Alpha  occ. eigenvalues --   -0.13945  -0.02371  -0.01989  -0.00367
 Alpha virt. eigenvalues --    0.14495   0.15304   0.17694   0.19369   0.19972
 Alpha virt. eigenvalues --    0.20951   0.22122   0.22887   0.23784   0.24527
 Alpha virt. eigenvalues --    0.26262   0.26473   0.26896   0.27564   0.28372

 Mulliken charges:
               1
     1  C    4.318047
     2  C   -2.270577
     3  F    0.441079
     4  H    1.162887
     5  H    1.381678
     6  N   -3.536516
     7  H    0.064276
     8  H    0.393174
     9  N    3.634969
    10  O   -2.745017
    11  O   -2.870036
    12  C    1.847579
    13  N   -2.595479
    14  F   -0.226063
 Sum of Mulliken charges =  -1.00000

 Dipole moment (field-independent basis, Debye):
    X=              3.5725    Y=             -0.9647    Z=              2.5060  Tot=              4.4692

 Test job not archived.
 1\1\GINC-SE453\SP\RHF\Aug-CC-pVDZ\C3H4F2N3O2(1-)\OHZDE\09-Apr-2025\0\\
 #t hf aug-cc-pvdz iop(5/13=1,5/36=2,99/5=2) pseudo=read geom=check gue
 ss=(read,tcheck) scf=(maxcycle=1)\\title\\-1,1\C,0,-0.027404,0.023328,
 -1.500071\C,0,0.042015,0.069358,0.0127\F,0,-0.019999,1.343218,-1.98223
 5\H,0,1.097632,0.277571,0.212913\H,0,-0.16716,-0.925503,0.405173\N,0,0
 .942231,-0.798255,-2.019894\H,0,1.852341,-0.627845,-1.441917\H,0,1.026
 445,-0.65635,-3.018284\N,0,-1.407618,-0.466296,-1.995227\O,0,-2.183463
 ,-0.965758,-1.183181\O,0,-1.611148,-0.373893,-3.202849\C,0,-0.86825,1.

 Normal termination of Gaussian 16 at Wed Apr  9 02:36:10 2025.
