 Gaussian 16, Revision C.01,

 ----------------------------------------------------------------------
 #t hf aug-cc-pvdz symm=none int=(grid=ultrafine) guess=(read,tcheck) s
 table=(opt,rrhf)
 ----------------------------------------------------------------------
 -----
 title
 -----
 Symbolic Z-matrix:
 Charge = -1 Multiplicity = 1

 SCF Done:  E(RHF) =  -974.266658712     A.U. after   17 cycles
 Normal termination of Gaussian 16 at Wed Apr  9 02:55:14 2025.
 Gaussian 16:  ES64L-G16RevC.01  3-Jul-2019

 ----------------------------------------------------------------------
 #t hf aug-cc-pvdz iop(5/13=1,5/36=2,99/5=2) pseudo=read geom=check gue
 ss=(read,tcheck) scf=(maxcycle=1)
 ----------------------------------------------------------------------
 -----
 title
 -----
 Structure from the checkpoint file:  "E2SN2_345_mol2.chk"
 Charge = -1 Multiplicity = 1

                         Standard orientation:
 ---------------------------------------------------------------------
 Center     Atomic      Atomic             Coordinates (Angstroms)
 Number     Number       Type             X           Y           Z
 ---------------------------------------------------------------------
      1          6           0        0.370858    0.716908    0.003204
      2          6           0       -0.161026   -0.579576   -0.627106
      3         17           0       -1.013265    1.915020   -0.022603
      4          1           0       -0.527509   -0.337260   -1.630482
      5          6           0        0.879352    0.578818    1.425954
      6          1           0        1.178243    1.566981    1.787457
      7          1           0        1.767302   -0.062038    1.375047
      8          1           0        0.123551    0.164817    2.089594
      9          6           0        1.478228    1.250433   -0.892777
     10          1           0        2.330216    0.568050   -0.772500
     11          1           0        1.149115    1.309623   -1.934667
     12          1           0        1.763578    2.252507   -0.561792
     13          7           0       -1.486557   -1.012975    0.046229
     14          8           0       -1.475799   -1.330710    1.230451
     15          8           0       -2.480743   -1.069641   -0.682580
     16          7           0        0.756532   -1.648509   -0.569930
     17          1           0        1.725395   -1.402582   -0.207573
     18          1           0        0.837782   -2.096119   -1.470582
     19          9           0        3.137319   -0.942847    0.170784
 ---------------------------------------------------------------------

 SCF Done:  E(RHF) =  -976.771675051     A.U. after    2 cycles

 The electronic state is 1-A.
 Alpha  occ. eigenvalues --  -99.75133 -28.91560 -20.96150 -20.95962 -15.84380
 Alpha  occ. eigenvalues --  -15.58162 -11.39565 -11.33677 -11.26122 -11.23464
 Alpha  occ. eigenvalues --  -10.32537  -9.52575  -9.51955  -9.51787  -1.84929
 Alpha  occ. eigenvalues --   -1.55205  -1.28752  -1.18599  -1.03924  -0.96352
 Alpha  occ. eigenvalues --   -0.89173  -0.76021  -0.66845  -0.59645  -0.57124
 Alpha  occ. eigenvalues --   -0.56054  -0.50849  -0.49030  -0.46162  -0.45995
 Alpha  occ. eigenvalues --   -0.44179  -0.41455  -0.39849  -0.38039  -0.37343
 Alpha  occ. eigenvalues --   -0.32863  -0.31785  -0.27723  -0.25655  -0.19498
 Alpha  occ. eigenvalues --   -0.17840  -0.17554  -0.00227   0.00087   0.01317
 Alpha virt. eigenvalues --    0.13483   0.14135   0.14463   0.15631   0.16159
 Alpha virt. eigenvalues --    0.16645   0.17203   0.18315   0.19320   0.21352
 Alpha virt. eigenvalues --    0.22490   0.23564   0.24302   0.24918   0.25082

 Mulliken charges:
               1
     1  C    1.596751
     2  C    0.738111
     3  Cl  -0.332069
     4  H    1.930557
     5  C   -3.947345
     6  H    1.196342
     7  H    1.280548
     8  H    1.301898
     9  C   -4.001499
    10  H    1.265183
    11  H    1.087464
    12  H    1.094193
    13  N    4.503984
    14  O   -2.906611
    15  O   -2.867596
    16  N   -3.172193
    17  H    0.254076
    18  H    0.400026
    19  F   -0.421820
 Sum of Mulliken charges =  -1.00000

 Dipole moment (field-independent basis, Debye):
    X=             -2.9058    Y=              1.9072    Z=             -0.9825  Tot=              3.6120

 Test job not archived.
 1\1\GINC-SE459\SP\RHF\Aug-CC-pVDZ\C4H9Cl1F1N2O2(1-)\OHZDE\09-Apr-2025\
 0\\#t hf aug-cc-pvdz iop(5/13=1,5/36=2,99/5=2) pseudo=read geom=check
 guess=(read,tcheck) scf=(maxcycle=1)\\title\\-1,1\C,0,-0.01932,0.00116
 9,-0.042318\C,0,-0.308843,-0.03023,-1.551043\Cl,0,1.802461,-0.009931,0
 .139143\H,0,0.179128,-0.918595,-1.966354\C,0,-0.582841,1.200925,0.6958
 43\H,0,-0.26976,1.145673,1.742463\H,0,-1.674048,1.1074,0.648257\H,0,-0
 .241735,2.139985,0.265885\C,0,-0.565276,-1.282714,0.563713\H,0,-1.6598
 07,-1.197612,0.536201\H,0,-0.212111,-2.160317,0.013767\H,0,-0.23161,-1

 Normal termination of Gaussian 16 at Wed Apr  9 02:55:25 2025.
