 Gaussian 16, Revision C.01,

 ----------------------------------------------------------------------
 #t hf aug-cc-pvdz symm=none int=(grid=ultrafine) guess=(read,tcheck) s
 table=(opt,rrhf)
 ----------------------------------------------------------------------
 -----
 title
 -----
 Symbolic Z-matrix:
 Charge = -1 Multiplicity = 1

 SCF Done:  E(RHF) =  -472.127751445     A.U. after   17 cycles
 Normal termination of Gaussian 16 at Wed Apr  9 02:52:09 2025.
 Gaussian 16:  ES64L-G16RevC.01  3-Jul-2019

 ----------------------------------------------------------------------
 #t hf aug-cc-pvdz iop(5/13=1,5/36=2,99/5=2) pseudo=read geom=check gue
 ss=(read,tcheck) scf=(maxcycle=1)
 ----------------------------------------------------------------------
 -----
 title
 -----
 Structure from the checkpoint file:  "E2SN2_311_mol1.chk"
 Charge = -1 Multiplicity = 1

                         Standard orientation:
 ---------------------------------------------------------------------
 Center     Atomic      Atomic             Coordinates (Angstroms)
 Number     Number       Type             X           Y           Z
 ---------------------------------------------------------------------
      1          6           0       -0.513245   -0.401739   -0.212456
      2          1           0        0.640952    0.642010   -1.699514
      3          9           0       -0.189972   -0.313970    1.393250
      4          1           0       -1.125243   -0.434956   -2.004424
      5          6           0        0.618376    0.553726   -0.616734
      6          6           0       -1.860917    0.115613   -0.222755
      7          7           0       -2.950457    0.497727    0.036906
      8          7           0       -0.261570   -1.817320   -0.327235
      9          1           0       -0.796906   -2.167393   -1.106141
     10          1           0       -0.552705   -2.237184    0.548228
     11          6           0        1.910344   -0.030942   -0.187170
     12          7           0        3.003008   -0.351412    0.103305
     13          7           0        0.374056    1.869098   -0.037842
     14          1           0        1.159969    2.477743   -0.232829
     15          1           0        0.301078    1.738914    0.964187
 ---------------------------------------------------------------------

 SCF Done:  E(RHF) =  -474.220383292     A.U. after    2 cycles

 The electronic state is 1-A.
 Alpha  occ. eigenvalues --  -29.04564 -15.63432 -15.62670 -15.61639 -15.59602
 Alpha  occ. eigenvalues --  -11.46435 -11.35921 -11.31246 -11.29226  -1.31928
 Alpha  occ. eigenvalues --   -1.21766  -1.15366  -1.12639  -0.96406  -0.84760
 Alpha  occ. eigenvalues --   -0.67290  -0.59152  -0.57485  -0.56435  -0.46043
 Alpha  occ. eigenvalues --   -0.43461  -0.42698  -0.40325  -0.37181  -0.33752
 Alpha  occ. eigenvalues --   -0.31871  -0.29951  -0.27922  -0.26079  -0.24021
 Alpha  occ. eigenvalues --   -0.18638  -0.09808  -0.09358  -0.08561
 Alpha virt. eigenvalues --    0.13335   0.14860   0.15148   0.16395   0.17276
 Alpha virt. eigenvalues --    0.19270   0.19507   0.20221   0.21349   0.23181
 Alpha virt. eigenvalues --    0.24517   0.24737   0.24912   0.26000   0.27452

 Mulliken charges:
               1
     1  C    3.450843
     2  H    1.831740
     3  F   -0.104492
     4  H   -0.780617
     5  C   -2.498945
     6  C    2.572334
     7  N   -2.958668
     8  N   -3.400198
     9  H    0.701062
    10  H    0.418347
    11  C    4.050545
    12  N   -2.954771
    13  N   -2.525185
    14  H    0.627745
    15  H    0.570260
 Sum of Mulliken charges =  -1.00000

 Dipole moment (field-independent basis, Debye):
    X=              3.5732    Y=              0.7836    Z=              5.8681  Tot=              6.9150

 Test job not archived.
 1\1\GINC-SE040\SP\RHF\Aug-CC-pVDZ\C4H6F1N4(1-)\OHZDE\09-Apr-2025\0\\#t
  hf aug-cc-pvdz iop(5/13=1,5/36=2,99/5=2) pseudo=read geom=check guess
 =(read,tcheck) scf=(maxcycle=1)\\title\\-1,1\C,0,0.54234151,-0.0476849
 4,0.0114453\H,0,1.72238244,1.75172561,0.06193635\F,0,-1.09791575,-0.04
 065836,0.00902061\H,0,2.4185936,-0.20326332,-0.19414601\C,0,0.67048821
 ,1.48214429,0.02243927\C,0,0.78926855,-0.73044319,-1.23629181\N,0,0.72
 817749,-1.35401567,-2.24026242\N,0,0.67603786,-0.73555773,1.2721361\H,
 0,1.56070689,-1.218455,1.2719618\H,0,-0.10399417,-1.37962037,1.3370607

 Normal termination of Gaussian 16 at Wed Apr  9 02:52:15 2025.
