 Gaussian 16, Revision C.01,

 ----------------------------------------------------------------------
 #t hf aug-cc-pvdz symm=none int=(grid=ultrafine) guess=(read,tcheck) s
 table=(opt,rrhf)
 ----------------------------------------------------------------------
 -----
 title
 -----
 Symbolic Z-matrix:
 Charge = -1 Multiplicity = 1

 SCF Done:  E(RHF) =  -915.204569902     A.U. after   16 cycles
 Normal termination of Gaussian 16 at Wed Apr  9 02:58:58 2025.
 Gaussian 16:  ES64L-G16RevC.01  3-Jul-2019

 ----------------------------------------------------------------------
 #t hf aug-cc-pvdz iop(5/13=1,5/36=2,99/5=2) pseudo=read geom=check gue
 ss=(read,tcheck) scf=(maxcycle=1)
 ----------------------------------------------------------------------
 -----
 title
 -----
 Structure from the checkpoint file:  "E2SN2_403_mol2.chk"
 Charge = -1 Multiplicity = 1

                         Standard orientation:
 ---------------------------------------------------------------------
 Center     Atomic      Atomic             Coordinates (Angstroms)
 Number     Number       Type             X           Y           Z
 ---------------------------------------------------------------------
      1          6           0       -0.436214   -0.672723    0.030889
      2          6           0        0.639998    0.447140    0.087502
      3         17           0       -2.055321    0.073829   -0.331859
      4          1           0        1.583856   -0.251566    0.233802
      5          7           0       -0.133264   -1.635589   -0.994915
      6          1           0       -0.120010   -1.165261   -1.895484
      7          1           0        0.837321   -1.908811   -0.766161
      8          6           0       -0.498927   -1.375773    1.371459
      9          1           0       -1.222877   -2.188573    1.305452
     10          1           0        0.504353   -1.773334    1.540313
     11          1           0       -0.781518   -0.692000    2.173268
     12          6           0        0.473487    1.383532    1.182745
     13          7           0        0.352810    2.120985    2.091244
     14          6           0        0.768846    1.137335   -1.183650
     15          7           0        0.889774    1.661282   -2.229500
     16          9           0        2.298995   -1.535484    0.227659
 ---------------------------------------------------------------------

 SCF Done:  E(RHF) =  -917.451436862     A.U. after    2 cycles

 The electronic state is 1-A.
 Alpha  occ. eigenvalues --  -99.75857 -28.95211 -15.65181 -15.65036 -15.60529
 Alpha  occ. eigenvalues --  -11.40434 -11.37009 -11.34674 -11.31682 -11.26122
 Alpha  occ. eigenvalues --  -10.33294  -9.53329  -9.52556  -9.52503  -1.33174
 Alpha  occ. eigenvalues --   -1.20448  -1.17113  -1.14502  -1.03909  -0.95879
 Alpha  occ. eigenvalues --   -0.73901  -0.65439  -0.64782  -0.56607  -0.53032
 Alpha  occ. eigenvalues --   -0.49502  -0.44401  -0.43364  -0.42039  -0.40923
 Alpha  occ. eigenvalues --   -0.39790  -0.37250  -0.35410  -0.34668  -0.33508
 Alpha  occ. eigenvalues --   -0.32669  -0.31246  -0.27230  -0.23299  -0.03753
 Alpha  occ. eigenvalues --   -0.03501  -0.01549
 Alpha virt. eigenvalues --    0.13808   0.15448   0.15610   0.16700   0.16969
 Alpha virt. eigenvalues --    0.17931   0.18094   0.19740   0.20404   0.22359
 Alpha virt. eigenvalues --    0.22883   0.23576   0.24073   0.24901   0.24958

 Mulliken charges:
               1
     1  C    4.536622
     2  C   -0.434703
     3  Cl  -0.346467
     4  H    1.439999
     5  N   -3.867465
     6  H    0.642411
     7  H    0.287982
     8  C   -4.216315
     9  H    1.085095
    10  H    1.042439
    11  H    1.262574
    12  C    1.393173
    13  N   -2.530597
    14  C    1.617324
    15  N   -2.579552
    16  F   -0.332519
 Sum of Mulliken charges =  -1.00000

 Dipole moment (field-independent basis, Debye):
    X=             -1.9059    Y=             -2.3904    Z=              0.3658  Tot=              3.0790

 Test job not archived.
 1\1\GINC-SE073\SP\RHF\Aug-CC-pVDZ\C5H6Cl1F1N3(1-)\OHZDE\09-Apr-2025\0\
 \#t hf aug-cc-pvdz iop(5/13=1,5/36=2,99/5=2) pseudo=read geom=check gu
 ess=(read,tcheck) scf=(maxcycle=1)\\title\\-1,1\C,0,-0.014011,-0.01516
 8,0.022919\C,0,-0.601191,-0.231989,-1.399663\Cl,0,1.798115,0.101485,-0
 .091193\H,0,-1.74613,-0.18407,-1.104231\N,0,-0.516699,1.196218,0.61538
 3\H,0,-0.241702,1.985194,0.037193\H,0,-1.540371,1.080733,0.527222\C,0,
 -0.384842,-1.191447,0.902801\H,0,-0.008171,-1.006494,1.909288\H,0,-1.4
 76723,-1.221875,0.905361\H,0,0.02497,-2.127252,0.519886\C,0,-0.242754,

 Normal termination of Gaussian 16 at Wed Apr  9 02:59:07 2025.
