 Gaussian 16, Revision C.01,

 ----------------------------------------------------------------------
 #t hf aug-cc-pvdz symm=none int=(grid=ultrafine) guess=(read,tcheck) s
 table=(opt,rrhf)
 ----------------------------------------------------------------------
 -----
 title
 -----
 Symbolic Z-matrix:
 Charge = -1 Multiplicity = 1

 SCF Done:  E(RHF) =  -534.451200404     A.U. after   15 cycles
 Normal termination of Gaussian 16 at Wed Apr  9 02:53:20 2025.
 Gaussian 16:  ES64L-G16RevC.01  3-Jul-2019

 ----------------------------------------------------------------------
 #t hf aug-cc-pvdz iop(5/13=1,5/36=2,99/5=2) pseudo=read geom=check gue
 ss=(read,tcheck) scf=(maxcycle=1)
 ----------------------------------------------------------------------
 -----
 title
 -----
 Structure from the checkpoint file:  "E2SN2_322_mol2.chk"
 Charge = -1 Multiplicity = 1

                         Standard orientation:
 ---------------------------------------------------------------------
 Center     Atomic      Atomic             Coordinates (Angstroms)
 Number     Number       Type             X           Y           Z
 ---------------------------------------------------------------------
      1          6           0       -0.628934    0.378399    0.261396
      2          6           0        0.323625    0.310896   -0.959204
      3          9           0       -1.235629    1.664215    0.258725
      4          1           0       -0.264053    0.714628   -1.793832
      5          6           0       -1.784373   -0.531882    0.010343
      6          7           0       -2.680064   -1.270215   -0.174556
      7          7           0        0.004232    0.110052    1.474987
      8          1           0        0.968777   -0.294463    1.381761
      9          1           0       -0.572839   -0.377140    2.141280
     10          7           0        0.764153   -1.040168   -1.285893
     11          1           0        1.400917   -1.308314   -0.523668
     12          1           0       -0.019783   -1.682948   -1.324911
     13          7           0        1.452773    1.187021   -0.711295
     14          1           0        2.042756    0.670143   -0.046825
     15          1           0        1.973904    1.208990   -1.582105
     16          9           0        2.371268   -0.862238    0.935763
 ---------------------------------------------------------------------

 SCF Done:  E(RHF) =  -536.696579712     A.U. after    2 cycles

 The electronic state is 1-A.
 Alpha  occ. eigenvalues --  -29.11805 -28.92911 -15.65329 -15.58611 -15.57704
 Alpha  occ. eigenvalues --  -15.57428 -11.42206 -11.33505 -11.29481  -1.33202
 Alpha  occ. eigenvalues --   -1.21534  -1.16828  -1.08863  -0.96934  -0.76327
 Alpha  occ. eigenvalues --   -0.65600  -0.62496  -0.55358  -0.53313  -0.47747
 Alpha  occ. eigenvalues --   -0.45171  -0.43785  -0.39164  -0.37838  -0.34146
 Alpha  occ. eigenvalues --   -0.32227  -0.29589  -0.26895  -0.24268  -0.22483
 Alpha  occ. eigenvalues --   -0.18329  -0.12202  -0.11186  -0.01677  -0.00923
 Alpha  occ. eigenvalues --    0.00452
 Alpha virt. eigenvalues --    0.14328   0.15170   0.15635   0.16051   0.18476
 Alpha virt. eigenvalues --    0.18948   0.20232   0.20495   0.21030   0.22631
 Alpha virt. eigenvalues --    0.24052   0.24110   0.25713   0.26321   0.27064

 Mulliken charges:
               1
     1  C    4.017441
     2  C    2.514878
     3  F    0.085920
     4  H    1.658389
     5  C    1.358374
     6  N   -2.452096
     7  N   -3.879348
     8  H    0.295152
     9  H    0.506700
    10  N   -3.102272
    11  H    0.296992
    12  H    0.561483
    13  N   -3.167068
    14  H    0.475458
    15  H    0.424850
    16  F   -0.594854
 Sum of Mulliken charges =  -1.00000

 Dipole moment (field-independent basis, Debye):
    X=             -2.7460    Y=              3.1405    Z=             -1.1401  Tot=              4.3247

 Test job not archived.
 1\1\GINC-SE108\SP\RHF\Aug-CC-pVDZ\C3H7F2N4(1-)\OHZDE\09-Apr-2025\0\\#t
  hf aug-cc-pvdz iop(5/13=1,5/36=2,99/5=2) pseudo=read geom=check guess
 =(read,tcheck) scf=(maxcycle=1)\\title\\-1,1\C,0,0.082881,0.080554,0.0
 05287\C,0,-0.362161,-0.055595,-1.472952\F,0,1.429319,-0.368389,0.08873
 1\H,0,0.467223,0.368413,-2.053734\C,0,0.198338,1.531847,0.332545\N,0,0
 .261829,2.674909,0.598935\N,0,-0.743666,-0.600865,0.898708\H,0,-1.6497
 12,-0.933597,0.485139\H,0,-0.852819,-0.143232,1.789197\N,0,-1.59042,0.
 665669,-1.784918\H,0,-2.337811,0.146345,-1.305264\H,0,-1.554433,1.6190

 Normal termination of Gaussian 16 at Wed Apr  9 02:53:26 2025.
