 Gaussian 16, Revision C.01,

 ----------------------------------------------------------------------
 #t hf aug-cc-pvdz symm=none int=(grid=ultrafine) guess=(read,tcheck) s
 table=(opt,rrhf)
 ----------------------------------------------------------------------
 -----
 title
 -----
 Symbolic Z-matrix:
 Charge = -1 Multiplicity = 1

 SCF Done:  E(RHF) =  -971.938413864     A.U. after   17 cycles
 Normal termination of Gaussian 16 at Wed Apr  9 02:47:51 2025.
 Gaussian 16:  ES64L-G16RevC.01  3-Jul-2019

 ----------------------------------------------------------------------
 #t hf aug-cc-pvdz iop(5/13=1,5/36=2,99/5=2) pseudo=read geom=check gue
 ss=(read,tcheck) scf=(maxcycle=1)
 ----------------------------------------------------------------------
 -----
 title
 -----
 Structure from the checkpoint file:  "E2SN2_263_mol2.chk"
 Charge = -1 Multiplicity = 1

                         Standard orientation:
 ---------------------------------------------------------------------
 Center     Atomic      Atomic             Coordinates (Angstroms)
 Number     Number       Type             X           Y           Z
 ---------------------------------------------------------------------
      1          6           0       -0.725690    0.129154    0.049221
      2          6           0       -0.729875   -0.741439   -1.178129
      3          9           0       -2.036367    0.537637    0.312889
      4          1           0       -1.318569   -0.205105   -1.926447
      5          1           0        0.302312   -0.822367   -1.515347
      6          6           0       -0.245615   -0.499423    1.283741
      7          7           0       -0.168543   -1.025971    2.332103
      8          7           0       -0.012654    1.458332   -0.173560
      9          8           0        0.035844    1.866568   -1.326804
     10          8           0        0.317975    2.072197    0.832385
     11          6           0       -1.313358   -2.116793   -0.876202
     12          1           0       -1.434196   -2.678938   -1.805278
     13          1           0       -0.637801   -2.677771   -0.228292
     14          1           0       -2.290179   -2.045446   -0.390820
     15         17           0        2.366517   -0.680868   -0.222121
 ---------------------------------------------------------------------

 SCF Done:  E(RHF) =  -974.361807625     A.U. after    2 cycles

 The electronic state is 1-A.
 Alpha  occ. eigenvalues --  -99.60904 -29.19351 -20.99175 -20.98969 -15.88790
 Alpha  occ. eigenvalues --  -15.66028 -11.49101 -11.34843 -11.31611 -11.27324
 Alpha  occ. eigenvalues --  -10.17623  -9.37686  -9.37344  -9.37274  -1.88577
 Alpha  occ. eigenvalues --   -1.58774  -1.27285  -1.15725  -1.03222  -0.96957
 Alpha  occ. eigenvalues --   -0.83932  -0.81551  -0.72549  -0.62239  -0.56946
 Alpha  occ. eigenvalues --   -0.53182  -0.50131  -0.49154  -0.43373  -0.42466
 Alpha  occ. eigenvalues --   -0.40344  -0.38887  -0.35480  -0.33825  -0.30111
 Alpha  occ. eigenvalues --   -0.26102  -0.24983  -0.24724  -0.24015  -0.21397
 Alpha  occ. eigenvalues --   -0.20397  -0.17833  -0.16793
 Alpha virt. eigenvalues --    0.12145   0.13757   0.14052   0.16344   0.17987
 Alpha virt. eigenvalues --    0.19161   0.20806   0.21379   0.22279   0.23101
 Alpha virt. eigenvalues --    0.23801   0.24035   0.25315   0.25337   0.26511

 Mulliken charges:
               1
     1  C    2.272230
     2  C   -2.933137
     3  F    0.053280
     4  H    1.476727
     5  H    1.167727
     6  C    2.749302
     7  N   -2.852257
     8  N    4.284302
     9  O   -3.080627
    10  O   -3.042542
    11  C   -3.725498
    12  H    1.053905
    13  H    1.349466
    14  H    1.209151
    15  Cl  -0.982032
 Sum of Mulliken charges =  -1.00000

 Dipole moment (field-independent basis, Debye):
    X=            -10.5986    Y=              2.1647    Z=             -1.6279  Tot=             10.9392

 Test job not archived.
 1\1\GINC-SE080\SP\RHF\Aug-CC-pVDZ\C4H5Cl1F1N2O2(1-)\OHZDE\09-Apr-2025\
 0\\#t hf aug-cc-pvdz iop(5/13=1,5/36=2,99/5=2) pseudo=read geom=check
 guess=(read,tcheck) scf=(maxcycle=1)\\title\\-1,1\C,0,-0.068751,-0.003
 771,-0.006509\C,0,-0.488242,0.258565,-1.427615\F,0,1.327818,-0.002866,
 0.055513\H,0,0.107804,-0.415732,-2.047493\H,0,-1.540704,-0.009985,-1.5
 04297\C,0,-0.514908,0.976163,0.988626\N,0,-0.577914,1.865907,1.754552\
 N,0,-0.410934,-1.415144,0.457929\O,0,-0.515481,-2.267849,-0.414392\O,0
 ,-0.405334,-1.604981,1.667062\C,0,-0.270063,1.718858,-1.80597\H,0,-0.4

 Normal termination of Gaussian 16 at Wed Apr  9 02:47:59 2025.
