 Gaussian 16, Revision C.01,

 ----------------------------------------------------------------------
 #t hf aug-cc-pvdz symm=none int=(grid=ultrafine) guess=(read,tcheck) s
 table=(opt,rrhf)
 ----------------------------------------------------------------------
 -----
 title
 -----
 Symbolic Z-matrix:
 Charge = -1 Multiplicity = 1

 SCF Done:  E(RHF) =  -875.298772150     A.U. after   17 cycles
 Normal termination of Gaussian 16 at Wed Apr  9 02:54:44 2025.
 Gaussian 16:  ES64L-G16RevC.01  3-Jul-2019

 ----------------------------------------------------------------------
 #t hf aug-cc-pvdz iop(5/13=1,5/36=2,99/5=2) pseudo=read geom=check gue
 ss=(read,tcheck) scf=(maxcycle=1)
 ----------------------------------------------------------------------
 -----
 title
 -----
 Structure from the checkpoint file:  "E2SN2_344_mol2.chk"
 Charge = -1 Multiplicity = 1

                         Standard orientation:
 ---------------------------------------------------------------------
 Center     Atomic      Atomic             Coordinates (Angstroms)
 Number     Number       Type             X           Y           Z
 ---------------------------------------------------------------------
      1          6           0       -0.925210    0.046844    0.033799
      2          6           0        0.362412    0.637609   -0.554455
      3         17           0       -0.793710   -1.771747   -0.126163
      4          1           0        0.431535    0.320708   -1.602045
      5          6           0       -1.175989    0.392799    1.488712
      6          1           0       -1.325655    1.476271    1.555033
      7          1           0       -0.346570    0.088246    2.122810
      8          1           0       -2.091241   -0.108009    1.817011
      9          6           0       -2.092927    0.501528   -0.825972
     10          1           0       -2.216912    1.583123   -0.684664
     11          1           0       -1.918961    0.268976   -1.880290
     12          1           0       -3.004737   -0.007941   -0.503384
     13          7           0        1.610006   -0.075723    0.021309
     14          8           0        2.365741   -0.602037   -0.800439
     15          8           0        1.819848   -0.031966    1.228645
     16          7           0        0.480753    2.022444   -0.320125
     17          1           0       -0.400300    2.553907   -0.023777
     18          1           0        0.859263    2.495443   -1.130138
     19          1           0       -1.623085    3.421264    0.287785
 ---------------------------------------------------------------------

 SCF Done:  E(RHF) =  -877.495104635     A.U. after    2 cycles

 The electronic state is 1-A.
 Alpha  occ. eigenvalues --  -99.75978 -20.96761 -20.96556 -15.85029 -15.59120
 Alpha  occ. eigenvalues --  -11.40268 -11.34664 -11.27393 -11.24826 -10.33383
 Alpha  occ. eigenvalues --   -9.53419  -9.52814  -9.52627  -1.85538  -1.55813
 Alpha  occ. eigenvalues --   -1.29674  -1.19252  -1.04695  -0.96936  -0.90268
 Alpha  occ. eigenvalues --   -0.76929  -0.67450  -0.59493  -0.57726  -0.56603
 Alpha  occ. eigenvalues --   -0.50350  -0.48652  -0.46867  -0.46522  -0.44010
 Alpha  occ. eigenvalues --   -0.42166  -0.40681  -0.38536  -0.37055  -0.33720
 Alpha  occ. eigenvalues --   -0.32710  -0.25992  -0.20589  -0.18391  -0.18339
 Alpha  occ. eigenvalues --   -0.11761
 Alpha virt. eigenvalues --    0.13224   0.13902   0.14339   0.15414   0.16151
 Alpha virt. eigenvalues --    0.16337   0.16820   0.18269   0.19040   0.21316
 Alpha virt. eigenvalues --    0.22056   0.22660   0.22989   0.24273   0.24500

 Mulliken charges:
               1
     1  C    1.353950
     2  C    0.711831
     3  Cl  -0.311357
     4  H    1.885873
     5  C   -4.122250
     6  H    1.573356
     7  H    1.298830
     8  H    1.229310
     9  C   -4.294447
    10  H    1.565705
    11  H    1.094286
    12  H    1.114479
    13  N    4.535715
    14  O   -2.848334
    15  O   -2.918213
    16  N   -3.127075
    17  H    0.733852
    18  H    0.522900
    19  H   -0.998412
 Sum of Mulliken charges =  -1.00000

 Dipole moment (field-independent basis, Debye):
    X=              2.6404    Y=             -8.0752    Z=             -1.6030  Tot=              8.6459

 Test job not archived.
 1\1\GINC-SE366\SP\RHF\Aug-CC-pVDZ\C4H10Cl1N2O2(1-)\OHZDE\09-Apr-2025\0
 \\#t hf aug-cc-pvdz iop(5/13=1,5/36=2,99/5=2) pseudo=read geom=check g
 uess=(read,tcheck) scf=(maxcycle=1)\\title\\-1,1\C,0,-0.020404,0.00784
 ,-0.020788\C,0,-0.38311,-0.025895,-1.510862\Cl,0,1.807186,-0.004064,0.
 078847\H,0,0.046484,-0.937945,-1.942443\C,0,-0.543277,1.21517,0.733073
 \H,0,-1.63795,1.16661,0.726585\H,0,-0.205504,2.146362,0.284119\H,0,-0.
 196349,1.160864,1.768914\C,0,-0.524925,-1.274274,0.620421\H,0,-1.62231
 5,-1.243908,0.620963\H,0,-0.164891,-2.153159,0.078325\H,0,-0.168432,-1

 Normal termination of Gaussian 16 at Wed Apr  9 02:54:53 2025.
