 Gaussian 16, Revision C.01,

 ----------------------------------------------------------------------
 #t hf aug-cc-pvdz symm=none int=(grid=ultrafine) guess=(read,tcheck) s
 table=(opt,rrhf)
 ----------------------------------------------------------------------
 -----
 title
 -----
 Symbolic Z-matrix:
 Charge = -1 Multiplicity = 1

 SCF Done:  E(RHF) =  -763.503358732     A.U. after   17 cycles
 Normal termination of Gaussian 16 at Wed Apr  9 02:33:19 2025.
 Gaussian 16:  ES64L-G16RevC.01  3-Jul-2019

 ----------------------------------------------------------------------
 #t hf aug-cc-pvdz iop(5/13=1,5/36=2,99/5=2) pseudo=read geom=check gue
 ss=(read,tcheck) scf=(maxcycle=1)
 ----------------------------------------------------------------------
 -----
 title
 -----
 Structure from the checkpoint file:  "E2SN2_105_mol1.chk"
 Charge = -1 Multiplicity = 1

                         Standard orientation:
 ---------------------------------------------------------------------
 Center     Atomic      Atomic             Coordinates (Angstroms)
 Number     Number       Type             X           Y           Z
 ---------------------------------------------------------------------
      1          6           0       -0.269081   -0.023330    0.373899
      2          6           0        1.101166    0.426562    0.061058
      3         17           0       -0.892388   -1.431164   -0.812377
      4          1           0        2.252496    1.866827    1.688460
      5          1           0        1.417324    1.285291    0.898622
      6          6           0       -0.391042   -0.595600    1.771883
      7          1           0        0.291195   -1.439874    1.847135
      8          1           0       -0.064290    0.177300    2.477404
      9          1           0       -1.415493   -0.902082    1.990741
     10          6           0       -1.249785    1.038027    0.155119
     11          7           0       -2.034417    1.903401    0.017097
     12          7           0        2.082827   -0.585273    0.399193
     13          1           0        2.798221   -0.090919    0.944053
     14          1           0        2.512588   -0.956447   -0.440587
     15          6           0        1.299256    1.064700   -1.294850
     16          1           0        2.250208    1.609883   -1.276154
     17          1           0        1.339201    0.312459   -2.094540
     18          1           0        0.507194    1.778300   -1.541397
 ---------------------------------------------------------------------

 SCF Done:  E(RHF) =  -765.266321745     A.U. after    2 cycles

 The electronic state is 1-A.
 Alpha  occ. eigenvalues --  -99.74585 -15.64764 -15.58535 -11.40441 -11.33498
 Alpha  occ. eigenvalues --  -11.29235 -11.26961 -11.23661 -10.31725  -9.51754
 Alpha  occ. eigenvalues --   -9.51180  -9.51122  -1.28343  -1.17671  -1.14624
 Alpha  occ. eigenvalues --   -1.03080  -0.94341  -0.83473  -0.72034  -0.59441
 Alpha  occ. eigenvalues --   -0.52758  -0.51210  -0.48375  -0.45218  -0.44035
 Alpha  occ. eigenvalues --   -0.42548  -0.39335  -0.39269  -0.37203  -0.35119
 Alpha  occ. eigenvalues --   -0.33854  -0.33088  -0.30710  -0.30110  -0.21455
 Alpha  occ. eigenvalues --   -0.10070
 Alpha virt. eigenvalues --    0.13590   0.14126   0.14809   0.15227   0.15648
 Alpha virt. eigenvalues --    0.16396   0.17002   0.17396   0.18248   0.19634
 Alpha virt. eigenvalues --    0.20045   0.21177   0.22577   0.23124   0.24708

 Mulliken charges:
               1
     1  C    0.207064
     2  C    1.842793
     3  Cl  -0.259314
     4  H   -0.348905
     5  H    1.525200
     6  C   -4.045218
     7  H    1.318587
     8  H    1.298022
     9  H    1.200497
    10  C    2.403486
    11  N   -2.679067
    12  N   -3.108098
    13  H    0.430993
    14  H    0.588029
    15  C   -4.935941
    16  H    1.222432
    17  H    1.163414
    18  H    1.176026
 Sum of Mulliken charges =  -1.00000

 Dipole moment (field-independent basis, Debye):
    X=             -3.1282    Y=             -5.2247    Z=             -3.3739  Tot=              6.9618

 Test job not archived.
 1\1\GINC-SE344\SP\RHF\Aug-CC-pVDZ\C5H10Cl1N2(1-)\OHZDE\09-Apr-2025\0\\
 #t hf aug-cc-pvdz iop(5/13=1,5/36=2,99/5=2) pseudo=read geom=check gue
 ss=(read,tcheck) scf=(maxcycle=1)\\title\\-1,1\C,0,-0.12549689,-0.0068
 541,-0.44628487\C,0,-0.214732,-0.04255468,1.02633512\Cl,0,1.70736253,0
 .00407252,-1.09302064\H,0,-2.40255569,-0.50940372,2.04802059\H,0,-1.41
 617355,-0.09432789,1.33087207\C,0,-0.7727572,-1.21119535,-1.10000207\H
 ,0,-0.26917819,-2.10201225,-0.73018989\H,0,-1.81892194,-1.24454911,-0.
 77392296\H,0,-0.71502588,-1.1548107,-2.18849534\C,0,-0.66511109,1.2375

 Normal termination of Gaussian 16 at Wed Apr  9 02:33:28 2025.
