 Gaussian 16, Revision C.01,

 ----------------------------------------------------------------------
 #t hf aug-cc-pvdz symm=none int=(grid=ultrafine) guess=(read,tcheck) s
 table=(opt,rrhf)
 ----------------------------------------------------------------------
 -----
 title
 -----
 Symbolic Z-matrix:
 Charge = -1 Multiplicity = 1

 SCF Done:  E(RHF) =  -839.414088152     A.U. after   16 cycles
 Normal termination of Gaussian 16 at Wed Apr  9 02:39:58 2025.
 Gaussian 16:  ES64L-G16RevC.01  3-Jul-2019

 ----------------------------------------------------------------------
 #t hf aug-cc-pvdz iop(5/13=1,5/36=2,99/5=2) pseudo=read geom=check gue
 ss=(read,tcheck) scf=(maxcycle=1)
 ----------------------------------------------------------------------
 -----
 title
 -----
 Structure from the checkpoint file:  "E2SN2_183_mol1.chk"
 Charge = -1 Multiplicity = 1

                         Standard orientation:
 ---------------------------------------------------------------------
 Center     Atomic      Atomic             Coordinates (Angstroms)
 Number     Number       Type             X           Y           Z
 ---------------------------------------------------------------------
      1          6           0       -0.079136   -0.253949    0.566865
      2          1           0       -1.048087    1.529169    1.000839
      3         17           0        2.075571   -0.408832    0.117893
      4          9           0       -1.935462   -0.455260    1.119209
      5          6           0       -0.472367    1.170727    0.143273
      6          1           0        0.131634   -0.440815    1.603643
      7          6           0       -0.381588   -1.392126   -0.269886
      8          7           0       -0.607829   -2.326034   -0.947041
      9          7           0       -1.312234    1.042886   -1.052347
     10          1           0       -1.710372    1.956123   -1.248454
     11          1           0       -2.076589    0.438144   -0.758478
     12          7           0        0.630841    2.093289   -0.032693
     13          1           0        0.237164    2.987254   -0.309065
     14          1           0        1.223791    1.758700   -0.782503
 ---------------------------------------------------------------------

 SCF Done:  E(RHF) =  -841.329130982     A.U. after    2 cycles

 The electronic state is 1-A.
 Alpha  occ. eigenvalues --  -99.67541 -28.95442 -15.60823 -15.60745 -15.59807
 Alpha  occ. eigenvalues --  -11.42066 -11.31823 -11.29705 -10.24569  -9.44585
 Alpha  occ. eigenvalues --   -9.44209  -9.43992  -1.30145  -1.15651  -1.11274
 Alpha  occ. eigenvalues --   -1.06719  -0.96962  -0.76943  -0.60663  -0.57572
 Alpha  occ. eigenvalues --   -0.55857  -0.46719  -0.46235  -0.41355  -0.40126
 Alpha  occ. eigenvalues --   -0.36909  -0.32284  -0.31197  -0.30375  -0.28284
 Alpha  occ. eigenvalues --   -0.26323  -0.24618  -0.22919  -0.05396  -0.02976
 Alpha  occ. eigenvalues --   -0.02173
 Alpha virt. eigenvalues --    0.12603   0.14292   0.15234   0.16118   0.17120
 Alpha virt. eigenvalues --    0.18294   0.20889   0.21862   0.23660   0.23881
 Alpha virt. eigenvalues --    0.25008   0.25779   0.26514   0.27853   0.27924

 Mulliken charges:
               1
     1  C   -1.632519
     2  H    1.512367
     3  Cl  -0.576376
     4  F   -0.333667
     5  C    1.641986
     6  H    1.497859
     7  C    3.578628
     8  N   -3.055234
     9  N   -2.877705
    10  H    0.577469
    11  H    0.575929
    12  N   -2.917080
    13  H    0.527886
    14  H    0.480457
 Sum of Mulliken charges =  -1.00000

 Dipole moment (field-independent basis, Debye):
    X=             -5.1990    Y=              5.0857    Z=              1.4039  Tot=              7.4071

 Test job not archived.
 1\1\GINC-SE344\SP\RHF\Aug-CC-pVDZ\C3H6Cl1F1N3(1-)\OHZDE\09-Apr-2025\0\
 \#t hf aug-cc-pvdz iop(5/13=1,5/36=2,99/5=2) pseudo=read geom=check gu
 ess=(read,tcheck) scf=(maxcycle=1)\\title\\-1,1\C,0,0.61782108,-0.0180
 0775,-0.00054598\H,0,1.61979144,1.71315123,-0.55358654\Cl,0,-1.3206410
 2,-0.64481086,-0.84778249\F,0,2.39777735,0.16708455,0.76695056\C,0,0.6
 3180425,1.51393399,-0.12985728\H,0,1.12384002,-0.60030337,-0.74829503\
 C,0,0.32497672,-0.65833422,1.26092057\N,0,0.07392621,-1.19347738,2.277
 04245\N,0,0.50955843,2.0568861,1.22715635\H,0,0.6789266,3.05669774,1.1

 Normal termination of Gaussian 16 at Wed Apr  9 02:40:04 2025.
