 Gaussian 16, Revision C.01,

 ----------------------------------------------------------------------
 #t hf aug-cc-pvdz symm=none int=(grid=ultrafine) guess=(read,tcheck) s
 table=(opt,rrhf)
 ----------------------------------------------------------------------
 -----
 title
 -----
 Symbolic Z-matrix:
 Charge = -1 Multiplicity = 1

 SCF Done:  E(RHF) =  -1026.92765669     A.U. after   17 cycles
 Normal termination of Gaussian 16 at Wed Apr  9 02:58:17 2025.
 Gaussian 16:  ES64L-G16RevC.01  3-Jul-2019

 ----------------------------------------------------------------------
 #t hf aug-cc-pvdz iop(5/13=1,5/36=2,99/5=2) pseudo=read geom=check gue
 ss=(read,tcheck) scf=(maxcycle=1)
 ----------------------------------------------------------------------
 -----
 title
 -----
 Structure from the checkpoint file:  "E2SN2_379_mol1.chk"
 Charge = -1 Multiplicity = 1

                         Standard orientation:
 ---------------------------------------------------------------------
 Center     Atomic      Atomic             Coordinates (Angstroms)
 Number     Number       Type             X           Y           Z
 ---------------------------------------------------------------------
      1          6           0        0.244794   -0.050551    0.443585
      2          1           0       -0.878060   -1.771332    0.661741
      3         17           0       -0.381732    1.789197   -0.585845
      4          9           0        1.076427   -1.639746    1.083022
      5          6           0       -0.937810   -0.912609   -0.009039
      6          7           0        0.187520    0.464247    1.752303
      7          1           0        0.476732    1.431282    1.759734
      8          1           0        0.824210   -0.109046    2.291315
      9          7           0        1.578510    0.027328   -0.295823
     10          8           0        1.683305   -0.491851   -1.395869
     11          8           0        2.464059    0.634008    0.289003
     12          6           0       -0.953505   -1.429825   -1.445341
     13          1           0       -0.906366   -0.605986   -2.156010
     14          1           0       -0.101809   -2.086416   -1.603167
     15          1           0       -1.880220   -1.988939   -1.603306
     16          6           0       -2.211364   -0.252096    0.302267
     17          7           0       -3.303815    0.109144    0.538942
 ---------------------------------------------------------------------

 SCF Done:  E(RHF) =  -1029.64124154     A.U. after    2 cycles

 The electronic state is 1-A.
 Alpha  occ. eigenvalues --  -99.69230 -28.98290 -20.96059 -20.95854 -15.86997
 Alpha  occ. eigenvalues --  -15.63283 -15.63196 -11.51378 -11.36978 -11.31483
 Alpha  occ. eigenvalues --  -11.27134 -10.26379  -9.46487  -9.46025  -9.45910
 Alpha  occ. eigenvalues --   -1.86373  -1.56398  -1.30711  -1.18405  -1.09478
 Alpha  occ. eigenvalues --   -1.06683  -0.97856  -0.85921  -0.69403  -0.66297
 Alpha  occ. eigenvalues --   -0.58548  -0.57693  -0.54804  -0.53610  -0.47344
 Alpha  occ. eigenvalues --   -0.45577  -0.42600  -0.40318  -0.39294  -0.35266
 Alpha  occ. eigenvalues --   -0.34875  -0.33813  -0.33151  -0.30105  -0.29728
 Alpha  occ. eigenvalues --   -0.28609  -0.22155  -0.19049  -0.17501  -0.08426
 Alpha  occ. eigenvalues --   -0.05224  -0.04507
 Alpha virt. eigenvalues --    0.13296   0.14521   0.15344   0.15668   0.15772
 Alpha virt. eigenvalues --    0.17340   0.19653   0.20743   0.22498   0.23310
 Alpha virt. eigenvalues --    0.23794   0.24675   0.24830   0.25824   0.25957

 Mulliken charges:
               1
     1  C    4.524007
     2  H    1.226434
     3  Cl  -0.729655
     4  F   -0.466552
     5  C   -0.947695
     6  N   -3.700152
     7  H    0.605069
     8  H    0.388799
     9  N    5.851806
    10  O   -3.581626
    11  O   -3.347724
    12  C   -3.998208
    13  H    1.200621
    14  H    1.369751
    15  H    1.065608
    16  C    2.353038
    17  N   -2.813521
 Sum of Mulliken charges =  -1.00000

 Dipole moment (field-independent basis, Debye):
    X=              3.1882    Y=             -5.1336    Z=              1.2986  Tot=              6.1810

 Test job not archived.
 1\1\GINC-SE040\SP\RHF\Aug-CC-pVDZ\C4H6Cl1F1N3O2(1-)\OHZDE\09-Apr-2025\
 0\\#t hf aug-cc-pvdz iop(5/13=1,5/36=2,99/5=2) pseudo=read geom=check
 guess=(read,tcheck) scf=(maxcycle=1)\\title\\-1,1\C,0,0.53654554,-0.08
 254798,-0.02705679\H,0,1.56785179,1.6949,-0.24285154\Cl,0,-1.64188364,
 -0.34783214,-0.17197789\F,0,2.37851838,-0.00184278,0.44902701\C,0,0.52
 469105,1.449224,-0.0369836\N,0,0.86201396,-0.72009952,-1.23893045\H,0,
 0.23743405,-1.49571573,-1.40377813\H,0,1.81526893,-1.04015928,-1.12300
 182\N,0,0.5235584,-0.92945036,1.24344603\O,0,0.33464863,-0.38759577,2.

 Normal termination of Gaussian 16 at Wed Apr  9 02:58:27 2025.
