 Gaussian 16, Revision C.01,

 ----------------------------------------------------------------------
 #t hf aug-cc-pvdz symm=none int=(grid=ultrafine) guess=(read,tcheck) s
 table=(opt,rrhf)
 ----------------------------------------------------------------------
 -----
 title
 -----
 Symbolic Z-matrix:
 Charge = -1 Multiplicity = 1

 SCF Done:  E(RHF) =  -508.813387641     A.U. after   18 cycles
 Normal termination of Gaussian 16 at Wed Apr  9 03:01:35 2025.
 Gaussian 16:  ES64L-G16RevC.01  3-Jul-2019

 ----------------------------------------------------------------------
 #t hf aug-cc-pvdz iop(5/13=1,5/36=2,99/5=2) pseudo=read geom=check gue
 ss=(read,tcheck) scf=(maxcycle=1)
 ----------------------------------------------------------------------
 -----
 title
 -----
 Structure from the checkpoint file:  "E2SN2_69_mol1.chk"
 Charge = -1 Multiplicity = 1

                         Standard orientation:
 ---------------------------------------------------------------------
 Center     Atomic      Atomic             Coordinates (Angstroms)
 Number     Number       Type             X           Y           Z
 ---------------------------------------------------------------------
      1          6           0        0.507263    0.388878   -0.061828
      2          6           0       -0.955355    0.339209   -0.430630
      3          9           0        0.943031    1.696885   -0.154235
      4          1           0        0.221405    0.245986   -2.421620
      5          1           0       -0.607730    0.361617   -1.712242
      6          6           0        0.795490   -0.076691    1.299880
      7          7           0        1.013034   -0.422278    2.402634
      8          6           0        1.335954   -0.435287   -1.069747
      9          7           0        2.221770   -1.220712   -1.188647
     10          7           0       -1.724824    1.511325   -0.082239
     11          1           0       -2.251854    1.372859    0.771842
     12          1           0       -2.375294    1.722004   -0.828511
     13          6           0       -1.556723   -0.935318   -0.151373
     14          7           0       -2.114776   -1.962504    0.019800
 ---------------------------------------------------------------------

 SCF Done:  E(RHF) =  -511.034001579     A.U. after    2 cycles

 The electronic state is 1-A.
 Alpha  occ. eigenvalues --  -29.16201 -15.66319 -15.64098 -15.63541 -15.60725
 Alpha  occ. eigenvalues --  -11.46104 -11.35039 -11.34077 -11.31441 -11.29612
 Alpha  occ. eigenvalues --   -1.31388  -1.20722  -1.15589  -1.15313  -1.07803
 Alpha  occ. eigenvalues --   -0.87705  -0.72180  -0.67684  -0.59211  -0.56365
 Alpha  occ. eigenvalues --   -0.49517  -0.46595  -0.41810  -0.39844  -0.39550
 Alpha  occ. eigenvalues --   -0.35891  -0.34034  -0.32762  -0.31617  -0.30092
 Alpha  occ. eigenvalues --   -0.28368  -0.27338  -0.23814  -0.16118  -0.15358
 Alpha  occ. eigenvalues --   -0.11697
 Alpha virt. eigenvalues --    0.12698   0.14749   0.16985   0.18080   0.19231
 Alpha virt. eigenvalues --    0.20090   0.20940   0.21742   0.22374   0.23361
 Alpha virt. eigenvalues --    0.23919   0.24229   0.24899   0.25176   0.25659

 Mulliken charges:
               1
     1  C    2.280014
     2  C    0.825443
     3  F    0.210103
     4  H    0.079954
     5  H    0.921575
     6  C    0.997039
     7  N   -2.453242
     8  C    1.867946
     9  N   -2.721076
    10  N   -3.138793
    11  H    0.592363
    12  H    0.467013
    13  C    1.610595
    14  N   -2.538933
 Sum of Mulliken charges =  -1.00000

 Dipole moment (field-independent basis, Debye):
    X=             -2.4500    Y=              6.6455    Z=              2.1217  Tot=              7.3937

 Test job not archived.
 1\1\GINC-SE131\SP\RHF\Aug-CC-pVDZ\C5H4F1N4(1-)\OHZDE\09-Apr-2025\0\\#t
  hf aug-cc-pvdz iop(5/13=1,5/36=2,99/5=2) pseudo=read geom=check guess
 =(read,tcheck) scf=(maxcycle=1)\\title\\-1,1\C,0,-0.2383838,0.07235243
 ,-0.34848508\C,0,0.34599579,0.01945764,1.04199508\F,0,0.39999681,1.070
 54623,-1.05939466\H,0,-1.28150081,1.66479456,1.08217445\H,0,-0.4222777
 4,1.04952818,1.3775308\C,0,-0.08727936,-1.17490944,-1.10715667\N,0,0.0
 6571419,-2.16790396,-1.71820247\C,0,-1.73290997,0.4514265,-0.28086653\
 N,0,-2.81769868,0.21071277,-0.7062974\N,0,1.74569514,0.36321608,1.1419

 Normal termination of Gaussian 16 at Wed Apr  9 03:01:41 2025.
