 Gaussian 16, Revision C.01,

 ----------------------------------------------------------------------
 #t hf aug-cc-pvdz symm=none int=(grid=ultrafine) guess=(read,tcheck) s
 table=(opt,rrhf)
 ----------------------------------------------------------------------
 -----
 title
 -----
 Symbolic Z-matrix:
 Charge = -1 Multiplicity = 1

 SCF Done:  E(RHF) =  -724.456810805     A.U. after   17 cycles
 Normal termination of Gaussian 16 at Wed Apr  9 02:34:51 2025.
 Gaussian 16:  ES64L-G16RevC.01  3-Jul-2019

 ----------------------------------------------------------------------
 #t hf aug-cc-pvdz iop(5/13=1,5/36=2,99/5=2) pseudo=read geom=check gue
 ss=(read,tcheck) scf=(maxcycle=1)
 ----------------------------------------------------------------------
 -----
 title
 -----
 Structure from the checkpoint file:  "E2SN2_124_mol1.chk"
 Charge = -1 Multiplicity = 1

                         Standard orientation:
 ---------------------------------------------------------------------
 Center     Atomic      Atomic             Coordinates (Angstroms)
 Number     Number       Type             X           Y           Z
 ---------------------------------------------------------------------
      1          6           0        0.104917   -0.229706    0.166868
      2          6           0       -0.935197   -0.780717   -0.691883
      3         17           0        0.367283    1.762861   -0.076668
      4          1           0       -1.302490   -2.774571    0.747903
      5          1           0       -1.033615   -1.920336   -0.147385
      6          1           0       -0.638047   -0.855227   -1.740211
      7          7           0       -0.107669   -0.396064    1.577101
      8          1           0       -0.476425   -1.369254    1.650105
      9          1           0       -0.875635    0.210942    1.843196
     10          6           0       -2.329929   -0.231787   -0.479157
     11          1           0       -2.355833    0.862780   -0.488574
     12          1           0       -2.997740   -0.600490   -1.263151
     13          1           0       -2.730525   -0.596645    0.473488
     14          6           0        1.428258   -0.736680   -0.205216
     15          7           0        2.473127   -1.182865   -0.507913
 ---------------------------------------------------------------------

 SCF Done:  E(RHF) =  -726.021148963     A.U. after    2 cycles

 The electronic state is 1-A.
 Alpha  occ. eigenvalues --  -99.72939 -15.64222 -15.61097 -11.41429 -11.31955
 Alpha  occ. eigenvalues --  -11.27408 -11.22787 -10.29997  -9.50025  -9.49437
 Alpha  occ. eigenvalues --   -9.49346  -1.30040  -1.15675  -1.10731  -1.02590
 Alpha  occ. eigenvalues --   -0.88836  -0.73038  -0.59162  -0.55197  -0.49505
 Alpha  occ. eigenvalues --   -0.47544  -0.43293  -0.41692  -0.39152  -0.36499
 Alpha  occ. eigenvalues --   -0.35694  -0.34740  -0.33473  -0.30344  -0.30078
 Alpha  occ. eigenvalues --   -0.24759  -0.11302
 Alpha virt. eigenvalues --    0.13377   0.14772   0.15011   0.15747   0.16748
 Alpha virt. eigenvalues --    0.17839   0.18734   0.19427   0.20030   0.21266
 Alpha virt. eigenvalues --    0.22477   0.23309   0.24504   0.24873   0.25353

 Mulliken charges:
               1
     1  C    2.687789
     2  C   -2.721796
     3  Cl  -0.310377
     4  H   -0.400584
     5  H    1.019573
     6  H    1.206781
     7  N   -3.016549
     8  H    0.661827
     9  H    0.622841
    10  C   -3.587509
    11  H    1.265604
    12  H    1.095209
    13  H    1.318658
    14  C    1.722926
    15  N   -2.564394
 Sum of Mulliken charges =  -1.00000

 Dipole moment (field-independent basis, Debye):
    X=             -0.7033    Y=              5.2267    Z=             -1.4887  Tot=              5.4799

 Test job not archived.
 1\1\GINC-SE112\SP\RHF\Aug-CC-pVDZ\C4H8Cl1N2(1-)\OHZDE\09-Apr-2025\0\\#
 t hf aug-cc-pvdz iop(5/13=1,5/36=2,99/5=2) pseudo=read geom=check gues
 s=(read,tcheck) scf=(maxcycle=1)\\title\\-1,1\C,0,-0.24837477,0.013531
 32,-0.29763185\C,0,-0.20546931,0.04506804,1.15841324\Cl,0,1.5879673,-0
 .03409374,-1.14854402\H,0,-2.51707325,-0.83518273,1.41334036\H,0,-1.43
 160363,-0.18388365,1.37993684\H,0,0.10744261,1.01028309,1.56250251\N,0
 ,-0.94050677,-1.10678086,-0.86988934\H,0,-1.7763431,-1.21119772,-0.254
 35263\H,0,-0.37269519,-1.93142189,-0.70681648\C,0,0.4421388,-1.1481272

 Normal termination of Gaussian 16 at Wed Apr  9 02:34:56 2025.
