 Gaussian 16, Revision C.01,

 ----------------------------------------------------------------------
 #t hf aug-cc-pvdz symm=none int=(grid=ultrafine) guess=(read,tcheck) s
 table=(opt,rrhf)
 ----------------------------------------------------------------------
 -----
 title
 -----
 Symbolic Z-matrix:
 Charge = -1 Multiplicity = 1

 SCF Done:  E(RHF) =  -1181.22323953     A.U. after   15 cycles
 Normal termination of Gaussian 16 at Wed Apr  9 02:45:43 2025.
 Gaussian 16:  ES64L-G16RevC.01  3-Jul-2019

 ----------------------------------------------------------------------
 #t hf aug-cc-pvdz iop(5/13=1,5/36=2,99/5=2) pseudo=read geom=check gue
 ss=(read,tcheck) scf=(maxcycle=1)
 ----------------------------------------------------------------------
 -----
 title
 -----
 Structure from the checkpoint file:  "E2SN2_252_mol2.chk"
 Charge = -1 Multiplicity = 1

                         Standard orientation:
 ---------------------------------------------------------------------
 Center     Atomic      Atomic             Coordinates (Angstroms)
 Number     Number       Type             X           Y           Z
 ---------------------------------------------------------------------
      1          6           0        0.303988   -0.465787   -0.124425
      2          6           0        0.219268    0.596565    0.972827
      3         17           0        1.981435   -0.625583   -0.759813
      4          1           0       -0.850849    0.715474    1.177785
      5          1           0       -0.360208   -0.182202   -0.942209
      6          1           0        0.753763    0.265137    1.867283
      7          6           0       -0.106476   -1.760854    0.409379
      8          7           0       -0.364706   -2.812228    0.863541
      9          6           0        0.767300    1.881349    0.548512
     10          7           0        1.242266    2.913882    0.256778
     11         17           0       -2.733794    0.448076   -0.462708
 ---------------------------------------------------------------------

 SCF Done:  E(RHF) =  -1182.90721291     A.U. after    2 cycles

 The electronic state is 1-A.
 Alpha  occ. eigenvalues --  -99.80058 -99.61880 -15.66890 -15.66133 -11.41438
 Alpha  occ. eigenvalues --  -11.36528 -11.34435 -11.32276 -10.37414 -10.18540
 Alpha  occ. eigenvalues --   -9.57339  -9.56616  -9.56471  -9.38515  -9.38207
 Alpha  occ. eigenvalues --   -9.38102  -1.30243  -1.19781  -1.18411  -1.06984
 Alpha  occ. eigenvalues --   -0.97575  -0.89871  -0.65567  -0.59841  -0.58758
 Alpha  occ. eigenvalues --   -0.51811  -0.48756  -0.44066  -0.41747  -0.40571
 Alpha  occ. eigenvalues --   -0.38995  -0.34769  -0.33565  -0.32714  -0.31533
 Alpha  occ. eigenvalues --   -0.25885  -0.25621  -0.25509
 Alpha virt. eigenvalues --    0.13071   0.15004   0.16378   0.17346   0.18420
 Alpha virt. eigenvalues --    0.19211   0.20566   0.20739   0.22049   0.23040
 Alpha virt. eigenvalues --    0.23656   0.24028   0.24353   0.26185   0.26579

 Mulliken charges:
               1
     1  C   -1.949010
     2  C   -2.507510
     3  Cl   0.047817
     4  H    1.459033
     5  H    1.698260
     6  H    1.444181
     7  C    2.505678
     8  N   -2.554609
     9  C    2.308457
    10  N   -2.501782
    11  Cl  -0.950514
 Sum of Mulliken charges =  -1.00000

 Dipole moment (field-independent basis, Debye):
    X=              7.7946    Y=             -1.6128    Z=              2.0006  Tot=              8.2073

 Test job not archived.
 1\1\GINC-SE459\SP\RHF\Aug-CC-pVDZ\C4H3Cl2N2(1-)\OHZDE\09-Apr-2025\0\\#
 t hf aug-cc-pvdz iop(5/13=1,5/36=2,99/5=2) pseudo=read geom=check gues
 s=(read,tcheck) scf=(maxcycle=1)\\title\\-1,1\C,0,-0.111461,0.045467,0
 .013928\C,0,-0.516402,-0.088571,-1.455013\Cl,0,1.627729,-0.353074,0.25
 7779\H,0,-1.60624,0.02732,-1.465965\H,0,-0.719245,-0.635942,0.611112\H
 ,0,-0.035049,0.687649,-2.056147\C,0,-0.332329,1.41636,0.46392\N,0,-0.4
 4081,2.53666,0.797826\C,0,-0.171828,-1.393404,-2.011549\N,0,0.133186,-
 2.413864,-2.503945\Cl,0,-3.207481,-0.648246,0.347274\\Version=ES64L-G1

 Normal termination of Gaussian 16 at Wed Apr  9 02:45:47 2025.
