 Gaussian 16, Revision C.01,

 ----------------------------------------------------------------------
 #t hf aug-cc-pvdz symm=none int=(grid=ultrafine) guess=(read,tcheck) s
 table=(opt,rrhf)
 ----------------------------------------------------------------------
 -----
 title
 -----
 Symbolic Z-matrix:
 Charge = -1 Multiplicity = 1

 SCF Done:  E(RHF) =  -784.416122729     A.U. after   15 cycles
 Normal termination of Gaussian 16 at Wed Apr  9 02:38:32 2025.
 Gaussian 16:  ES64L-G16RevC.01  3-Jul-2019

 ----------------------------------------------------------------------
 #t hf aug-cc-pvdz iop(5/13=1,5/36=2,99/5=2) pseudo=read geom=check gue
 ss=(read,tcheck) scf=(maxcycle=1)
 ----------------------------------------------------------------------
 -----
 title
 -----
 Structure from the checkpoint file:  "E2SN2_16_mol1.chk"
 Charge = -1 Multiplicity = 1

                         Standard orientation:
 ---------------------------------------------------------------------
 Center     Atomic      Atomic             Coordinates (Angstroms)
 Number     Number       Type             X           Y           Z
 ---------------------------------------------------------------------
      1          6           0        0.001412   -0.545386    0.429122
      2          6           0       -0.245939    0.736191   -0.362673
      3         17           0        1.519058   -1.363276   -0.210258
      4          9           0       -2.867259    0.425465   -0.217088
      5          1           0       -1.354137    0.957901   -0.199472
      6          1           0        0.259472   -0.312766    1.463739
      7          1           0       -0.162061    0.520721   -1.432202
      8          7           0       -1.102615   -1.458757    0.402165
      9          1           0       -1.631965   -1.260339   -0.445528
     10          1           0       -1.767971   -1.074437    1.068304
     11          6           0        0.666989    1.807545   -0.014381
     12          7           0        1.403077    2.676661    0.277967
 ---------------------------------------------------------------------

 SCF Done:  E(RHF) =  -786.066367142     A.U. after    2 cycles

 The electronic state is 1-A.
 Alpha  occ. eigenvalues --  -99.74492 -28.90731 -15.62994 -15.59561 -11.36086
 Alpha  occ. eigenvalues --  -11.32420 -11.26602 -10.31845  -9.51786  -9.51040
 Alpha  occ. eigenvalues --   -9.51000  -1.28309  -1.16732  -1.12858  -0.98585
 Alpha  occ. eigenvalues --   -0.77149  -0.60428  -0.55922  -0.50330  -0.48082
 Alpha  occ. eigenvalues --   -0.44447  -0.40228  -0.39456  -0.35342  -0.34972
 Alpha  occ. eigenvalues --   -0.32059  -0.31068  -0.26619  -0.22284  -0.00203
 Alpha  occ. eigenvalues --    0.00858   0.02649
 Alpha virt. eigenvalues --    0.14808   0.15776   0.17243   0.17624   0.18122
 Alpha virt. eigenvalues --    0.18875   0.20660   0.22729   0.23555   0.25263
 Alpha virt. eigenvalues --    0.25553   0.25750   0.26623   0.27066   0.28464

 Mulliken charges:
               1
     1  C   -1.445144
     2  C   -1.411866
     3  Cl  -0.087351
     4  F   -0.589603
     5  H    1.140711
     6  H    2.008798
     7  H    1.435430
     8  N   -2.186393
     9  H    0.426178
    10  H    0.384947
    11  C    1.873175
    12  N   -2.548881
 Sum of Mulliken charges =  -1.00000

 Dipole moment (field-independent basis, Debye):
    X=              2.2704    Y=             -2.3841    Z=              0.4414  Tot=              3.3217

 Test job not archived.
 1\1\GINC-SE128\SP\RHF\Aug-CC-pVDZ\C3H5Cl1F1N2(1-)\OHZDE\09-Apr-2025\0\
 \#t hf aug-cc-pvdz iop(5/13=1,5/36=2,99/5=2) pseudo=read geom=check gu
 ess=(read,tcheck) scf=(maxcycle=1)\\title\\-1,1\C,0,-0.0837594,0.00805
 246,-0.37869466\C,0,-0.09444564,-0.0517658,1.14671339\Cl,0,1.64807164,
 0.21833452,-0.95967856\F,0,-2.41152941,1.21525035,1.26859805\H,0,-1.16
 763769,0.21539093,1.43092801\H,0,-0.37450144,-0.95499813,-0.80194549\H
 ,0,0.50906359,0.77014033,1.54370455\N,0,-0.91652216,1.04204538,-0.9183
 3735\H,0,-1.00647446,1.75738655,-0.19836533\H,0,-1.86031357,0.66877152

 Normal termination of Gaussian 16 at Wed Apr  9 02:38:38 2025.
