 Gaussian 16, Revision C.01,

 ----------------------------------------------------------------------
 #t hf aug-cc-pvdz symm=none int=(grid=ultrafine) guess=(read,tcheck) s
 table=(opt,rrhf)
 ----------------------------------------------------------------------
 -----
 title
 -----
 Symbolic Z-matrix:
 Charge = -1 Multiplicity = 1

 SCF Done:  E(RHF) =  -839.460262336     A.U. after   15 cycles
 Normal termination of Gaussian 16 at Wed Apr  9 02:39:55 2025.
 Gaussian 16:  ES64L-G16RevC.01  3-Jul-2019

 ----------------------------------------------------------------------
 #t hf aug-cc-pvdz iop(5/13=1,5/36=2,99/5=2) pseudo=read geom=check gue
 ss=(read,tcheck) scf=(maxcycle=1)
 ----------------------------------------------------------------------
 -----
 title
 -----
 Structure from the checkpoint file:  "E2SN2_183_mol2.chk"
 Charge = -1 Multiplicity = 1

                         Standard orientation:
 ---------------------------------------------------------------------
 Center     Atomic      Atomic             Coordinates (Angstroms)
 Number     Number       Type             X           Y           Z
 ---------------------------------------------------------------------
      1          6           0       -0.413171    0.034395    0.192152
      2          6           0        0.656798    0.120474   -0.919872
      3         17           0       -1.347034   -1.509009    0.081288
      4          1           0        0.157289    0.112713   -1.897821
      5          1           0        0.190626    0.013601    1.121871
      6          6           0       -1.364393    1.133667    0.146900
      7          7           0       -2.166242    1.992380    0.114034
      8          7           0        1.623998   -0.962597   -0.855226
      9          1           0        1.987622   -0.879948    0.107371
     10          1           0        1.148955   -1.854983   -0.944556
     11          7           0        1.292735    1.403473   -0.677211
     12          1           0        1.729425    1.255623    0.246657
     13          1           0        2.046739    1.481501   -1.352665
     14          9           0        1.901120    0.084515    1.639000
 ---------------------------------------------------------------------

 SCF Done:  E(RHF) =  -841.360884905     A.U. after    2 cycles

 The electronic state is 1-A.
 Alpha  occ. eigenvalues --  -99.76749 -28.91673 -15.63559 -15.57601 -15.57490
 Alpha  occ. eigenvalues --  -11.36230 -11.32109 -11.28762 -10.34087  -9.54059
 Alpha  occ. eigenvalues --   -9.53394  -9.53189  -1.31193  -1.20069  -1.15399
 Alpha  occ. eigenvalues --   -1.08824  -0.94743  -0.74860  -0.63356  -0.56072
 Alpha  occ. eigenvalues --   -0.52318  -0.50073  -0.45122  -0.42780  -0.40395
 Alpha  occ. eigenvalues --   -0.40085  -0.36814  -0.35617  -0.31767  -0.31146
 Alpha  occ. eigenvalues --   -0.27018  -0.22991  -0.20767  -0.00622  -0.00550
 Alpha  occ. eigenvalues --    0.01309
 Alpha virt. eigenvalues --    0.14279   0.15006   0.15355   0.16954   0.18065
 Alpha virt. eigenvalues --    0.19186   0.19664   0.20496   0.22515   0.23048
 Alpha virt. eigenvalues --    0.24894   0.25253   0.25847   0.26254   0.27460

 Mulliken charges:
               1
     1  C   -2.102320
     2  C    3.784256
     3  Cl  -0.154227
     4  H    1.775261
     5  H    1.432296
     6  C    2.391414
     7  N   -2.551690
     8  N   -3.122731
     9  H    0.270870
    10  H    0.522056
    11  N   -3.191325
    12  H    0.369281
    13  H    0.485764
    14  F   -0.908905
 Sum of Mulliken charges =  -1.00000

 Dipole moment (field-independent basis, Debye):
    X=             -0.6614    Y=             -1.8452    Z=             -2.4505  Tot=              3.1380

 Test job not archived.
 1\1\GINC-SE398\SP\RHF\Aug-CC-pVDZ\C3H6Cl1F1N3(1-)\OHZDE\09-Apr-2025\0\
 \#t hf aug-cc-pvdz iop(5/13=1,5/36=2,99/5=2) pseudo=read geom=check gu
 ess=(read,tcheck) scf=(maxcycle=1)\\title\\-1,1\C,0,-0.230229,-0.14800
 8,0.077655\C,0,-0.492427,-0.242088,-1.442622\Cl,0,1.095001,1.026291,0.
 439973\H,0,0.41427,-0.612274,-1.939428\H,0,-1.181336,0.262892,0.472542
 \C,0,0.1348,-1.426135,0.667922\N,0,0.463831,-2.438835,1.165523\N,0,-0.
 885805,1.029953,-2.025599\H,0,-1.706454,1.291895,-1.456769\H,0,-0.1560
 68,1.718917,-1.87457\N,0,-1.566134,-1.215263,-1.539938\H,0,-2.340506,-

 Normal termination of Gaussian 16 at Wed Apr  9 02:40:01 2025.
