 Gaussian 16, Revision C.01,

 ----------------------------------------------------------------------
 #t hf aug-cc-pvdz symm=none int=(grid=ultrafine) guess=(read,tcheck) s
 table=(opt,rrhf)
 ----------------------------------------------------------------------
 -----
 title
 -----
 Symbolic Z-matrix:
 Charge = -1 Multiplicity = 1

 SCF Done:  E(RHF) =  -935.178189479     A.U. after   16 cycles
 Normal termination of Gaussian 16 at Wed Apr  9 03:00:40 2025.
 Gaussian 16:  ES64L-G16RevC.01  3-Jul-2019

 ----------------------------------------------------------------------
 #t hf aug-cc-pvdz iop(5/13=1,5/36=2,99/5=2) pseudo=read geom=check gue
 ss=(read,tcheck) scf=(maxcycle=1)
 ----------------------------------------------------------------------
 -----
 title
 -----
 Structure from the checkpoint file:  "E2SN2_55_mol1.chk"
 Charge = -1 Multiplicity = 1

                         Standard orientation:
 ---------------------------------------------------------------------
 Center     Atomic      Atomic             Coordinates (Angstroms)
 Number     Number       Type             X           Y           Z
 ---------------------------------------------------------------------
      1          6           0       -0.394053   -0.057896   -0.528625
      2          6           0        0.699428   -0.901919   -0.070929
      3         17           0       -2.139340   -0.552542    0.057324
      4          9           0        2.735315    0.551037   -0.113159
      5          1           0        1.765978   -0.177546   -0.313234
      6          1           0       -0.504186   -0.025536   -1.608880
      7          6           0        0.699499   -2.243983   -0.777347
      8          1           0        0.613532   -2.136768   -1.865278
      9          1           0        1.639503   -2.754931   -0.556701
     10          1           0       -0.121105   -2.887274   -0.428147
     11          7           0        0.838313   -1.062170    1.372134
     12          1           0       -0.050196   -0.910715    1.838371
     13          1           0        1.478304   -0.337742    1.677216
     14          7           0       -0.260754    1.376779   -0.102521
     15          8           0       -0.103382    2.194169   -1.009279
     16          8           0       -0.289499    1.641446    1.093617
 ---------------------------------------------------------------------

 SCF Done:  E(RHF) =  -937.487457437     A.U. after    2 cycles

 The electronic state is 1-A.
 Alpha  occ. eigenvalues --  -99.75844 -28.94570 -20.96809 -20.96535 -15.86265
 Alpha  occ. eigenvalues --  -15.57437 -11.39831 -11.26614 -11.22227 -10.33010
 Alpha  occ. eigenvalues --   -9.53023  -9.52380  -9.52320  -1.85961  -1.55983
 Alpha  occ. eigenvalues --   -1.24561  -1.15849  -1.02899  -0.94060  -0.76377
 Alpha  occ. eigenvalues --   -0.69299  -0.60025  -0.57493  -0.55112  -0.50211
 Alpha  occ. eigenvalues --   -0.46760  -0.44958  -0.43765  -0.41857  -0.39029
 Alpha  occ. eigenvalues --   -0.37802  -0.36696  -0.33323  -0.25039  -0.21947
 Alpha  occ. eigenvalues --   -0.20067  -0.18381  -0.17255  -0.02665  -0.02398
 Alpha  occ. eigenvalues --    0.00880
 Alpha virt. eigenvalues --    0.13794   0.14646   0.15051   0.15842   0.16018
 Alpha virt. eigenvalues --    0.17336   0.18636   0.20413   0.21756   0.22840
 Alpha virt. eigenvalues --    0.25114   0.25706   0.26069   0.26601   0.26910

 Mulliken charges:
               1
     1  C   -2.401750
     2  C    1.438904
     3  Cl  -0.248742
     4  F    0.322296
     5  H    1.152854
     6  H    2.022144
     7  C   -3.948482
     8  H    1.105205
     9  H    1.179296
    10  H    1.195702
    11  N   -2.937481
    12  H    0.625035
    13  H    0.428050
    14  N    4.909798
    15  O   -2.792156
    16  O   -3.050673
 Sum of Mulliken charges =  -1.00000

 Dipole moment (field-independent basis, Debye):
    X=             -0.4514    Y=              0.9182    Z=             -0.3551  Tot=              1.0830

 Test job not archived.
 1\1\GINC-SE069\SP\RHF\Aug-CC-pVDZ\C3H7Cl1F1N2O2(1-)\OHZDE\09-Apr-2025\
 0\\#t hf aug-cc-pvdz iop(5/13=1,5/36=2,99/5=2) pseudo=read geom=check
 guess=(read,tcheck) scf=(maxcycle=1)\\title\\-1,1\C,0,-0.0981399,-0.00
 029918,-0.30045778\C,0,-0.11965971,0.11096541,1.15030742\Cl,0,1.604098
 12,-0.32996105,-1.09276148\F,0,-2.44316543,-0.50899596,1.83927124\H,0,
 -1.392134,-0.00743246,1.44653198\H,0,-0.43342074,0.89479159,-0.8167203
 1\C,0,0.49711266,1.41541528,1.61738563\H,0,0.09430126,2.27901348,1.074
 77984\H,0,0.27728995,1.54527479,2.67954103\H,0,1.5904078,1.41331885,1.

 Normal termination of Gaussian 16 at Wed Apr  9 03:00:47 2025.
