 Gaussian 16, Revision C.01,

 ----------------------------------------------------------------------
 #t hf aug-cc-pvdz symm=none int=(grid=ultrafine) guess=(read,tcheck) s
 table=(opt,rrhf)
 ----------------------------------------------------------------------
 -----
 title
 -----
 Symbolic Z-matrix:
 Charge = -1 Multiplicity = 1

 SCF Done:  E(RHF) =  -839.511055449     A.U. after   14 cycles
 Normal termination of Gaussian 16 at Wed Apr  9 02:40:01 2025.
 Gaussian 16:  ES64L-G16RevC.01  3-Jul-2019

 ----------------------------------------------------------------------
 #t hf aug-cc-pvdz iop(5/13=1,5/36=2,99/5=2) pseudo=read geom=check gue
 ss=(read,tcheck) scf=(maxcycle=1)
 ----------------------------------------------------------------------
 -----
 title
 -----
 Structure from the checkpoint file:  "E2SN2_181_mol2.chk"
 Charge = -1 Multiplicity = 1

                         Standard orientation:
 ---------------------------------------------------------------------
 Center     Atomic      Atomic             Coordinates (Angstroms)
 Number     Number       Type             X           Y           Z
 ---------------------------------------------------------------------
      1          6           0       -0.831090    0.053062   -0.526996
      2          6           0       -0.388906    0.994976    0.603337
      3          9           0       -1.479469    0.753980   -1.538585
      4          1           0       -1.279626    1.554412    0.918557
      5          1           0        0.051701   -0.446494   -0.938138
      6          6           0       -1.783291   -0.945710   -0.011024
      7          7           0       -2.568893   -1.707706    0.413634
      8          7           0        0.574639    1.918388    0.044143
      9          1           0        0.901357    2.495192    0.812200
     10          1           0        1.376102    1.361989   -0.255266
     11          7           0        0.136690    0.277288    1.757946
     12          1           0        0.945623   -0.260452    1.446002
     13          1           0       -0.552189   -0.361811    2.140019
     14         17           0        2.523231   -0.891671   -0.363416
 ---------------------------------------------------------------------

 SCF Done:  E(RHF) =  -841.402752351     A.U. after    2 cycles

 The electronic state is 1-A.
 Alpha  occ. eigenvalues --  -99.62130 -29.15573 -15.66636 -15.60652 -15.60284
 Alpha  occ. eigenvalues --  -11.40082 -11.34442 -11.31111 -10.18803  -9.38836
 Alpha  occ. eigenvalues --   -9.38506  -9.38470  -1.31942  -1.20233  -1.11303
 Alpha  occ. eigenvalues --   -1.07017  -0.97985  -0.78589  -0.65975  -0.63024
 Alpha  occ. eigenvalues --   -0.54773  -0.53340  -0.47044  -0.45545  -0.41119
 Alpha  occ. eigenvalues --   -0.38918  -0.34360  -0.33235  -0.30033  -0.27024
 Alpha  occ. eigenvalues --   -0.26252  -0.25758  -0.23976  -0.23446  -0.15060
 Alpha  occ. eigenvalues --   -0.13575
 Alpha virt. eigenvalues --    0.13723   0.14758   0.15438   0.17249   0.18118
 Alpha virt. eigenvalues --    0.18552   0.19567   0.21113   0.21832   0.23634
 Alpha virt. eigenvalues --    0.24139   0.25078   0.26276   0.26976   0.27406

 Mulliken charges:
               1
     1  C   -0.010853
     2  C    1.110898
     3  F    0.125531
     4  H    1.653551
     5  H    1.591367
     6  C    1.358351
     7  N   -2.371399
     8  N   -2.751295
     9  H    0.502883
    10  H    0.468722
    11  N   -2.748626
    12  H    0.482407
    13  H    0.592062
    14  Cl  -1.003601
 Sum of Mulliken charges =  -1.00000

 Dipole moment (field-independent basis, Debye):
    X=             -6.5220    Y=              4.8840    Z=             -0.3443  Tot=              8.1553

 Test job not archived.
 1\1\GINC-SE114\SP\RHF\Aug-CC-pVDZ\C3H6Cl1F1N3(1-)\OHZDE\09-Apr-2025\0\
 \#t hf aug-cc-pvdz iop(5/13=1,5/36=2,99/5=2) pseudo=read geom=check gu
 ess=(read,tcheck) scf=(maxcycle=1)\\title\\-1,1\C,0,-0.234065,-0.09501
 7,0.006196\C,0,-0.474297,0.602259,-1.341571\F,0,0.839451,0.476227,0.68
 1649\H,0,0.480864,0.58667,-1.882994\H,0,-1.13768,-0.006454,0.617385\C,
 0,0.093902,-1.515047,-0.209238\N,0,0.390185,-2.6337,-0.406659\N,0,-0.8
 34322,1.975104,-1.059639\H,0,-1.04684,2.407201,-1.952661\H,0,-1.712276
 ,1.948366,-0.539975\N,0,-1.475381,-0.077562,-2.15405\H,0,-2.3497,-0.08

 Normal termination of Gaussian 16 at Wed Apr  9 02:40:06 2025.
