 Gaussian 16, Revision C.01,

 ----------------------------------------------------------------------
 #t hf aug-cc-pvdz symm=none int=(grid=ultrafine) guess=(read,tcheck) s
 table=(opt,rrhf)
 ----------------------------------------------------------------------
 -----
 title
 -----
 Symbolic Z-matrix:
 Charge = -1 Multiplicity = 1

 SCF Done:  E(RHF) =  -1334.36169516     A.U. after   15 cycles
 Normal termination of Gaussian 16 at Wed Apr  9 02:38:34 2025.
 Gaussian 16:  ES64L-G16RevC.01  3-Jul-2019

 ----------------------------------------------------------------------
 #t hf aug-cc-pvdz iop(5/13=1,5/36=2,99/5=2) pseudo=read geom=check gue
 ss=(read,tcheck) scf=(maxcycle=1)
 ----------------------------------------------------------------------
 -----
 title
 -----
 Structure from the checkpoint file:  "E2SN2_14_mol2.chk"
 Charge = -1 Multiplicity = 1

                         Standard orientation:
 ---------------------------------------------------------------------
 Center     Atomic      Atomic             Coordinates (Angstroms)
 Number     Number       Type             X           Y           Z
 ---------------------------------------------------------------------
      1          6           0        0.968257   -0.158829    0.403857
      2          6           0       -0.483278   -0.101727   -0.107042
      3         17           0        1.850224   -1.506731   -0.354549
      4          1           0       -0.960695    0.710198    0.450599
      5          7           0        1.640458    1.149733    0.000434
      6          8           0        2.484301    1.172729   -0.887367
      7          8           0        1.219981    2.136123    0.602609
      8          6           0        1.050118   -0.301403    1.907742
      9          1           0        0.535449   -1.223129    2.170914
     10          1           0        2.090683   -0.335249    2.238947
     11          1           0        0.539712    0.539536    2.376813
     12          7           0       -1.149397   -1.329071    0.295749
     13          1           0       -1.055514   -2.010983   -0.449847
     14          1           0       -2.142968   -1.087420    0.360352
     15          6           0       -0.595477    0.224182   -1.591614
     16          1           0       -1.661531    0.280338   -1.817705
     17          1           0       -0.130281   -0.556894   -2.200502
     18          1           0       -0.138697    1.184159   -1.849773
     19         17           0       -3.955256    0.289710    0.074980
 ---------------------------------------------------------------------

 SCF Done:  E(RHF) =  -1336.77535004     A.U. after    2 cycles

 The electronic state is 1-A.
 Alpha  occ. eigenvalues --  -99.79507 -99.60734 -21.00568 -20.99941 -15.89540
 Alpha  occ. eigenvalues --  -15.59617 -11.43433 -11.34227 -11.30209 -11.25566
 Alpha  occ. eigenvalues --  -10.37011 -10.17380  -9.57104  -9.56278  -9.56177
 Alpha  occ. eigenvalues --   -9.37362  -9.37037  -9.36968  -1.89917  -1.59814
 Alpha  occ. eigenvalues --   -1.31656  -1.20665  -1.08607  -0.97444  -0.96326
 Alpha  occ. eigenvalues --   -0.92563  -0.80612  -0.69268  -0.63373  -0.60007
 Alpha  occ. eigenvalues --   -0.55509  -0.55424  -0.50848  -0.47622  -0.46503
 Alpha  occ. eigenvalues --   -0.45411  -0.44475  -0.42454  -0.41474  -0.39907
 Alpha  occ. eigenvalues --   -0.36678  -0.34431  -0.25863  -0.25474  -0.24428
 Alpha  occ. eigenvalues --   -0.24410  -0.22406  -0.22114  -0.21601
 Alpha virt. eigenvalues --    0.12012   0.13390   0.14439   0.14836   0.15364
 Alpha virt. eigenvalues --    0.16006   0.16349   0.17618   0.18522   0.19248
 Alpha virt. eigenvalues --    0.20366   0.21776   0.23208   0.23416   0.24055

 Mulliken charges:
               1
     1  C    1.714032
     2  C    1.217197
     3  Cl  -0.089998
     4  H    2.071952
     5  N    4.207891
     6  O   -2.835504
     7  O   -3.016890
     8  C   -4.580249
     9  H    1.390057
    10  H    1.283669
    11  H    1.438758
    12  N   -3.281603
    13  H    0.579232
    14  H    0.415980
    15  C   -4.134964
    16  H    1.108480
    17  H    1.242010
    18  H    1.234127
    19  Cl  -0.964178
 Sum of Mulliken charges =  -1.00000

 Dipole moment (field-independent basis, Debye):
    X=             12.3989    Y=             -1.0110    Z=              0.2110  Tot=             12.4418

 Test job not archived.
 1\1\GINC-SE073\SP\RHF\Aug-CC-pVDZ\C4H9Cl2N2O2(1-)\OHZDE\09-Apr-2025\0\
 \#t hf aug-cc-pvdz iop(5/13=1,5/36=2,99/5=2) pseudo=read geom=check gu
 ess=(read,tcheck) scf=(maxcycle=1)\\title\\-1,1\C,0,-0.48343,0.026733,
 -1.571974\C,0,0.154516,0.04496,-0.170573\Cl,0,-2.235976,-0.267273,-1.4
 6231\H,0,1.229013,0.170863,-0.337059\N,0,-0.259492,1.404299,-2.187688\
 O,0,-1.19073,2.188624,-2.323405\O,0,0.91364,1.64347,-2.468651\C,0,0.13
 4521,-1.014844,-2.47859\H,0,-0.009404,-1.981713,-2.000917\H,0,-0.33595
 9,-1.000419,-3.46452\H,0,1.202282,-0.819246,-2.575276\N,0,-0.022162,-1

 Normal termination of Gaussian 16 at Wed Apr  9 02:38:45 2025.
