 Gaussian 16, Revision C.01,

 ----------------------------------------------------------------------
 #t hf aug-cc-pvdz symm=none int=(grid=ultrafine) guess=(read,tcheck) s
 table=(opt,rrhf)
 ----------------------------------------------------------------------
 -----
 title
 -----
 Symbolic Z-matrix:
 Charge = -1 Multiplicity = 1

 SCF Done:  E(RHF) =  -971.873585688     A.U. after   17 cycles
 Normal termination of Gaussian 16 at Wed Apr  9 02:53:50 2025.
 Gaussian 16:  ES64L-G16RevC.01  3-Jul-2019

 ----------------------------------------------------------------------
 #t hf aug-cc-pvdz iop(5/13=1,5/36=2,99/5=2) pseudo=read geom=check gue
 ss=(read,tcheck) scf=(maxcycle=1)
 ----------------------------------------------------------------------
 -----
 title
 -----
 Structure from the checkpoint file:  "E2SN2_32_mol2.chk"
 Charge = -1 Multiplicity = 1

                         Standard orientation:
 ---------------------------------------------------------------------
 Center     Atomic      Atomic             Coordinates (Angstroms)
 Number     Number       Type             X           Y           Z
 ---------------------------------------------------------------------
      1          6           0       -0.219707    0.117689    0.024404
      2          6           0       -0.742122   -0.846795   -1.026432
      3         17           0       -0.322068   -0.554738    1.656846
      4          1           0       -0.016194   -1.671557   -0.929612
      5          1           0       -0.569101   -0.362823   -1.990644
      6          7           0        1.229949    0.561750   -0.284239
      7          8           0        1.967212    0.809426    0.649704
      8          8           0        1.403761    0.873281   -1.455729
      9          6           0       -0.988120    1.372754    0.030326
     10          7           0       -1.637088    2.352615   -0.006355
     11          6           0       -2.212037   -1.196969   -0.845746
     12          1           0       -2.864253   -0.317117   -0.879105
     13          1           0       -2.383648   -1.712288    0.101268
     14          1           0       -2.522719   -1.870590   -1.649347
     15          9           0        1.631686   -1.686372   -0.381322
 ---------------------------------------------------------------------

 SCF Done:  E(RHF) =  -974.312011663     A.U. after    2 cycles

 The electronic state is 1-A.
 Alpha  occ. eigenvalues --  -99.77966 -28.88535 -20.95586 -20.94902 -15.86503
 Alpha  occ. eigenvalues --  -15.67185 -11.44051 -11.35488 -11.29250 -11.25396
 Alpha  occ. eigenvalues --  -10.35416  -9.55480  -9.54594  -9.54553  -1.85481
 Alpha  occ. eigenvalues --   -1.55793  -1.29431  -1.18568  -1.08834  -0.99042
 Alpha  occ. eigenvalues --   -0.80666  -0.78199  -0.62452  -0.59537  -0.53518
 Alpha  occ. eigenvalues --   -0.51504  -0.49916  -0.46083  -0.43899  -0.42500
 Alpha  occ. eigenvalues --   -0.40883  -0.39874  -0.37225  -0.36370  -0.34057
 Alpha  occ. eigenvalues --   -0.32867  -0.24981  -0.21669  -0.18365  -0.16970
 Alpha  occ. eigenvalues --    0.01879   0.02828   0.04066
 Alpha virt. eigenvalues --    0.12604   0.14368   0.14657   0.15429   0.17839
 Alpha virt. eigenvalues --    0.18321   0.19877   0.20751   0.21787   0.22960
 Alpha virt. eigenvalues --    0.23561   0.24181   0.25526   0.26022   0.26728

 Mulliken charges:
               1
     1  C    1.781045
     2  C   -3.036131
     3  Cl  -0.002377
     4  H    0.510614
     5  H    1.474412
     6  N    5.787427
     7  O   -3.275036
     8  O   -3.179566
     9  C    2.719452
    10  N   -2.672503
    11  C   -3.669649
    12  H    1.272567
    13  H    1.227332
    14  H    1.141530
    15  F   -1.079116
 Sum of Mulliken charges =  -1.00000

 Dipole moment (field-independent basis, Debye):
    X=             -2.4089    Y=             -0.0539    Z=             -0.1797  Tot=              2.4162

 Test job not archived.
 1\1\GINC-SE249\SP\RHF\Aug-CC-pVDZ\C4H5Cl1F1N2O2(1-)\OHZDE\09-Apr-2025\
 0\\#t hf aug-cc-pvdz iop(5/13=1,5/36=2,99/5=2) pseudo=read geom=check
 guess=(read,tcheck) scf=(maxcycle=1)\\title\\-1,1\C,0,-0.264479,0.0672
 75,-1.351247\C,0,-0.012123,0.057562,0.146627\Cl,0,0.397621,1.510419,-2
 .130003\H,0,1.089462,0.007466,0.17067\H,0,-0.39661,-0.898595,0.509674\
 N,0,0.287902,-1.209983,-2.027592\O,0,0.699138,-1.125376,-3.168151\O,0,
 0.006314,-2.238895,-1.426178\C,0,-1.704588,0.041512,-1.653084\N,0,-2.8
 65922,0.023372,-1.836404\C,0,-0.665647,1.222607,0.875665\H,0,-1.753056

 Normal termination of Gaussian 16 at Wed Apr  9 02:53:58 2025.
