 Gaussian 16, Revision C.01,

 ----------------------------------------------------------------------
 #t hf aug-cc-pvdz symm=none int=(grid=ultrafine) guess=(read,tcheck) s
 table=(opt,rrhf)
 ----------------------------------------------------------------------
 -----
 title
 -----
 Symbolic Z-matrix:
 Charge = -1 Multiplicity = 1

 SCF Done:  E(RHF) =  -555.069916871     A.U. after   15 cycles
 Normal termination of Gaussian 16 at Wed Apr  9 02:48:30 2025.
 Gaussian 16:  ES64L-G16RevC.01  3-Jul-2019

 ----------------------------------------------------------------------
 #t hf aug-cc-pvdz iop(5/13=1,5/36=2,99/5=2) pseudo=read geom=check gue
 ss=(read,tcheck) scf=(maxcycle=1)
 ----------------------------------------------------------------------
 -----
 title
 -----
 Structure from the checkpoint file:  "E2SN2_273_mol1.chk"
 Charge = -1 Multiplicity = 1

                         Standard orientation:
 ---------------------------------------------------------------------
 Center     Atomic      Atomic             Coordinates (Angstroms)
 Number     Number       Type             X           Y           Z
 ---------------------------------------------------------------------
      1          6           0       -0.285393    0.034280    0.025765
      2          1           0        0.984245   -0.467786    1.626166
      3          9           0        0.130827   -0.239321   -1.662300
      4          9           0       -0.885228    0.471149    1.700155
      5          6           0        1.101610   -0.363614    0.549426
      6          6           0       -1.340001   -0.961592   -0.029326
      7          7           0       -2.195738   -1.763023   -0.099582
      8          6           0       -0.608477    1.413021   -0.299677
      9          7           0       -0.826647    2.529726   -0.592065
     10          6           0        2.108833    0.743769    0.250125
     11          1           0        2.160876    0.909799   -0.827015
     12          1           0        1.827253    1.678190    0.742316
     13          1           0        3.097331    0.446804    0.617222
     14          7           0        1.454753   -1.674484    0.007746
     15          1           0        2.393727   -1.906011    0.311436
     16          1           0        1.440166   -1.588157   -1.001399
 ---------------------------------------------------------------------

 SCF Done:  E(RHF) =  -557.409984666     A.U. after    2 cycles

 The electronic state is 1-A.
 Alpha  occ. eigenvalues --  -29.01629 -28.98377 -15.62734 -15.62687 -15.60711
 Alpha  occ. eigenvalues --  -11.51218 -11.34812 -11.32920 -11.32103 -11.26275
 Alpha  occ. eigenvalues --   -1.28609  -1.18483  -1.15359  -1.05607  -0.95684
 Alpha  occ. eigenvalues --   -0.77689  -0.69061  -0.65551  -0.55987  -0.48667
 Alpha  occ. eigenvalues --   -0.47099  -0.44142  -0.42764  -0.39859  -0.39334
 Alpha  occ. eigenvalues --   -0.37892  -0.34322  -0.33588  -0.30313  -0.29479
 Alpha  occ. eigenvalues --   -0.26859  -0.23540  -0.15856  -0.07575  -0.06856
 Alpha  occ. eigenvalues --   -0.04786  -0.03913   0.00776
 Alpha virt. eigenvalues --    0.12242   0.13660   0.15351   0.15911   0.16012
 Alpha virt. eigenvalues --    0.17282   0.19175   0.20735   0.22316   0.22718
 Alpha virt. eigenvalues --    0.22878   0.24003   0.25055   0.25216   0.26131

 Mulliken charges:
               1
     1  C    5.399423
     2  H    1.404794
     3  F   -0.444117
     4  F   -0.665723
     5  C   -1.579549
     6  C    0.473961
     7  N   -2.830345
     8  C    2.409404
     9  N   -3.142448
    10  C   -3.708787
    11  H    1.264809
    12  H    1.331785
    13  H    1.046527
    14  N   -3.046692
    15  H    0.585228
    16  H    0.501729
 Sum of Mulliken charges =  -1.00000

 Dipole moment (field-independent basis, Debye):
    X=              5.6301    Y=             -0.9589    Z=              0.1745  Tot=              5.7138

 Test job not archived.
 1\1\GINC-SE335\SP\RHF\Aug-CC-pVDZ\C5H6F2N3(1-)\OHZDE\09-Apr-2025\0\\#t
  hf aug-cc-pvdz iop(5/13=1,5/36=2,99/5=2) pseudo=read geom=check guess
 =(read,tcheck) scf=(maxcycle=1)\\title\\-1,1\C,0,0.60093498,-0.0095913
 4,-0.03042291\H,0,1.67496989,1.79155982,-0.19666366\F,0,-1.15126915,-0
 .10734534,-0.16415421\F,0,2.41261873,-0.1243453,0.21221253\C,0,0.62990
 088,1.52500639,-0.05252649\C,0,0.77844213,-0.74455356,-1.26950239\N,0,
 0.89893582,-1.35082422,-2.26821725\C,0,0.52557502,-0.75074705,1.217066
 4\N,0,0.42385571,-1.32060573,2.23933577\C,0,0.1424218,2.07457403,1.285

 Normal termination of Gaussian 16 at Wed Apr  9 02:48:37 2025.
