 Gaussian 16, Revision C.01,

 ----------------------------------------------------------------------
 #t hf aug-cc-pvdz symm=none int=(grid=ultrafine) guess=(read,tcheck) s
 table=(opt,rrhf)
 ----------------------------------------------------------------------
 -----
 title
 -----
 Symbolic Z-matrix:
 Charge = -1 Multiplicity = 1

 SCF Done:  E(RHF) =  -1099.65905257     A.U. after   16 cycles
 Normal termination of Gaussian 16 at Wed Apr  9 02:42:48 2025.
 Gaussian 16:  ES64L-G16RevC.01  3-Jul-2019

 ----------------------------------------------------------------------
 #t hf aug-cc-pvdz iop(5/13=1,5/36=2,99/5=2) pseudo=read geom=check gue
 ss=(read,tcheck) scf=(maxcycle=1)
 ----------------------------------------------------------------------
 -----
 title
 -----
 Structure from the checkpoint file:  "E2SN2_214_mol1.chk"
 Charge = -1 Multiplicity = 1

                         Standard orientation:
 ---------------------------------------------------------------------
 Center     Atomic      Atomic             Coordinates (Angstroms)
 Number     Number       Type             X           Y           Z
 ---------------------------------------------------------------------
      1          6           0       -0.403589    0.112445   -0.292996
      2          1           0        0.756595    1.007536    1.306904
      3          9           0        0.365716   -1.457036   -1.021839
      4         17           0       -1.400716    1.889664    0.384249
      5          6           0        0.756683    0.107827    0.691919
      6          1           0       -0.261989    0.520031   -1.272675
      7          7           0       -1.622915   -0.725713   -0.181328
      8          8           0       -1.859398   -1.311563    0.865655
      9          8           0       -2.326436   -0.743572   -1.184653
     10          7           0        2.019104    0.343057   -0.202226
     11          8           0        3.037882   -0.269389    0.104270
     12          8           0        1.954303    1.200577   -1.075169
     13          7           0        0.870547   -1.046194    1.488639
     14          1           0        1.759096   -1.033444    1.969421
     15          1           0        0.830501   -1.833191    0.850719
 ---------------------------------------------------------------------

 SCF Done:  E(RHF) =  -1102.59059399     A.U. after    2 cycles

 The electronic state is 1-A.
 Alpha  occ. eigenvalues --  -99.70668 -28.98500 -20.97805 -20.97594 -20.96393
 Alpha  occ. eigenvalues --  -20.96094 -15.87515 -15.86348 -15.62860 -11.46988
 Alpha  occ. eigenvalues --  -11.37152 -10.27711  -9.47824  -9.47326  -9.47144
 Alpha  occ. eigenvalues --   -1.87599  -1.85736  -1.57217  -1.56210  -1.29032
 Alpha  occ. eigenvalues --   -1.13787  -1.04671  -0.98185  -0.78020  -0.72556
 Alpha  occ. eigenvalues --   -0.64733  -0.61537  -0.57550  -0.56265  -0.52898
 Alpha  occ. eigenvalues --   -0.50991  -0.48259  -0.45185  -0.42626  -0.40707
 Alpha  occ. eigenvalues --   -0.34789  -0.33860  -0.33604  -0.31112  -0.24234
 Alpha  occ. eigenvalues --   -0.21423  -0.20116  -0.18881  -0.18437  -0.17714
 Alpha  occ. eigenvalues --   -0.08392  -0.05786  -0.04973
 Alpha virt. eigenvalues --    0.13586   0.15140   0.16791   0.17203   0.20181
 Alpha virt. eigenvalues --    0.22084   0.23594   0.24299   0.24709   0.25322
 Alpha virt. eigenvalues --    0.26310   0.26556   0.26991   0.27380   0.28325

 Mulliken charges:
               1
     1  C   -1.769075
     2  H    1.911037
     3  F   -0.566631
     4  Cl  -0.566387
     5  C    1.591857
     6  H    1.878710
     7  N    5.758127
     8  O   -3.199389
     9  O   -3.178305
    10  N    5.122470
    11  O   -2.943772
    12  O   -3.181000
    13  N   -2.816107
    14  H    0.638315
    15  H    0.320150
 Sum of Mulliken charges =  -1.00000

 Dipole moment (field-independent basis, Debye):
    X=              4.4267    Y=             -4.7257    Z=             -0.9171  Tot=              6.5398

 Test job not archived.
 1\1\GINC-SE069\SP\RHF\Aug-CC-pVDZ\C2H4Cl1F1N3O4(1-)\OHZDE\09-Apr-2025\
 0\\#t hf aug-cc-pvdz iop(5/13=1,5/36=2,99/5=2) pseudo=read geom=check
 guess=(read,tcheck) scf=(maxcycle=1)\\title\\-1,1\C,0,0.63867511,0.011
 36603,-0.06935634\H,0,1.77009127,1.84567993,0.17981313\F,0,-1.22306517
 ,0.27526762,-0.29428121\Cl,0,2.7113884,-0.47738938,0.20706177\C,0,0.75
 444278,1.52884398,-0.05631083\H,0,0.35899269,-0.50382758,0.8263555\N,0
 ,0.50822804,-0.82548373,-1.2877169\O,0,0.72451251,-0.3320382,-2.385464
 66\O,0,0.20019846,-1.99286027,-1.07731101\N,0,-0.01396613,1.96054558,1

 Normal termination of Gaussian 16 at Wed Apr  9 02:42:56 2025.
