 Gaussian 16, Revision C.01,

 ----------------------------------------------------------------------
 #t hf aug-cc-pvdz symm=none int=(grid=ultrafine) guess=(read,tcheck) s
 table=(opt,rrhf)
 ----------------------------------------------------------------------
 -----
 title
 -----
 Symbolic Z-matrix:
 Charge = -1 Multiplicity = 1

 SCF Done:  E(RHF) =  -726.785870416     A.U. after   15 cycles
 Normal termination of Gaussian 16 at Wed Apr  9 02:56:17 2025.
 Gaussian 16:  ES64L-G16RevC.01  3-Jul-2019

 ----------------------------------------------------------------------
 #t hf aug-cc-pvdz iop(5/13=1,5/36=2,99/5=2) pseudo=read geom=check gue
 ss=(read,tcheck) scf=(maxcycle=1)
 ----------------------------------------------------------------------
 -----
 title
 -----
 Structure from the checkpoint file:  "E2SN2_365_mol1.chk"
 Charge = -1 Multiplicity = 1

                         Standard orientation:
 ---------------------------------------------------------------------
 Center     Atomic      Atomic             Coordinates (Angstroms)
 Number     Number       Type             X           Y           Z
 ---------------------------------------------------------------------
      1          6           0        0.354381    0.661253    0.195883
      2          1           0       -1.584758    1.317004    0.634421
      3         17           0        0.986557   -1.351575   -0.441138
      4          1           0        0.034529    2.665188    0.882489
      5          6           0       -1.171856    0.391477    0.244242
      6          6           0        0.957741    1.367153   -1.020405
      7          1           0        0.923101    0.727692   -1.906090
      8          1           0        0.443475    2.301637   -1.212257
      9          1           0        2.002804    1.600107   -0.803215
     10          7           0        1.040539    0.543199    1.474801
     11          1           0        1.161552    1.497353    1.781912
     12          1           0        1.932727    0.085614    1.326926
     13          7           0       -1.567162   -0.665965    1.172443
     14          1           0       -1.066371   -0.464146    2.034121
     15          1           0       -1.141637   -1.522729    0.830621
     16          6           0       -1.792045    0.143590   -1.123908
     17          1           0       -1.615599    0.985063   -1.798375
     18          1           0       -1.393545   -0.762248   -1.584605
     19          1           0       -2.870721    0.024762   -0.992188
 ---------------------------------------------------------------------

 SCF Done:  E(RHF) =  -728.431285755     A.U. after    2 cycles

 The electronic state is 1-A.
 Alpha  occ. eigenvalues --  -99.66979 -15.58995 -15.57793 -11.40139 -11.28873
 Alpha  occ. eigenvalues --  -11.24985 -11.22609 -10.24126  -9.44211  -9.43821
 Alpha  occ. eigenvalues --   -9.43739  -1.26704  -1.15952  -1.05353  -0.97659
 Alpha  occ. eigenvalues --   -0.91759  -0.78544  -0.63922  -0.54473  -0.51886
 Alpha  occ. eigenvalues --   -0.49885  -0.46597  -0.45214  -0.42095  -0.40821
 Alpha  occ. eigenvalues --   -0.35889  -0.35102  -0.32154  -0.30858  -0.30233
 Alpha  occ. eigenvalues --   -0.29556  -0.23007  -0.20832  -0.11775
 Alpha virt. eigenvalues --    0.13882   0.14563   0.14928   0.15218   0.15741
 Alpha virt. eigenvalues --    0.15867   0.16451   0.17167   0.17559   0.18055
 Alpha virt. eigenvalues --    0.18975   0.20583   0.23276   0.24502   0.24754

 Mulliken charges:
               1
     1  C    3.852959
     2  H    1.727294
     3  Cl  -0.878668
     4  H   -1.103044
     5  C    0.039035
     6  C   -4.350684
     7  H    1.200972
     8  H    1.455584
     9  H    1.116477
    10  N   -3.330660
    11  H    0.705066
    12  H    0.501114
    13  N   -3.112408
    14  H    0.620392
    15  H    0.466446
    16  C   -3.562210
    17  H    1.364792
    18  H    1.236538
    19  H    1.051006
 Sum of Mulliken charges =  -1.00000

 Dipole moment (field-independent basis, Debye):
    X=             -0.0968    Y=             -3.2212    Z=             -1.7583  Tot=              3.6711

 Test job not archived.
 1\1\GINC-SE051\SP\RHF\Aug-CC-pVDZ\C4H12Cl1N2(1-)\OHZDE\09-Apr-2025\0\\
 #t hf aug-cc-pvdz iop(5/13=1,5/36=2,99/5=2) pseudo=read geom=check gue
 ss=(read,tcheck) scf=(maxcycle=1)\\title\\-1,1\C,0,0.63395089,0.010397
 87,0.0201921\H,0,1.70065613,1.79949433,-0.18923482\Cl,0,-1.52249623,-0
 .23843205,0.40063602\H,0,2.75732229,-0.03890636,-0.25972344\C,0,0.6475
 3901,1.55771362,-0.08054068\C,0,0.6278095,-0.82906929,-1.25924182\H,0,
 -0.32440226,-0.73714067,-1.78781598\H,0,1.44632146,-0.54016839,-1.9081
 7164\H,0,0.77200675,-1.8772715,-0.9870747\N,0,0.99251294,-0.5239699,1.

 Normal termination of Gaussian 16 at Wed Apr  9 02:56:25 2025.
