 Gaussian 16, Revision C.01,

 ----------------------------------------------------------------------
 #t hf aug-cc-pvdz symm=none int=(grid=ultrafine) guess=(read,tcheck) s
 table=(opt,rrhf)
 ----------------------------------------------------------------------
 -----
 title
 -----
 Symbolic Z-matrix:
 Charge = -1 Multiplicity = 1

 SCF Done:  E(RHF) =  -832.218807470     A.U. after   17 cycles
 Normal termination of Gaussian 16 at Wed Apr  9 03:02:20 2025.
 Gaussian 16:  ES64L-G16RevC.01  3-Jul-2019

 ----------------------------------------------------------------------
 #t hf aug-cc-pvdz iop(5/13=1,5/36=2,99/5=2) pseudo=read geom=check gue
 ss=(read,tcheck) scf=(maxcycle=1)
 ----------------------------------------------------------------------
 -----
 title
 -----
 Structure from the checkpoint file:  "E2SN2_91_mol1.chk"
 Charge = -1 Multiplicity = 1

                         Standard orientation:
 ---------------------------------------------------------------------
 Center     Atomic      Atomic             Coordinates (Angstroms)
 Number     Number       Type             X           Y           Z
 ---------------------------------------------------------------------
      1          6           0       -0.584303   -0.202201   -0.233768
      2          6           0        0.908302   -0.256699   -0.528534
      3         17           0       -0.914021   -0.447925    1.552962
      4          1           0        0.968924   -0.886435   -2.937834
      5          1           0        0.936706   -0.195496   -1.726976
      6          6           0       -1.127456    1.118472   -0.576044
      7          7           0       -1.541787    2.178571   -0.866994
      8          7           0       -1.293787   -1.229167   -0.958214
      9          1           0       -0.856567   -2.094113   -0.642307
     10          1           0       -0.967667   -1.132499   -1.929179
     11          7           0        1.404951   -1.604956   -0.335374
     12          1           0        2.159312   -1.636761    0.336351
     13          1           0        1.732228   -1.899751   -1.264107
     14          6           0        1.680655    0.786710    0.101192
     15          7           0        2.330943    1.624421    0.615814
 ---------------------------------------------------------------------

 SCF Done:  E(RHF) =  -834.202215834     A.U. after    2 cycles

 The electronic state is 1-A.
 Alpha  occ. eigenvalues --  -99.77534 -15.66186 -15.64367 -15.63015 -15.62488
 Alpha  occ. eigenvalues --  -11.43877 -11.36056 -11.33462 -11.30532 -10.34899
 Alpha  occ. eigenvalues --   -9.54912  -9.54158  -9.54084  -1.36278  -1.22470
 Alpha  occ. eigenvalues --   -1.17714  -1.16196  -1.15609  -0.96417  -0.82773
 Alpha  occ. eigenvalues --   -0.65663  -0.64117  -0.55882  -0.53017  -0.48569
 Alpha  occ. eigenvalues --   -0.47743  -0.44451  -0.41686  -0.39926  -0.38690
 Alpha  occ. eigenvalues --   -0.37503  -0.33475  -0.32770  -0.32413  -0.32156
 Alpha  occ. eigenvalues --   -0.26181  -0.25411  -0.13387
 Alpha virt. eigenvalues --    0.13709   0.15158   0.15785   0.17144   0.17254
 Alpha virt. eigenvalues --    0.18109   0.18783   0.20179   0.20783   0.21885
 Alpha virt. eigenvalues --    0.22622   0.23132   0.24076   0.25213   0.25483

 Mulliken charges:
               1
     1  C    1.654479
     2  C    1.519019
     3  Cl  -0.182738
     4  H   -0.700310
     5  H    1.572814
     6  C    2.360211
     7  N   -2.633972
     8  N   -3.176699
     9  H    0.679352
    10  H    0.687443
    11  N   -2.957288
    12  H    0.642789
    13  H    0.444130
    14  C    1.593158
    15  N   -2.502387
 Sum of Mulliken charges =  -1.00000

 Dipole moment (field-independent basis, Debye):
    X=             -1.5132    Y=             -2.0900    Z=              5.8201  Tot=              6.3665

 Test job not archived.
 1\1\GINC-SE368\SP\RHF\Aug-CC-pVDZ\C4H6Cl1N4(1-)\OHZDE\09-Apr-2025\0\\#
 t hf aug-cc-pvdz iop(5/13=1,5/36=2,99/5=2) pseudo=read geom=check gues
 s=(read,tcheck) scf=(maxcycle=1)\\title\\-1,1\C,0,-0.15264865,-0.04175
 096,-0.41012442\C,0,-0.17478913,-0.02517569,1.11203277\Cl,0,1.56568318
 ,0.02197215,-1.04634326\H,0,-2.44714577,0.8610993,1.61788211\H,0,-1.34
 887531,0.04397591,1.35194224\C,0,-0.73516028,-1.29013589,-0.91861341\N
 ,0,-1.21481904,-2.29144723,-1.30258584\N,0,-0.86535803,1.09043049,-0.9
 5147198\H,0,-0.37996021,1.89417394,-0.5546393\H,0,-1.7693003,1.0855321

 Normal termination of Gaussian 16 at Wed Apr  9 03:02:25 2025.
