 Gaussian 16, Revision C.01,

 ----------------------------------------------------------------------
 #t hf aug-cc-pvdz symm=none int=(grid=ultrafine) guess=(read,tcheck) s
 table=(opt,rrhf)
 ----------------------------------------------------------------------
 -----
 title
 -----
 Symbolic Z-matrix:
 Charge = -1 Multiplicity = 1

 SCF Done:  E(RHF) =  -935.177042255     A.U. after   16 cycles
 Normal termination of Gaussian 16 at Wed Apr  9 02:35:27 2025.
 Gaussian 16:  ES64L-G16RevC.01  3-Jul-2019

 ----------------------------------------------------------------------
 #t hf aug-cc-pvdz iop(5/13=1,5/36=2,99/5=2) pseudo=read geom=check gue
 ss=(read,tcheck) scf=(maxcycle=1)
 ----------------------------------------------------------------------
 -----
 title
 -----
 Structure from the checkpoint file:  "E2SN2_128_mol1.chk"
 Charge = -1 Multiplicity = 1

                         Standard orientation:
 ---------------------------------------------------------------------
 Center     Atomic      Atomic             Coordinates (Angstroms)
 Number     Number       Type             X           Y           Z
 ---------------------------------------------------------------------
      1          6           0       -0.101649    0.005206   -0.410412
      2          6           0        0.636270    1.168860    0.022670
      3         17           0       -1.985088    0.320782   -0.833379
      4          9           0        2.932531    0.195662   -0.499899
      5          1           0        1.978807    0.637057   -0.097092
      6          1           0        0.710644    1.843092   -0.838702
      7          7           0        0.380666   -0.686056   -1.569100
      8          1           0        1.397836   -0.643074   -1.509344
      9          1           0        0.076186   -0.165475   -2.380967
     10          7           0       -0.192455   -1.004943    0.745677
     11          8           0       -0.923497   -0.741202    1.696649
     12          8           0        0.555457   -1.975790    0.682896
     13          6           0        0.212655    1.894189    1.283261
     14          1           0        0.406896    1.306174    2.183546
     15          1           0        0.782961    2.824545    1.374821
     16          1           0       -0.856423    2.146826    1.288752
 ---------------------------------------------------------------------

 SCF Done:  E(RHF) =  -937.504433332     A.U. after    2 cycles

 The electronic state is 1-A.
 Alpha  occ. eigenvalues --  -99.72846 -28.99921 -20.95665 -20.95176 -15.84575
 Alpha  occ. eigenvalues --  -15.60977 -11.41715 -11.25037 -11.19557 -10.30021
 Alpha  occ. eigenvalues --   -9.50133  -9.49384  -9.49336  -1.84833  -1.54876
 Alpha  occ. eigenvalues --   -1.28101  -1.11174  -1.02561  -0.93164  -0.78700
 Alpha  occ. eigenvalues --   -0.66020  -0.60805  -0.56074  -0.52507  -0.51400
 Alpha  occ. eigenvalues --   -0.48303  -0.44029  -0.42872  -0.39884  -0.38678
 Alpha  occ. eigenvalues --   -0.36249  -0.35400  -0.34460  -0.25137  -0.22967
 Alpha  occ. eigenvalues --   -0.20661  -0.17537  -0.16207  -0.06806  -0.06501
 Alpha  occ. eigenvalues --   -0.03046
 Alpha virt. eigenvalues --    0.13808   0.14472   0.15462   0.15728   0.17102
 Alpha virt. eigenvalues --    0.17611   0.19082   0.20910   0.22709   0.23662
 Alpha virt. eigenvalues --    0.24311   0.25730   0.26273   0.26549   0.27454

 Mulliken charges:
               1
     1  C    3.887617
     2  C   -2.659309
     3  Cl  -0.265107
     4  F    0.889385
     5  H    0.397864
     6  H    1.009531
     7  N   -3.520035
     8  H    0.507621
     9  H    0.508416
    10  N    4.006428
    11  O   -3.124014
    12  O   -2.642667
    13  C   -3.644478
    14  H    1.332659
    15  H    1.078516
    16  H    1.237573
 Sum of Mulliken charges =  -1.00000

 Dipole moment (field-independent basis, Debye):
    X=              1.8377    Y=             -0.2995    Z=             -0.0783  Tot=              1.8636

 Test job not archived.
 1\1\GINC-SE080\SP\RHF\Aug-CC-pVDZ\C3H7Cl1F1N2O2(1-)\OHZDE\09-Apr-2025\
 0\\#t hf aug-cc-pvdz iop(5/13=1,5/36=2,99/5=2) pseudo=read geom=check
 guess=(read,tcheck) scf=(maxcycle=1)\\title\\-1,1\C,0,-0.19977966,-0.0
 4856046,-0.26121289\C,0,-0.20928167,0.08173431,1.17722684\Cl,0,1.57215
 906,-0.21427813,-1.07275606\F,0,-2.63664642,-0.64005853,1.4599318\H,0,
 -1.61762242,-0.16463152,1.41269084\H,0,0.13722726,-0.87295636,1.590238
 89\N,0,-0.92103591,-1.14986057,-0.82685917\H,0,-1.75378387,-1.25739073
 ,-0.24804926\H,0,-0.34261201,-1.97355994,-0.72792568\N,0,-0.72947674,1

 Normal termination of Gaussian 16 at Wed Apr  9 02:35:34 2025.
