 Gaussian 16, Revision C.01,

 ----------------------------------------------------------------------
 #t hf aug-cc-pvdz symm=none int=(grid=ultrafine) guess=(read,tcheck) s
 table=(opt,rrhf)
 ----------------------------------------------------------------------
 -----
 title
 -----
 Symbolic Z-matrix:
 Charge = -1 Multiplicity = 1

 SCF Done:  E(RHF) =  -364.392226767     A.U. after   17 cycles
 Normal termination of Gaussian 16 at Wed Apr  9 02:39:49 2025.
 Gaussian 16:  ES64L-G16RevC.01  3-Jul-2019

 ----------------------------------------------------------------------
 #t hf aug-cc-pvdz iop(5/13=1,5/36=2,99/5=2) pseudo=read geom=check gue
 ss=(read,tcheck) scf=(maxcycle=1)
 ----------------------------------------------------------------------
 -----
 title
 -----
 Structure from the checkpoint file:  "E2SN2_17_mol1.chk"
 Charge = -1 Multiplicity = 1

                         Standard orientation:
 ---------------------------------------------------------------------
 Center     Atomic      Atomic             Coordinates (Angstroms)
 Number     Number       Type             X           Y           Z
 ---------------------------------------------------------------------
      1          6           0        0.294762   -0.378063   -0.071543
      2          6           0       -1.080379   -0.528979    0.407869
      3          9           0        0.480498   -0.631291   -1.494478
      4          1           0       -0.534221   -0.531639    2.846420
      5          1           0       -0.850584   -0.458699    1.836369
      6          1           0       -1.372368   -1.584864    0.322221
      7          7           0        1.256265   -1.250614    0.584484
      8          1           0        0.943372   -2.193714    0.369568
      9          1           0        1.075485   -1.127578    1.586988
     10          6           0       -2.115289    0.427544   -0.145110
     11          1           0       -2.261977    0.362306   -1.234227
     12          1           0       -3.087615    0.244835    0.327956
     13          1           0       -1.846063    1.465618    0.082577
     14          6           0        0.755208    1.025135    0.089194
     15          7           0        1.098545    2.140833    0.219798
 ---------------------------------------------------------------------

 SCF Done:  E(RHF) =  -366.050626011     A.U. after    2 cycles

 The electronic state is 1-A.
 Alpha  occ. eigenvalues --  -29.09750 -15.62741 -15.60254 -11.40299 -11.30250
 Alpha  occ. eigenvalues --  -11.24491 -11.19270  -1.28514  -1.14598  -1.01565
 Alpha  occ. eigenvalues --   -0.89407  -0.73797  -0.65240  -0.50897  -0.48450
 Alpha  occ. eigenvalues --   -0.46434  -0.43539  -0.39993  -0.38210  -0.36602
 Alpha  occ. eigenvalues --   -0.33196  -0.30457  -0.29646  -0.23523  -0.21557
 Alpha  occ. eigenvalues --   -0.12475  -0.11493  -0.04863
 Alpha virt. eigenvalues --    0.13918   0.14458   0.15132   0.15524   0.17244
 Alpha virt. eigenvalues --    0.18289   0.19680   0.20268   0.21765   0.22670
 Alpha virt. eigenvalues --    0.23998   0.24869   0.25415   0.25974   0.26815

 Mulliken charges:
               1
     1  C    4.529975
     2  C   -2.636662
     3  F    0.027238
     4  H   -0.082871
     5  H    0.186941
     6  H    1.350514
     7  N   -3.526042
     8  H    0.483630
     9  H    0.659980
    10  C   -3.787687
    11  H    1.185463
    12  H    1.123636
    13  H    1.249430
    14  C    0.620914
    15  N   -2.384458
 Sum of Mulliken charges =  -1.00000

 Dipole moment (field-independent basis, Debye):
    X=              0.1736    Y=             -1.9564    Z=             -8.7131  Tot=              8.9317

 Test job not archived.
 1\1\GINC-SE149\SP\RHF\Aug-CC-pVDZ\C4H8F1N2(1-)\OHZDE\09-Apr-2025\0\\#t
  hf aug-cc-pvdz iop(5/13=1,5/36=2,99/5=2) pseudo=read geom=check guess
 =(read,tcheck) scf=(maxcycle=1)\\title\\-1,1\C,0,-0.10969225,0.0412324
 7,-0.35603087\C,0,-0.12473922,-0.05049384,1.10512825\F,0,1.21753146,0.
 11106873,-0.9534977\H,0,-2.55662895,0.44471636,1.39753972\H,0,-1.53857
 904,0.15016004,1.3483359\H,0,0.2668079,0.88701241,1.52376866\N,0,-0.81
 329551,1.19697886,-0.89025621\H,0,-0.31937328,2.0016315,-0.51329093\H,
 0,-1.72196715,1.18982729,-0.41370691\C,0,0.48606738,-1.28796786,1.7274

 Normal termination of Gaussian 16 at Wed Apr  9 02:39:54 2025.
