 Gaussian 16, Revision C.01,

 ----------------------------------------------------------------------
 #t hf aug-cc-pvdz symm=none int=(grid=ultrafine) guess=(read,tcheck) s
 table=(opt,rrhf)
 ----------------------------------------------------------------------
 -----
 title
 -----
 Symbolic Z-matrix:
 Charge = -1 Multiplicity = 1

 SCF Done:  E(RHF) =  -611.823294990     A.U. after   16 cycles
 Normal termination of Gaussian 16 at Wed Apr  9 02:44:26 2025.
 Gaussian 16:  ES64L-G16RevC.01  3-Jul-2019

 ----------------------------------------------------------------------
 #t hf aug-cc-pvdz iop(5/13=1,5/36=2,99/5=2) pseudo=read geom=check gue
 ss=(read,tcheck) scf=(maxcycle=1)
 ----------------------------------------------------------------------
 -----
 title
 -----
 Structure from the checkpoint file:  "E2SN2_231_mol1.chk"
 Charge = -1 Multiplicity = 1

                         Standard orientation:
 ---------------------------------------------------------------------
 Center     Atomic      Atomic             Coordinates (Angstroms)
 Number     Number       Type             X           Y           Z
 ---------------------------------------------------------------------
      1          6           0        0.109624    0.290606    0.055281
      2          1           0       -1.004909    0.645086   -1.734181
      3          9           0       -0.340384   -1.081405    1.095407
      4          9           0        0.834951    1.457508   -1.048448
      5          6           0       -0.964316   -0.099190   -0.940184
      6          1           0       -0.676817   -1.059247   -1.367626
      7          7           0        1.433531   -0.416698   -0.038132
      8          8           0        1.578434   -1.236693   -0.936901
      9          8           0        2.293300   -0.124172    0.781749
     10          6           0       -0.126394    1.322385    1.119461
     11          1           0        0.824479    1.526941    1.607853
     12          1           0       -0.482299    2.238984    0.651420
     13          1           0       -0.840839    0.948391    1.848513
     14          6           0       -2.284880   -0.217054   -0.324657
     15          7           0       -3.383360   -0.237395    0.088589
 ---------------------------------------------------------------------

 SCF Done:  E(RHF) =  -614.354239808     A.U. after    2 cycles

 The electronic state is 1-A.
 Alpha  occ. eigenvalues --  -28.99599 -28.98607 -20.94761 -20.94504 -15.85339
 Alpha  occ. eigenvalues --  -15.63324 -11.47686 -11.35443 -11.30691 -11.26065
 Alpha  occ. eigenvalues --   -1.85034  -1.54922  -1.22171  -1.14721  -0.97071
 Alpha  occ. eigenvalues --   -0.91507  -0.68572  -0.66945  -0.58836  -0.56776
 Alpha  occ. eigenvalues --   -0.52014  -0.48151  -0.46992  -0.42767  -0.39897
 Alpha  occ. eigenvalues --   -0.39294  -0.36684  -0.33928  -0.30812  -0.30164
 Alpha  occ. eigenvalues --   -0.22776  -0.18315  -0.16991  -0.15555  -0.05903
 Alpha  occ. eigenvalues --   -0.05534  -0.04678  -0.03784   0.01259
 Alpha virt. eigenvalues --    0.14471   0.14859   0.15822   0.16278   0.16927
 Alpha virt. eigenvalues --    0.19040   0.21089   0.22853   0.23840   0.23929
 Alpha virt. eigenvalues --    0.25796   0.26211   0.26324   0.27377   0.27733

 Mulliken charges:
               1
     1  C    4.325126
     2  H    1.165463
     3  F   -0.464524
     4  F   -0.539667
     5  C   -4.029454
     6  H    1.560527
     7  N    5.190519
     8  O   -3.301794
     9  O   -3.398088
    10  C   -4.569024
    11  H    1.193003
    12  H    1.051940
    13  H    1.056680
    14  C    2.533653
    15  N   -2.774359
 Sum of Mulliken charges =  -1.00000

 Dipole moment (field-independent basis, Debye):
    X=              1.2243    Y=              0.3986    Z=             -0.3535  Tot=              1.3352

 Test job not archived.
 1\1\GINC-SE342\SP\RHF\Aug-CC-pVDZ\C4H5F2N2O2(1-)\OHZDE\09-Apr-2025\0\\
 #t hf aug-cc-pvdz iop(5/13=1,5/36=2,99/5=2) pseudo=read geom=check gue
 ss=(read,tcheck) scf=(maxcycle=1)\\title\\-1,1\C,0,0.70229918,-0.04711
 777,0.08288416\H,0,1.74499251,1.80469836,0.31435824\F,0,-1.05831145,-0
 .02048412,-0.17464965\F,0,2.45848501,-0.17292176,0.00566266\C,0,0.7341
 6941,1.46786927,0.0889494\H,0,0.46352291,1.8016487,-0.9122563\N,0,0.72
 963745,-0.73746854,-1.25293135\O,0,0.81568966,-0.03644909,-2.2541007\O
 ,0,0.67585659,-1.95976189,-1.2622295\C,0,0.61991353,-0.84786876,1.3496

 Normal termination of Gaussian 16 at Wed Apr  9 02:44:32 2025.
