 Gaussian 16, Revision C.01,

 ----------------------------------------------------------------------
 #t hf aug-cc-pvdz symm=none int=(grid=ultrafine) guess=(read,tcheck) s
 table=(opt,rrhf)
 ----------------------------------------------------------------------
 -----
 title
 -----
 Symbolic Z-matrix:
 Charge = -1 Multiplicity = 1

 SCF Done:  E(RHF) =  -1236.26666100     A.U. after   15 cycles
 Normal termination of Gaussian 16 at Wed Apr  9 02:47:05 2025.
 Gaussian 16:  ES64L-G16RevC.01  3-Jul-2019

 ----------------------------------------------------------------------
 #t hf aug-cc-pvdz iop(5/13=1,5/36=2,99/5=2) pseudo=read geom=check gue
 ss=(read,tcheck) scf=(maxcycle=1)
 ----------------------------------------------------------------------
 -----
 title
 -----
 Structure from the checkpoint file:  "E2SN2_262_mol2.chk"
 Charge = -1 Multiplicity = 1

                         Standard orientation:
 ---------------------------------------------------------------------
 Center     Atomic      Atomic             Coordinates (Angstroms)
 Number     Number       Type             X           Y           Z
 ---------------------------------------------------------------------
      1          6           0        0.147410    0.578382    0.146959
      2          6           0        0.123622   -0.858915   -0.426235
      3         17           0        0.984010    0.620161    1.733286
      4          1           0       -0.440565   -0.769650   -1.361327
      5          1           0       -0.904732    0.847160    0.304776
      6          6           0        0.790287    1.518880   -0.760036
      7          7           0        1.307891    2.256077   -1.514566
      8          7           0       -0.562123   -1.836012    0.387059
      9          1           0       -1.543791   -1.552670    0.389003
     10          1           0       -0.208941   -1.795231    1.336280
     11          6           0        1.491477   -1.308412   -0.732904
     12          7           0        2.583794   -1.668201   -0.969211
     13         17           0       -3.073756    0.110882   -0.283781
 ---------------------------------------------------------------------

 SCF Done:  E(RHF) =  -1238.20317334     A.U. after    2 cycles

 The electronic state is 1-A.
 Alpha  occ. eigenvalues --  -99.80387 -99.63433 -15.67757 -15.66627 -15.63309
 Alpha  occ. eigenvalues --  -11.42430 -11.38457 -11.35018 -11.33050 -10.37757
 Alpha  occ. eigenvalues --  -10.20145  -9.57709  -9.57021  -9.56873  -9.40187
 Alpha  occ. eigenvalues --   -9.39880  -9.39724  -1.33724  -1.23266  -1.19327
 Alpha  occ. eigenvalues --   -1.17884  -1.01753  -0.99483  -0.87274  -0.66842
 Alpha  occ. eigenvalues --   -0.64319  -0.56974  -0.54126  -0.51064  -0.46450
 Alpha  occ. eigenvalues --   -0.44585  -0.41586  -0.40945  -0.39795  -0.35323
 Alpha  occ. eigenvalues --   -0.34445  -0.33315  -0.33086  -0.28595  -0.27383
 Alpha  occ. eigenvalues --   -0.27197  -0.25161
 Alpha virt. eigenvalues --    0.13494   0.15345   0.15814   0.16569   0.17929
 Alpha virt. eigenvalues --    0.19062   0.19189   0.20777   0.21644   0.22075
 Alpha virt. eigenvalues --    0.22708   0.23967   0.24302   0.24466   0.25159

 Mulliken charges:
               1
     1  C   -2.102861
     2  C    1.367748
     3  Cl  -0.008475
     4  H    1.785672
     5  H    1.544143
     6  C    2.602953
     7  N   -2.510262
     8  N   -3.023431
     9  H    0.490308
    10  H    0.574374
    11  C    1.577611
    12  N   -2.334575
    13  Cl  -0.963204
 Sum of Mulliken charges =  -1.00000

 Dipole moment (field-independent basis, Debye):
    X=              5.4960    Y=             -0.6918    Z=              2.5911  Tot=              6.1154

 Test job not archived.
 1\1\GINC-SE368\SP\RHF\Aug-CC-pVDZ\C4H4Cl2N3(1-)\OHZDE\09-Apr-2025\0\\#
 t hf aug-cc-pvdz iop(5/13=1,5/36=2,99/5=2) pseudo=read geom=check gues
 s=(read,tcheck) scf=(maxcycle=1)\\title\\-1,1\C,0,-0.139649,0.145882,0
 .040973\C,0,-0.572962,0.388253,-1.424781\Cl,0,1.520283,-0.530485,0.113
 306\H,0,-1.602135,0.75625,-1.346981\H,0,-0.836193,-0.607248,0.430554\C
 ,0,-0.197254,1.363639,0.83735\N,0,-0.259862,2.360126,1.456853\N,0,-0.6
 09514,-0.789687,-2.259966\H,0,-1.351495,-1.377323,-1.875118\H,0,0.2712
 52,-1.285791,-2.185455\C,0,0.264201,1.43233,-2.038119\N,0,0.938206,2.2

 Normal termination of Gaussian 16 at Wed Apr  9 02:47:10 2025.
