 Gaussian 16, Revision C.01,

 ----------------------------------------------------------------------
 #t hf aug-cc-pvdz symm=none int=(grid=ultrafine) guess=(read,tcheck) s
 table=(opt,rrhf)
 ----------------------------------------------------------------------
 -----
 title
 -----
 Symbolic Z-matrix:
 Charge = -1 Multiplicity = 1

 SCF Done:  E(RHF) =  -1220.19238013     A.U. after   16 cycles
 Normal termination of Gaussian 16 at Wed Apr  9 02:48:17 2025.
 Gaussian 16:  ES64L-G16RevC.01  3-Jul-2019

 ----------------------------------------------------------------------
 #t hf aug-cc-pvdz iop(5/13=1,5/36=2,99/5=2) pseudo=read geom=check gue
 ss=(read,tcheck) scf=(maxcycle=1)
 ----------------------------------------------------------------------
 -----
 title
 -----
 Structure from the checkpoint file:  "E2SN2_271_mol1.chk"
 Charge = -1 Multiplicity = 1

                         Standard orientation:
 ---------------------------------------------------------------------
 Center     Atomic      Atomic             Coordinates (Angstroms)
 Number     Number       Type             X           Y           Z
 ---------------------------------------------------------------------
      1          6           0        0.002123    0.141696   -0.086474
      2          1           0       -0.884572   -0.478380   -1.923771
      3         17           0        2.360592    0.162070    0.051384
      4         17           0       -2.355076    0.185757    0.057946
      5          6           0       -0.005547   -0.739172   -1.335810
      6          1           0        0.883212   -0.502631   -1.919225
      7          6           0        0.009444    1.571325   -0.243588
      8          7           0        0.014786    2.733025   -0.436095
      9          6           0        0.001981   -0.413029    1.242218
     10          7           0        0.000674   -0.910345    2.309610
     11          6           0       -0.025946   -2.216247   -0.981435
     12          1           0        0.860164   -2.483804   -0.403164
     13          1           0       -0.917363   -2.458731   -0.400502
     14          1           0       -0.035764   -2.815725   -1.896022
 ---------------------------------------------------------------------

 SCF Done:  E(RHF) =  -1222.11652007     A.U. after    2 cycles

 The electronic state is 1-A.
 Alpha  occ. eigenvalues --  -99.69013 -99.68979 -15.65711 -15.65060 -11.49323
 Alpha  occ. eigenvalues --  -11.35219 -11.35017 -11.33273 -11.26910 -10.25981
 Alpha  occ. eigenvalues --  -10.25918  -9.46027  -9.45955  -9.45598  -9.45534
 Alpha  occ. eigenvalues --   -9.45467  -9.45419  -1.26659  -1.17026  -1.12428
 Alpha  occ. eigenvalues --   -1.05655  -1.04917  -0.96619  -0.80592  -0.70351
 Alpha  occ. eigenvalues --   -0.55846  -0.55114  -0.46458  -0.44627  -0.42553
 Alpha  occ. eigenvalues --   -0.40913  -0.40815  -0.38495  -0.37932  -0.33083
 Alpha  occ. eigenvalues --   -0.32914  -0.32093  -0.31816  -0.31388  -0.30568
 Alpha  occ. eigenvalues --   -0.27910  -0.27181
 Alpha virt. eigenvalues --    0.12270   0.14441   0.14957   0.15328   0.15478
 Alpha virt. eigenvalues --    0.16147   0.19154   0.19728   0.20333   0.21835
 Alpha virt. eigenvalues --    0.22071   0.22731   0.23926   0.24274   0.25671

 Mulliken charges:
               1
     1  C    4.661087
     2  H    1.227075
     3  Cl  -0.568650
     4  Cl  -0.567685
     5  C   -4.511055
     6  H    1.220166
     7  C    1.161431
     8  N   -2.630144
     9  C    1.696663
    10  N   -2.668267
    11  C   -3.811609
    12  H    1.385829
    13  H    1.387586
    14  H    1.017573
 Sum of Mulliken charges =  -1.00000

 Dipole moment (field-independent basis, Debye):
    X=             -0.0373    Y=             -2.8667    Z=             -3.0131  Tot=              4.1591

 Test job not archived.
 1\1\GINC-SE344\SP\RHF\Aug-CC-pVDZ\C5H5Cl2N2(1-)\OHZDE\09-Apr-2025\0\\#
 t hf aug-cc-pvdz iop(5/13=1,5/36=2,99/5=2) pseudo=read geom=check gues
 s=(read,tcheck) scf=(maxcycle=1)\\title\\-1,1\C,0,0.57549908,-0.050507
 49,-0.01363937\H,0,1.39818581,1.85513801,-0.50157974\Cl,0,-1.75035927,
 -0.3554116,-0.29509146\Cl,0,2.90295672,-0.00950878,0.38691534\C,0,0.47
 242685,1.4735295,-0.07292979\H,0,-0.34894519,1.72905854,-0.74096544\C,
 0,0.80781492,-0.77971298,-1.23136876\N,0,0.99897157,-1.32045717,-2.259
 80927\C,0,0.44789171,-0.77967073,1.22134202\N,0,0.33805218,-1.33446962

 Normal termination of Gaussian 16 at Wed Apr  9 02:48:24 2025.
