 Gaussian 16, Revision C.01,

 ----------------------------------------------------------------------
 #t hf aug-cc-pvdz symm=none int=(grid=ultrafine) guess=(read,tcheck) s
 table=(opt,rrhf)
 ----------------------------------------------------------------------
 -----
 title
 -----
 Symbolic Z-matrix:
 Charge = -1 Multiplicity = 1

 SCF Done:  E(RHF) =  -476.210674278     A.U. after   16 cycles
 Normal termination of Gaussian 16 at Wed Apr  9 02:41:01 2025.
 Gaussian 16:  ES64L-G16RevC.01  3-Jul-2019

 ----------------------------------------------------------------------
 #t hf aug-cc-pvdz iop(5/13=1,5/36=2,99/5=2) pseudo=read geom=check gue
 ss=(read,tcheck) scf=(maxcycle=1)
 ----------------------------------------------------------------------
 -----
 title
 -----
 Structure from the checkpoint file:  "E2SN2_196_mol2.chk"
 Charge = -1 Multiplicity = 1

                         Standard orientation:
 ---------------------------------------------------------------------
 Center     Atomic      Atomic             Coordinates (Angstroms)
 Number     Number       Type             X           Y           Z
 ---------------------------------------------------------------------
      1          6           0       -1.058297   -0.438367    0.283927
      2          6           0       -0.015519    0.448481   -0.403502
      3          9           0       -0.578466   -1.765103    0.142162
      4          1           0       -0.067891    0.274063   -1.480451
      5          1           0       -1.071450   -0.224976    1.355661
      6          7           0       -2.351858   -0.309382   -0.239281
      7          1           0       -2.851145    0.539748    0.165006
      8          1           0       -2.327090   -0.192982   -1.246630
      9          7           0        1.364105    0.005208   -0.027232
     10          8           0        1.664531    0.038083    1.165187
     11          8           0        2.118494   -0.366734   -0.927758
     12          6           0       -0.201877    1.907497   -0.035355
     13          1           0        0.106971    2.059892    1.000352
     14          1           0       -1.265877    2.170739   -0.091290
     15          1           0        0.391691    2.555634   -0.685942
     16          1           0       -3.404783    1.956571    0.599574
 ---------------------------------------------------------------------

 SCF Done:  E(RHF) =  -478.276013944     A.U. after    2 cycles

 The electronic state is 1-A.
 Alpha  occ. eigenvalues --  -29.12242 -20.98614 -20.98239 -15.87524 -15.58406
 Alpha  occ. eigenvalues --  -11.39534 -11.34000 -11.26750  -1.87682  -1.57596
 Alpha  occ. eigenvalues --   -1.27643  -1.11459  -0.92697  -0.88106  -0.72001
 Alpha  occ. eigenvalues --   -0.62330  -0.59517  -0.57762  -0.53648  -0.47757
 Alpha  occ. eigenvalues --   -0.47316  -0.43878  -0.41897  -0.41289  -0.38911
 Alpha  occ. eigenvalues --   -0.27431  -0.23395  -0.20945  -0.20708  -0.19698
 Alpha  occ. eigenvalues --   -0.14197  -0.12772  -0.09826
 Alpha virt. eigenvalues --    0.13151   0.14158   0.15456   0.16103   0.16797
 Alpha virt. eigenvalues --    0.18771   0.20787   0.21326   0.22554   0.23197
 Alpha virt. eigenvalues --    0.23531   0.24573   0.25216   0.25552   0.26148

 Mulliken charges:
               1
     1  C   -0.161869
     2  C   -1.355151
     3  F    0.262527
     4  H    1.865374
     5  H    1.772574
     6  N   -2.656761
     7  H    0.774205
     8  H    0.384672
     9  N    4.475844
    10  O   -2.982241
    11  O   -2.737765
    12  C   -3.509861
    13  H    1.369054
    14  H    1.297169
    15  H    1.193423
    16  H   -0.991193
 Sum of Mulliken charges =  -1.00000

 Dipole moment (field-independent basis, Debye):
    X=             11.0795    Y=             -6.6229    Z=             -2.7254  Tot=             13.1926

 Test job not archived.
 1\1\GINC-SE114\SP\RHF\Aug-CC-pVDZ\C3H8F1N2O2(1-)\OHZDE\09-Apr-2025\0\\
 #t hf aug-cc-pvdz iop(5/13=1,5/36=2,99/5=2) pseudo=read geom=check gue
 ss=(read,tcheck) scf=(maxcycle=1)\\title\\-1,1\C,0,-0.088224,0.080623,
 -0.083652\C,0,-0.179697,0.047977,-1.612381\F,0,1.29721,0.147983,0.2106
 28\H,0,0.200436,-0.914463,-1.961941\H,0,-0.531245,1.00707,0.290182\N,0
 ,-0.686964,-1.017713,0.547895\H,0,-1.739872,-0.887158,0.637882\H,0,-0.
 53311,-1.869785,0.019486\N,0,0.761206,1.050554,-2.20481\O,0,0.591197,2
 .23208,-1.907669\O,0,1.649723,0.639192,-2.952947\C,0,-1.591831,0.32905

 Normal termination of Gaussian 16 at Wed Apr  9 02:41:07 2025.
