 Gaussian 16, Revision C.01,

 ----------------------------------------------------------------------
 #t hf aug-cc-pvdz symm=none int=(grid=ultrafine) guess=(read,tcheck) s
 table=(opt,rrhf)
 ----------------------------------------------------------------------
 -----
 title
 -----
 Symbolic Z-matrix:
 Charge = -1 Multiplicity = 1

 SCF Done:  E(RHF) =  -366.730354636     A.U. after   16 cycles
 Normal termination of Gaussian 16 at Wed Apr  9 02:37:59 2025.
 Gaussian 16:  ES64L-G16RevC.01  3-Jul-2019

 ----------------------------------------------------------------------
 #t hf aug-cc-pvdz iop(5/13=1,5/36=2,99/5=2) pseudo=read geom=check gue
 ss=(read,tcheck) scf=(maxcycle=1)
 ----------------------------------------------------------------------
 -----
 title
 -----
 Structure from the checkpoint file:  "E2SN2_162_mol1.chk"
 Charge = -1 Multiplicity = 1

                         Standard orientation:
 ---------------------------------------------------------------------
 Center     Atomic      Atomic             Coordinates (Angstroms)
 Number     Number       Type             X           Y           Z
 ---------------------------------------------------------------------
      1          6           0       -0.611316   -0.030548   -0.026005
      2          6           0        0.821046   -0.018513    0.311423
      3          9           0       -0.886285   -0.155066   -1.454544
      4          1           0        0.410173    0.476459    2.780563
      5          1           0        0.633503    0.231921    1.904656
      6          7           0       -1.278866   -1.165137    0.570485
      7          1           0       -2.273713   -0.967118    0.527852
      8          1           0       -1.005787   -1.175078    1.549120
      9          7           0       -1.331492    1.202391    0.308022
     10          1           0       -0.959012    1.939119   -0.281793
     11          1           0       -1.054520    1.426859    1.263184
     12          6           0        1.550452    1.225561   -0.133835
     13          1           0        1.225423    2.119975    0.418709
     14          1           0        2.623634    1.116258    0.070895
     15          1           0        1.457202    1.451653   -1.214675
     16          6           0        1.557942   -1.280479   -0.075847
     17          1           0        0.999849   -2.173039    0.218943
     18          1           0        1.741661   -1.365265   -1.165732
     19          1           0        2.541911   -1.323060    0.415209
 ---------------------------------------------------------------------

 SCF Done:  E(RHF) =  -368.470246606     A.U. after    2 cycles

 The electronic state is 1-A.
 Alpha  occ. eigenvalues --  -29.05148 -15.57427 -15.57194 -11.36701 -11.22182
 Alpha  occ. eigenvalues --  -11.21240 -11.14974  -1.29065  -1.09265  -1.01356
 Alpha  occ. eigenvalues --   -0.83371  -0.81019  -0.66474  -0.53706  -0.50352
 Alpha  occ. eigenvalues --   -0.46929  -0.44354  -0.42883  -0.40542  -0.37306
 Alpha  occ. eigenvalues --   -0.36275  -0.35414  -0.32260  -0.27570  -0.21886
 Alpha  occ. eigenvalues --   -0.20452  -0.17533  -0.08517  -0.07500  -0.01709
 Alpha virt. eigenvalues --    0.14427   0.15049   0.15157   0.15205   0.15756
 Alpha virt. eigenvalues --    0.15815   0.16208   0.17356   0.18220   0.18824
 Alpha virt. eigenvalues --    0.19251   0.21697   0.23348   0.24650   0.25558

 Mulliken charges:
               1
     1  C    4.676507
     2  C    1.269221
     3  F    0.101702
     4  H   -0.030419
     5  H    0.003044
     6  N   -3.599881
     7  H    0.497640
     8  H    0.532881
     9  N   -3.303843
    10  H    0.468085
    11  H    0.550246
    12  C   -4.395767
    13  H    1.266881
    14  H    1.145559
    15  H    1.040268
    16  C   -4.787629
    17  H    1.276886
    18  H    1.196920
    19  H    1.091698
 Sum of Mulliken charges =  -1.00000

 Dipole moment (field-independent basis, Debye):
    X=             -1.5152    Y=             -0.4103    Z=             -6.1299  Tot=              6.3278

 Test job not archived.
 1\1\GINC-SE362\SP\RHF\Aug-CC-pVDZ\C4H12F1N2(1-)\OHZDE\09-Apr-2025\0\\#
 t hf aug-cc-pvdz iop(5/13=1,5/36=2,99/5=2) pseudo=read geom=check gues
 s=(read,tcheck) scf=(maxcycle=1)\\title\\-1,1\C,0,-0.06508609,-0.09634
 345,-0.29832846\C,0,0.07373934,-0.08505215,1.16668505\F,0,1.20219847,-
 0.0074104,-1.01799341\H,0,-2.4432268,0.00535877,1.57555038\H,0,-1.5147
 1335,-0.09197795,1.50291557\N,0,-0.65510759,-1.33317805,-0.75749218\H,
 0,-0.96345679,-1.167051,-1.71042016\H,0,-1.481191,-1.48506422,-0.18572
 652\N,0,-0.80218663,1.0429191,-0.85432286\H,0,-0.24923629,1.87527277,-

 Normal termination of Gaussian 16 at Wed Apr  9 02:38:05 2025.
