 Gaussian 16, Revision C.01,

 ----------------------------------------------------------------------
 #t hf aug-cc-pvdz symm=none int=(grid=ultrafine) guess=(read,tcheck) s
 table=(opt,rrhf)
 ----------------------------------------------------------------------
 -----
 title
 -----
 Symbolic Z-matrix:
 Charge = -1 Multiplicity = 1

 SCF Done:  E(RHF) =  -419.433168959     A.U. after   16 cycles
 Normal termination of Gaussian 16 at Wed Apr  9 03:01:14 2025.
 Gaussian 16:  ES64L-G16RevC.01  3-Jul-2019

 ----------------------------------------------------------------------
 #t hf aug-cc-pvdz iop(5/13=1,5/36=2,99/5=2) pseudo=read geom=check gue
 ss=(read,tcheck) scf=(maxcycle=1)
 ----------------------------------------------------------------------
 -----
 title
 -----
 Structure from the checkpoint file:  "E2SN2_74_mol1.chk"
 Charge = -1 Multiplicity = 1

                         Standard orientation:
 ---------------------------------------------------------------------
 Center     Atomic      Atomic             Coordinates (Angstroms)
 Number     Number       Type             X           Y           Z
 ---------------------------------------------------------------------
      1          6           0        0.309406    0.418405    0.058201
      2          6           0       -0.899007   -0.351114   -0.225388
      3          9           0        0.498709    0.755299    1.493980
      4          1           0       -1.283230   -1.327098   -2.376083
      5          1           0       -0.932646   -0.807005   -1.525695
      6          6           0        1.497967   -0.405794   -0.235512
      7          7           0        2.454826   -1.043019   -0.482477
      8          6           0        0.377749    1.748644   -0.661955
      9          1           0        1.279113    2.293595   -0.370545
     10          1           0        0.375626    1.584821   -1.742637
     11          1           0       -0.516236    2.308426   -0.392614
     12          7           0       -1.002639   -1.608489    0.500235
     13          1           0       -0.253728   -1.718316    1.173162
     14          1           0       -0.943088   -2.371051   -0.178680
     15          7           0       -2.113348    0.435301   -0.205688
     16          1           0       -2.616617    0.210571    0.647772
     17          1           0       -2.686145    0.080962   -0.977061
 ---------------------------------------------------------------------

 SCF Done:  E(RHF) =  -421.338752245     A.U. after    2 cycles

 The electronic state is 1-A.
 Alpha  occ. eigenvalues --  -29.09676 -15.63548 -15.57828 -15.57429 -11.40532
 Alpha  occ. eigenvalues --  -11.31840 -11.28107 -11.23934  -1.28184  -1.17333
 Alpha  occ. eigenvalues --   -1.08227  -1.07822  -0.85846  -0.72371  -0.63829
 Alpha  occ. eigenvalues --   -0.54747  -0.52400  -0.48267  -0.44965  -0.43268
 Alpha  occ. eigenvalues --   -0.41716  -0.38790  -0.36782  -0.35823  -0.31230
 Alpha  occ. eigenvalues --   -0.30047  -0.24529  -0.21054  -0.20172  -0.12183
 Alpha  occ. eigenvalues --   -0.11531  -0.04886
 Alpha virt. eigenvalues --    0.13663   0.14584   0.15228   0.15564   0.16089
 Alpha virt. eigenvalues --    0.16810   0.17478   0.19208   0.19589   0.21871
 Alpha virt. eigenvalues --    0.23329   0.24003   0.25224   0.25951   0.26277

 Mulliken charges:
               1
     1  C    3.197226
     2  C    1.225452
     3  F   -0.215396
     4  H    0.289016
     5  H    0.497864
     6  C    1.287332
     7  N   -2.669076
     8  C   -4.283481
     9  H    1.084055
    10  H    1.181940
    11  H    1.270567
    12  N   -2.908769
    13  H    0.601462
    14  H    0.496149
    15  N   -2.890227
    16  H    0.407842
    17  H    0.428044
 Sum of Mulliken charges =  -1.00000

 Dipole moment (field-independent basis, Debye):
    X=              1.9074    Y=              5.1581    Z=              8.0901  Tot=              9.7823

 Test job not archived.
 1\1\GINC-SE365\SP\RHF\Aug-CC-pVDZ\C4H9F1N3(1-)\OHZDE\09-Apr-2025\0\\#t
  hf aug-cc-pvdz iop(5/13=1,5/36=2,99/5=2) pseudo=read geom=check guess
 =(read,tcheck) scf=(maxcycle=1)\\title\\-1,1\C,0,-0.08659135,0.0332240
 2,-0.43836959\C,0,-0.15140612,0.06339604,1.02030532\F,0,1.29077488,-0.
 07063017,-0.98870864\H,0,-2.23441564,-0.12380031,2.18292837\H,0,-1.444
 58123,-0.03893894,1.48613202\C,0,-0.72217301,-1.20324697,-0.93377198\N
 ,0,-1.24162066,-2.17456876,-1.34527513\C,0,-0.67803977,1.25560146,-1.1
 0830524\H,0,-0.55499695,1.19273769,-2.19239815\H,0,-1.73909166,1.33720

 Normal termination of Gaussian 16 at Wed Apr  9 03:01:20 2025.
