 Gaussian 16, Revision C.01,

 ----------------------------------------------------------------------
 #t hf aug-cc-pvdz symm=none int=(grid=ultrafine) guess=(read,tcheck) s
 table=(opt,rrhf)
 ----------------------------------------------------------------------
 -----
 title
 -----
 Symbolic Z-matrix:
 Charge = -1 Multiplicity = 1

 SCF Done:  E(RHF) =  -364.427383063     A.U. after   15 cycles
 Normal termination of Gaussian 16 at Wed Apr  9 02:46:50 2025.
 Gaussian 16:  ES64L-G16RevC.01  3-Jul-2019

 ----------------------------------------------------------------------
 #t hf aug-cc-pvdz iop(5/13=1,5/36=2,99/5=2) pseudo=read geom=check gue
 ss=(read,tcheck) scf=(maxcycle=1)
 ----------------------------------------------------------------------
 -----
 title
 -----
 Structure from the checkpoint file:  "E2SN2_257_mol2.chk"
 Charge = -1 Multiplicity = 1

                         Standard orientation:
 ---------------------------------------------------------------------
 Center     Atomic      Atomic             Coordinates (Angstroms)
 Number     Number       Type             X           Y           Z
 ---------------------------------------------------------------------
      1          6           0       -0.374368    0.365192    0.611358
      2          6           0        1.036296    0.182689    0.075877
      3          9           0       -0.829829    1.665945    0.352685
      4          1           0        1.622950    0.954911    0.601903
      5          1           0       -0.311336    0.213517    1.700489
      6          6           0       -1.328297   -0.566058   -0.008439
      7          7           0       -2.136328   -1.248933   -0.518016
      8          6           0        1.124848    0.388092   -1.426228
      9          1           0        0.560442   -0.390804   -1.945808
     10          1           0        2.168118    0.328278   -1.754311
     11          1           0        0.733706    1.367868   -1.711947
     12          7           0        1.406359   -1.167554    0.472125
     13          1           0        1.443890   -1.115504    1.515096
     14          1           0        2.357880   -1.341071    0.159336
     15          1           0        1.251716   -0.314769    3.066913
 ---------------------------------------------------------------------

 SCF Done:  E(RHF) =  -366.050278026     A.U. after    2 cycles

 The electronic state is 1-A.
 Alpha  occ. eigenvalues --  -29.14392 -15.64466 -15.57827 -11.38609 -11.32215
 Alpha  occ. eigenvalues --  -11.30241 -11.25865  -1.27045  -1.17197  -1.05014
 Alpha  occ. eigenvalues --   -0.94855  -0.74625  -0.64760  -0.58422  -0.53111
 Alpha  occ. eigenvalues --   -0.50574  -0.44893  -0.41491  -0.39613  -0.39047
 Alpha  occ. eigenvalues --   -0.34583  -0.32273  -0.30808  -0.25144  -0.22824
 Alpha  occ. eigenvalues --   -0.14862  -0.13814  -0.09933
 Alpha virt. eigenvalues --    0.12639   0.14228   0.15130   0.15340   0.16180
 Alpha virt. eigenvalues --    0.18161   0.19278   0.20819   0.21361   0.22665
 Alpha virt. eigenvalues --    0.23313   0.24173   0.24756   0.26065   0.26222

 Mulliken charges:
               1
     1  C    0.383921
     2  C   -0.299418
     3  F    0.073102
     4  H    1.649526
     5  H    1.574312
     6  C    0.981824
     7  N   -2.393954
     8  C   -3.761056
     9  H    1.260945
    10  H    1.081498
    11  H    1.114496
    12  N   -2.830435
    13  H    0.695346
    14  H    0.537795
    15  H   -1.067902
 Sum of Mulliken charges =  -1.00000

 Dipole moment (field-independent basis, Debye):
    X=             -1.5813    Y=              4.5737    Z=             -9.8917  Tot=             11.0120

 Test job not archived.
 1\1\GINC-SE149\SP\RHF\Aug-CC-pVDZ\C4H8F1N2(1-)\OHZDE\09-Apr-2025\0\\#t
  hf aug-cc-pvdz iop(5/13=1,5/36=2,99/5=2) pseudo=read geom=check guess
 =(read,tcheck) scf=(maxcycle=1)\\title\\-1,1\C,0,-0.227559,0.322711,0.
 078796\C,0,-0.631015,-0.091348,-1.326835\F,0,1.163625,0.478082,0.16115
 4\H,0,-0.08362,-1.034497,-1.494228\H,0,-0.540049,-0.498913,0.742475\C,
 0,-0.836967,1.599707,0.477867\N,0,-1.252904,2.643902,0.8178\C,0,-0.241
 253,0.935526,-2.375628\H,0,-0.800764,1.861858,-2.220542\H,0,-0.476478,
 0.559789,-3.377187\H,0,0.829641,1.150361,-2.335382\N,0,-2.071012,-0.28

 Normal termination of Gaussian 16 at Wed Apr  9 02:46:54 2025.
