 Gaussian 16, Revision C.01,

 ----------------------------------------------------------------------
 #t hf aug-cc-pvdz symm=none int=(grid=ultrafine) guess=(read,tcheck) s
 table=(opt,rrhf)
 ----------------------------------------------------------------------
 -----
 title
 -----
 Symbolic Z-matrix:
 Charge = -1 Multiplicity = 1

 SCF Done:  E(RHF) =  -740.479444102     A.U. after   17 cycles
 Normal termination of Gaussian 16 at Wed Apr  9 02:39:49 2025.
 Gaussian 16:  ES64L-G16RevC.01  3-Jul-2019

 ----------------------------------------------------------------------
 #t hf aug-cc-pvdz iop(5/13=1,5/36=2,99/5=2) pseudo=read geom=check gue
 ss=(read,tcheck) scf=(maxcycle=1)
 ----------------------------------------------------------------------
 -----
 title
 -----
 Structure from the checkpoint file:  "E2SN2_182_mol1.chk"
 Charge = -1 Multiplicity = 1

                         Standard orientation:
 ---------------------------------------------------------------------
 Center     Atomic      Atomic             Coordinates (Angstroms)
 Number     Number       Type             X           Y           Z
 ---------------------------------------------------------------------
      1          6           0       -0.336203   -0.069548   -0.747960
      2          1           0        0.602621   -1.988648   -0.600591
      3         17           0        0.162867    1.771948    0.195100
      4          1           0       -1.314061   -1.370332   -1.482908
      5          6           0        0.761019   -0.994861   -0.181263
      6          1           0       -0.198590    0.264216   -1.771378
      7          6           0       -1.697132   -0.495647   -0.432539
      8          7           0       -2.700294   -0.484958    0.223653
      9          7           0        0.692131   -1.149240    1.272749
     10          1           0       -0.207779   -1.566545    1.497669
     11          1           0        0.662986   -0.213398    1.667277
     12          7           0        2.066085   -0.543284   -0.637276
     13          1           0        2.749794   -1.073879   -0.107795
     14          1           0        2.164725    0.428180   -0.362277
 ---------------------------------------------------------------------

 SCF Done:  E(RHF) =  -742.094117476     A.U. after    2 cycles

 The electronic state is 1-A.
 Alpha  occ. eigenvalues --  -99.68560 -15.60591 -15.59716 -15.52710 -11.36460
 Alpha  occ. eigenvalues --  -11.30262 -11.25790 -10.25574  -9.45606  -9.45163
 Alpha  occ. eigenvalues --   -9.45057  -1.29704  -1.11692  -1.10784  -1.06493
 Alpha  occ. eigenvalues --   -0.93591  -0.74764  -0.60940  -0.54242  -0.52162
 Alpha  occ. eigenvalues --   -0.47753  -0.45120  -0.41140  -0.36927  -0.33312
 Alpha  occ. eigenvalues --   -0.31953  -0.30670  -0.29657  -0.25158  -0.23630
 Alpha  occ. eigenvalues --   -0.22233  -0.10374
 Alpha virt. eigenvalues --    0.13461   0.15028   0.15315   0.16323   0.16440
 Alpha virt. eigenvalues --    0.17295   0.17954   0.20721   0.22403   0.23154
 Alpha virt. eigenvalues --    0.24846   0.25654   0.26160   0.26274   0.27296

 Mulliken charges:
               1
     1  C   -1.672000
     2  H    1.776094
     3  Cl  -0.539177
     4  H    0.189196
     5  C    2.040864
     6  H    1.666417
     7  C    2.034667
     8  N   -2.928554
     9  N   -2.691634
    10  H    0.574982
    11  H    0.529868
    12  N   -3.124078
    13  H    0.547178
    14  H    0.596178
 Sum of Mulliken charges =  -1.00000

 Dipole moment (field-independent basis, Debye):
    X=              5.6353    Y=             -1.2111    Z=              0.1117  Tot=              5.7650

 Test job not archived.
 1\1\GINC-SE113\SP\RHF\Aug-CC-pVDZ\C3H7Cl1N3(1-)\OHZDE\09-Apr-2025\0\\#
 t hf aug-cc-pvdz iop(5/13=1,5/36=2,99/5=2) pseudo=read geom=check gues
 s=(read,tcheck) scf=(maxcycle=1)\\title\\-1,1\C,0,0.51565304,0.0461900
 1,0.02454374\H,0,1.74442804,1.7903905,-0.15965486\Cl,0,-1.59914486,-0.
 1240669,0.19243072\H,0,2.25231835,-0.31238788,0.23384264\C,0,0.6788443
 9,1.57767475,-0.07121255\H,0,0.61951106,-0.50473712,-0.90465601\C,0,1.
 20602208,-0.557157,1.16144378\N,0,1.26357782,-0.97549729,2.28336792\N,
 0,0.21936441,2.28344656,1.12607445\H,0,0.78283231,1.96303936,1.9099201

 Normal termination of Gaussian 16 at Wed Apr  9 02:39:54 2025.
