 Gaussian 16, Revision C.01,

 ----------------------------------------------------------------------
 #t hf aug-cc-pvdz symm=none int=(grid=ultrafine) guess=(read,tcheck) s
 table=(opt,rrhf)
 ----------------------------------------------------------------------
 -----
 title
 -----
 Symbolic Z-matrix:
 Charge = -1 Multiplicity = 1

 SCF Done:  E(RHF) =  -1236.26672774     A.U. after   15 cycles
 Normal termination of Gaussian 16 at Wed Apr  9 02:50:21 2025.
 Gaussian 16:  ES64L-G16RevC.01  3-Jul-2019

 ----------------------------------------------------------------------
 #t hf aug-cc-pvdz iop(5/13=1,5/36=2,99/5=2) pseudo=read geom=check gue
 ss=(read,tcheck) scf=(maxcycle=1)
 ----------------------------------------------------------------------
 -----
 title
 -----
 Structure from the checkpoint file:  "E2SN2_296_mol2.chk"
 Charge = -1 Multiplicity = 1

                         Standard orientation:
 ---------------------------------------------------------------------
 Center     Atomic      Atomic             Coordinates (Angstroms)
 Number     Number       Type             X           Y           Z
 ---------------------------------------------------------------------
      1          6           0        0.374529   -0.537180   -0.094672
      2          6           0        0.014670    0.872886   -0.566470
      3         17           0        2.006885   -0.985649   -0.808994
      4          1           0       -0.987515    1.106092   -0.179097
      5          1           0       -0.064136    0.834762   -1.655761
      6          6           0        0.597993   -0.564558    1.364477
      7          7           0        0.740648   -0.637734    2.529216
      8          7           0       -0.613126   -1.434915   -0.567983
      9          1           0       -1.551056   -1.012201   -0.472221
     10          1           0       -0.578934   -2.317832   -0.074928
     11          6           0        0.987816    1.881257   -0.169243
     12          7           0        1.761122    2.710695    0.133690
     13         17           0       -3.294468    0.221439   -0.102006
 ---------------------------------------------------------------------

 SCF Done:  E(RHF) =  -1238.20647531     A.U. after    2 cycles

 The electronic state is 1-A.
 Alpha  occ. eigenvalues --  -99.79321 -99.63155 -15.67738 -15.66716 -15.64200
 Alpha  occ. eigenvalues --  -11.45211 -11.37518 -11.35039 -11.32617 -10.36695
 Alpha  occ. eigenvalues --  -10.19874  -9.56676  -9.55909  -9.55863  -9.39910
 Alpha  occ. eigenvalues --   -9.39599  -9.39399  -1.36289  -1.20474  -1.19115
 Alpha  occ. eigenvalues --   -1.17791  -1.04404  -0.99253  -0.87277  -0.68184
 Alpha  occ. eigenvalues --   -0.63126  -0.57641  -0.53550  -0.50205  -0.48716
 Alpha  occ. eigenvalues --   -0.44718  -0.41686  -0.40739  -0.40121  -0.35407
 Alpha  occ. eigenvalues --   -0.34323  -0.33234  -0.32447  -0.28679  -0.27007
 Alpha  occ. eigenvalues --   -0.26818  -0.25985
 Alpha virt. eigenvalues --    0.13387   0.14906   0.15079   0.17048   0.18421
 Alpha virt. eigenvalues --    0.18564   0.19505   0.19840   0.21657   0.21854
 Alpha virt. eigenvalues --    0.23119   0.23627   0.24009   0.24992   0.25432

 Mulliken charges:
               1
     1  C    2.680839
     2  C   -2.637392
     3  Cl  -0.056437
     4  H    1.310967
     5  H    1.379247
     6  C    2.476076
     7  N   -2.668549
     8  N   -3.519090
     9  H    0.495334
    10  H    0.668879
    11  C    2.374963
    12  N   -2.557232
    13  Cl  -0.947605
 Sum of Mulliken charges =  -1.00000

 Dipole moment (field-independent basis, Debye):
    X=              6.8422    Y=             -2.5653    Z=             -1.8001  Tot=              7.5257

 Test job not archived.
 1\1\GINC-SE344\SP\RHF\Aug-CC-pVDZ\C4H4Cl2N3(1-)\OHZDE\09-Apr-2025\0\\#
 t hf aug-cc-pvdz iop(5/13=1,5/36=2,99/5=2) pseudo=read geom=check gues
 s=(read,tcheck) scf=(maxcycle=1)\\title\\-1,1\C,0,0.015397,0.056104,0.
 022439\C,0,-0.565966,0.100347,-1.391929\Cl,0,1.828478,-0.212105,-0.107
 054\H,0,-1.656531,0.204217,-1.298678\H,0,-0.375062,-0.875005,-1.846311
 \C,0,-0.109905,1.369085,0.685902\N,0,-0.230589,2.385119,1.265068\N,0,-
 0.575847,-1.026878,0.717418\H,0,-1.585284,-1.076714,0.502656\H,0,-0.43
 766,-0.946381,1.716537\C,0,0.001712,1.157686,-2.217393\N,0,0.448732,1.

 Normal termination of Gaussian 16 at Wed Apr  9 02:50:27 2025.
