 Gaussian 16, Revision C.01,

 ----------------------------------------------------------------------
 #t hf aug-cc-pvdz symm=none int=(grid=ultrafine) guess=(read,tcheck) s
 table=(opt,rrhf)
 ----------------------------------------------------------------------
 -----
 title
 -----
 Symbolic Z-matrix:
 Charge = -1 Multiplicity = 1

 SCF Done:  E(RHF) =  -1199.50603019     A.U. after   15 cycles
 Normal termination of Gaussian 16 at Wed Apr  9 02:39:59 2025.
 Gaussian 16:  ES64L-G16RevC.01  3-Jul-2019

 ----------------------------------------------------------------------
 #t hf aug-cc-pvdz iop(5/13=1,5/36=2,99/5=2) pseudo=read geom=check gue
 ss=(read,tcheck) scf=(maxcycle=1)
 ----------------------------------------------------------------------
 -----
 title
 -----
 Structure from the checkpoint file:  "E2SN2_184_mol1.chk"
 Charge = -1 Multiplicity = 1

                         Standard orientation:
 ---------------------------------------------------------------------
 Center     Atomic      Atomic             Coordinates (Angstroms)
 Number     Number       Type             X           Y           Z
 ---------------------------------------------------------------------
      1          6           0        0.178947   -0.127202   -0.388051
      2          1           0        0.792034    1.800896    0.208890
      3         17           0       -2.072494   -0.882264   -0.635828
      4         17           0        2.470423    0.172542   -0.604881
      5          6           0       -0.123798    1.213159    0.290641
      6          1           0        0.162533   -0.196537   -1.459067
      7          6           0        0.402982   -1.298878    0.410412
      8          7           0        0.619883   -2.208280    1.126326
      9          7           0       -0.496429    0.983467    1.691703
     10          1           0       -0.496179    1.886741    2.153943
     11          1           0        0.215683    0.420305    2.147963
     12          7           0       -1.121638    1.949948   -0.450738
     13          1           0       -1.190489    2.883038   -0.061248
     14          1           0       -2.009873    1.472412   -0.347475
 ---------------------------------------------------------------------

 SCF Done:  E(RHF) =  -1201.33413774     A.U. after    2 cycles

 The electronic state is 1-A.
 Alpha  occ. eigenvalues --  -99.67674 -99.66225 -15.63368 -15.62242 -15.61605
 Alpha  occ. eigenvalues --  -11.43288 -11.33950 -11.32119 -10.24616 -10.23187
 Alpha  occ. eigenvalues --   -9.44672  -9.44215  -9.44074  -9.43199  -9.42894
 Alpha  occ. eigenvalues --   -9.42633  -1.31738  -1.17536  -1.12796  -1.07146
 Alpha  occ. eigenvalues --   -1.03465  -0.96438  -0.78286  -0.61693  -0.60168
 Alpha  occ. eigenvalues --   -0.55311  -0.47880  -0.45735  -0.43110  -0.40674
 Alpha  occ. eigenvalues --   -0.38559  -0.33327  -0.31646  -0.31330  -0.30643
 Alpha  occ. eigenvalues --   -0.29752  -0.28269  -0.25945  -0.25077  -0.24366
 Alpha virt. eigenvalues --    0.12193   0.13827   0.15282   0.15649   0.16856
 Alpha virt. eigenvalues --    0.17225   0.17955   0.20796   0.22492   0.22870
 Alpha virt. eigenvalues --    0.24112   0.24412   0.25439   0.25790   0.26526

 Mulliken charges:
               1
     1  C   -1.428453
     2  H    1.478045
     3  Cl  -0.646105
     4  Cl  -0.572819
     5  C    1.840790
     6  H    1.751661
     7  C    3.096131
     8  N   -2.823625
     9  N   -3.027791
    10  H    0.609864
    11  H    0.602018
    12  N   -2.972077
    13  H    0.573600
    14  H    0.518762
 Sum of Mulliken charges =  -1.00000

 Dipole moment (field-independent basis, Debye):
    X=             -0.9407    Y=              4.9104    Z=              2.3240  Tot=              5.5134

 Test job not archived.
 1\1\GINC-SE454\SP\RHF\Aug-CC-pVDZ\C3H6Cl2N3(1-)\OHZDE\09-Apr-2025\0\\#
 t hf aug-cc-pvdz iop(5/13=1,5/36=2,99/5=2) pseudo=read geom=check gues
 s=(read,tcheck) scf=(maxcycle=1)\\title\\-1,1\C,0,0.67218056,0.0098962
 7,0.00713489\H,0,1.69596245,1.84438242,-0.18340287\Cl,0,-1.67003705,-0
 .3410181,-0.29515089\Cl,0,2.97613469,-0.25576642,0.10170261\C,0,0.6595
 451,1.54211793,-0.02421504\H,0,0.72195916,-0.54033549,-0.91314755\C,0,
 0.53639513,-0.68118331,1.25794704\N,0,0.46510794,-1.18128302,2.3216243
 3\N,0,0.13443008,2.0570695,1.24608622\H,0,0.32280434,3.05390274,1.2662

 Normal termination of Gaussian 16 at Wed Apr  9 02:40:04 2025.
