 Gaussian 16, Revision C.01,

 ----------------------------------------------------------------------
 #t hf aug-cc-pvdz symm=none int=(grid=ultrafine) guess=(read,tcheck) s
 table=(opt,rrhf)
 ----------------------------------------------------------------------
 -----
 title
 -----
 Symbolic Z-matrix:
 Charge = -1 Multiplicity = 1

 SCF Done:  E(RHF) =  -1347.96992131     A.U. after   16 cycles
 Normal termination of Gaussian 16 at Wed Apr  9 02:45:36 2025.
 Gaussian 16:  ES64L-G16RevC.01  3-Jul-2019

 ----------------------------------------------------------------------
 #t hf aug-cc-pvdz iop(5/13=1,5/36=2,99/5=2) pseudo=read geom=check gue
 ss=(read,tcheck) scf=(maxcycle=1)
 ----------------------------------------------------------------------
 -----
 title
 -----
 Structure from the checkpoint file:  "E2SN2_240_mol1.chk"
 Charge = -1 Multiplicity = 1

                         Standard orientation:
 ---------------------------------------------------------------------
 Center     Atomic      Atomic             Coordinates (Angstroms)
 Number     Number       Type             X           Y           Z
 ---------------------------------------------------------------------
      1          6           0       -0.222502   -0.267976   -0.465703
      2          1           0       -0.284128    1.629620   -1.436370
      3         17           0        1.840295   -1.363081   -0.282075
      4         17           0       -2.318875    0.823666   -0.281237
      5          6           0        0.472644    0.958323   -1.032232
      6          1           0        1.083415    0.596152   -1.860034
      7          7           0       -0.383603   -0.496742    1.026233
      8          8           0        0.032102    0.366691    1.781224
      9          8           0       -0.919998   -1.548896    1.342932
     10          7           0       -0.758911   -1.190332   -1.373268
     11          1           0       -1.681968   -1.466456   -1.070724
     12          1           0       -0.150548   -1.993876   -1.445364
     13          6           0        1.350128    1.733048   -0.161289
     14          7           0        2.095464    2.447344    0.397160
 ---------------------------------------------------------------------

 SCF Done:  E(RHF) =  -1350.39070169     A.U. after    2 cycles

 The electronic state is 1-A.
 Alpha  occ. eigenvalues --  -99.69064 -99.68400 -20.97688 -20.97429 -15.88768
 Alpha  occ. eigenvalues --  -15.65910 -15.64196 -11.50567 -11.36508 -11.31693
 Alpha  occ. eigenvalues --  -10.26120 -10.25435  -9.46180  -9.45714  -9.45694
 Alpha  occ. eigenvalues --   -9.45504  -9.45040  -9.44964  -1.87767  -1.57854
 Alpha  occ. eigenvalues --   -1.31411  -1.18580  -1.08803  -1.06552  -1.03535
 Alpha  occ. eigenvalues --   -0.96505  -0.71846  -0.63187  -0.62349  -0.55412
 Alpha  occ. eigenvalues --   -0.54782  -0.54026  -0.52799  -0.46404  -0.39959
 Alpha  occ. eigenvalues --   -0.36559  -0.34324  -0.33893  -0.33578  -0.32487
 Alpha  occ. eigenvalues --   -0.31807  -0.31604  -0.30846  -0.28983  -0.23090
 Alpha  occ. eigenvalues --   -0.19234  -0.18880
 Alpha virt. eigenvalues --    0.13627   0.14585   0.15403   0.15933   0.16436
 Alpha virt. eigenvalues --    0.19222   0.20216   0.21719   0.22250   0.23180
 Alpha virt. eigenvalues --    0.23803   0.24629   0.25211   0.26366   0.26709

 Mulliken charges:
               1
     1  C    4.396249
     2  H    1.305161
     3  Cl  -0.709685
     4  Cl  -0.735436
     5  C   -2.426681
     6  H    1.274991
     7  N    4.974642
     8  O   -3.306358
     9  O   -3.145235
    10  N   -3.621801
    11  H    0.674532
    12  H    0.592652
    13  C    2.355312
    14  N   -2.628342
 Sum of Mulliken charges =  -1.00000

 Dipole moment (field-independent basis, Debye):
    X=             -1.0683    Y=             -1.8976    Z=             -1.6938  Tot=              2.7588

 Test job not archived.
 1\1\GINC-SE149\SP\RHF\Aug-CC-pVDZ\C3H4Cl2N3O2(1-)\OHZDE\09-Apr-2025\0\
 \#t hf aug-cc-pvdz iop(5/13=1,5/36=2,99/5=2) pseudo=read geom=check gu
 ess=(read,tcheck) scf=(maxcycle=1)\\title\\-1,1\C,0,0.67015369,-0.0709
 7827,0.00748263\H,0,1.66321711,1.80121763,0.24321414\Cl,0,-1.66928508,
 -0.08779895,-0.1143805\Cl,0,3.0271548,-0.21486823,-0.20306436\C,0,0.66
 605783,1.44802952,-0.01679113\H,0,-0.02040707,1.75466777,0.77327478\N,
 0,0.66004304,-0.90610161,-1.26004571\O,0,0.68981823,-0.31737985,-2.328
 15516\O,0,0.61563265,-2.11654598,-1.09301709\N,0,0.7220737,-0.70248774

 Normal termination of Gaussian 16 at Wed Apr  9 02:45:43 2025.
