 Gaussian 16, Revision C.01,

 ----------------------------------------------------------------------
 #t hf aug-cc-pvdz symm=none int=(grid=ultrafine) guess=(read,tcheck) s
 table=(opt,rrhf)
 ----------------------------------------------------------------------
 -----
 title
 -----
 Symbolic Z-matrix:
 Charge = -1 Multiplicity = 1

 SCF Done:  E(RHF) =  -935.217490522     A.U. after   16 cycles
 Normal termination of Gaussian 16 at Wed Apr  9 02:35:24 2025.
 Gaussian 16:  ES64L-G16RevC.01  3-Jul-2019

 ----------------------------------------------------------------------
 #t hf aug-cc-pvdz iop(5/13=1,5/36=2,99/5=2) pseudo=read geom=check gue
 ss=(read,tcheck) scf=(maxcycle=1)
 ----------------------------------------------------------------------
 -----
 title
 -----
 Structure from the checkpoint file:  "E2SN2_121_mol1.chk"
 Charge = -1 Multiplicity = 1

                         Standard orientation:
 ---------------------------------------------------------------------
 Center     Atomic      Atomic             Coordinates (Angstroms)
 Number     Number       Type             X           Y           Z
 ---------------------------------------------------------------------
      1          6           0       -0.861930    0.257760   -0.457789
      2          6           0        0.462282    0.236481    0.239250
      3         17           0       -1.935488   -1.153806    0.062856
      4          9           0        0.993401    2.597561   -0.449938
      5          1           0        0.920691    1.467598   -0.182895
      6          1           0       -0.710687    0.089237   -1.520469
      7          7           0       -1.638632    1.470699   -0.267229
      8          1           0       -0.965767    2.221700   -0.431247
      9          1           0       -1.903153    1.525782    0.710475
     10          7           0        1.320357   -0.809155   -0.254061
     11          8           0        2.192300   -1.272684    0.501310
     12          8           0        1.212509   -1.173270   -1.437216
     13          6           0        0.445368    0.310757    1.744624
     14          1           0        0.038000   -0.594859    2.209550
     15          1           0        1.455194    0.464514    2.123554
     16          1           0       -0.156469    1.169521    2.051695
 ---------------------------------------------------------------------

 SCF Done:  E(RHF) =  -937.527690602     A.U. after    2 cycles

 The electronic state is 1-A.
 Alpha  occ. eigenvalues --  -99.73684 -29.00325 -20.92789 -20.92454 -15.82955
 Alpha  occ. eigenvalues --  -15.60534 -11.35901 -11.28202 -11.23665 -10.31013
 Alpha  occ. eigenvalues --   -9.51015  -9.50329  -9.50282  -1.82351  -1.51836
 Alpha  occ. eigenvalues --   -1.27304  -1.12067  -1.07898  -0.88736  -0.81261
 Alpha  occ. eigenvalues --   -0.68119  -0.60054  -0.56765  -0.53712  -0.48593
 Alpha  occ. eigenvalues --   -0.48226  -0.44364  -0.43835  -0.41563  -0.39682
 Alpha  occ. eigenvalues --   -0.38655  -0.34559  -0.33676  -0.26234  -0.23498
 Alpha  occ. eigenvalues --   -0.19353  -0.16159  -0.14641  -0.07568  -0.07132
 Alpha  occ. eigenvalues --   -0.03335
 Alpha virt. eigenvalues --    0.14323   0.15100   0.15472   0.16050   0.16465
 Alpha virt. eigenvalues --    0.17657   0.18464   0.19895   0.22791   0.24292
 Alpha virt. eigenvalues --    0.24809   0.26068   0.26241   0.27363   0.27434

 Mulliken charges:
               1
     1  C   -1.356553
     2  C    1.782098
     3  Cl  -0.151803
     4  F    0.704177
     5  H    0.717912
     6  H    1.657503
     7  N   -2.413858
     8  H    0.539879
     9  H    0.556858
    10  N    2.922408
    11  O   -2.792350
    12  O   -2.845987
    13  C   -3.870271
    14  H    1.143186
    15  H    1.215658
    16  H    1.191142
 Sum of Mulliken charges =  -1.00000

 Dipole moment (field-independent basis, Debye):
    X=             -0.8033    Y=              1.7888    Z=              1.1113  Tot=              2.2539

 Test job not archived.
 1\1\GINC-SE083\SP\RHF\Aug-CC-pVDZ\C3H7Cl1F1N2O2(1-)\OHZDE\09-Apr-2025\
 0\\#t hf aug-cc-pvdz iop(5/13=1,5/36=2,99/5=2) pseudo=read geom=check
 guess=(read,tcheck) scf=(maxcycle=1)\\title\\-1,1\C,0,-0.17354383,0.01
 05296,-0.38380649\C,0,-0.05923628,0.00091324,1.10840489\Cl,0,1.4791503
 3,-0.12186601,-1.20062215\F,0,-2.52227147,-0.41645058,1.41011452\H,0,-
 1.40378653,-0.09652449,1.40282614\H,0,-0.54574896,0.97819849,-0.708836
 16\N,0,-1.00613485,-1.03989793,-0.94433721\H,0,-1.85050021,-1.01716932
 ,-0.36972304\H,0,-0.55527545,-1.93035351,-0.763436\N,0,0.4735873,1.236

 Normal termination of Gaussian 16 at Wed Apr  9 02:35:33 2025.
