 Gaussian 16, Revision C.01,

 ----------------------------------------------------------------------
 #t hf aug-cc-pvdz symm=none int=(grid=ultrafine) guess=(read,tcheck) s
 table=(opt,rrhf)
 ----------------------------------------------------------------------
 -----
 title
 -----
 Symbolic Z-matrix:
 Charge = -1 Multiplicity = 1

 SCF Done:  E(RHF) =  -740.453263187     A.U. after   17 cycles
 Normal termination of Gaussian 16 at Wed Apr  9 03:01:54 2025.
 Gaussian 16:  ES64L-G16RevC.01  3-Jul-2019

 ----------------------------------------------------------------------
 #t hf aug-cc-pvdz iop(5/13=1,5/36=2,99/5=2) pseudo=read geom=check gue
 ss=(read,tcheck) scf=(maxcycle=1)
 ----------------------------------------------------------------------
 -----
 title
 -----
 Structure from the checkpoint file:  "E2SN2_82_mol1.chk"
 Charge = -1 Multiplicity = 1

                         Standard orientation:
 ---------------------------------------------------------------------
 Center     Atomic      Atomic             Coordinates (Angstroms)
 Number     Number       Type             X           Y           Z
 ---------------------------------------------------------------------
      1          6           0       -0.004428    0.120461    0.420738
      2          6           0       -0.986973   -0.943226    0.406084
      3         17           0        1.738778   -0.464531   -0.453573
      4          1           0       -2.427805    0.055762    2.183286
      5          1           0       -1.846140   -0.435422    1.211829
      6          1           0       -0.632348   -1.789655    1.015141
      7          6           0       -0.389101    1.255823   -0.417358
      8          7           0       -0.716438    2.197122   -1.040289
      9          7           0        0.368194    0.567873    1.730943
     10          1           0        0.778964   -0.229118    2.208183
     11          1           0       -0.545491    0.729232    2.198969
     12          7           0       -1.534067   -1.257927   -0.892446
     13          1           0       -2.467192   -1.635630   -0.783714
     14          1           0       -0.960020   -1.945970   -1.367192
 ---------------------------------------------------------------------

 SCF Done:  E(RHF) =  -742.062446663     A.U. after    2 cycles

 The electronic state is 1-A.
 Alpha  occ. eigenvalues --  -99.72660 -15.63537 -15.61884 -15.61063 -11.40934
 Alpha  occ. eigenvalues --  -11.31733 -11.25540 -10.29704  -9.49727  -9.49094
 Alpha  occ. eigenvalues --   -9.49044  -1.31264  -1.17868  -1.15132  -1.10495
 Alpha  occ. eigenvalues --   -0.92136  -0.77836  -0.59696  -0.54180  -0.51841
 Alpha  occ. eigenvalues --   -0.49244  -0.45095  -0.43377  -0.39480  -0.37060
 Alpha  occ. eigenvalues --   -0.35377  -0.34599  -0.30079  -0.29704  -0.25971
 Alpha  occ. eigenvalues --   -0.23131  -0.11136
 Alpha virt. eigenvalues --    0.13460   0.14495   0.15422   0.15647   0.17810
 Alpha virt. eigenvalues --    0.18881   0.19684   0.19903   0.22260   0.22870
 Alpha virt. eigenvalues --    0.23577   0.24043   0.25125   0.26049   0.26697

 Mulliken charges:
               1
     1  C    1.653984
     2  C   -0.693345
     3  Cl  -0.328195
     4  H   -0.302127
     5  H    0.690706
     6  H    1.366453
     7  C    2.640848
     8  N   -2.747102
     9  N   -3.001351
    10  H    0.534842
    11  H    0.726241
    12  N   -2.627462
    13  H    0.608114
    14  H    0.478393
 Sum of Mulliken charges =  -1.00000

 Dipole moment (field-independent basis, Debye):
    X=              3.5833    Y=             -3.4346    Z=             -2.8711  Tot=              5.7341

 Test job not archived.
 1\1\GINC-SE083\SP\RHF\Aug-CC-pVDZ\C3H7Cl1N3(1-)\OHZDE\09-Apr-2025\0\\#
 t hf aug-cc-pvdz iop(5/13=1,5/36=2,99/5=2) pseudo=read geom=check gues
 s=(read,tcheck) scf=(maxcycle=1)\\title\\-1,1\C,0,-0.23542122,-0.00631
 269,-0.29491695\C,0,-0.32310623,-0.1342742,1.14486617\Cl,0,1.69885944,
 0.1451501,-0.91218364\H,0,-2.7331902,0.50225094,1.28179832\H,0,-1.5842
 0404,0.05156125,1.28753974\H,0,0.05932239,0.77947595,1.62648915\C,0,-0
 .6761891,-1.21161472,-0.99662666\N,0,-1.08384078,-2.15257687,-1.570773
 94\N,0,-0.88859813,1.15250147,-0.82986815\H,0,-0.42769382,1.96261333,-

 Normal termination of Gaussian 16 at Wed Apr  9 03:02:02 2025.
