 Gaussian 16, Revision C.01,

 ----------------------------------------------------------------------
 #t hf aug-cc-pvdz symm=none int=(grid=ultrafine) guess=(read,tcheck) s
 table=(opt,rrhf)
 ----------------------------------------------------------------------
 -----
 title
 -----
 Symbolic Z-matrix:
 Charge = -1 Multiplicity = 1

 SCF Done:  E(RHF) =  -1334.28851939     A.U. after   18 cycles
 Normal termination of Gaussian 16 at Wed Apr  9 02:38:35 2025.
 Gaussian 16:  ES64L-G16RevC.01  3-Jul-2019

 ----------------------------------------------------------------------
 #t hf aug-cc-pvdz iop(5/13=1,5/36=2,99/5=2) pseudo=read geom=check gue
 ss=(read,tcheck) scf=(maxcycle=1)
 ----------------------------------------------------------------------
 -----
 title
 -----
 Structure from the checkpoint file:  "E2SN2_14_mol1.chk"
 Charge = -1 Multiplicity = 1

                         Standard orientation:
 ---------------------------------------------------------------------
 Center     Atomic      Atomic             Coordinates (Angstroms)
 Number     Number       Type             X           Y           Z
 ---------------------------------------------------------------------
      1          6           0       -0.430977    0.098769   -0.370085
      2          6           0        0.435668   -0.783455    0.273467
      3         17           0       -2.602795   -0.820141   -0.107278
      4         17           0        3.148326    0.192054   -0.234742
      5          1           0        1.662740   -0.155035   -0.058266
      6          6           0       -0.463814    0.192463   -1.861630
      7          1           0       -1.320248    0.778395   -2.184758
      8          1           0        0.457416    0.673096   -2.210782
      9          1           0       -0.523849   -0.808146   -2.277096
     10          7           0        0.544510   -2.022105   -0.450896
     11          1           0       -0.357561   -2.492446   -0.383694
     12          1           0        1.261313   -2.601560   -0.033329
     13          6           0        0.565028   -0.881352    1.776162
     14          1           0       -0.380857   -1.243673    2.193197
     15          1           0        1.363328   -1.594177    2.003754
     16          1           0        0.812664    0.066279    2.249785
     17          7           0       -0.667829    1.400377    0.295827
     18          8           0       -0.895197    1.424798    1.504659
     19          8           0       -0.607450    2.406240   -0.417967
 ---------------------------------------------------------------------

 SCF Done:  E(RHF) =  -1336.71995785     A.U. after    2 cycles

 The electronic state is 1-A.
 Alpha  occ. eigenvalues --  -99.70006 -99.66969 -20.98137 -20.97948 -15.88101
 Alpha  occ. eigenvalues --  -15.62041 -11.44957 -11.33559 -11.28210 -11.26169
 Alpha  occ. eigenvalues --  -10.26966 -10.23825  -9.47028  -9.46478  -9.46405
 Alpha  occ. eigenvalues --   -9.43975  -9.43441  -9.43420  -1.87568  -1.57238
 Alpha  occ. eigenvalues --   -1.27906  -1.11877  -1.08402  -1.03147  -0.96619
 Alpha  occ. eigenvalues --   -0.91563  -0.80418  -0.64300  -0.60437  -0.56693
 Alpha  occ. eigenvalues --   -0.54188  -0.50344  -0.49536  -0.46933  -0.45864
 Alpha  occ. eigenvalues --   -0.44165  -0.42915  -0.42088  -0.36763  -0.34602
 Alpha  occ. eigenvalues --   -0.33736  -0.33562  -0.31242  -0.30478  -0.26245
 Alpha  occ. eigenvalues --   -0.24100  -0.19563  -0.19185  -0.17917
 Alpha virt. eigenvalues --    0.13236   0.14128   0.14525   0.14698   0.15730
 Alpha virt. eigenvalues --    0.16304   0.16589   0.16844   0.17467   0.19171
 Alpha virt. eigenvalues --    0.21001   0.21513   0.23494   0.24481   0.25034

 Mulliken charges:
               1
     1  C    4.363740
     2  C    3.191642
     3  Cl  -0.781193
     4  Cl  -0.944265
     5  H    1.461291
     6  C   -5.600399
     7  H    1.352371
     8  H    1.267928
     9  H    1.193387
    10  N   -3.744177
    11  H    0.556648
    12  H    0.623961
    13  C   -5.049962
    14  H    1.248519
    15  H    1.097502
    16  H    1.220970
    17  N    3.215840
    18  O   -3.041920
    19  O   -2.631881
 Sum of Mulliken charges =  -1.00000

 Dipole moment (field-independent basis, Debye):
    X=             -0.0156    Y=             -0.3759    Z=              0.4770  Tot=              0.6075

 Test job not archived.
 1\1\GINC-SE336\SP\RHF\Aug-CC-pVDZ\C4H9Cl2N2O2(1-)\OHZDE\09-Apr-2025\0\
 \#t hf aug-cc-pvdz iop(5/13=1,5/36=2,99/5=2) pseudo=read geom=check gu
 ess=(read,tcheck) scf=(maxcycle=1)\\title\\-1,1\C,0,-0.37364744,0.0273
 2976,-0.32626252\C,0,-0.20640202,-0.01950519,1.05699057\Cl,0,1.8107473
 2,0.19865805,-1.23693275\Cl,0,-2.89094387,0.00998215,2.22351245\H,0,-1
 .57281643,-0.01814739,1.43590261\C,0,-0.93269637,1.24353241,-0.9917544
 4\H,0,-0.81044619,1.17454908,-2.06948485\H,0,-1.9991888,1.32492065,-0.
 75185992\H,0,-0.41478436,2.12049752,-0.61740945\N,0,0.23266665,1.25200

 Normal termination of Gaussian 16 at Wed Apr  9 02:38:47 2025.
