 Gaussian 16, Revision C.01,

 ----------------------------------------------------------------------
 #t hf aug-cc-pvdz symm=none int=(grid=ultrafine) guess=(read,tcheck) s
 table=(opt,rrhf)
 ----------------------------------------------------------------------
 -----
 title
 -----
 Symbolic Z-matrix:
 Charge = -1 Multiplicity = 1

 SCF Done:  E(RHF) =  -515.178104086     A.U. after   18 cycles
 Normal termination of Gaussian 16 at Wed Apr  9 02:55:53 2025.
 Gaussian 16:  ES64L-G16RevC.01  3-Jul-2019

 ----------------------------------------------------------------------
 #t hf aug-cc-pvdz iop(5/13=1,5/36=2,99/5=2) pseudo=read geom=check gue
 ss=(read,tcheck) scf=(maxcycle=1)
 ----------------------------------------------------------------------
 -----
 title
 -----
 Structure from the checkpoint file:  "E2SN2_358_mol1.chk"
 Charge = -1 Multiplicity = 1

                         Standard orientation:
 ---------------------------------------------------------------------
 Center     Atomic      Atomic             Coordinates (Angstroms)
 Number     Number       Type             X           Y           Z
 ---------------------------------------------------------------------
      1          6           0       -0.964533   -0.367124   -0.177642
      2          1           0        0.342783    0.401264   -1.690258
      3          9           0       -1.187176    0.373414    1.297794
      4          1           0       -0.784756   -1.320852   -1.808804
      5          6           0        0.250325    0.487524   -0.613551
      6          6           0       -2.294542    0.076391   -0.784182
      7          1           0       -2.765191    0.830630   -0.140284
      8          1           0       -2.154017    0.473049   -1.789139
      9          1           0       -2.953146   -0.787266   -0.872208
     10          7           0       -0.718847   -1.650146    0.447720
     11          1           0       -0.997673   -2.367975   -0.199414
     12          1           0       -1.235497   -1.671396    1.318760
     13          7           0        1.500670   -0.143797   -0.088901
     14          8           0        2.188118   -0.790067   -0.879849
     15          8           0        1.783071    0.026142    1.095797
     16          6           0        0.230880    1.944215   -0.174403
     17          1           0       -0.695804    2.410800   -0.516584
     18          1           0        0.278476    2.017559    0.906613
     19          1           0        1.074353    2.476430   -0.629478
 ---------------------------------------------------------------------

 SCF Done:  E(RHF) =  -517.476906621     A.U. after    2 cycles

 The electronic state is 1-A.
 Alpha  occ. eigenvalues --  -28.99891 -20.94020 -20.93628 -15.83202 -15.57782
 Alpha  occ. eigenvalues --  -11.42667 -11.32379 -11.26086 -11.23546  -1.83215
 Alpha  occ. eigenvalues --   -1.52994  -1.23812  -1.09365  -0.95527  -0.88021
 Alpha  occ. eigenvalues --   -0.75813  -0.66302  -0.58126  -0.54736  -0.52772
 Alpha  occ. eigenvalues --   -0.50327  -0.45892  -0.44135  -0.42241  -0.41296
 Alpha  occ. eigenvalues --   -0.41041  -0.37292  -0.33793  -0.32355  -0.22115
 Alpha  occ. eigenvalues --   -0.19432  -0.17330  -0.15753  -0.15073  -0.06465
 Alpha  occ. eigenvalues --   -0.04924  -0.04049
 Alpha virt. eigenvalues --    0.13303   0.14300   0.14525   0.15249   0.15399
 Alpha virt. eigenvalues --    0.15870   0.16346   0.17735   0.18326   0.20446
 Alpha virt. eigenvalues --    0.23284   0.23626   0.25017   0.25274   0.25799

 Mulliken charges:
               1
     1  C    4.025935
     2  H    2.200423
     3  F   -0.255902
     4  H   -0.964351
     5  C   -1.969005
     6  C   -3.630093
     7  H    1.158450
     8  H    1.244121
     9  H    1.081871
    10  N   -3.597174
    11  H    0.633794
    12  H    0.461356
    13  N    4.455659
    14  O   -2.858381
    15  O   -2.967325
    16  C   -3.948596
    17  H    1.394644
    18  H    1.374155
    19  H    1.160417
 Sum of Mulliken charges =  -1.00000

 Dipole moment (field-independent basis, Debye):
    X=             -0.1183    Y=              4.5179    Z=              5.4721  Tot=              7.0971

 Test job not archived.
 1\1\GINC-SE042\SP\RHF\Aug-CC-pVDZ\C4H10F1N2O2(1-)\OHZDE\09-Apr-2025\0\
 \#t hf aug-cc-pvdz iop(5/13=1,5/36=2,99/5=2) pseudo=read geom=check gu
 ess=(read,tcheck) scf=(maxcycle=1)\\title\\-1,1\C,0,0.56279004,-0.0941
 6307,-0.04213962\H,0,1.58304048,1.74479702,-0.44811922\F,0,-1.08486678
 ,-0.27824734,-0.20405315\H,0,2.44312845,-0.01220241,0.20325001\C,0,0.5
 7479383,1.44736939,-0.18304473\C,0,0.93621082,-0.84455817,-1.31923989\
 H,0,0.03660077,-1.02739759,-1.92112257\H,0,1.67174049,-0.28849643,-1.8
 9959694\H,0,1.39448459,-1.79680367,-1.05348643\N,0,0.54593837,-0.66699

 Normal termination of Gaussian 16 at Wed Apr  9 02:56:02 2025.
