 Gaussian 16, Revision C.01,

 ----------------------------------------------------------------------
 #t hf aug-cc-pvdz symm=none int=(grid=ultrafine) guess=(read,tcheck) s
 table=(opt,rrhf)
 ----------------------------------------------------------------------
 -----
 title
 -----
 Symbolic Z-matrix:
 Charge = -1 Multiplicity = 1

 SCF Done:  E(RHF) =  -726.825250837     A.U. after   14 cycles
 Normal termination of Gaussian 16 at Wed Apr  9 02:33:38 2025.
 Gaussian 16:  ES64L-G16RevC.01  3-Jul-2019

 ----------------------------------------------------------------------
 #t hf aug-cc-pvdz iop(5/13=1,5/36=2,99/5=2) pseudo=read geom=check gue
 ss=(read,tcheck) scf=(maxcycle=1)
 ----------------------------------------------------------------------
 -----
 title
 -----
 Structure from the checkpoint file:  "E2SN2_113_mol2.chk"
 Charge = -1 Multiplicity = 1

                         Standard orientation:
 ---------------------------------------------------------------------
 Center     Atomic      Atomic             Coordinates (Angstroms)
 Number     Number       Type             X           Y           Z
 ---------------------------------------------------------------------
      1          6           0       -0.453073    0.407872   -0.037482
      2          6           0        1.076884    0.312811   -0.024399
      3         17           0       -1.115627   -1.354921    0.007210
      4          1           0        1.344388    1.371833   -0.145928
      5          6           0       -1.005091    1.125183    1.172032
      6          1           0       -0.563585    2.130496    1.157505
      7          1           0       -0.779142    0.607891    2.105199
      8          1           0       -2.086817    1.212196    1.059317
      9          7           0       -0.938123    1.046423   -1.215824
     10          1           0       -0.600710    2.033042   -1.106915
     11          1           0       -0.394300    0.665041   -1.986849
     12          7           0        1.527710   -0.388738   -1.229653
     13          1           0        2.491990   -0.138251   -1.412523
     14          1           0        1.485125   -1.389480   -1.069123
     15          6           0        1.692320   -0.234890    1.259736
     16          1           0        2.781978   -0.270835    1.154243
     17          1           0        1.465679    0.397016    2.121397
     18          1           0        1.333348   -1.248563    1.464149
     19          1           0        0.494350    3.393619   -0.564016
 ---------------------------------------------------------------------

 SCF Done:  E(RHF) =  -728.451335191     A.U. after    2 cycles

 The electronic state is 1-A.
 Alpha  occ. eigenvalues --  -99.72500 -15.60853 -15.56616 -11.35457 -11.30267
 Alpha  occ. eigenvalues --  -11.26154 -11.23150 -10.29841  -9.49883  -9.49247
 Alpha  occ. eigenvalues --   -9.49140  -1.30517  -1.17758  -1.10996  -0.98281
 Alpha  occ. eigenvalues --   -0.92273  -0.79997  -0.66308  -0.57013  -0.52617
 Alpha  occ. eigenvalues --   -0.50941  -0.47945  -0.45812  -0.42484  -0.41738
 Alpha  occ. eigenvalues --   -0.38502  -0.37876  -0.36183  -0.34402  -0.32521
 Alpha  occ. eigenvalues --   -0.30768  -0.23449  -0.20753  -0.09923
 Alpha virt. eigenvalues --    0.12588   0.13826   0.14024   0.14489   0.14984
 Alpha virt. eigenvalues --    0.15609   0.16662   0.17800   0.17930   0.19068
 Alpha virt. eigenvalues --    0.20543   0.21606   0.23040   0.23513   0.24353

 Mulliken charges:
               1
     1  C    3.189777
     2  C    1.675471
     3  Cl  -0.407370
     4  H    1.652206
     5  C   -4.130324
     6  H    1.189029
     7  H    1.233988
     8  H    1.098652
     9  N   -3.728146
    10  H    0.689473
    11  H    0.636385
    12  N   -3.284857
    13  H    0.502892
    14  H    0.536889
    15  C   -4.279156
    16  H    1.126423
    17  H    1.276098
    18  H    1.129646
    19  H   -1.107076
 Sum of Mulliken charges =  -1.00000

 Dipole moment (field-independent basis, Debye):
    X=              1.2745    Y=             -9.8934    Z=              2.4798  Tot=             10.2787

 Test job not archived.
 1\1\GINC-SE112\SP\RHF\Aug-CC-pVDZ\C4H12Cl1N2(1-)\OHZDE\09-Apr-2025\0\\
 #t hf aug-cc-pvdz iop(5/13=1,5/36=2,99/5=2) pseudo=read geom=check gue
 ss=(read,tcheck) scf=(maxcycle=1)\\title\\-1,1\C,0,-0.206509,-0.024405
 ,-1.436782\C,0,-0.001748,0.000828,0.082234\Cl,0,-2.058844,-0.181436,-1
 .741105\H,0,1.09594,-0.000867,0.136405\C,0,0.252298,1.247662,-2.110226
 \H,0,1.319909,1.349049,-1.874176\H,0,-0.309922,2.122277,-1.780982\H,0,
 0.138155,1.129134,-3.188804\N,0,0.450131,-1.133351,-2.045529\H,0,1.465
 673,-0.912841,-1.907048\H,0,0.269099,-1.933169,-1.442874\N,0,-0.465425

 Normal termination of Gaussian 16 at Wed Apr  9 02:33:46 2025.
