 Gaussian 16, Revision C.01,

 ----------------------------------------------------------------------
 #t hf aug-cc-pvdz symm=none int=(grid=ultrafine) guess=(read,tcheck) s
 table=(opt,rrhf)
 ----------------------------------------------------------------------
 -----
 title
 -----
 Symbolic Z-matrix:
 Charge = -1 Multiplicity = 1

 SCF Done:  E(RHF) =  -1331.96601751     A.U. after   17 cycles
 Normal termination of Gaussian 16 at Wed Apr  9 02:49:45 2025.
 Gaussian 16:  ES64L-G16RevC.01  3-Jul-2019

 ----------------------------------------------------------------------
 #t hf aug-cc-pvdz iop(5/13=1,5/36=2,99/5=2) pseudo=read geom=check gue
 ss=(read,tcheck) scf=(maxcycle=1)
 ----------------------------------------------------------------------
 -----
 title
 -----
 Structure from the checkpoint file:  "E2SN2_277_mol1.chk"
 Charge = -1 Multiplicity = 1

                         Standard orientation:
 ---------------------------------------------------------------------
 Center     Atomic      Atomic             Coordinates (Angstroms)
 Number     Number       Type             X           Y           Z
 ---------------------------------------------------------------------
      1          6           0       -0.480290    0.438140   -0.302665
      2          1           0        0.982343   -0.246343   -1.707513
      3         17           0       -2.402755   -0.951259   -0.198778
      4         17           0        1.494258    1.774697   -0.111545
      5          6           0        0.379999   -0.656617   -0.902955
      6          1           0       -0.242345   -1.472826   -1.267228
      7          6           0       -0.670811    0.674624    1.101702
      8          7           0       -0.896315    0.967075    2.220670
      9          6           0       -1.169362    1.348588   -1.305008
     10          1           0       -0.476479    2.091001   -1.694131
     11          1           0       -1.566447    0.746567   -2.122194
     12          1           0       -2.011022    1.842982   -0.823024
     13          7           0        1.348151   -1.303394    0.024209
     14          8           0        2.375724   -1.735996   -0.494361
     15          8           0        1.029069   -1.443252    1.197982
 ---------------------------------------------------------------------

 SCF Done:  E(RHF) =  -1334.32301164     A.U. after    2 cycles

 The electronic state is 1-A.
 Alpha  occ. eigenvalues --  -99.68351 -99.67912 -20.98608 -20.98152 -15.88423
 Alpha  occ. eigenvalues --  -15.63696 -11.47276 -11.36924 -11.33603 -11.29818
 Alpha  occ. eigenvalues --  -10.25342 -10.24924  -9.45424  -9.45009  -9.44964
 Alpha  occ. eigenvalues --   -9.44889  -9.44587  -9.44516  -1.88000  -1.57831
 Alpha  occ. eigenvalues --   -1.23953  -1.13886  -1.05994  -1.05039  -1.01403
 Alpha  occ. eigenvalues --   -0.85693  -0.76899  -0.62256  -0.61173  -0.56779
 Alpha  occ. eigenvalues --   -0.52188  -0.50159  -0.47959  -0.46037  -0.43732
 Alpha  occ. eigenvalues --   -0.41547  -0.38711  -0.33212  -0.32826  -0.32012
 Alpha  occ. eigenvalues --   -0.31215  -0.30863  -0.30748  -0.26285  -0.23739
 Alpha  occ. eigenvalues --   -0.20310  -0.19764
 Alpha virt. eigenvalues --    0.13117   0.14770   0.14941   0.15506   0.15616
 Alpha virt. eigenvalues --    0.16271   0.19377   0.19654   0.21310   0.22305
 Alpha virt. eigenvalues --    0.22967   0.23973   0.24073   0.25497   0.26034

 Mulliken charges:
               1
     1  C    3.538307
     2  H    1.619390
     3  Cl  -0.606763
     4  Cl  -0.610133
     5  C   -3.108876
     6  H    1.270197
     7  C    2.118551
     8  N   -2.748154
     9  C   -4.760174
    10  H    1.162879
    11  H    1.220010
    12  H    1.197188
    13  N    4.405544
    14  O   -2.817396
    15  O   -2.880567
 Sum of Mulliken charges =  -1.00000

 Dipole moment (field-independent basis, Debye):
    X=              0.7196    Y=             -0.9732    Z=             -3.3549  Tot=              3.5666

 Test job not archived.
 1\1\GINC-SE044\SP\RHF\Aug-CC-pVDZ\C4H5Cl2N2O2(1-)\OHZDE\09-Apr-2025\0\
 \#t hf aug-cc-pvdz iop(5/13=1,5/36=2,99/5=2) pseudo=read geom=check gu
 ess=(read,tcheck) scf=(maxcycle=1)\\title\\-1,1\C,0,0.49591288,-0.0858
 6159,-0.00689475\H,0,1.26075518,1.8132116,0.61756365\Cl,0,-1.8350807,-
 0.32879975,0.37329432\Cl,0,2.78112078,0.11432575,-0.68475936\C,0,0.428
 8414,1.42827165,0.03601566\H,0,-0.51962878,1.75520266,0.45995408\C,0,0
 .31060228,-0.89687499,-1.17838422\N,0,0.183757,-1.6605148,-2.06677198\
 C,0,0.80167294,-0.76228873,1.31876881\H,0,1.86432477,-0.71043756,1.544

 Normal termination of Gaussian 16 at Wed Apr  9 02:49:53 2025.
