 Gaussian 16, Revision C.01,

 ----------------------------------------------------------------------
 #t hf aug-cc-pvdz symm=none int=(grid=ultrafine) guess=(read,tcheck) s
 table=(opt,rrhf)
 ----------------------------------------------------------------------
 -----
 title
 -----
 Symbolic Z-matrix:
 Charge = -1 Multiplicity = 1

 SCF Done:  E(RHF) =  -935.180383243     A.U. after   16 cycles
 Normal termination of Gaussian 16 at Wed Apr  9 02:43:29 2025.
 Gaussian 16:  ES64L-G16RevC.01  3-Jul-2019

 ----------------------------------------------------------------------
 #t hf aug-cc-pvdz iop(5/13=1,5/36=2,99/5=2) pseudo=read geom=check gue
 ss=(read,tcheck) scf=(maxcycle=1)
 ----------------------------------------------------------------------
 -----
 title
 -----
 Structure from the checkpoint file:  "E2SN2_221_mol1.chk"
 Charge = -1 Multiplicity = 1

                         Standard orientation:
 ---------------------------------------------------------------------
 Center     Atomic      Atomic             Coordinates (Angstroms)
 Number     Number       Type             X           Y           Z
 ---------------------------------------------------------------------
      1          6           0        0.102119   -0.137918   -0.407230
      2          1           0       -0.844534   -1.498946    0.827816
      3         17           0       -0.101958    1.977652   -0.489183
      4          9           0        0.471439   -2.032369   -0.754832
      5          6           0       -1.143251   -0.572512    0.342594
      6          1           0        0.194628   -0.180811   -1.472663
      7          7           0        1.407692   -0.187207    0.284383
      8          8           0        1.413814   -0.474637    1.476360
      9          8           0        2.399413    0.068107   -0.390456
     10          6           0       -2.199568   -0.890966   -0.714736
     11          1           0       -2.462468    0.012279   -1.275204
     12          1           0       -1.800747   -1.647571   -1.390093
     13          1           0       -3.108422   -1.272928   -0.236861
     14          7           0       -1.587845    0.336400    1.398173
     15          1           0       -2.355018   -0.119336    1.879966
     16          1           0       -1.933660    1.194814    0.987757
 ---------------------------------------------------------------------

 SCF Done:  E(RHF) =  -937.487445822     A.U. after    2 cycles

 The electronic state is 1-A.
 Alpha  occ. eigenvalues --  -99.69534 -28.93729 -20.94388 -20.94072 -15.84923
 Alpha  occ. eigenvalues --  -15.60161 -11.42289 -11.31569 -11.24584 -10.26598
 Alpha  occ. eigenvalues --   -9.46641  -9.46232  -9.46043  -1.84164  -1.54013
 Alpha  occ. eigenvalues --   -1.24705  -1.10894  -1.03240  -0.95468  -0.78138
 Alpha  occ. eigenvalues --   -0.69333  -0.59468  -0.56925  -0.54285  -0.49300
 Alpha  occ. eigenvalues --   -0.46562  -0.43575  -0.42242  -0.39167  -0.38384
 Alpha  occ. eigenvalues --   -0.34565  -0.33353  -0.32387  -0.29586  -0.23649
 Alpha  occ. eigenvalues --   -0.20139  -0.16287  -0.16008  -0.03763  -0.01363
 Alpha  occ. eigenvalues --   -0.00783
 Alpha virt. eigenvalues --    0.12580   0.14015   0.14859   0.15907   0.16315
 Alpha virt. eigenvalues --    0.17063   0.17468   0.21569   0.22033   0.23787
 Alpha virt. eigenvalues --    0.25725   0.26200   0.26406   0.27061   0.27425

 Mulliken charges:
               1
     1  C   -2.066099
     2  H    1.507680
     3  Cl  -0.541470
     4  F   -0.468471
     5  C    1.885073
     6  H    1.808889
     7  N    5.459951
     8  O   -3.096833
     9  O   -3.198239
    10  C   -3.721960
    11  H    1.213123
    12  H    1.236881
    13  H    1.099064
    14  N   -3.090837
    15  H    0.498872
    16  H    0.474375
 Sum of Mulliken charges =  -1.00000

 Dipole moment (field-independent basis, Debye):
    X=             -2.6656    Y=             -4.3024    Z=              0.5091  Tot=              5.0868

 Test job not archived.
 1\1\GINC-SE116\SP\RHF\Aug-CC-pVDZ\C3H7Cl1F1N2O2(1-)\OHZDE\09-Apr-2025\
 0\\#t hf aug-cc-pvdz iop(5/13=1,5/36=2,99/5=2) pseudo=read geom=check
 guess=(read,tcheck) scf=(maxcycle=1)\\title\\-1,1\C,0,0.34310764,-0.00
 140109,-0.10800767\H,0,1.54990175,1.64265449,-0.44655867\Cl,0,-1.71549
 064,-0.27980996,-0.56480242\F,0,2.16893976,-0.10110662,0.60091095\C,0,
 0.50647424,1.50567753,-0.17187943\H,0,0.22429229,-0.54391118,0.8069297
 7\N,0,0.9042493,-0.82891778,-1.19686827\O,0,1.38457557,-0.25117567,-2.
 16586887\O,0,0.84558327,-2.04528728,-1.05158461\C,0,0.30097097,2.02686

 Normal termination of Gaussian 16 at Wed Apr  9 02:43:36 2025.
