 Gaussian 16, Revision C.01,

 ----------------------------------------------------------------------
 #t hf aug-cc-pvdz symm=none int=(grid=ultrafine) guess=(read,tcheck) s
 table=(opt,rrhf)
 ----------------------------------------------------------------------
 -----
 title
 -----
 Symbolic Z-matrix:
 Charge = -1 Multiplicity = 1

 SCF Done:  E(RHF) =  -836.223852924     A.U. after   17 cycles
 Normal termination of Gaussian 16 at Wed Apr  9 02:43:13 2025.
 Gaussian 16:  ES64L-G16RevC.01  3-Jul-2019

 ----------------------------------------------------------------------
 #t hf aug-cc-pvdz iop(5/13=1,5/36=2,99/5=2) pseudo=read geom=check gue
 ss=(read,tcheck) scf=(maxcycle=1)
 ----------------------------------------------------------------------
 -----
 title
 -----
 Structure from the checkpoint file:  "E2SN2_220_mol1.chk"
 Charge = -1 Multiplicity = 1

                         Standard orientation:
 ---------------------------------------------------------------------
 Center     Atomic      Atomic             Coordinates (Angstroms)
 Number     Number       Type             X           Y           Z
 ---------------------------------------------------------------------
      1          6           0       -0.119014   -0.009605    0.549301
      2          1           0        0.884179   -1.778696    0.070368
      3         17           0       -0.069855    1.782326   -0.175716
      4          1           0       -0.346957   -1.804779    1.916156
      5          6           0        1.131136   -0.721301    0.044726
      6          1           0       -0.197843    0.173528    1.605297
      7          7           0       -1.415025   -0.562698    0.074596
      8          8           0       -1.403027   -1.328843   -0.888103
      9          8           0       -2.429576   -0.100330    0.596445
     10          6           0        2.253626   -0.452671    1.042322
     11          1           0        2.457637    0.620895    1.114003
     12          1           0        1.958530   -0.838992    2.020799
     13          1           0        3.170976   -0.955088    0.717419
     14          7           0        1.457627   -0.382179   -1.343004
     15          1           0        2.104357   -1.083662   -1.683698
     16          1           0        1.924762    0.516237   -1.379143
 ---------------------------------------------------------------------

 SCF Done:  E(RHF) =  -838.212286910     A.U. after    2 cycles

 The electronic state is 1-A.
 Alpha  occ. eigenvalues --  -99.74298 -20.94181 -20.93771 -15.84567 -15.60878
 Alpha  occ. eigenvalues --  -11.38706 -11.31292 -11.24715 -10.31449  -9.51436
 Alpha  occ. eigenvalues --   -9.50923  -9.50766  -1.83484  -1.53345  -1.25812
 Alpha  occ. eigenvalues --   -1.15477  -1.02450  -0.95155  -0.77484  -0.68446
 Alpha  occ. eigenvalues --   -0.58837  -0.56667  -0.53051  -0.48684  -0.46687
 Alpha  occ. eigenvalues --   -0.43964  -0.43308  -0.39129  -0.38245  -0.36941
 Alpha  occ. eigenvalues --   -0.35646  -0.33777  -0.24245  -0.19710  -0.16111
 Alpha  occ. eigenvalues --   -0.15422  -0.11466
 Alpha virt. eigenvalues --    0.12526   0.13833   0.14186   0.15227   0.16428
 Alpha virt. eigenvalues --    0.16785   0.17448   0.19810   0.21159   0.22006
 Alpha virt. eigenvalues --    0.23986   0.24346   0.26070   0.26659   0.26935

 Mulliken charges:
               1
     1  C   -2.383792
     2  H    1.947030
     3  Cl  -0.178148
     4  H   -0.923181
     5  C    1.554468
     6  H    2.255648
     7  N    5.009243
     8  O   -2.903531
     9  O   -2.977579
    10  C   -3.904662
    11  H    1.117918
    12  H    1.270680
    13  H    1.119488
    14  N   -2.972521
    15  H    0.441834
    16  H    0.527105
 Sum of Mulliken charges =  -1.00000

 Dipole moment (field-independent basis, Debye):
    X=              3.8614    Y=              3.1003    Z=             -4.6930  Tot=              6.8225

 Test job not archived.
 1\1\GINC-SE041\SP\RHF\Aug-CC-pVDZ\C3H8Cl1N2O2(1-)\OHZDE\09-Apr-2025\0\
 \#t hf aug-cc-pvdz iop(5/13=1,5/36=2,99/5=2) pseudo=read geom=check gu
 ess=(read,tcheck) scf=(maxcycle=1)\\title\\-1,1\C,0,0.22530015,-0.0219
 017,-0.14105939\H,0,1.51091316,1.5982537,-0.43728488\Cl,0,-1.66682864,
 -0.28683862,-0.4389561\H,0,2.34944515,-0.1490814,0.64298927\C,0,0.4662
 2259,1.4832387,-0.16319887\H,0,0.38497737,-0.53988663,0.78688201\N,0,0
 .88053319,-0.79853613,-1.22660537\O,0,1.30525877,-0.18595821,-2.205516
 04\O,0,0.82545545,-2.02454412,-1.13019435\C,0,0.26817692,2.00669136,1.

 Normal termination of Gaussian 16 at Wed Apr  9 02:43:28 2025.
