 Gaussian 16, Revision C.01,

 ----------------------------------------------------------------------
 #t hf aug-cc-pvdz symm=none int=(grid=ultrafine) guess=(read,tcheck) s
 table=(opt,rrhf)
 ----------------------------------------------------------------------
 -----
 title
 -----
 Symbolic Z-matrix:
 Charge = -1 Multiplicity = 1

 SCF Done:  E(RHF) =  -518.381932608     A.U. after   15 cycles
 Normal termination of Gaussian 16 at Wed Apr  9 02:58:34 2025.
 Gaussian 16:  ES64L-G16RevC.01  3-Jul-2019

 ----------------------------------------------------------------------
 #t hf aug-cc-pvdz iop(5/13=1,5/36=2,99/5=2) pseudo=read geom=check gue
 ss=(read,tcheck) scf=(maxcycle=1)
 ----------------------------------------------------------------------
 -----
 title
 -----
 Structure from the checkpoint file:  "E2SN2_405_mol1.chk"
 Charge = -1 Multiplicity = 1

                         Standard orientation:
 ---------------------------------------------------------------------
 Center     Atomic      Atomic             Coordinates (Angstroms)
 Number     Number       Type             X           Y           Z
 ---------------------------------------------------------------------
      1          6           0       -0.692889   -0.086219    0.137181
      2          1           0        0.316758    0.047379   -1.733218
      3          9           0        0.169040    0.516143    1.630261
      4          9           0       -1.580742   -0.653087   -1.410488
      5          6           0        0.528282    0.330124   -0.703203
      6          7           0       -1.730179    0.877057    0.357605
      7          1           0       -1.878177    0.928486    1.354961
      8          1           0       -2.537937    0.529720   -0.138233
      9          6           0       -0.782869   -1.511890    0.649228
     10          1           0       -1.832376   -1.804961    0.653190
     11          1           0       -0.261807   -2.188135   -0.028864
     12          1           0       -0.356211   -1.584462    1.647893
     13          6           0        1.716715   -0.435572   -0.265675
     14          7           0        2.721579   -0.995032   -0.022482
     15          7           0        0.757952    1.773190   -0.632430
     16          1           0        1.714566    1.957249   -0.916178
     17          1           0        0.679601    1.982055    0.358456
 ---------------------------------------------------------------------

 SCF Done:  E(RHF) =  -520.593677785     A.U. after    2 cycles

 The electronic state is 1-A.
 Alpha  occ. eigenvalues --  -28.96130 -28.94353 -15.61698 -15.59373 -15.58326
 Alpha  occ. eigenvalues --  -11.45015 -11.33893 -11.28715 -11.23268  -1.28288
 Alpha  occ. eigenvalues --   -1.18772  -1.13417  -0.98986  -0.87867  -0.71224
 Alpha  occ. eigenvalues --   -0.64607  -0.55695  -0.53538  -0.48368  -0.46229
 Alpha  occ. eigenvalues --   -0.42573  -0.41838  -0.37905  -0.35734  -0.34996
 Alpha  occ. eigenvalues --   -0.31271  -0.29464  -0.27695  -0.23977  -0.20501
 Alpha  occ. eigenvalues --   -0.11768  -0.04250  -0.03108  -0.01530  -0.00869
 Alpha  occ. eigenvalues --    0.02501
 Alpha virt. eigenvalues --    0.14400   0.14665   0.15145   0.15719   0.16552
 Alpha virt. eigenvalues --    0.16885   0.17153   0.18542   0.19914   0.22558
 Alpha virt. eigenvalues --    0.24110   0.24828   0.25411   0.26281   0.27596

 Mulliken charges:
               1
     1  C    7.110417
     2  H    1.589261
     3  F   -0.619312
     4  F   -0.783961
     5  C   -2.711412
     6  N   -4.072346
     7  H    0.609624
     8  H    0.405992
     9  C   -5.171026
    10  H    1.085068
    11  H    1.268626
    12  H    1.159100
    13  C    3.638545
    14  N   -2.994751
    15  N   -2.664786
    16  H    0.619202
    17  H    0.531760
 Sum of Mulliken charges =  -1.00000

 Dipole moment (field-independent basis, Debye):
    X=             -0.9292    Y=              1.1854    Z=              1.0661  Tot=              1.8453

 Test job not archived.
 1\1\GINC-SE456\SP\RHF\Aug-CC-pVDZ\C4H8F2N3(1-)\OHZDE\09-Apr-2025\0\\#t
  hf aug-cc-pvdz iop(5/13=1,5/36=2,99/5=2) pseudo=read geom=check guess
 =(read,tcheck) scf=(maxcycle=1)\\title\\-1,1\C,0,0.61417243,-0.0474300
 3,-0.00720715\H,0,1.72017371,1.76961603,0.09637896\F,0,-1.20695554,0.0
 5262216,-0.09957052\F,0,2.48394675,-0.12999764,0.0378316\C,0,0.671288,
 1.49119699,0.00727343\N,0,0.63304198,-0.71923346,-1.27242706\H,0,-0.16
 470177,-1.33774527,-1.29015774\H,0,1.51123363,-1.21576965,-1.30709097\
 C,0,0.60043146,-0.79620882,1.31262941\H,0,1.14637049,-1.72964757,1.178

 Normal termination of Gaussian 16 at Wed Apr  9 02:58:41 2025.
