 Gaussian 16, Revision C.01,

 ----------------------------------------------------------------------
 #t hf aug-cc-pvdz symm=none int=(grid=ultrafine) guess=(read,tcheck) s
 table=(opt,rrhf)
 ----------------------------------------------------------------------
 -----
 title
 -----
 Symbolic Z-matrix:
 Charge = -1 Multiplicity = 1

 SCF Done:  E(RHF) =  -1222.60957190     A.U. after   15 cycles
 Normal termination of Gaussian 16 at Wed Apr  9 02:55:38 2025.
 Gaussian 16:  ES64L-G16RevC.01  3-Jul-2019

 ----------------------------------------------------------------------
 #t hf aug-cc-pvdz iop(5/13=1,5/36=2,99/5=2) pseudo=read geom=check gue
 ss=(read,tcheck) scf=(maxcycle=1)
 ----------------------------------------------------------------------
 -----
 title
 -----
 Structure from the checkpoint file:  "E2SN2_348_mol2.chk"
 Charge = -1 Multiplicity = 1

                         Standard orientation:
 ---------------------------------------------------------------------
 Center     Atomic      Atomic             Coordinates (Angstroms)
 Number     Number       Type             X           Y           Z
 ---------------------------------------------------------------------
      1          6           0       -0.591520   -0.653750    0.297835
      2          6           0        0.017117    0.706628   -0.112808
      3         17           0       -2.134982   -0.888149   -0.647751
      4          1           0        0.911998    0.825895    0.514573
      5          6           0        0.341557   -1.796591   -0.050656
      6          1           0       -0.092533   -2.742996    0.282060
      7          1           0        1.312145   -1.627229    0.421175
      8          1           0        0.511227   -1.849659   -1.125919
      9          6           0       -0.952085   -0.660119    1.773139
     10          1           0       -0.037772   -0.513463    2.356216
     11          1           0       -1.660762    0.133902    2.014545
     12          1           0       -1.395374   -1.619232    2.050556
     13          6           0       -0.921619    1.796109    0.216136
     14          7           0       -1.667311    2.660314    0.493115
     15          7           0        0.477093    0.838464   -1.478353
     16          1           0       -0.105222    0.299863   -2.107201
     17          1           0        1.439077    0.507434   -1.497004
     18         17           0        3.316631    0.049348    0.132798
 ---------------------------------------------------------------------

 SCF Done:  E(RHF) =  -1224.58352735     A.U. after    2 cycles

 The electronic state is 1-A.
 Alpha  occ. eigenvalues --  -99.76929 -99.61806 -15.64361 -15.61540 -11.39741
 Alpha  occ. eigenvalues --  -11.35868 -11.31848 -11.29700 -11.26525 -10.34352
 Alpha  occ. eigenvalues --  -10.18467  -9.54364  -9.53681  -9.53649  -9.38555
 Alpha  occ. eigenvalues --   -9.38194  -9.38131  -1.31667  -1.20420  -1.16018
 Alpha  occ. eigenvalues --   -1.06548  -0.97579  -0.92674  -0.90413  -0.72690
 Alpha  occ. eigenvalues --   -0.62574  -0.57283  -0.53177  -0.52501  -0.48206
 Alpha  occ. eigenvalues --   -0.45957  -0.44597  -0.42657  -0.40386  -0.39711
 Alpha  occ. eigenvalues --   -0.38572  -0.36963  -0.34327  -0.31279  -0.30614
 Alpha  occ. eigenvalues --   -0.26123  -0.25496  -0.25356  -0.23661
 Alpha virt. eigenvalues --    0.12425   0.13486   0.14087   0.15241   0.15789
 Alpha virt. eigenvalues --    0.16042   0.16358   0.17471   0.18257   0.19097
 Alpha virt. eigenvalues --    0.20445   0.21644   0.22705   0.22926   0.23680

 Mulliken charges:
               1
     1  C    2.458219
     2  C    1.095915
     3  Cl  -0.430995
     4  H    1.654710
     5  C   -4.282200
     6  H    1.127346
     7  H    1.119107
     8  H    1.272164
     9  C   -4.220258
    10  H    1.312968
    11  H    1.234229
    12  H    1.210212
    13  C    0.750325
    14  N   -2.288883
    15  N   -3.048712
    16  H    0.559563
    17  H    0.429185
    18  Cl  -0.952894
 Sum of Mulliken charges =  -1.00000

 Dipole moment (field-independent basis, Debye):
    X=             -7.7334    Y=             -3.7639    Z=              0.2637  Tot=              8.6048

 Test job not archived.
 1\1\GINC-SE023\SP\RHF\Aug-CC-pVDZ\C5H9Cl2N2(1-)\OHZDE\09-Apr-2025\0\\#
 t hf aug-cc-pvdz iop(5/13=1,5/36=2,99/5=2) pseudo=read geom=check gues
 s=(read,tcheck) scf=(maxcycle=1)\\title\\-1,1\C,0,0.013057,-0.043379,0
 .046397\C,0,-0.575453,-0.367676,-1.345789\Cl,0,1.820407,0.135861,-0.13
 4462\H,0,-1.652084,-0.515023,-1.179061\C,0,-0.530334,1.268848,0.576445
 \H,0,-0.129757,1.458324,1.575671\H,0,-1.621698,1.225895,0.597153\H,0,-
 0.253112,2.098606,-0.073512\C,0,-0.239823,-1.183113,1.017802\H,0,-1.32
 0624,-1.309695,1.133129\H,0,0.192811,-2.118123,0.657865\H,0,0.192732,-

 Normal termination of Gaussian 16 at Wed Apr  9 02:55:47 2025.
