 Gaussian 16, Revision C.01,

 ----------------------------------------------------------------------
 #t hf aug-cc-pvdz symm=none int=(grid=ultrafine) guess=(read,tcheck) s
 table=(opt,rrhf)
 ----------------------------------------------------------------------
 -----
 title
 -----
 Symbolic Z-matrix:
 Charge = -1 Multiplicity = 1

 SCF Done:  E(RHF) =  -508.842513208     A.U. after   17 cycles
 Normal termination of Gaussian 16 at Wed Apr  9 03:01:27 2025.
 Gaussian 16:  ES64L-G16RevC.01  3-Jul-2019

 ----------------------------------------------------------------------
 #t hf aug-cc-pvdz iop(5/13=1,5/36=2,99/5=2) pseudo=read geom=check gue
 ss=(read,tcheck) scf=(maxcycle=1)
 ----------------------------------------------------------------------
 -----
 title
 -----
 Structure from the checkpoint file:  "E2SN2_69_mol2.chk"
 Charge = -1 Multiplicity = 1

                         Standard orientation:
 ---------------------------------------------------------------------
 Center     Atomic      Atomic             Coordinates (Angstroms)
 Number     Number       Type             X           Y           Z
 ---------------------------------------------------------------------
      1          6           0       -0.475107    0.183466    0.213690
      2          6           0        0.628715   -0.659589   -0.436403
      3          9           0       -0.287375    0.242238    1.588393
      4          1           0        0.494123   -0.688605   -1.523048
      5          6           0       -0.478372    1.572660   -0.289043
      6          7           0       -0.469928    2.677556   -0.687763
      7          6           0       -1.792543   -0.424540   -0.038139
      8          7           0       -2.879182   -0.830350   -0.219216
      9          7           0        0.498388   -2.030751   -0.028603
     10          1           0        1.245717   -2.304331    0.597366
     11          1           0        0.587180   -2.525159   -0.978193
     12          6           0        1.920060   -0.028157   -0.140666
     13          7           0        2.965326    0.447007    0.112753
     14          1           0        0.640598   -2.369315   -2.488484
 ---------------------------------------------------------------------

 SCF Done:  E(RHF) =  -511.026779530     A.U. after    2 cycles

 The electronic state is 1-A.
 Alpha  occ. eigenvalues --  -29.21007 -15.70790 -15.69526 -15.66720 -15.60659
 Alpha  occ. eigenvalues --  -11.50903 -11.39318 -11.38282 -11.36737 -11.33383
 Alpha  occ. eigenvalues --   -1.35388  -1.23689  -1.21256  -1.17662  -1.12581
 Alpha  occ. eigenvalues --   -0.90569  -0.75083  -0.73916  -0.63157  -0.60061
 Alpha  occ. eigenvalues --   -0.49685  -0.46870  -0.45589  -0.45047  -0.40670
 Alpha  occ. eigenvalues --   -0.39081  -0.37755  -0.36585  -0.35480  -0.34174
 Alpha  occ. eigenvalues --   -0.33886  -0.29956  -0.25401  -0.20553  -0.19967
 Alpha  occ. eigenvalues --   -0.12729
 Alpha virt. eigenvalues --    0.14502   0.16427   0.17443   0.18357   0.18911
 Alpha virt. eigenvalues --    0.19520   0.19776   0.20481   0.21289   0.21782
 Alpha virt. eigenvalues --    0.22661   0.23593   0.23933   0.24356   0.24942

 Mulliken charges:
               1
     1  C    2.561732
     2  C   -1.044127
     3  F    0.079950
     4  H    2.014463
     5  C    1.821464
     6  N   -2.601883
     7  C    1.281923
     8  N   -2.492490
     9  N   -2.404865
    10  H    0.531039
    11  H    0.507207
    12  C    2.263939
    13  N   -2.525898
    14  H   -0.992453
 Sum of Mulliken charges =  -1.00000

 Dipole moment (field-independent basis, Debye):
    X=             -1.2670    Y=              5.0063    Z=             10.4904  Tot=             11.6926

 Test job not archived.
 1\1\GINC-SE040\SP\RHF\Aug-CC-pVDZ\C5H4F1N4(1-)\OHZDE\09-Apr-2025\0\\#t
  hf aug-cc-pvdz iop(5/13=1,5/36=2,99/5=2) pseudo=read geom=check guess
 =(read,tcheck) scf=(maxcycle=1)\\title\\-1,1\C,0,-0.537161,0.001216,-1
 .492983\C,0,0.048574,0.070449,-0.077388\F,0,-1.91857,-0.128591,-1.4349
 74\H,0,1.135912,0.194781,-0.122022\C,0,-0.242884,1.220632,-2.27339\N,0
 ,-0.011634,2.196413,-2.885126\C,0,-0.00155,-1.170212,-2.206849\N,0,0.4
 00564,-2.064859,-2.851957\N,0,-0.134882,-1.189393,0.587829\H,0,-0.8230
 34,-1.121715,1.327457\H,0,0.850317,-1.343369,0.987478\C,0,-0.529287,1.

 Normal termination of Gaussian 16 at Wed Apr  9 03:01:33 2025.
