 Gaussian 16, Revision C.01,

 ----------------------------------------------------------------------
 #t hf aug-cc-pvdz symm=none int=(grid=ultrafine) guess=(read,tcheck) s
 table=(opt,rrhf)
 ----------------------------------------------------------------------
 -----
 title
 -----
 Symbolic Z-matrix:
 Charge = -1 Multiplicity = 1

 SCF Done:  E(RHF) =  -739.643309036     A.U. after   16 cycles
 Normal termination of Gaussian 16 at Wed Apr  9 02:44:38 2025.
 Gaussian 16:  ES64L-G16RevC.01  3-Jul-2019

 ----------------------------------------------------------------------
 #t hf aug-cc-pvdz iop(5/13=1,5/36=2,99/5=2) pseudo=read geom=check gue
 ss=(read,tcheck) scf=(maxcycle=1)
 ----------------------------------------------------------------------
 -----
 title
 -----
 Structure from the checkpoint file:  "E2SN2_236_mol2.chk"
 Charge = -1 Multiplicity = 1

                         Standard orientation:
 ---------------------------------------------------------------------
 Center     Atomic      Atomic             Coordinates (Angstroms)
 Number     Number       Type             X           Y           Z
 ---------------------------------------------------------------------
      1          6           0        0.407813   -0.040004    0.415491
      2          6           0       -0.640368   -0.006825   -0.675850
      3          9           0        0.211253   -1.142717    1.261014
      4          1           0       -0.444619   -0.761086   -1.428625
      5          1           0       -0.633852    1.037067   -1.058938
      6          7           0        1.783472   -0.530779   -0.257188
      7          8           0        2.811379   -0.099072    0.258815
      8          8           0        1.752073   -1.340583   -1.180289
      9          7           0        0.539368    1.133735    1.081128
     10          1           0        0.366359    1.937023    0.380654
     11          1           0        1.410123    1.179252    1.592197
     12          7           0       -1.982798   -0.321093   -0.125540
     13          8           0       -2.412343    0.358009    0.801265
     14          8           0       -2.607499   -1.238313   -0.667731
     15          9           0        0.007430    2.639978   -0.873060
 ---------------------------------------------------------------------

 SCF Done:  E(RHF) =  -742.650079520     A.U. after    2 cycles

 The electronic state is 1-A.
 Alpha  occ. eigenvalues --  -29.16579 -28.94006 -20.98833 -20.98635 -20.97651
 Alpha  occ. eigenvalues --  -20.97423 -15.87332 -15.86544 -15.59906 -11.47230
 Alpha  occ. eigenvalues --  -11.31797  -1.88022  -1.86131  -1.57890  -1.56585
 Alpha  occ. eigenvalues --   -1.31945  -1.09630  -0.99576  -0.80016  -0.77534
 Alpha  occ. eigenvalues --   -0.64425  -0.62065  -0.59143  -0.57480  -0.54512
 Alpha  occ. eigenvalues --   -0.50953  -0.50159  -0.48917  -0.45396  -0.42231
 Alpha  occ. eigenvalues --   -0.33238  -0.30626  -0.27811  -0.24957  -0.21666
 Alpha  occ. eigenvalues --   -0.21548  -0.19666  -0.18843  -0.18379  -0.16030
 Alpha  occ. eigenvalues --   -0.15156  -0.02614  -0.01851  -0.00193
 Alpha virt. eigenvalues --    0.14684   0.15960   0.17986   0.19905   0.20087
 Alpha virt. eigenvalues --    0.21824   0.23066   0.24232   0.24861   0.25246
 Alpha virt. eigenvalues --    0.26022   0.26594   0.27321   0.27910   0.29024

 Mulliken charges:
               1
     1  C    4.086775
     2  C   -1.747724
     3  F    0.485184
     4  H    1.643312
     5  H    1.076584
     6  N    4.191410
     7  O   -2.913192
     8  O   -2.962244
     9  N   -3.480780
    10  H   -0.045206
    11  H    0.449550
    12  N    4.236463
    13  O   -2.849245
    14  O   -2.755653
    15  F   -0.415233
 Sum of Mulliken charges =  -1.00000

 Dipole moment (field-independent basis, Debye):
    X=              0.4898    Y=             -5.1177    Z=              2.6034  Tot=              5.7627

 Test job not archived.
 1\1\GINC-SE460\SP\RHF\Aug-CC-pVDZ\C2H4F2N3O4(1-)\OHZDE\09-Apr-2025\0\\
 #t hf aug-cc-pvdz iop(5/13=1,5/36=2,99/5=2) pseudo=read geom=check gue
 ss=(read,tcheck) scf=(maxcycle=1)\\title\\-1,1\C,0,-0.084185,-0.053915
 ,0.063849\C,0,-0.604218,-0.060051,-1.357537\F,0,1.285497,-0.358186,0.0
 94029\H,0,-0.281645,0.82344,-1.895391\H,0,-1.707489,-0.165544,-1.26713
 2\N,0,0.029377,1.482362,0.525102\O,0,-0.127474,1.690071,1.725717\O,0,0
 .325362,2.342959,-0.299913\N,0,-0.822654,-0.804382,0.917959\H,0,-1.856
 089,-0.740841,0.611623\H,0,-0.637133,-0.566297,1.882519\N,0,-0.059107,

 Normal termination of Gaussian 16 at Wed Apr  9 02:44:44 2025.
