 Gaussian 16, Revision C.01,

 ----------------------------------------------------------------------
 #t hf aug-cc-pvdz symm=none int=(grid=ultrafine) guess=(read,tcheck) s
 table=(opt,rrhf)
 ----------------------------------------------------------------------
 -----
 title
 -----
 Symbolic Z-matrix:
 Charge = -1 Multiplicity = 1

 SCF Done:  E(RHF) =  -1295.34087565     A.U. after   15 cycles
 Normal termination of Gaussian 16 at Wed Apr  9 02:41:07 2025.
 Gaussian 16:  ES64L-G16RevC.01  3-Jul-2019

 ----------------------------------------------------------------------
 #t hf aug-cc-pvdz iop(5/13=1,5/36=2,99/5=2) pseudo=read geom=check gue
 ss=(read,tcheck) scf=(maxcycle=1)
 ----------------------------------------------------------------------
 -----
 title
 -----
 Structure from the checkpoint file:  "E2SN2_189_mol2.chk"
 Charge = -1 Multiplicity = 1

                         Standard orientation:
 ---------------------------------------------------------------------
 Center     Atomic      Atomic             Coordinates (Angstroms)
 Number     Number       Type             X           Y           Z
 ---------------------------------------------------------------------
      1          6           0        0.235888    0.939613    0.043327
      2          6           0        0.492276   -0.348476    0.801893
      3         17           0        1.832282    1.558937   -0.534693
      4          1           0        1.304810   -0.224702    1.523094
      5          1           0       -0.356805    0.720010   -0.843873
      6          6           0       -0.445207    1.983312    0.900914
      7          1           0        0.105292    2.146754    1.830946
      8          1           0       -0.507056    2.925287    0.352872
      9          1           0       -1.455504    1.639170    1.118068
     10          7           0        1.086794   -1.398940   -0.159017
     11          8           0        1.822819   -2.236115    0.372072
     12          8           0        0.741697   -1.408684   -1.335097
     13          7           0       -0.687305   -0.816011    1.429195
     14          1           0       -0.557085   -1.732196    1.836335
     15          1           0       -1.499530   -0.789116    0.800638
     16         17           0       -3.129012   -0.115928   -0.540714
 ---------------------------------------------------------------------

 SCF Done:  E(RHF) =  -1297.53944236     A.U. after    2 cycles

 The electronic state is 1-A.
 Alpha  occ. eigenvalues --  -99.77175 -99.61398 -20.98275 -20.97680 -15.86303
 Alpha  occ. eigenvalues --  -15.62585 -11.39547 -11.33914 -11.26839 -10.34570
 Alpha  occ. eigenvalues --  -10.18075  -9.54578  -9.53893  -9.53703  -9.38114
 Alpha  occ. eigenvalues --   -9.37762  -9.37666  -1.86767  -1.57137  -1.30420
 Alpha  occ. eigenvalues --   -1.20651  -1.02638  -0.97914  -0.97008  -0.80585
 Alpha  occ. eigenvalues --   -0.71994  -0.60323  -0.60195  -0.56824  -0.52991
 Alpha  occ. eigenvalues --   -0.49454  -0.47488  -0.44963  -0.44320  -0.41440
 Alpha  occ. eigenvalues --   -0.39792  -0.36040  -0.35610  -0.30394  -0.25314
 Alpha  occ. eigenvalues --   -0.25207  -0.25196  -0.20645  -0.19984  -0.19496
 Alpha virt. eigenvalues --    0.12960   0.13966   0.14400   0.15078   0.16318
 Alpha virt. eigenvalues --    0.17363   0.17944   0.20016   0.21054   0.22474
 Alpha virt. eigenvalues --    0.23601   0.24053   0.24653   0.25309   0.25989

 Mulliken charges:
               1
     1  C   -2.041043
     2  C    1.474364
     3  Cl  -0.096387
     4  H    1.865605
     5  H    1.827979
     6  C   -3.476800
     7  H    1.203285
     8  H    1.145474
     9  H    1.352539
    10  N    4.316802
    11  O   -2.861881
    12  O   -2.861875
    13  N   -2.893864
    14  H    0.514835
    15  H    0.500963
    16  Cl  -0.969994
 Sum of Mulliken charges =  -1.00000

 Dipole moment (field-independent basis, Debye):
    X=              7.9372    Y=              0.8978    Z=              3.1385  Tot=              8.5822

 Test job not archived.
 1\1\GINC-SE090\SP\RHF\Aug-CC-pVDZ\C3H7Cl2N2O2(1-)\OHZDE\09-Apr-2025\0\
 \#t hf aug-cc-pvdz iop(5/13=1,5/36=2,99/5=2) pseudo=read geom=check gu
 ess=(read,tcheck) scf=(maxcycle=1)\\title\\-1,1\C,0,-0.207006,0.012128
 ,0.008181\C,0,-0.465055,0.225011,-1.47115\Cl,0,1.521015,0.434875,0.326
 567\H,0,0.315033,-0.243453,-2.077505\H,0,-0.813415,0.712525,0.581195\C
 ,0,-0.47963,-1.412574,0.43778\H,0,0.065658,-2.122447,-0.189487\H,0,-0.
 174362,-1.547348,1.477078\H,0,-1.551383,-1.591608,0.363062\N,0,-0.2724
 3,1.716618,-1.81507\O,0,0.087837,1.943669,-2.974081\O,0,-0.56322,2.572

 Normal termination of Gaussian 16 at Wed Apr  9 02:41:15 2025.
