 Gaussian 16, Revision C.01,

 ----------------------------------------------------------------------
 #t hf aug-cc-pvdz symm=none int=(grid=ultrafine) guess=(read,tcheck) s
 table=(opt,rrhf)
 ----------------------------------------------------------------------
 -----
 title
 -----
 Symbolic Z-matrix:
 Charge = -1 Multiplicity = 1

 SCF Done:  E(RHF) =  -461.049911987     A.U. after   15 cycles
 Normal termination of Gaussian 16 at Wed Apr  9 02:39:34 2025.
 Gaussian 16:  ES64L-G16RevC.01  3-Jul-2019

 ----------------------------------------------------------------------
 #t hf aug-cc-pvdz iop(5/13=1,5/36=2,99/5=2) pseudo=read geom=check gue
 ss=(read,tcheck) scf=(maxcycle=1)
 ----------------------------------------------------------------------
 -----
 title
 -----
 Structure from the checkpoint file:  "E2SN2_177_mol2.chk"
 Charge = -1 Multiplicity = 1

                         Standard orientation:
 ---------------------------------------------------------------------
 Center     Atomic      Atomic             Coordinates (Angstroms)
 Number     Number       Type             X           Y           Z
 ---------------------------------------------------------------------
      1          6           0        0.288627   -0.386367   -0.350454
      2          6           0       -0.629448    0.327720    0.625573
      3          9           0       -0.048998   -1.744155   -0.489702
      4          1           0       -0.246108    1.382488    0.442154
      5          1           0        0.221966    0.100541   -1.318323
      6          1           0       -0.451101   -0.008565    1.650248
      7          6           0        1.680921   -0.327415    0.117001
      8          7           0        2.776906   -0.469262    0.512518
      9          6           0       -2.028194    0.146039    0.282310
     10          7           0       -3.165658    0.024729    0.012596
     11          9           0        0.862894    2.086090   -0.454348
 ---------------------------------------------------------------------

 SCF Done:  E(RHF) =  -462.913141378     A.U. after    2 cycles

 The electronic state is 1-A.
 Alpha  occ. eigenvalues --  -29.14824 -28.91001 -15.63934 -15.63568 -11.39798
 Alpha  occ. eigenvalues --  -11.33446 -11.31349 -11.28426  -1.23471  -1.17083
 Alpha  occ. eigenvalues --   -1.10186  -0.90900  -0.67115  -0.61733  -0.56399
 Alpha  occ. eigenvalues --   -0.49204  -0.47076  -0.40924  -0.39126  -0.34327
 Alpha  occ. eigenvalues --   -0.32290  -0.31313  -0.30139  -0.26074  -0.25072
 Alpha  occ. eigenvalues --   -0.15238  -0.14505   0.00149   0.00504   0.02385
 Alpha virt. eigenvalues --    0.14440   0.16955   0.18366   0.19389   0.19937
 Alpha virt. eigenvalues --    0.21091   0.22313   0.22868   0.23847   0.24419
 Alpha virt. eigenvalues --    0.25135   0.26736   0.27025   0.28600   0.29555

 Mulliken charges:
               1
     1  C   -0.839470
     2  C   -2.887698
     3  F    0.149763
     4  H    0.953417
     5  H    1.444800
     6  H    1.571031
     7  C    2.618336
     8  N   -2.854778
     9  C    2.107741
    10  N   -2.540666
    11  F   -0.722477
 Sum of Mulliken charges =  -1.00000

 Dipole moment (field-independent basis, Debye):
    X=             -1.3134    Y=             -4.9807    Z=             -0.1220  Tot=              5.1524

 Test job not archived.
 1\1\GINC-SE222\SP\RHF\Aug-CC-pVDZ\C4H3F2N2(1-)\OHZDE\09-Apr-2025\0\\#t
  hf aug-cc-pvdz iop(5/13=1,5/36=2,99/5=2) pseudo=read geom=check guess
 =(read,tcheck) scf=(maxcycle=1)\\title\\-1,1\C,0,-0.044616,0.010958,0.
 022743\C,0,-0.543143,0.2858,-1.384859\F,0,1.356768,0.088651,0.10675\H,
 0,-1.654637,0.304786,-1.145382\H,0,-0.484947,0.735319,0.700757\H,0,-0.
 276295,-0.529614,-2.062166\C,0,-0.434396,-1.339999,0.451061\N,0,-0.558
 671,-2.457025,0.78951\C,0,-0.034782,1.543599,-1.901425\N,0,0.352743,2.
 56605,-2.332358\F,0,-2.58052,0.113884,0.133272\\Version=ES64L-G16RevC.

 Normal termination of Gaussian 16 at Wed Apr  9 02:39:38 2025.
