 Gaussian 16, Revision C.01,

 ----------------------------------------------------------------------
 #t hf aug-cc-pvdz symm=none int=(grid=ultrafine) guess=(read,tcheck) s
 table=(opt,rrhf)
 ----------------------------------------------------------------------
 -----
 title
 -----
 Symbolic Z-matrix:
 Charge = -1 Multiplicity = 1

 SCF Done:  E(RHF) =  -1199.57125058     A.U. after   15 cycles
 Normal termination of Gaussian 16 at Wed Apr  9 02:40:05 2025.
 Gaussian 16:  ES64L-G16RevC.01  3-Jul-2019

 ----------------------------------------------------------------------
 #t hf aug-cc-pvdz iop(5/13=1,5/36=2,99/5=2) pseudo=read geom=check gue
 ss=(read,tcheck) scf=(maxcycle=1)
 ----------------------------------------------------------------------
 -----
 title
 -----
 Structure from the checkpoint file:  "E2SN2_184_mol2.chk"
 Charge = -1 Multiplicity = 1

                         Standard orientation:
 ---------------------------------------------------------------------
 Center     Atomic      Atomic             Coordinates (Angstroms)
 Number     Number       Type             X           Y           Z
 ---------------------------------------------------------------------
      1          6           0        0.675552    0.033416   -0.204830
      2          6           0        0.120393    0.100455    1.237377
      3         17           0        1.592979   -1.495113   -0.459322
      4          1           0        0.981281    0.087938    1.917871
      5          1           0       -0.178250    0.013738   -0.892021
      6          6           0        1.567762    1.148048   -0.498480
      7          7           0        2.322361    2.015592   -0.738918
      8          7           0       -0.756182   -0.998643    1.595896
      9          1           0       -1.539384   -0.987075    0.941961
     10          1           0       -0.272867   -1.883784    1.491097
     11          7           0       -0.540671    1.386330    1.325032
     12          1           0       -1.334377    1.353680    0.683392
     13          1           0       -0.927399    1.458986    2.259987
     14         17           0       -2.657085    0.050527   -1.004252
 ---------------------------------------------------------------------

 SCF Done:  E(RHF) =  -1201.37908727     A.U. after    2 cycles

 The electronic state is 1-A.
 Alpha  occ. eigenvalues --  -99.78655 -99.62432 -15.65397 -15.60692 -15.60606
 Alpha  occ. eigenvalues --  -11.39087 -11.34045 -11.31163 -10.36014 -10.19127
 Alpha  occ. eigenvalues --   -9.55978  -9.55296  -9.55100  -9.39171  -9.38831
 Alpha  occ. eigenvalues --   -9.38792  -1.33362  -1.22276  -1.17218  -1.11600
 Alpha  occ. eigenvalues --   -0.98422  -0.97075  -0.77538  -0.63970  -0.58031
 Alpha  occ. eigenvalues --   -0.55205  -0.52191  -0.47909  -0.44959  -0.42170
 Alpha  occ. eigenvalues --   -0.39409  -0.38304  -0.37770  -0.32989  -0.32545
 Alpha  occ. eigenvalues --   -0.27111  -0.26751  -0.26191  -0.24692  -0.22849
 Alpha virt. eigenvalues --    0.13487   0.14443   0.14761   0.16202   0.17248
 Alpha virt. eigenvalues --    0.18177   0.18568   0.20230   0.21272   0.21965
 Alpha virt. eigenvalues --    0.23413   0.24242   0.24482   0.25140   0.26498

 Mulliken charges:
               1
     1  C   -2.422959
     2  C    2.569921
     3  Cl  -0.025741
     4  H    1.776607
     5  H    1.790475
     6  C    2.695111
     7  N   -2.578837
     8  N   -2.962677
     9  H    0.509128
    10  H    0.525758
    11  N   -2.907847
    12  H    0.521079
    13  H    0.514778
    14  Cl  -1.004796
 Sum of Mulliken charges =  -1.00000

 Dipole moment (field-independent basis, Debye):
    X=              5.4991    Y=             -1.8487    Z=              4.2612  Tot=              7.1983

 Test job not archived.
 1\1\GINC-SE364\SP\RHF\Aug-CC-pVDZ\C3H6Cl2N3(1-)\OHZDE\09-Apr-2025\0\\#
 t hf aug-cc-pvdz iop(5/13=1,5/36=2,99/5=2) pseudo=read geom=check gues
 s=(read,tcheck) scf=(maxcycle=1)\\title\\-1,1\C,0,-0.354071,-0.101905,
 0.151839\C,0,-0.583795,-0.775801,-1.221387\Cl,0,0.864076,1.217122,0.01
 3547\H,0,0.373895,-1.21104,-1.53404\H,0,-1.297881,0.363453,0.458859\C,
 0,0.120559,-1.049796,1.15229\N,0,0.543918,-1.790187,1.960034\N,0,-1.03
 4005,0.125313,-2.265533\H,0,-1.912802,0.537859,-1.951381\H,0,-0.36448,
 0.875328,-2.396932\N,0,-1.531746,-1.840036,-0.962627\H,0,-2.405865,-1.

 Normal termination of Gaussian 16 at Wed Apr  9 02:40:10 2025.
