 Gaussian 16, Revision C.01,

 ----------------------------------------------------------------------
 #t hf aug-cc-pvdz symm=none int=(grid=ultrafine) guess=(read,tcheck) s
 table=(opt,rrhf)
 ----------------------------------------------------------------------
 -----
 title
 -----
 Symbolic Z-matrix:
 Charge = -1 Multiplicity = 1

 SCF Done:  E(RHF) =  -1236.27038266     A.U. after   16 cycles
 Normal termination of Gaussian 16 at Wed Apr  9 03:01:51 2025.
 Gaussian 16:  ES64L-G16RevC.01  3-Jul-2019

 ----------------------------------------------------------------------
 #t hf aug-cc-pvdz iop(5/13=1,5/36=2,99/5=2) pseudo=read geom=check gue
 ss=(read,tcheck) scf=(maxcycle=1)
 ----------------------------------------------------------------------
 -----
 title
 -----
 Structure from the checkpoint file:  "E2SN2_80_mol2.chk"
 Charge = -1 Multiplicity = 1

                         Standard orientation:
 ---------------------------------------------------------------------
 Center     Atomic      Atomic             Coordinates (Angstroms)
 Number     Number       Type             X           Y           Z
 ---------------------------------------------------------------------
      1          6           0       -0.397462   -0.553349   -0.204102
      2          6           0       -0.076715    0.889819   -0.607800
      3         17           0       -0.583295   -0.552016    1.660654
      4          1           0        0.891926    1.142517   -0.165892
      5          1           0        0.056185    0.902730   -1.693439
      6          6           0       -1.721748   -0.977523   -0.683978
      7          7           0       -2.764019   -1.324789   -1.100472
      8          7           0        0.603060   -1.397086   -0.693488
      9          1           0        0.521117   -2.341363   -0.341575
     10          1           0        1.544585   -1.007538   -0.523927
     11          6           0       -1.111164    1.842726   -0.227864
     12          7           0       -1.940387    2.628487    0.041671
     13         17           0        3.262010    0.243036   -0.170458
 ---------------------------------------------------------------------

 SCF Done:  E(RHF) =  -1238.21084240     A.U. after    2 cycles

 The electronic state is 1-A.
 Alpha  occ. eigenvalues --  -99.78116 -99.63062 -15.68347 -15.66744 -15.64739
 Alpha  occ. eigenvalues --  -11.45233 -11.37817 -11.35580 -11.32908 -10.35423
 Alpha  occ. eigenvalues --  -10.19781  -9.55390  -9.54700  -9.54648  -9.39816
 Alpha  occ. eigenvalues --   -9.39503  -9.39290  -1.36159  -1.20555  -1.19640
 Alpha  occ. eigenvalues --   -1.17122  -1.04505  -0.99154  -0.87861  -0.67969
 Alpha  occ. eigenvalues --   -0.61944  -0.57228  -0.54114  -0.50687  -0.50006
 Alpha  occ. eigenvalues --   -0.44611  -0.41588  -0.40239  -0.39624  -0.35248
 Alpha  occ. eigenvalues --   -0.34564  -0.33295  -0.32671  -0.29267  -0.26924
 Alpha  occ. eigenvalues --   -0.26776  -0.26254
 Alpha virt. eigenvalues --    0.13167   0.14720   0.16628   0.16857   0.18379
 Alpha virt. eigenvalues --    0.18588   0.19687   0.19925   0.20418   0.22316
 Alpha virt. eigenvalues --    0.22415   0.23365   0.24355   0.24768   0.25556

 Mulliken charges:
               1
     1  C    2.988329
     2  C   -2.434605
     3  Cl  -0.104771
     4  H    1.276645
     5  H    1.317830
     6  C    2.087378
     7  N   -2.526968
     8  N   -3.582413
     9  H    0.683025
    10  H    0.574455
    11  C    2.216644
    12  N   -2.519573
    13  Cl  -0.975975
 Sum of Mulliken charges =  -1.00000

 Dipole moment (field-independent basis, Debye):
    X=             -5.7950    Y=             -2.4802    Z=             -0.7027  Tot=              6.3425

 Test job not archived.
 1\1\GINC-SE222\SP\RHF\Aug-CC-pVDZ\C4H4Cl2N3(1-)\OHZDE\09-Apr-2025\0\\#
 t hf aug-cc-pvdz iop(5/13=1,5/36=2,99/5=2) pseudo=read geom=check gues
 s=(read,tcheck) scf=(maxcycle=1)\\title\\-1,1\C,0,-0.263331,0.028901,-
 1.457389\C,0,0.022358,-0.109754,0.041857\Cl,0,-0.021387,-1.673896,-2.2
 01564\H,0,1.076345,-0.384415,0.147098\H,0,-0.09384,0.881763,0.488885\C
 ,0,-1.67968,0.32486,-1.722535\N,0,-2.803811,0.597654,-1.928208\N,0,0.5
 61094,1.024069,-1.988803\H,0,0.518521,1.065526,-2.998102\H,0,1.533143,
 0.931674,-1.651828\C,0,-0.854957,-1.058288,0.714962\N,0,-1.565171,-1.7

 Normal termination of Gaussian 16 at Wed Apr  9 03:01:58 2025.
