 Gaussian 16, Revision C.01,

 ----------------------------------------------------------------------
 #t hf aug-cc-pvdz symm=none int=(grid=ultrafine) guess=(read,tcheck) s
 table=(opt,rrhf)
 ----------------------------------------------------------------------
 -----
 title
 -----
 Symbolic Z-matrix:
 Charge = -1 Multiplicity = 1

 SCF Done:  E(RHF) =  -463.348557717     A.U. after   15 cycles
 Normal termination of Gaussian 16 at Wed Apr  9 02:40:32 2025.
 Gaussian 16:  ES64L-G16RevC.01  3-Jul-2019

 ----------------------------------------------------------------------
 #t hf aug-cc-pvdz iop(5/13=1,5/36=2,99/5=2) pseudo=read geom=check gue
 ss=(read,tcheck) scf=(maxcycle=1)
 ----------------------------------------------------------------------
 -----
 title
 -----
 Structure from the checkpoint file:  "E2SN2_191_mol1.chk"
 Charge = -1 Multiplicity = 1

                         Standard orientation:
 ---------------------------------------------------------------------
 Center     Atomic      Atomic             Coordinates (Angstroms)
 Number     Number       Type             X           Y           Z
 ---------------------------------------------------------------------
      1          6           0       -0.839009    0.074735    0.335123
      2          1           0       -0.031061    0.830848   -1.461855
      3          9           0        0.191522   -0.133066    1.788365
      4          9           0       -2.030961    0.504724   -1.049945
      5          6           0        0.341335    0.589675   -0.467501
      6          1           0       -1.405502    0.804527    0.880718
      7          6           0       -1.258158   -1.366823    0.240320
      8          1           0       -2.294103   -1.457004    0.567226
      9          1           0       -1.219038   -1.690204   -0.799503
     10          1           0       -0.614290   -1.990645    0.858437
     11          6           0        1.365478   -0.472126   -0.608954
     12          7           0        2.205339   -1.269224   -0.809986
     13          7           0        0.883822    1.793078    0.164904
     14          1           0        1.757275    2.043766   -0.285192
     15          1           0        1.079672    1.494040    1.116035
 ---------------------------------------------------------------------

 SCF Done:  E(RHF) =  -465.295172904     A.U. after    2 cycles

 The electronic state is 1-A.
 Alpha  occ. eigenvalues --  -28.96619 -28.93143 -15.62185 -15.60329 -11.39936
 Alpha  occ. eigenvalues --  -11.33181 -11.29139 -11.23310  -1.26122  -1.14029
 Alpha  occ. eigenvalues --   -1.04810  -0.87649  -0.75678  -0.61550  -0.54573
 Alpha  occ. eigenvalues --   -0.51052  -0.49173  -0.42385  -0.40094  -0.37658
 Alpha  occ. eigenvalues --   -0.35873  -0.33692  -0.33351  -0.29780  -0.27224
 Alpha  occ. eigenvalues --   -0.23576  -0.11726  -0.04212  -0.02963  -0.00598
 Alpha  occ. eigenvalues --   -0.00363   0.05255
 Alpha virt. eigenvalues --    0.14100   0.15174   0.15672   0.16232   0.16775
 Alpha virt. eigenvalues --    0.17315   0.18312   0.19624   0.23000   0.23770
 Alpha virt. eigenvalues --    0.24466   0.25330   0.26540   0.27141   0.28442

 Mulliken charges:
               1
     1  C    2.042298
     2  H    1.595414
     3  F   -0.628976
     4  F   -0.709413
     5  C   -2.123770
     6  H    1.350470
     7  C   -4.626590
     8  H    1.048435
     9  H    1.202649
    10  H    1.069903
    11  C    3.405046
    12  N   -2.894139
    13  N   -2.810160
    14  H    0.601454
    15  H    0.477380
 Sum of Mulliken charges =  -1.00000

 Dipole moment (field-independent basis, Debye):
    X=              1.0828    Y=              0.8887    Z=              1.2503  Tot=              1.8777

 Test job not archived.
 1\1\GINC-SE222\SP\RHF\Aug-CC-pVDZ\C4H7F2N2(1-)\OHZDE\09-Apr-2025\0\\#t
  hf aug-cc-pvdz iop(5/13=1,5/36=2,99/5=2) pseudo=read geom=check guess
 =(read,tcheck) scf=(maxcycle=1)\\title\\-1,1\C,0,0.6663895,-0.00833134
 ,0.03513732\H,0,1.68677384,1.83368987,0.17438355\F,0,-1.1088948,-0.056
 91979,-0.21604958\F,0,2.54331119,-0.04321076,0.03577432\C,0,0.65525895
 ,1.50900425,0.04733691\H,0,0.78224803,-0.48140519,-0.92087675\C,0,0.65
 74318,-0.78389405,1.32400687\H,0,1.03480253,-1.78900597,1.13552978\H,0
 ,1.33432908,-0.31394186,2.03695345\H,0,-0.35155063,-0.83236897,1.73069

 Normal termination of Gaussian 16 at Wed Apr  9 02:40:38 2025.
