 Gaussian 16, Revision C.01,

 ----------------------------------------------------------------------
 #t hf aug-cc-pvdz symm=none int=(grid=ultrafine) guess=(read,tcheck) s
 table=(opt,rrhf)
 ----------------------------------------------------------------------
 -----
 title
 -----
 Symbolic Z-matrix:
 Charge = -1 Multiplicity = 1

 SCF Done:  E(RHF) =  -630.228306645     A.U. after   16 cycles
 Normal termination of Gaussian 16 at Wed Apr  9 03:00:02 2025.
 Gaussian 16:  ES64L-G16RevC.01  3-Jul-2019

 ----------------------------------------------------------------------
 #t hf aug-cc-pvdz iop(5/13=1,5/36=2,99/5=2) pseudo=read geom=check gue
 ss=(read,tcheck) scf=(maxcycle=1)
 ----------------------------------------------------------------------
 -----
 title
 -----
 Structure from the checkpoint file:  "E2SN2_411_mol2.chk"
 Charge = -1 Multiplicity = 1

                         Standard orientation:
 ---------------------------------------------------------------------
 Center     Atomic      Atomic             Coordinates (Angstroms)
 Number     Number       Type             X           Y           Z
 ---------------------------------------------------------------------
      1          6           0       -0.653397   -0.325787   -0.610169
      2          6           0        0.262433   -0.119206    0.626624
      3          9           0        0.091832   -1.055907   -1.549014
      4          1           0       -0.278284    0.627598    1.217760
      5          7           0       -1.769206   -1.106257   -0.168723
      6          1           0       -2.395899   -1.135310   -0.969074
      7          1           0       -2.204672   -0.453097    0.517325
      8          7           0       -1.091503    0.884998   -1.239184
      9          1           0       -1.661148    1.306953   -0.487190
     10          1           0       -0.297070    1.494171   -1.402414
     11          7           0        1.541155    0.496049    0.163568
     12          8           0        1.527026    1.697378   -0.123967
     13          8           0        2.543126   -0.214332    0.064315
     14          6           0        0.549690   -1.390252    1.393828
     15          1           0       -0.382615   -1.739264    1.832461
     16          1           0        1.279999   -1.206115    2.186266
     17          1           0        0.937232   -2.162301    0.729848
     18          9           0       -2.233415    1.110456    1.226893
 ---------------------------------------------------------------------

 SCF Done:  E(RHF) =  -632.861480749     A.U. after    2 cycles

 The electronic state is 1-A.
 Alpha  occ. eigenvalues --  -29.11266 -28.91684 -20.96872 -20.96451 -15.85787
 Alpha  occ. eigenvalues --  -15.57539 -15.57315 -11.40680 -11.32247 -11.25454
 Alpha  occ. eigenvalues --   -1.86072  -1.55835  -1.32838  -1.10890  -1.10464
 Alpha  occ. eigenvalues --   -0.90024  -0.85377  -0.72268  -0.60747  -0.58777
 Alpha  occ. eigenvalues --   -0.53374  -0.52404  -0.48564  -0.48150  -0.45775
 Alpha  occ. eigenvalues --   -0.43735  -0.42070  -0.40334  -0.38160  -0.29557
 Alpha  occ. eigenvalues --   -0.24851  -0.24190  -0.21776  -0.20752  -0.18638
 Alpha  occ. eigenvalues --   -0.17703  -0.12420  -0.11661  -0.00459  -0.00098
 Alpha  occ. eigenvalues --    0.01547
 Alpha virt. eigenvalues --    0.13596   0.14964   0.15291   0.15872   0.16382
 Alpha virt. eigenvalues --    0.17774   0.19235   0.19871   0.21175   0.22436
 Alpha virt. eigenvalues --    0.24463   0.24743   0.25086   0.25832   0.27027

 Mulliken charges:
               1
     1  C    6.991721
     2  C   -1.072222
     3  F    0.213457
     4  H    1.665387
     5  N   -3.837425
     6  H    0.524171
     7  H    0.176287
     8  N   -3.932644
     9  H    0.184873
    10  H    0.747688
    11  N    4.103521
    12  O   -3.035289
    13  O   -2.849300
    14  C   -3.528839
    15  H    1.265780
    16  H    1.182594
    17  H    1.215498
    18  F   -1.015259
 Sum of Mulliken charges =  -1.00000

 Dipole moment (field-independent basis, Debye):
    X=              4.7305    Y=             -2.8215    Z=             -2.3192  Tot=              5.9764

 Test job not archived.
 1\1\GINC-SE162\SP\RHF\Aug-CC-pVDZ\C3H8F2N3O2(1-)\OHZDE\09-Apr-2025\0\\
 #t hf aug-cc-pvdz iop(5/13=1,5/36=2,99/5=2) pseudo=read geom=check gue
 ss=(read,tcheck) scf=(maxcycle=1)\\title\\-1,1\C,0,0.007126,-0.001,-0.
 003952\C,0,-0.4168,-0.180006,-1.486963\F,0,1.410376,0.016582,0.017263\
 H,0,-1.486256,-0.40566,-1.417118\N,0,-0.497008,1.271137,0.416234\H,0,-
 0.294805,1.312136,1.412016\H,0,-1.523873,1.110343,0.334967\N,0,-0.4349
 03,-1.043218,0.874678\H,0,-1.460687,-0.929976,0.820096\H,0,-0.203423,-
 1.947769,0.478364\N,0,0.275285,-1.386658,-2.028349\O,0,-0.156144,-2.49

 Normal termination of Gaussian 16 at Wed Apr  9 03:00:11 2025.
