 Gaussian 16, Revision C.01,

 ----------------------------------------------------------------------
 #t hf aug-cc-pvdz symm=none int=(grid=ultrafine) guess=(read,tcheck) s
 table=(opt,rrhf)
 ----------------------------------------------------------------------
 -----
 title
 -----
 Symbolic Z-matrix:
 Charge = -1 Multiplicity = 1

 SCF Done:  E(RHF) =  -935.210989898     A.U. after   16 cycles
 Normal termination of Gaussian 16 at Wed Apr  9 02:55:32 2025.
 Gaussian 16:  ES64L-G16RevC.01  3-Jul-2019

 ----------------------------------------------------------------------
 #t hf aug-cc-pvdz iop(5/13=1,5/36=2,99/5=2) pseudo=read geom=check gue
 ss=(read,tcheck) scf=(maxcycle=1)
 ----------------------------------------------------------------------
 -----
 title
 -----
 Structure from the checkpoint file:  "E2SN2_35_mol2.chk"
 Charge = -1 Multiplicity = 1

                         Standard orientation:
 ---------------------------------------------------------------------
 Center     Atomic      Atomic             Coordinates (Angstroms)
 Number     Number       Type             X           Y           Z
 ---------------------------------------------------------------------
      1          6           0       -0.157790    0.217081    0.079195
      2          6           0        0.772703   -0.241924   -1.027094
      3         17           0       -0.924685    1.775368   -0.413986
      4          1           0        1.493416    0.567839   -1.166461
      5          1           0        0.186683   -0.400940   -1.934523
      6          7           0       -1.340093   -0.753582    0.186707
      7          8           0       -1.812430   -1.191574   -0.857952
      8          8           0       -1.772400   -1.010205    1.307379
      9          6           0        0.544773    0.363604    1.402922
     10          1           0       -0.039292    0.961869    2.102205
     11          1           0        0.690844   -0.635570    1.812046
     12          1           0        1.553415    0.752881    1.201770
     13          7           0        1.442941   -1.448533   -0.556428
     14          1           0        1.705342   -2.002066   -1.363435
     15          1           0        2.310663   -1.037469   -0.138806
     16          9           0        3.202130    0.289853    0.309718
 ---------------------------------------------------------------------

 SCF Done:  E(RHF) =  -937.509853846     A.U. after    2 cycles

 The electronic state is 1-A.
 Alpha  occ. eigenvalues --  -99.77520 -28.89449 -20.97569 -20.97245 -15.86544
 Alpha  occ. eigenvalues --  -15.56355 -11.39254 -11.29025 -11.23568 -10.34912
 Alpha  occ. eigenvalues --   -9.54976  -9.54126  -9.54111  -1.86854  -1.56738
 Alpha  occ. eigenvalues --   -1.27848  -1.17045  -1.04048  -0.89810  -0.84105
 Alpha  occ. eigenvalues --   -0.65519  -0.59932  -0.58256  -0.53563  -0.51576
 Alpha  occ. eigenvalues --   -0.47994  -0.46066  -0.42221  -0.41740  -0.40300
 Alpha  occ. eigenvalues --   -0.38138  -0.35300  -0.32932  -0.27117  -0.23611
 Alpha  occ. eigenvalues --   -0.21394  -0.19244  -0.18615   0.01535   0.02095
 Alpha  occ. eigenvalues --    0.03089
 Alpha virt. eigenvalues --    0.14225   0.14818   0.15330   0.16407   0.17200
 Alpha virt. eigenvalues --    0.17780   0.19076   0.20511   0.21291   0.22998
 Alpha virt. eigenvalues --    0.24329   0.25158   0.25999   0.26331   0.27074

 Mulliken charges:
               1
     1  C    0.012994
     2  C   -0.163422
     3  Cl  -0.220531
     4  H    1.247552
     5  H    1.497928
     6  N    4.390676
     7  O   -3.079228
     8  O   -2.887401
     9  C   -2.689674
    10  H    1.094454
    11  H    1.349152
    12  H    0.896159
    13  N   -2.426150
    14  H    0.531973
    15  H    0.294081
    16  F   -0.848562
 Sum of Mulliken charges =  -1.00000

 Dipole moment (field-independent basis, Debye):
    X=             -5.7961    Y=             -0.5163    Z=             -0.9311  Tot=              5.8931

 Test job not archived.
 1\1\GINC-SE402\SP\RHF\Aug-CC-pVDZ\C3H7Cl1F1N2O2(1-)\OHZDE\09-Apr-2025\
 0\\#t hf aug-cc-pvdz iop(5/13=1,5/36=2,99/5=2) pseudo=read geom=check
 guess=(read,tcheck) scf=(maxcycle=1)\\title\\-1,1\C,0,-0.336921,-0.035
 211,-1.502109\C,0,-0.177098,-0.147049,0.001994\Cl,0,-0.202392,-1.68360
 7,-2.226199\H,0,0.799033,-0.610895,0.165034\H,0,-0.977428,-0.778162,0.
 393529\N,0,-1.772161,0.392323,-1.832091\O,0,-2.678151,-0.094139,-1.162
 175\O,0,-1.939215,1.167489,-2.770099\C,0,0.663945,0.903326,-2.122378\H
 ,0,0.738374,0.754509,-3.19958\H,0,0.333929,1.921208,-1.917261\H,0,1.61

 Normal termination of Gaussian 16 at Wed Apr  9 02:55:39 2025.
