 Gaussian 16, Revision C.01,

 ----------------------------------------------------------------------
 #t hf aug-cc-pvdz symm=none int=(grid=ultrafine) guess=(read,tcheck) s
 table=(opt,rrhf)
 ----------------------------------------------------------------------
 -----
 title
 -----
 Symbolic Z-matrix:
 Charge = -1 Multiplicity = 1

 SCF Done:  E(RHF) =  -1222.55519289     A.U. after   16 cycles
 Normal termination of Gaussian 16 at Wed Apr  9 02:33:41 2025.
 Gaussian 16:  ES64L-G16RevC.01  3-Jul-2019

 ----------------------------------------------------------------------
 #t hf aug-cc-pvdz iop(5/13=1,5/36=2,99/5=2) pseudo=read geom=check gue
 ss=(read,tcheck) scf=(maxcycle=1)
 ----------------------------------------------------------------------
 -----
 title
 -----
 Structure from the checkpoint file:  "E2SN2_110_mol1.chk"
 Charge = -1 Multiplicity = 1

                         Standard orientation:
 ---------------------------------------------------------------------
 Center     Atomic      Atomic             Coordinates (Angstroms)
 Number     Number       Type             X           Y           Z
 ---------------------------------------------------------------------
      1          6           0       -0.487888   -0.529387    0.322945
      2          6           0        0.187276    0.443396   -0.403645
      3         17           0       -2.805084   -0.107359   -0.180032
      4         17           0        3.008970   -0.598073    0.051756
      5          1           0        1.659270   -0.159790   -0.060640
      6          6           0       -0.489830   -1.936329   -0.199345
      7          1           0       -0.629720   -1.954642   -1.276306
      8          1           0        0.484606   -2.388244    0.034159
      9          1           0       -1.278023   -2.515225    0.279932
     10          6           0       -0.573231   -0.383736    1.813745
     11          1           0       -1.349821   -1.038430    2.207901
     12          1           0        0.391755   -0.667525    2.256209
     13          1           0       -0.806230    0.640500    2.104113
     14          7           0        0.183206    0.327891   -1.837364
     15          1           0        0.872307    0.947416   -2.244638
     16          1           0       -0.744050    0.596311   -2.163180
     17          6           0        0.286626    1.768999    0.144690
     18          7           0        0.444815    2.865584    0.547765
 ---------------------------------------------------------------------

 SCF Done:  E(RHF) =  -1224.54942277     A.U. after    2 cycles

 The electronic state is 1-A.
 Alpha  occ. eigenvalues --  -99.73191 -99.64820 -15.62453 -15.62341 -11.40068
 Alpha  occ. eigenvalues --  -11.33938 -11.29868 -11.28177 -11.25915 -10.30219
 Alpha  occ. eigenvalues --  -10.21692  -9.50336  -9.49696  -9.49649  -9.41830
 Alpha  occ. eigenvalues --   -9.41327  -9.41286  -1.28109  -1.14619  -1.12425
 Alpha  occ. eigenvalues --   -1.10634  -1.00920  -0.91656  -0.88389  -0.69328
 Alpha  occ. eigenvalues --   -0.58585  -0.56800  -0.51568  -0.49664  -0.48740
 Alpha  occ. eigenvalues --   -0.44469  -0.43688  -0.39575  -0.37925  -0.37087
 Alpha  occ. eigenvalues --   -0.36565  -0.35936  -0.35403  -0.30913  -0.30475
 Alpha  occ. eigenvalues --   -0.28847  -0.28604  -0.25440  -0.17324
 Alpha virt. eigenvalues --    0.13369   0.14288   0.14775   0.14821   0.15412
 Alpha virt. eigenvalues --    0.16074   0.16534   0.16911   0.17910   0.19879
 Alpha virt. eigenvalues --    0.21708   0.22402   0.23147   0.23264   0.23660

 Mulliken charges:
               1
     1  C    4.140042
     2  C    3.249159
     3  Cl  -0.855971
     4  Cl  -0.961696
     5  H    1.035137
     6  C   -5.298040
     7  H    1.222967
     8  H    1.146190
     9  H    1.237531
    10  C   -5.052973
    11  H    1.280567
    12  H    1.192961
    13  H    1.129902
    14  N   -3.931042
    15  H    0.699224
    16  H    0.571327
    17  C    0.649359
    18  N   -2.454645
 Sum of Mulliken charges =  -1.00000

 Dipole moment (field-independent basis, Debye):
    X=              2.0599    Y=             -2.5893    Z=             -0.0855  Tot=              3.3098

 Test job not archived.
 1\1\GINC-SE462\SP\RHF\Aug-CC-pVDZ\C5H9Cl2N2(1-)\OHZDE\09-Apr-2025\0\\#
 t hf aug-cc-pvdz iop(5/13=1,5/36=2,99/5=2) pseudo=read geom=check gues
 s=(read,tcheck) scf=(maxcycle=1)\\title\\-1,1\C,0,-0.36477077,0.000468
 03,-0.26619493\C,0,-0.18199001,-0.06327198,1.10952761\Cl,0,1.86564528,
 -0.2261767,-1.14617696\Cl,0,-3.11584736,-0.20775254,1.90048348\H,0,-1.
 77629793,-0.08327844,1.43515889\C,0,-0.91139759,-1.20735945,-0.9694938
 5\H,0,-0.46719604,-2.12033986,-0.58361528\H,0,-1.99553711,-1.24405076,
 -0.79180654\H,0,-0.72538539,-1.13642676,-2.04021409\C,0,-0.69506829,1.

 Normal termination of Gaussian 16 at Wed Apr  9 02:33:50 2025.
