 Gaussian 16, Revision C.01,

 ----------------------------------------------------------------------
 #t hf aug-cc-pvdz symm=none int=(grid=ultrafine) guess=(read,tcheck) s
 table=(opt,rrhf)
 ----------------------------------------------------------------------
 -----
 title
 -----
 Symbolic Z-matrix:
 Charge = -1 Multiplicity = 1

 SCF Done:  E(RHF) =  -1222.60071855     A.U. after   15 cycles
 Normal termination of Gaussian 16 at Wed Apr  9 02:55:13 2025.
 Gaussian 16:  ES64L-G16RevC.01  3-Jul-2019

 ----------------------------------------------------------------------
 #t hf aug-cc-pvdz iop(5/13=1,5/36=2,99/5=2) pseudo=read geom=check gue
 ss=(read,tcheck) scf=(maxcycle=1)
 ----------------------------------------------------------------------
 -----
 title
 -----
 Structure from the checkpoint file:  "E2SN2_341_mol2.chk"
 Charge = -1 Multiplicity = 1

                         Standard orientation:
 ---------------------------------------------------------------------
 Center     Atomic      Atomic             Coordinates (Angstroms)
 Number     Number       Type             X           Y           Z
 ---------------------------------------------------------------------
      1          6           0        0.910199    0.103903   -0.199699
      2          6           0        0.244534   -0.494874    1.081634
      3         17           0        2.459582   -0.802130   -0.528769
      4          1           0        1.058428   -0.575515    1.814832
      5          6           0        0.037445    0.055345   -1.441372
      6          1           0       -0.089716   -0.980637   -1.755696
      7          1           0       -0.956844    0.455562   -1.222651
      8          1           0        0.500268    0.616725   -2.255361
      9          6           0        1.322898    1.478298    0.094931
     10          7           0        1.643682    2.578832    0.354857
     11          6           0       -0.338038   -1.874688    0.807985
     12          1           0       -0.628260   -2.319152    1.761813
     13          1           0       -1.240040   -1.778006    0.199502
     14          1           0        0.379106   -2.532841    0.313200
     15          7           0       -0.796346    0.337592    1.636832
     16          1           0       -1.629954    0.343347    1.044954
     17          1           0       -0.485610    1.288731    1.790467
     18         17           0       -3.394932    0.182066   -0.512040
 ---------------------------------------------------------------------

 SCF Done:  E(RHF) =  -1224.57688923     A.U. after    2 cycles

 The electronic state is 1-A.
 Alpha  occ. eigenvalues --  -99.79129 -99.61158 -15.67047 -15.60029 -11.41701
 Alpha  occ. eigenvalues --  -11.35990 -11.33588 -11.28358 -11.25949 -10.36484
 Alpha  occ. eigenvalues --  -10.17814  -9.56490  -9.55790  -9.55733  -9.37855
 Alpha  occ. eigenvalues --   -9.37555  -9.37448  -1.32381  -1.20559  -1.18712
 Alpha  occ. eigenvalues --   -1.04507  -0.97069  -0.96321  -0.87052  -0.74610
 Alpha  occ. eigenvalues --   -0.61887  -0.57816  -0.55812  -0.50520  -0.47510
 Alpha  occ. eigenvalues --   -0.46527  -0.44229  -0.42379  -0.41239  -0.39215
 Alpha  occ. eigenvalues --   -0.38622  -0.38001  -0.34943  -0.33292  -0.32347
 Alpha  occ. eigenvalues --   -0.25411  -0.24918  -0.24784  -0.22462
 Alpha virt. eigenvalues --    0.12769   0.13671   0.13832   0.14330   0.15456
 Alpha virt. eigenvalues --    0.16239   0.16567   0.17295   0.18505   0.18962
 Alpha virt. eigenvalues --    0.20147   0.20771   0.21666   0.22678   0.23242

 Mulliken charges:
               1
     1  C    0.246484
     2  C    0.895060
     3  Cl  -0.071782
     4  H    1.684227
     5  C   -4.034235
     6  H    1.360256
     7  H    1.237228
     8  H    1.176184
     9  C    2.254385
    10  N   -2.635766
    11  C   -3.641713
    12  H    0.934284
    13  H    1.483651
    14  H    1.213968
    15  N   -3.218724
    16  H    0.535864
    17  H    0.563210
    18  Cl  -0.982581
 Sum of Mulliken charges =  -1.00000

 Dipole moment (field-independent basis, Debye):
    X=              9.2898    Y=             -2.3422    Z=              1.1058  Tot=              9.6441

 Test job not archived.
 1\1\GINC-SE228\SP\RHF\Aug-CC-pVDZ\C5H9Cl2N2(1-)\OHZDE\09-Apr-2025\0\\#
 t hf aug-cc-pvdz iop(5/13=1,5/36=2,99/5=2) pseudo=read geom=check gues
 s=(read,tcheck) scf=(maxcycle=1)\\title\\-1,1\C,0,0.047553,-0.048987,-
 0.015368\C,0,-0.413564,-0.133237,-1.506586\Cl,0,1.81982,0.383897,0.022
 73\H,0,0.359362,-0.728756,-2.011015\C,0,-0.723221,0.95451,0.824102\H,0
 ,-0.486053,1.964971,0.491012\H,0,-1.799856,0.811102,0.694047\H,0,-0.45
 3503,0.857883,1.877594\C,0,-0.033973,-1.390066,0.568541\N,0,-0.109037,
 -2.474897,1.014798\C,0,-0.490725,1.249243,-2.139798\H,0,-0.64113,1.125

 Normal termination of Gaussian 16 at Wed Apr  9 02:55:23 2025.
