 Gaussian 16, Revision C.01,

 ----------------------------------------------------------------------
 #t hf aug-cc-pvdz symm=none int=(grid=ultrafine) guess=(read,tcheck) s
 table=(opt,rrhf)
 ----------------------------------------------------------------------
 -----
 title
 -----
 Symbolic Z-matrix:
 Charge = -1 Multiplicity = 1

 SCF Done:  E(RHF) =  -823.468229586     A.U. after   15 cycles
 Normal termination of Gaussian 16 at Wed Apr  9 02:58:09 2025.
 Gaussian 16:  ES64L-G16RevC.01  3-Jul-2019

 ----------------------------------------------------------------------
 #t hf aug-cc-pvdz iop(5/13=1,5/36=2,99/5=2) pseudo=read geom=check gue
 ss=(read,tcheck) scf=(maxcycle=1)
 ----------------------------------------------------------------------
 -----
 title
 -----
 Structure from the checkpoint file:  "E2SN2_398_mol1.chk"
 Charge = -1 Multiplicity = 1

                         Standard orientation:
 ---------------------------------------------------------------------
 Center     Atomic      Atomic             Coordinates (Angstroms)
 Number     Number       Type             X           Y           Z
 ---------------------------------------------------------------------
      1          6           0        0.211613   -0.579962    0.194893
      2          1           0       -0.091191    0.465653   -1.618462
      3          9           0        2.461531   -1.309154   -0.187944
      4         17           0       -2.586729    0.226859   -0.151956
      5          6           0        0.677793    0.379286   -0.851158
      6          1           0        1.607320   -0.148408   -1.162654
      7          7           0        0.203731   -0.241269    1.443452
      8          1           0        0.405155    0.709153    1.717059
      9          1           0       -0.207314   -0.854606    2.126565
     10          6           0       -0.174764   -1.949376   -0.224298
     11          1           0       -0.746518   -2.454893    0.554137
     12          1           0       -0.792181   -1.893055   -1.117466
     13          1           0        0.789839   -2.424727   -0.416133
     14          6           0        1.009017    1.686531   -0.312330
     15          7           0        1.298203    2.713811    0.177842
 ---------------------------------------------------------------------

 SCF Done:  E(RHF) =  -825.309524174     A.U. after    2 cycles

 The electronic state is 1-A.
 Alpha  occ. eigenvalues --  -99.62228 -28.92371 -15.71359 -15.65586 -11.44365
 Alpha  occ. eigenvalues --  -11.36133 -11.31196 -11.27265 -10.18926  -9.38956
 Alpha  occ. eigenvalues --   -9.38554  -9.38522  -1.35461  -1.19715  -1.06454
 Alpha  occ. eigenvalues --   -0.98122  -0.96960  -0.74996  -0.64445  -0.62306
 Alpha  occ. eigenvalues --   -0.57230  -0.49500  -0.47899  -0.43385  -0.43292
 Alpha  occ. eigenvalues --   -0.39425  -0.37141  -0.33916  -0.32379  -0.29596
 Alpha  occ. eigenvalues --   -0.26259  -0.25889  -0.25415  -0.02092  -0.01023
 Alpha  occ. eigenvalues --    0.00103
 Alpha virt. eigenvalues --    0.12827   0.14187   0.15493   0.16163   0.17086
 Alpha virt. eigenvalues --    0.17290   0.18095   0.19262   0.21512   0.21803
 Alpha virt. eigenvalues --    0.23431   0.24027   0.24590   0.25507   0.26375

 Mulliken charges:
               1
     1  C    8.497457
     2  H    1.316806
     3  F   -0.944380
     4  Cl  -0.998600
     5  C   -3.879443
     6  H    0.758735
     7  N   -4.693075
     8  H    0.701737
     9  H    0.776388
    10  C   -5.242019
    11  H    1.176665
    12  H    1.115272
    13  H    0.794358
    14  C    2.132507
    15  N   -2.512408
 Sum of Mulliken charges =  -1.00000

 Dipole moment (field-independent basis, Debye):
    X=              3.3705    Y=             -2.3066    Z=              2.4061  Tot=              4.7403

 Test job not archived.
 1\1\GINC-SE162\SP\RHF\Aug-CC-pVDZ\C4H7Cl1F1N2(1-)\OHZDE\09-Apr-2025\0\
 \#t hf aug-cc-pvdz iop(5/13=1,5/36=2,99/5=2) pseudo=read geom=check gu
 ess=(read,tcheck) scf=(maxcycle=1)\\title\\-1,1\C,0,0.57323344,-0.1303
 4652,0.01170787\H,0,1.14399593,1.83842102,0.53270962\F,0,-1.73368748,-
 0.01049416,0.64744858\Cl,0,3.47808246,0.24558458,-0.13832072\C,0,0.324
 86555,1.34275128,0.01223993\H,0,-0.65335485,1.34936051,0.54379653\N,0,
 0.55555592,-0.80147843,-1.09416111\H,0,0.48531595,-0.32465305,-1.98097
 456\H,0,0.82490121,-1.77061698,-1.09665244\C,0,0.77081958,-0.81384054,

 Normal termination of Gaussian 16 at Wed Apr  9 02:58:15 2025.
