 Gaussian 16, Revision C.01,

 ----------------------------------------------------------------------
 #t hf aug-cc-pvdz symm=none int=(grid=ultrafine) guess=(read,tcheck) s
 table=(opt,rrhf)
 ----------------------------------------------------------------------
 -----
 title
 -----
 Symbolic Z-matrix:
 Charge = -1 Multiplicity = 1

 SCF Done:  E(RHF) =  -571.151942208     A.U. after   15 cycles
 Normal termination of Gaussian 16 at Wed Apr  9 02:52:35 2025.
 Gaussian 16:  ES64L-G16RevC.01  3-Jul-2019

 ----------------------------------------------------------------------
 #t hf aug-cc-pvdz iop(5/13=1,5/36=2,99/5=2) pseudo=read geom=check gue
 ss=(read,tcheck) scf=(maxcycle=1)
 ----------------------------------------------------------------------
 -----
 title
 -----
 Structure from the checkpoint file:  "E2SN2_312_mol2.chk"
 Charge = -1 Multiplicity = 1

                         Standard orientation:
 ---------------------------------------------------------------------
 Center     Atomic      Atomic             Coordinates (Angstroms)
 Number     Number       Type             X           Y           Z
 ---------------------------------------------------------------------
      1          6           0        0.004264    0.652508   -0.434071
      2          6           0       -0.013281   -0.856418   -0.075439
      3          9           0       -0.844146    0.802477   -1.575473
      4          1           0        0.572399   -1.330864   -0.869981
      5          6           0       -0.683479    1.428786    0.629783
      6          7           0       -1.176228    2.045114    1.500843
      7          7           0        1.296345    1.084493   -0.682181
      8          1           0        2.056998    0.360446   -0.468000
      9          1           0        1.498414    2.012609   -0.347901
     10          6           0       -1.395035   -1.364499   -0.134431
     11          7           0       -2.489749   -1.788722   -0.144330
     12          7           0        0.614854   -1.207765    1.176885
     13          1           0        0.299560   -0.583813    1.911312
     14          1           0        1.629902   -1.088378    0.996356
     15          9           0        2.927631   -0.742932    0.009322
 ---------------------------------------------------------------------

 SCF Done:  E(RHF) =  -573.529286169     A.U. after    2 cycles

 The electronic state is 1-A.
 Alpha  occ. eigenvalues --  -29.13954 -28.94555 -15.67106 -15.64739 -15.60073
 Alpha  occ. eigenvalues --  -15.60051 -11.45690 -11.37341 -11.34194 -11.31328
 Alpha  occ. eigenvalues --   -1.34808  -1.22107  -1.18337  -1.15994  -1.00314
 Alpha  occ. eigenvalues --   -0.86999  -0.69227  -0.65523  -0.59090  -0.58067
 Alpha  occ. eigenvalues --   -0.50283  -0.48067  -0.45980  -0.42039  -0.39145
 Alpha  occ. eigenvalues --   -0.35965  -0.35062  -0.32323  -0.31471  -0.30794
 Alpha  occ. eigenvalues --   -0.28294  -0.26140  -0.20335  -0.14624  -0.13566
 Alpha  occ. eigenvalues --   -0.03415  -0.02598  -0.00765
 Alpha virt. eigenvalues --    0.14510   0.15740   0.16235   0.18004   0.18552
 Alpha virt. eigenvalues --    0.19383   0.19819   0.20825   0.21673   0.23339
 Alpha virt. eigenvalues --    0.23494   0.24373   0.24809   0.25490   0.25930

 Mulliken charges:
               1
     1  C    4.461665
     2  C   -0.136350
     3  F    0.096994
     4  H    1.818356
     5  C    0.971555
     6  N   -2.404849
     7  N   -3.860220
     8  H    0.099444
     9  H    0.484622
    10  C    2.314032
    11  N   -2.559340
    12  N   -2.798788
    13  H    0.574220
    14  H    0.262837
    15  F   -0.324178
 Sum of Mulliken charges =  -1.00000

 Dipole moment (field-independent basis, Debye):
    X=             -2.2602    Y=              2.0402    Z=             -2.5963  Tot=              4.0015

 Test job not archived.
 1\1\GINC-SE044\SP\RHF\Aug-CC-pVDZ\C4H5F2N4(1-)\OHZDE\09-Apr-2025\0\\#t
  hf aug-cc-pvdz iop(5/13=1,5/36=2,99/5=2) pseudo=read geom=check guess
 =(read,tcheck) scf=(maxcycle=1)\\title\\-1,1\C,0,0.062337,-0.035393,0.
 018373\C,0,-0.444709,0.071438,-1.443569\F,0,1.295944,-0.756623,-0.0375
 77\H,0,-0.774447,-0.943164,-1.691102\C,0,0.454224,1.309747,0.512747\N,
 0,0.7079,2.382794,0.919717\N,0,-0.875541,-0.664296,0.819939\H,0,-1.816
 219,-0.85186,0.34176\H,0,-0.949024,-0.288492,1.751253\C,0,0.6728,0.438
 559,-2.330849\N,0,1.538318,0.760014,-3.056113\N,0,-1.577558,0.943599,-

 Normal termination of Gaussian 16 at Wed Apr  9 02:52:42 2025.
