 Gaussian 16, Revision C.01,

 ----------------------------------------------------------------------
 #t hf aug-cc-pvdz symm=none int=(grid=ultrafine) guess=(read,tcheck) s
 table=(opt,rrhf)
 ----------------------------------------------------------------------
 -----
 title
 -----
 Symbolic Z-matrix:
 Charge = -1 Multiplicity = 1

 SCF Done:  E(RHF) =  -821.092706929     A.U. after   16 cycles
 Normal termination of Gaussian 16 at Wed Apr  9 02:45:37 2025.
 Gaussian 16:  ES64L-G16RevC.01  3-Jul-2019

 ----------------------------------------------------------------------
 #t hf aug-cc-pvdz iop(5/13=1,5/36=2,99/5=2) pseudo=read geom=check gue
 ss=(read,tcheck) scf=(maxcycle=1)
 ----------------------------------------------------------------------
 -----
 title
 -----
 Structure from the checkpoint file:  "E2SN2_251_mol1.chk"
 Charge = -1 Multiplicity = 1

                         Standard orientation:
 ---------------------------------------------------------------------
 Center     Atomic      Atomic             Coordinates (Angstroms)
 Number     Number       Type             X           Y           Z
 ---------------------------------------------------------------------
      1          6           0        0.268560   -0.144023   -0.252003
      2          1           0       -0.786575   -1.039280    1.357391
      3         17           0        1.000057    1.832115   -0.193806
      4          9           0       -0.436919   -1.958502   -0.592092
      5          6           0       -0.786514   -0.081377    0.840920
      6          1           0       -0.015243   -0.076344   -1.284574
      7          1           0       -0.593565    0.728591    1.546813
      8          6           0        1.487271   -0.846816    0.066203
      9          7           0        2.503356   -1.352447    0.372254
     10          6           0       -2.112053    0.108567    0.260179
     11          7           0       -3.191485    0.302374   -0.156238
 ---------------------------------------------------------------------

 SCF Done:  E(RHF) =  -822.879662573     A.U. after    2 cycles

 The electronic state is 1-A.
 Alpha  occ. eigenvalues --  -99.71394 -28.94757 -15.64238 -15.63545 -11.43241
 Alpha  occ. eigenvalues --  -11.35395 -11.32399 -11.30793 -10.28429  -9.48436
 Alpha  occ. eigenvalues --   -9.47932  -9.47824  -1.23728  -1.17275  -1.11990
 Alpha  occ. eigenvalues --   -1.04747  -0.89104  -0.64320  -0.58266  -0.56244
 Alpha  occ. eigenvalues --   -0.49874  -0.44655  -0.40795  -0.38950  -0.35411
 Alpha  occ. eigenvalues --   -0.34950  -0.32248  -0.31536  -0.30641  -0.30058
 Alpha  occ. eigenvalues --   -0.28569  -0.04477  -0.02764  -0.02585
 Alpha virt. eigenvalues --    0.14514   0.16072   0.16669   0.18764   0.19519
 Alpha virt. eigenvalues --    0.20054   0.21293   0.22907   0.23158   0.23607
 Alpha virt. eigenvalues --    0.24247   0.26161   0.26944   0.28027   0.28818

 Mulliken charges:
               1
     1  C   -1.332957
     2  H    1.316640
     3  Cl  -0.469816
     4  F   -0.279236
     5  C   -3.160274
     6  H    1.545288
     7  H    1.347040
     8  C    2.678675
     9  N   -2.876097
    10  C    2.887326
    11  N   -2.656589
 Sum of Mulliken charges =  -1.00000

 Dipole moment (field-independent basis, Debye):
    X=             -2.6659    Y=             -3.0261    Z=              0.6306  Tot=              4.0819

 Test job not archived.
 1\1\GINC-SE457\SP\RHF\Aug-CC-pVDZ\C4H3Cl1F1N2(1-)\OHZDE\09-Apr-2025\0\
 \#t hf aug-cc-pvdz iop(5/13=1,5/36=2,99/5=2) pseudo=read geom=check gu
 ess=(read,tcheck) scf=(maxcycle=1)\\title\\-1,1\C,0,0.39446067,-0.0530
 3569,-0.05503894\H,0,1.43426959,1.73118842,-0.54522568\Cl,0,-1.6653004
 ,-0.32268759,-0.41318664\F,0,2.28981382,0.01587725,0.50046096\C,0,0.48
 477493,1.46436889,-0.08523867\H,0,0.36518062,-0.57624909,0.88129322\H,
 0,-0.34263407,1.91027264,-0.64033007\C,0,0.91807825,-0.75423172,-1.201
 58977\N,0,1.27523563,-1.30186954,-2.17846755\C,0,0.4833272,2.00268098,

 Normal termination of Gaussian 16 at Wed Apr  9 02:45:42 2025.
