 Gaussian 16, Revision C.01,

 ----------------------------------------------------------------------
 #t hf aug-cc-pvdz symm=none int=(grid=ultrafine) guess=(read,tcheck) s
 table=(opt,rrhf)
 ----------------------------------------------------------------------
 -----
 title
 -----
 Symbolic Z-matrix:
 Charge = -1 Multiplicity = 1

 SCF Done:  E(RHF) =  -1043.01928358     A.U. after   16 cycles
 Normal termination of Gaussian 16 at Wed Apr  9 02:46:12 2025.
 Gaussian 16:  ES64L-G16RevC.01  3-Jul-2019

 ----------------------------------------------------------------------
 #t hf aug-cc-pvdz iop(5/13=1,5/36=2,99/5=2) pseudo=read geom=check gue
 ss=(read,tcheck) scf=(maxcycle=1)
 ----------------------------------------------------------------------
 -----
 title
 -----
 Structure from the checkpoint file:  "E2SN2_243_mol2.chk"
 Charge = -1 Multiplicity = 1

                         Standard orientation:
 ---------------------------------------------------------------------
 Center     Atomic      Atomic             Coordinates (Angstroms)
 Number     Number       Type             X           Y           Z
 ---------------------------------------------------------------------
      1          6           0       -0.430582    0.436864   -0.481483
      2          6           0       -0.754110   -0.593215    0.607614
      3          9           0       -1.607476    1.025860   -0.915127
      4          1           0        0.208609   -0.951255    0.993394
      5          7           0        0.305415    1.670917    0.139911
      6          8           0        0.569597    1.696960    1.338746
      7          8           0        0.593166    2.550029   -0.667891
      8          7           0        0.270458   -0.099510   -1.544341
      9          1           0        0.569686    0.630809   -2.179213
     10          1           0        1.082313   -0.629724   -1.187879
     11          6           0       -1.439466   -1.720113   -0.043997
     12          7           0       -2.048606   -2.608364   -0.509959
     13          7           0       -1.598499   -0.121266    1.695311
     14          1           0       -2.390688    0.376991    1.306669
     15          1           0       -1.054635    0.524402    2.251173
     16         17           0        2.587851   -1.399619    0.160347
 ---------------------------------------------------------------------

 SCF Done:  E(RHF) =  -1045.74205050     A.U. after    2 cycles

 The electronic state is 1-A.
 Alpha  occ. eigenvalues --  -99.62805 -29.19328 -21.00587 -21.00080 -15.88843
 Alpha  occ. eigenvalues --  -15.65691 -15.65469 -15.64213 -11.49378 -11.38806
 Alpha  occ. eigenvalues --  -11.32638 -10.19526  -9.39592  -9.39264  -9.39088
 Alpha  occ. eigenvalues --   -1.89381  -1.59893  -1.37094  -1.25932  -1.17480
 Alpha  occ. eigenvalues --   -1.05500  -0.98906  -0.94627  -0.82477  -0.68878
 Alpha  occ. eigenvalues --   -0.64776  -0.60678  -0.59397  -0.55674  -0.51063
 Alpha  occ. eigenvalues --   -0.50214  -0.48427  -0.47819  -0.40714  -0.36424
 Alpha  occ. eigenvalues --   -0.33489  -0.32133  -0.31826  -0.28436  -0.27016
 Alpha  occ. eigenvalues --   -0.26759  -0.26613  -0.24057  -0.23257  -0.20959
 Alpha  occ. eigenvalues --   -0.18746  -0.16760
 Alpha virt. eigenvalues --    0.12901   0.14221   0.15261   0.17038   0.18456
 Alpha virt. eigenvalues --    0.19491   0.19969   0.21225   0.21839   0.23481
 Alpha virt. eigenvalues --    0.24031   0.24565   0.24917   0.26099   0.26477

 Mulliken charges:
               1
     1  C    5.234696
     2  C   -0.499593
     3  F    0.338272
     4  H    1.565400
     5  N    3.577790
     6  O   -2.845198
     7  O   -2.865021
     8  N   -3.750185
     9  H    0.502491
    10  H    0.420310
    11  C    2.629187
    12  N   -2.729532
    13  N   -2.735859
    14  H    0.556156
    15  H    0.572086
    16  Cl  -0.971002
 Sum of Mulliken charges =  -1.00000

 Dipole moment (field-independent basis, Debye):
    X=             -8.2253    Y=              7.7376    Z=             -0.7876  Tot=             11.3202

 Test job not archived.
 1\1\GINC-SE403\SP\RHF\Aug-CC-pVDZ\C3H5Cl1F1N4O2(1-)\OHZDE\09-Apr-2025\
 0\\#t hf aug-cc-pvdz iop(5/13=1,5/36=2,99/5=2) pseudo=read geom=check
 guess=(read,tcheck) scf=(maxcycle=1)\\title\\-1,1\C,0,-0.017787,0.0237
 97,-0.0022\C,0,-0.500316,0.005556,-1.457775\F,0,1.364119,-0.075485,0.0
 20633\H,0,-1.58075,0.194604,-1.430021\N,0,-0.22171,1.445967,0.619538\O
 ,0,-0.736359,2.344052,-0.040957\O,0,0.149486,1.548159,1.785708\N,0,-0.
 59372,-0.964535,0.772605\H,0,-0.345486,-0.843821,1.747169\H,0,-1.61938
 8,-0.94256,0.650858\C,0,-0.281586,-1.353972,-1.97551\N,0,-0.062829,-2.

 Normal termination of Gaussian 16 at Wed Apr  9 02:46:21 2025.
