 Gaussian 16, Revision C.01,

 ----------------------------------------------------------------------
 #t hf aug-cc-pvdz symm=none int=(grid=ultrafine) guess=(read,tcheck) s
 table=(opt,rrhf)
 ----------------------------------------------------------------------
 -----
 title
 -----
 Symbolic Z-matrix:
 Charge = -1 Multiplicity = 1

 SCF Done:  E(RHF) =  -583.896046983     A.U. after   17 cycles
 Normal termination of Gaussian 16 at Wed Apr  9 02:51:35 2025.
 Gaussian 16:  ES64L-G16RevC.01  3-Jul-2019

 ----------------------------------------------------------------------
 #t hf aug-cc-pvdz iop(5/13=1,5/36=2,99/5=2) pseudo=read geom=check gue
 ss=(read,tcheck) scf=(maxcycle=1)
 ----------------------------------------------------------------------
 -----
 title
 -----
 Structure from the checkpoint file:  "E2SN2_307_mol1.chk"
 Charge = -1 Multiplicity = 1

                         Standard orientation:
 ---------------------------------------------------------------------
 Center     Atomic      Atomic             Coordinates (Angstroms)
 Number     Number       Type             X           Y           Z
 ---------------------------------------------------------------------
      1          6           0       -0.750515   -0.399737   -0.031139
      2          1           0        0.381627    0.342568   -1.735937
      3          9           0       -0.691035    0.266035    1.458502
      4          1           0       -1.081838   -1.149537   -1.722436
      5          6           0        0.337142    0.492839   -0.664262
      6          6           0       -2.108703   -0.081374   -0.404340
      7          7           0       -3.243228    0.253006   -0.449842
      8          7           0       -0.385472   -1.719416    0.424704
      9          1           0       -0.713618   -2.386379   -0.255357
     10          1           0       -0.830259   -1.847140    1.325801
     11          7           0        1.686898   -0.063187   -0.182853
     12          8           0        2.222641   -0.910614   -0.891946
     13          8           0        2.167272    0.397439    0.850736
     14          7           0        0.152269    1.859972   -0.332321
     15          1           0        0.903963    2.426011   -0.701720
     16          1           0        0.099327    1.942570    0.673452
 ---------------------------------------------------------------------

 SCF Done:  E(RHF) =  -586.431060755     A.U. after    2 cycles

 The electronic state is 1-A.
 Alpha  occ. eigenvalues --  -29.04478 -20.96473 -20.96307 -15.85114 -15.63047
 Alpha  occ. eigenvalues --  -15.61459 -15.59663 -11.46789 -11.36335 -11.29632
 Alpha  occ. eigenvalues --   -1.85390  -1.55656  -1.31262  -1.22459  -1.12767
 Alpha  occ. eigenvalues --   -0.99634  -0.90727  -0.71832  -0.67357  -0.60432
 Alpha  occ. eigenvalues --   -0.57872  -0.56498  -0.50281  -0.49830  -0.44125
 Alpha  occ. eigenvalues --   -0.42453  -0.41311  -0.37399  -0.32711  -0.30761
 Alpha  occ. eigenvalues --   -0.27952  -0.24994  -0.21160  -0.19289  -0.18633
 Alpha  occ. eigenvalues --   -0.17400  -0.09621  -0.08675  -0.07863
 Alpha virt. eigenvalues --    0.12988   0.14734   0.15131   0.17065   0.17194
 Alpha virt. eigenvalues --    0.19620   0.20375   0.21797   0.23705   0.24219
 Alpha virt. eigenvalues --    0.24533   0.24797   0.26152   0.26573   0.27354

 Mulliken charges:
               1
     1  C    2.196193
     2  H    1.965424
     3  F   -0.007344
     4  H   -0.768642
     5  C    0.440949
     6  C    3.266670
     7  N   -3.105970
     8  N   -3.169022
     9  H    0.696612
    10  H    0.432755
    11  N    4.499101
    12  O   -2.936541
    13  O   -2.887364
    14  N   -2.680129
    15  H    0.531199
    16  H    0.526108
 Sum of Mulliken charges =  -1.00000

 Dipole moment (field-independent basis, Debye):
    X=              5.1193    Y=              3.0131    Z=              6.0555  Tot=              8.4826

 Test job not archived.
 1\1\GINC-SE454\SP\RHF\Aug-CC-pVDZ\C3H6F1N4O2(1-)\OHZDE\09-Apr-2025\0\\
 #t hf aug-cc-pvdz iop(5/13=1,5/36=2,99/5=2) pseudo=read geom=check gue
 ss=(read,tcheck) scf=(maxcycle=1)\\title\\-1,1\C,0,0.5540584,-0.041229
 17,-0.02328863\H,0,1.59720822,1.85800921,-0.23264254\F,0,-1.06671622,-
 0.20466445,-0.1337385\H,0,2.43290822,-0.05087025,-0.0711618\C,0,0.5812
 3641,1.49795537,-0.12675967\C,0,0.96855771,-0.75003024,-1.2111852\N,0,
 1.04775841,-1.40650725,-2.1929149\N,0,0.6361502,-0.64971828,1.28269981
 \H,0,1.57374287,-0.99684658,1.40689323\H,0,-0.04904084,-1.39565292,1.2

 Normal termination of Gaussian 16 at Wed Apr  9 02:51:43 2025.
