 Gaussian 16, Revision C.01,

 ----------------------------------------------------------------------
 #t hf aug-cc-pvdz symm=none int=(grid=ultrafine) guess=(read,tcheck) s
 table=(opt,rrhf)
 ----------------------------------------------------------------------
 -----
 title
 -----
 Symbolic Z-matrix:
 Charge = -1 Multiplicity = 1

 SCF Done:  E(RHF) =  -832.216898435     A.U. after   17 cycles
 Normal termination of Gaussian 16 at Wed Apr  9 03:02:30 2025.
 Gaussian 16:  ES64L-G16RevC.01  3-Jul-2019

 ----------------------------------------------------------------------
 #t hf aug-cc-pvdz iop(5/13=1,5/36=2,99/5=2) pseudo=read geom=check gue
 ss=(read,tcheck) scf=(maxcycle=1)
 ----------------------------------------------------------------------
 -----
 title
 -----
 Structure from the checkpoint file:  "E2SN2_91_mol2.chk"
 Charge = -1 Multiplicity = 1

                         Standard orientation:
 ---------------------------------------------------------------------
 Center     Atomic      Atomic             Coordinates (Angstroms)
 Number     Number       Type             X           Y           Z
 ---------------------------------------------------------------------
      1          6           0        0.445363   -0.075443    0.262221
      2          6           0       -0.722848    0.641822   -0.439232
      3         17           0        0.720287   -1.706024   -0.629135
      4          1           0       -0.586377    0.606042   -1.529370
      5          6           0        1.691963    0.672528    0.080433
      6          7           0        2.746973    1.178969   -0.018066
      7          7           0        0.204918   -0.266550    1.643811
      8          1           0        0.981911   -0.731867    2.094922
      9          1           0       -0.645866   -0.799600    1.783785
     10          7           0       -0.735822    2.029411   -0.093655
     11          1           0       -1.385946    2.216922    0.660986
     12          1           0       -1.063144    2.489799   -1.032737
     13          6           0       -1.952751   -0.107175   -0.115997
     14          7           0       -2.920033   -0.674514    0.239607
     15          1           0       -1.388065    2.559506   -2.408720
 ---------------------------------------------------------------------

 SCF Done:  E(RHF) =  -834.195490745     A.U. after    2 cycles

 The electronic state is 1-A.
 Alpha  occ. eigenvalues --  -99.78738 -15.68028 -15.67152 -15.65923 -15.58365
 Alpha  occ. eigenvalues --  -11.45542 -11.38317 -11.35549 -11.32346 -10.36026
 Alpha  occ. eigenvalues --   -9.56013  -9.55341  -9.55246  -1.38103  -1.22941
 Alpha  occ. eigenvalues --   -1.19004  -1.17923  -1.16653  -0.96301  -0.86507
 Alpha  occ. eigenvalues --   -0.66481  -0.62409  -0.59758  -0.55832  -0.52132
 Alpha  occ. eigenvalues --   -0.47654  -0.44682  -0.43950  -0.40851  -0.39184
 Alpha  occ. eigenvalues --   -0.38903  -0.35246  -0.33739  -0.33071  -0.31670
 Alpha  occ. eigenvalues --   -0.30054  -0.23788  -0.11622
 Alpha virt. eigenvalues --    0.12107   0.14657   0.15220   0.15951   0.17293
 Alpha virt. eigenvalues --    0.18344   0.18963   0.19809   0.20653   0.20974
 Alpha virt. eigenvalues --    0.21643   0.23195   0.23406   0.24253   0.24649

 Mulliken charges:
               1
     1  C    1.976324
     2  C   -0.155274
     3  Cl  -0.065089
     4  H    1.845811
     5  C    2.478230
     6  N   -2.638566
     7  N   -3.409570
     8  H    0.720301
     9  H    0.620665
    10  N   -2.602743
    11  H    0.607673
    12  H    0.527406
    13  C    2.495819
    14  N   -2.557305
    15  H   -0.843682
 Sum of Mulliken charges =  -1.00000

 Dipole moment (field-independent basis, Debye):
    X=              3.5998    Y=             -7.4291    Z=              9.2450  Tot=             12.3944

 Test job not archived.
 1\1\GINC-SE070\SP\RHF\Aug-CC-pVDZ\C4H6Cl1N4(1-)\OHZDE\09-Apr-2025\0\\#
 t hf aug-cc-pvdz iop(5/13=1,5/36=2,99/5=2) pseudo=read geom=check gues
 s=(read,tcheck) scf=(maxcycle=1)\\title\\-1,1\C,0,-0.643651,0.04796,-1
 .508447\C,0,0.065986,0.079868,-0.142204\Cl,0,-0.024312,1.519736,-2.497
 985\H,0,1.141557,0.259405,-0.280835\C,0,-0.228681,-1.128714,-2.276404\
 N,0,0.046511,-2.024663,-2.984059\N,0,-2.053156,0.057113,-1.380621\H,0,
 -2.507986,0.028601,-2.28398\H,0,-2.355843,0.876826,-0.866792\N,0,-0.03
 6581,-1.192253,0.502919\H,0,-0.801594,-1.209677,1.167567\H,0,0.935401,

 Normal termination of Gaussian 16 at Wed Apr  9 03:02:37 2025.
