 Gaussian 16, Revision C.01,

 ----------------------------------------------------------------------
 #t hf aug-cc-pvdz symm=none int=(grid=ultrafine) guess=(read,tcheck) s
 table=(opt,rrhf)
 ----------------------------------------------------------------------
 -----
 title
 -----
 Symbolic Z-matrix:
 Charge = -1 Multiplicity = 1

 SCF Done:  E(RHF) =  -896.175835757     A.U. after   15 cycles
 Normal termination of Gaussian 16 at Wed Apr  9 02:38:50 2025.
 Gaussian 16:  ES64L-G16RevC.01  3-Jul-2019

 ----------------------------------------------------------------------
 #t hf aug-cc-pvdz iop(5/13=1,5/36=2,99/5=2) pseudo=read geom=check gue
 ss=(read,tcheck) scf=(maxcycle=1)
 ----------------------------------------------------------------------
 -----
 title
 -----
 Structure from the checkpoint file:  "E2SN2_173_mol2.chk"
 Charge = -1 Multiplicity = 1

                         Standard orientation:
 ---------------------------------------------------------------------
 Center     Atomic      Atomic             Coordinates (Angstroms)
 Number     Number       Type             X           Y           Z
 ---------------------------------------------------------------------
      1          6           0       -0.012889    0.000338   -0.065964
      2          6           0        0.839319   -0.224341    1.172655
      3         17           0       -0.196411    1.747326   -0.422983
      4          1           0        0.752383   -1.290040    1.400124
      5          1           0        0.517738   -0.508877   -0.908299
      6          1           0        0.449564    0.342479    2.023405
      7          7           0       -1.404192   -0.541672    0.077002
      8          8           0       -2.042222   -0.733961   -0.956092
      9          8           0       -1.829462   -0.770729    1.212104
     10          7           0        2.244371    0.062247    0.928432
     11          1           0        2.327621    1.045769    0.692887
     12          1           0        2.434729   -0.473918    0.058617
     13          9           0        1.887845   -1.342493   -1.311367
 ---------------------------------------------------------------------

 SCF Done:  E(RHF) =  -898.258779449     A.U. after    2 cycles

 The electronic state is 1-A.
 Alpha  occ. eigenvalues --  -99.77295 -28.90862 -20.97512 -20.97341 -15.86725
 Alpha  occ. eigenvalues --  -15.56899 -11.35368 -11.27048 -10.34665  -9.54657
 Alpha  occ. eigenvalues --   -9.53915  -9.53770  -1.86570  -1.56380  -1.26003
 Alpha  occ. eigenvalues --   -1.16624  -1.01949  -0.82856  -0.70858  -0.60813
 Alpha  occ. eigenvalues --   -0.58108  -0.53872  -0.51771  -0.45213  -0.44480
 Alpha  occ. eigenvalues --   -0.40350  -0.39497  -0.38847  -0.36548  -0.28323
 Alpha  occ. eigenvalues --   -0.24119  -0.20912  -0.19193  -0.17771  -0.00106
 Alpha  occ. eigenvalues --    0.00597   0.02467
 Alpha virt. eigenvalues --    0.14670   0.15642   0.16268   0.17402   0.19829
 Alpha virt. eigenvalues --    0.19960   0.21339   0.22750   0.24033   0.25131
 Alpha virt. eigenvalues --    0.27006   0.27290   0.27573   0.28264   0.29151

 Mulliken charges:
               1
     1  C   -0.224403
     2  C   -1.229371
     3  Cl  -0.118587
     4  H    1.310141
     5  H    1.431998
     6  H    1.339169
     7  N    4.027351
     8  O   -2.851925
     9  O   -2.668547
    10  N   -2.176733
    11  H    0.494802
    12  H    0.315157
    13  F   -0.649052
 Sum of Mulliken charges =  -1.00000

 Dipole moment (field-independent basis, Debye):
    X=             -3.4917    Y=              1.8654    Z=              2.0289  Tot=              4.4484

 Test job not archived.
 1\1\GINC-SE070\SP\RHF\Aug-CC-pVDZ\C2H5Cl1F1N2O2(1-)\OHZDE\09-Apr-2025\
 0\\#t hf aug-cc-pvdz iop(5/13=1,5/36=2,99/5=2) pseudo=read geom=check
 guess=(read,tcheck) scf=(maxcycle=1)\\title\\-1,1\C,0,-0.273957,-0.099
 471,0.071178\C,0,-0.622424,-0.373196,-1.382975\Cl,0,1.260259,0.81665,0
 .212657\H,0,-1.465708,-1.06835,-1.357504\H,0,-1.119084,0.502368,0.4882
 45\H,0,0.210075,-0.860183,-1.89946\N,0,-0.082812,-1.35373,0.871325\O,0
 ,-0.155389,-1.25739,2.094759\O,0,0.128281,-2.407747,0.266125\N,0,-1.06
 1123,0.828603,-2.075197\H,0,-0.28912,1.487171,-2.080358\H,0,-1.779598,

 Normal termination of Gaussian 16 at Wed Apr  9 02:38:55 2025.
