 Gaussian 16, Revision C.01,

 ----------------------------------------------------------------------
 #t hf aug-cc-pvdz symm=none int=(grid=ultrafine) guess=(read,tcheck) s
 table=(opt,rrhf)
 ----------------------------------------------------------------------
 -----
 title
 -----
 Symbolic Z-matrix:
 Charge = -1 Multiplicity = 1

 SCF Done:  E(RHF) =  -1099.75123722     A.U. after   16 cycles
 Normal termination of Gaussian 16 at Wed Apr  9 02:46:02 2025.
 Gaussian 16:  ES64L-G16RevC.01  3-Jul-2019

 ----------------------------------------------------------------------
 #t hf aug-cc-pvdz iop(5/13=1,5/36=2,99/5=2) pseudo=read geom=check gue
 ss=(read,tcheck) scf=(maxcycle=1)
 ----------------------------------------------------------------------
 -----
 title
 -----
 Structure from the checkpoint file:  "E2SN2_237_mol2.chk"
 Charge = -1 Multiplicity = 1

                         Standard orientation:
 ---------------------------------------------------------------------
 Center     Atomic      Atomic             Coordinates (Angstroms)
 Number     Number       Type             X           Y           Z
 ---------------------------------------------------------------------
      1          6           0       -0.198356   -0.517012    0.620142
      2          6           0        0.010868    0.900497    0.138465
      3          9           0       -1.253505   -0.560473    1.503981
      4          1           0        0.505840    1.473220    0.917514
      5          1           0        0.631361    0.921358   -0.756320
      6          7           0       -0.670113   -1.426953   -0.545201
      7          8           0       -1.289437   -2.438111   -0.225419
      8          8           0       -0.289536   -1.145000   -1.674510
      9          7           0        0.959285   -1.014533    1.201107
     10          1           0        1.819328   -0.644215    0.766016
     11          1           0        0.956066   -2.022229    1.275549
     12          7           0       -1.283681    1.573125   -0.153433
     13          8           0       -1.376141    2.758377    0.160909
     14          8           0       -2.159890    0.923000   -0.718522
     15         17           0        3.316204    0.488683   -0.243953
 ---------------------------------------------------------------------

 SCF Done:  E(RHF) =  -1102.65726427     A.U. after    2 cycles

 The electronic state is 1-A.
 Alpha  occ. eigenvalues --  -99.63132 -29.18739 -21.00406 -21.00141 -20.99930
 Alpha  occ. eigenvalues --  -20.99556 -15.90010 -15.88618 -15.64827 -11.48763
 Alpha  occ. eigenvalues --  -11.35654 -10.19848  -9.39855  -9.39525  -9.39382
 Alpha  occ. eigenvalues --   -1.89988  -1.88790  -1.59652  -1.59406  -1.35162
 Alpha  occ. eigenvalues --   -1.13127  -1.02202  -0.99109  -0.84279  -0.79136
 Alpha  occ. eigenvalues --   -0.65759  -0.64727  -0.62791  -0.58338  -0.56488
 Alpha  occ. eigenvalues --   -0.53862  -0.51601  -0.49788  -0.46239  -0.45822
 Alpha  occ. eigenvalues --   -0.34301  -0.31255  -0.28312  -0.27580  -0.27002
 Alpha  occ. eigenvalues --   -0.25975  -0.24080  -0.23518  -0.22354  -0.21570
 Alpha  occ. eigenvalues --   -0.20407  -0.17082  -0.15696
 Alpha virt. eigenvalues --    0.14053   0.15771   0.16783   0.18866   0.19417
 Alpha virt. eigenvalues --    0.20864   0.22073   0.22469   0.23710   0.24231
 Alpha virt. eigenvalues --    0.25220   0.25850   0.26298   0.26749   0.27969

 Mulliken charges:
               1
     1  C    4.201002
     2  C   -1.804033
     3  F    0.453204
     4  H    1.493935
     5  H    1.515758
     6  N    4.220212
     7  O   -2.994283
     8  O   -2.981067
     9  N   -3.586579
    10  H    0.491688
    11  H    0.491388
    12  N    4.017394
    13  O   -2.735439
    14  O   -2.815270
    15  Cl  -0.967909
 Sum of Mulliken charges =  -1.00000

 Dipole moment (field-independent basis, Debye):
    X=            -10.3668    Y=             -2.0445    Z=              2.7974  Tot=             10.9305

 Test job not archived.
 1\1\GINC-SE105\SP\RHF\Aug-CC-pVDZ\C2H4Cl1F1N3O4(1-)\OHZDE\09-Apr-2025\
 0\\#t hf aug-cc-pvdz iop(5/13=1,5/36=2,99/5=2) pseudo=read geom=check
 guess=(read,tcheck) scf=(maxcycle=1)\\title\\-1,1\C,0,-0.049958,0.0472
 36,-0.034592\C,0,-0.732135,0.147809,-1.37982\F,0,1.27197,-0.299239,-0.
 204482\H,0,-0.935164,-0.851863,-1.753131\H,0,-1.674633,0.687693,-1.300
 385\N,0,0.029796,1.440655,0.644079\O,0,0.91653,1.584592,1.481485\O,0,-
 0.85966,2.244577,0.394576\N,0,-0.703594,-0.865435,0.780866\H,0,-1.7223
 36,-0.895688,0.615449\H,0,-0.464428,-0.757498,1.756649\N,0,0.133765,0.

 Normal termination of Gaussian 16 at Wed Apr  9 02:46:11 2025.
