 Gaussian 16, Revision C.01,

 ----------------------------------------------------------------------
 #t hf aug-cc-pvdz symm=none int=(grid=ultrafine) guess=(read,tcheck) s
 table=(opt,rrhf)
 ----------------------------------------------------------------------
 -----
 title
 -----
 Symbolic Z-matrix:
 Charge = -1 Multiplicity = 1

 SCF Done:  E(RHF) =  -518.437349322     A.U. after   15 cycles
 Normal termination of Gaussian 16 at Wed Apr  9 02:49:32 2025.
 Gaussian 16:  ES64L-G16RevC.01  3-Jul-2019

 ----------------------------------------------------------------------
 #t hf aug-cc-pvdz iop(5/13=1,5/36=2,99/5=2) pseudo=read geom=check gue
 ss=(read,tcheck) scf=(maxcycle=1)
 ----------------------------------------------------------------------
 -----
 title
 -----
 Structure from the checkpoint file:  "E2SN2_288_mol2.chk"
 Charge = -1 Multiplicity = 1

                         Standard orientation:
 ---------------------------------------------------------------------
 Center     Atomic      Atomic             Coordinates (Angstroms)
 Number     Number       Type             X           Y           Z
 ---------------------------------------------------------------------
      1          6           0       -0.703351    0.391137    0.124587
      2          6           0        0.342813    0.121305   -0.967945
      3          9           0       -1.379537    1.586331   -0.186722
      4          1           0       -0.175713    0.319712   -1.915665
      5          6           0       -1.745736   -0.656675    0.086564
      6          7           0       -2.658889   -1.395153    0.093216
      7          6           0       -0.093437    0.528287    1.504997
      8          1           0        0.356561    1.521332    1.540552
      9          1           0        0.726214   -0.186405    1.638115
     10          1           0       -0.857410    0.442387    2.280821
     11          7           0        0.690724   -1.293772   -0.891339
     12          1           0        1.132600   -1.551839   -1.767219
     13          1           0        1.429260   -1.335373   -0.158934
     14          7           0        1.433980    1.076592   -0.804660
     15          1           0        2.053202    0.624721   -0.104673
     16          1           0        1.950268    1.096641   -1.678391
     17          9           0        2.526489   -0.691794    0.952906
 ---------------------------------------------------------------------

 SCF Done:  E(RHF) =  -520.630856472     A.U. after    2 cycles

 The electronic state is 1-A.
 Alpha  occ. eigenvalues --  -29.13002 -28.91172 -15.63550 -15.57037 -15.56625
 Alpha  occ. eigenvalues --  -11.40642 -11.32915 -11.30420 -11.24131  -1.30053
 Alpha  occ. eigenvalues --   -1.17850  -1.08698  -1.08384  -0.87178  -0.75334
 Alpha  occ. eigenvalues --   -0.64977  -0.60830  -0.49671  -0.47620  -0.46499
 Alpha  occ. eigenvalues --   -0.44269  -0.42616  -0.40542  -0.37594  -0.37192
 Alpha  occ. eigenvalues --   -0.31902  -0.30661  -0.28536  -0.25466  -0.22693
 Alpha  occ. eigenvalues --   -0.18486  -0.13030  -0.12090  -0.00126   0.00520
 Alpha  occ. eigenvalues --    0.01998
 Alpha virt. eigenvalues --    0.13508   0.14659   0.14904   0.15312   0.15983
 Alpha virt. eigenvalues --    0.18908   0.19117   0.19620   0.21156   0.22022
 Alpha virt. eigenvalues --    0.23107   0.23529   0.24450   0.26472   0.26633

 Mulliken charges:
               1
     1  C    2.618409
     2  C    2.948197
     3  F   -0.118129
     4  H    1.618439
     5  C    0.962809
     6  N   -2.565652
     7  C   -4.210962
     8  H    1.262177
     9  H    1.075360
    10  H    1.126425
    11  N   -3.362969
    12  H    0.466377
    13  H    0.346860
    14  N   -3.079439
    15  H    0.244363
    16  H    0.471644
    17  F   -0.803908
 Sum of Mulliken charges =  -1.00000

 Dipole moment (field-independent basis, Debye):
    X=             -2.5371    Y=              4.3298    Z=             -2.5520  Tot=              5.6300

 Test job not archived.
 1\1\GINC-SE070\SP\RHF\Aug-CC-pVDZ\C4H8F2N3(1-)\OHZDE\09-Apr-2025\0\\#t
  hf aug-cc-pvdz iop(5/13=1,5/36=2,99/5=2) pseudo=read geom=check guess
 =(read,tcheck) scf=(maxcycle=1)\\title\\-1,1\C,0,0.08749,-0.008145,0.0
 03053\C,0,-0.553806,0.402612,-1.331455\F,0,1.36859,-0.531499,-0.256779
 \H,0,0.23911,0.928986,-1.879744\C,0,0.327936,1.192735,0.831302\N,0,0.6
 26373,2.084796,1.534441\C,0,-0.71787,-1.053492,0.748025\H,0,-0.527217,
 -2.000825,0.24195\H,0,-1.791326,-0.859866,0.645393\H,0,-0.400105,-1.12
 2722,1.790699\N,0,-1.632394,1.335525,-1.022139\H,0,-1.861027,1.837726,

 Normal termination of Gaussian 16 at Wed Apr  9 02:49:39 2025.
