 Gaussian 16, Revision C.01,

 ----------------------------------------------------------------------
 #t hf aug-cc-pvdz symm=none int=(grid=ultrafine) guess=(read,tcheck) s
 table=(opt,rrhf)
 ----------------------------------------------------------------------
 -----
 title
 -----
 Symbolic Z-matrix:
 Charge = -1 Multiplicity = 1

 SCF Done:  E(RHF) =  -1043.01736483     A.U. after   16 cycles
 Normal termination of Gaussian 16 at Wed Apr  9 02:54:02 2025.
 Gaussian 16:  ES64L-G16RevC.01  3-Jul-2019

 ----------------------------------------------------------------------
 #t hf aug-cc-pvdz iop(5/13=1,5/36=2,99/5=2) pseudo=read geom=check gue
 ss=(read,tcheck) scf=(maxcycle=1)
 ----------------------------------------------------------------------
 -----
 title
 -----
 Structure from the checkpoint file:  "E2SN2_321_mol2.chk"
 Charge = -1 Multiplicity = 1

                         Standard orientation:
 ---------------------------------------------------------------------
 Center     Atomic      Atomic             Coordinates (Angstroms)
 Number     Number       Type             X           Y           Z
 ---------------------------------------------------------------------
      1          6           0        0.230024    0.841134    0.401551
      2          6           0        0.800304   -0.049692   -0.732565
      3          9           0        1.353115    1.494813    0.941430
      4          1           0        1.290534    0.585962   -1.471414
      5          6           0       -0.584927    1.883972   -0.258823
      6          7           0       -1.149253    2.743982   -0.824060
      7          7           0       -0.495012    0.224027    1.436769
      8          1           0       -0.043229   -0.642282    1.704384
      9          1           0       -1.458054    0.010789    1.155554
     10          7           0       -0.133567   -0.939679   -1.304379
     11          1           0       -0.371846   -0.683700   -2.249229
     12          1           0       -0.993705   -1.072477   -0.766251
     13          7           0        1.970308   -0.827704   -0.135255
     14          8           0        1.719907   -1.615213    0.774023
     15          8           0        3.084556   -0.631615   -0.616095
     16         17           0       -3.121010   -1.066697    0.071656
 ---------------------------------------------------------------------

 SCF Done:  E(RHF) =  -1045.73274886     A.U. after    2 cycles

 The electronic state is 1-A.
 Alpha  occ. eigenvalues --  -99.63115 -29.17754 -21.00503 -20.99971 -15.88927
 Alpha  occ. eigenvalues --  -15.68506 -15.64621 -15.63483 -11.49009 -11.40983
 Alpha  occ. eigenvalues --  -11.34791 -10.19844  -9.39876  -9.39595  -9.39391
 Alpha  occ. eigenvalues --   -1.89295  -1.59620  -1.36907  -1.25253  -1.19827
 Alpha  occ. eigenvalues --   -1.06189  -0.99220  -0.96705  -0.76238  -0.72700
 Alpha  occ. eigenvalues --   -0.66201  -0.62236  -0.58294  -0.55192  -0.52601
 Alpha  occ. eigenvalues --   -0.51670  -0.49167  -0.45394  -0.43257  -0.36449
 Alpha  occ. eigenvalues --   -0.35477  -0.32370  -0.30520  -0.28745  -0.27333
 Alpha  occ. eigenvalues --   -0.26973  -0.25728  -0.22855  -0.22345  -0.21551
 Alpha  occ. eigenvalues --   -0.17798  -0.16659
 Alpha virt. eigenvalues --    0.13134   0.14800   0.16331   0.18019   0.18260
 Alpha virt. eigenvalues --    0.19304   0.19332   0.20622   0.21611   0.22440
 Alpha virt. eigenvalues --    0.22768   0.24381   0.24406   0.24925   0.26244

 Mulliken charges:
               1
     1  C    4.186040
     2  C    0.774694
     3  F    0.224304
     4  H    1.910524
     5  C    1.536343
     6  N   -2.573668
     7  N   -3.763928
     8  H    0.698287
     9  H    0.522100
    10  N   -3.375334
    11  H    0.597486
    12  H    0.537817
    13  N    4.413710
    14  O   -2.896651
    15  O   -2.839017
    16  Cl  -0.952706
 Sum of Mulliken charges =  -1.00000

 Dipole moment (field-independent basis, Debye):
    X=             10.8465    Y=              2.6978    Z=              0.3090  Tot=             11.1813

 Test job not archived.
 1\1\GINC-SE092\SP\RHF\Aug-CC-pVDZ\C3H5Cl1F1N4O2(1-)\OHZDE\09-Apr-2025\
 0\\#t hf aug-cc-pvdz iop(5/13=1,5/36=2,99/5=2) pseudo=read geom=check
 guess=(read,tcheck) scf=(maxcycle=1)\\title\\-1,1\C,0,-0.020094,0.0218
 19,-0.026732\C,0,-0.214425,0.325722,-1.535005\F,0,1.366441,-0.164638,0
 .124442\H,0,0.343804,1.22754,-1.790707\C,0,-0.356821,1.268049,0.695263
 \N,0,-0.547611,2.29851,1.223772\N,0,-0.703257,-1.075165,0.528326\H,0,-
 0.676763,-1.858,-0.114079\H,0,-1.68525,-0.854675,0.726005\N,0,-1.56090
 3,0.373808,-1.954348\H,0,-1.848918,1.307954,-2.198197\H,0,-2.235925,-0

 Normal termination of Gaussian 16 at Wed Apr  9 02:54:11 2025.
