 Gaussian 16, Revision C.01,

 ----------------------------------------------------------------------
 #t hf aug-cc-pvdz symm=none int=(grid=ultrafine) guess=(read,tcheck) s
 table=(opt,rrhf)
 ----------------------------------------------------------------------
 -----
 title
 -----
 Symbolic Z-matrix:
 Charge = -1 Multiplicity = 1

 SCF Done:  E(RHF) =  -860.148553184     A.U. after   16 cycles
 Normal termination of Gaussian 16 at Wed Apr  9 02:49:14 2025.
 Gaussian 16:  ES64L-G16RevC.01  3-Jul-2019

 ----------------------------------------------------------------------
 #t hf aug-cc-pvdz iop(5/13=1,5/36=2,99/5=2) pseudo=read geom=check gue
 ss=(read,tcheck) scf=(maxcycle=1)
 ----------------------------------------------------------------------
 -----
 title
 -----
 Structure from the checkpoint file:  "E2SN2_278_mol2.chk"
 Charge = -1 Multiplicity = 1

                         Standard orientation:
 ---------------------------------------------------------------------
 Center     Atomic      Atomic             Coordinates (Angstroms)
 Number     Number       Type             X           Y           Z
 ---------------------------------------------------------------------
      1          6           0        0.297148   -0.235623    0.140569
      2          6           0       -0.583772    0.602837   -0.777821
      3         17           0       -0.123169   -2.016177    0.020201
      4          1           0       -0.142523    1.668081   -0.546114
      5          1           0       -0.424645    0.327064   -1.823427
      6          6           0        1.687195   -0.130063   -0.315737
      7          7           0        2.806643   -0.139972   -0.670835
      8          6           0        0.179497    0.213826    1.587291
      9          1           0        0.435132    1.279509    1.554066
     10          1           0        0.860739   -0.351662    2.225824
     11          1           0       -0.846703    0.065942    1.930514
     12          6           0       -1.988220    0.498833   -0.442299
     13          7           0       -3.132392    0.446976   -0.174049
     14          9           0        0.771226    2.604243    0.119766
 ---------------------------------------------------------------------

 SCF Done:  E(RHF) =  -862.137456773     A.U. after    2 cycles

 The electronic state is 1-A.
 Alpha  occ. eigenvalues --  -99.77466 -28.92179 -15.64513 -15.63601 -11.40450
 Alpha  occ. eigenvalues --  -11.33762 -11.33064 -11.29071 -11.26345 -10.34805
 Alpha  occ. eigenvalues --   -9.54783  -9.54076  -9.53997  -1.29100  -1.17552
 Alpha  occ. eigenvalues --   -1.16141  -1.07008  -0.93977  -0.82058  -0.62612
 Alpha  occ. eigenvalues --   -0.58387  -0.55470  -0.50236  -0.46239  -0.45028
 Alpha  occ. eigenvalues --   -0.41994  -0.41181  -0.40133  -0.37059  -0.35730
 Alpha  occ. eigenvalues --   -0.33334  -0.32210  -0.31141  -0.28665  -0.24522
 Alpha  occ. eigenvalues --   -0.01158  -0.00619   0.01257
 Alpha virt. eigenvalues --    0.13689   0.14811   0.16014   0.16506   0.17740
 Alpha virt. eigenvalues --    0.18884   0.19351   0.20092   0.21931   0.22291
 Alpha virt. eigenvalues --    0.22728   0.23989   0.24844   0.25739   0.26083

 Mulliken charges:
               1
     1  C    0.933932
     2  C   -3.194898
     3  Cl  -0.196308
     4  H    1.260523
     5  H    1.366506
     6  C    2.760896
     7  N   -2.926997
     8  C   -3.789312
     9  H    1.007447
    10  H    1.221135
    11  H    1.262908
    12  C    2.217725
    13  N   -2.588671
    14  F   -0.334886
 Sum of Mulliken charges =  -1.00000

 Dipole moment (field-independent basis, Debye):
    X=              0.5689    Y=             -2.5165    Z=              0.9571  Tot=              2.7518

 Test job not archived.
 1\1\GINC-SE123\SP\RHF\Aug-CC-pVDZ\C5H5Cl1F1N2(1-)\OHZDE\09-Apr-2025\0\
 \#t hf aug-cc-pvdz iop(5/13=1,5/36=2,99/5=2) pseudo=read geom=check gu
 ess=(read,tcheck) scf=(maxcycle=1)\\title\\-1,1\C,0,-0.00466,-0.000981
 ,0.015609\C,0,-0.617062,-0.189245,-1.36714\Cl,0,1.827004,0.007429,-0.0
 648\H,0,-1.756539,-0.154236,-1.078176\H,0,-0.349469,0.64184,-2.024678\
 C,0,-0.380209,1.324214,0.52\N,0,-0.590158,2.396647,0.950307\C,0,-0.462
 378,-1.083159,0.97906\H,0,-1.556414,-1.017372,0.94923\H,0,-0.067809,-0
 .902941,1.980773\H,0,-0.116883,-2.055859,0.622343\C,0,-0.236551,-1.447

 Normal termination of Gaussian 16 at Wed Apr  9 02:49:20 2025.
