 Gaussian 16, Revision C.01,

 ----------------------------------------------------------------------
 #t hf aug-cc-pvdz symm=none int=(grid=ultrafine) guess=(read,tcheck) s
 table=(opt,rrhf)
 ----------------------------------------------------------------------
 -----
 title
 -----
 Symbolic Z-matrix:
 Charge = -1 Multiplicity = 1

 SCF Done:  E(RHF) =  -1236.21316038     A.U. after   16 cycles
 Normal termination of Gaussian 16 at Wed Apr  9 02:47:06 2025.
 Gaussian 16:  ES64L-G16RevC.01  3-Jul-2019

 ----------------------------------------------------------------------
 #t hf aug-cc-pvdz iop(5/13=1,5/36=2,99/5=2) pseudo=read geom=check gue
 ss=(read,tcheck) scf=(maxcycle=1)
 ----------------------------------------------------------------------
 -----
 title
 -----
 Structure from the checkpoint file:  "E2SN2_254_mol1.chk"
 Charge = -1 Multiplicity = 1

                         Standard orientation:
 ---------------------------------------------------------------------
 Center     Atomic      Atomic             Coordinates (Angstroms)
 Number     Number       Type             X           Y           Z
 ---------------------------------------------------------------------
      1          6           0        0.363943    0.176694   -0.308948
      2          1           0        0.355986   -1.351621    1.162210
      3         17           0       -1.488347    1.476558   -0.831663
      4         17           0        2.276655   -1.173306   -0.397344
      5          6           0       -0.376949   -0.679373    0.716081
      6          1           0        0.336340   -0.043775   -1.357752
      7          6           0        1.113192    1.303287    0.166094
      8          7           0        1.723615    2.229342    0.559697
      9          6           0       -1.361513   -1.538565    0.023672
     10          7           0       -2.160049   -2.277102   -0.420607
     11          7           0       -0.928156    0.114390    1.799462
     12          1           0       -1.309377   -0.505969    2.502763
     13          1           0       -1.664088    0.707418    1.434643
 ---------------------------------------------------------------------

 SCF Done:  E(RHF) =  -1238.17229469     A.U. after    2 cycles

 The electronic state is 1-A.
 Alpha  occ. eigenvalues --  -99.69236 -99.68391 -15.66044 -15.65198 -15.64835
 Alpha  occ. eigenvalues --  -11.45947 -11.39611 -11.34550 -11.32742 -10.26230
 Alpha  occ. eigenvalues --  -10.25323  -9.46255  -9.45845  -9.45741  -9.45370
 Alpha  occ. eigenvalues --   -9.44908  -9.44807  -1.31564  -1.18889  -1.17630
 Alpha  occ. eigenvalues --   -1.09365  -1.05683  -1.00369  -0.87924  -0.66414
 Alpha  occ. eigenvalues --   -0.61846  -0.60121  -0.50558  -0.47693  -0.43124
 Alpha  occ. eigenvalues --   -0.42745  -0.41094  -0.35379  -0.34894  -0.33618
 Alpha  occ. eigenvalues --   -0.33055  -0.32751  -0.31065  -0.30901  -0.29673
 Alpha  occ. eigenvalues --   -0.28021  -0.27163
 Alpha virt. eigenvalues --    0.12678   0.15038   0.15790   0.16246   0.16479
 Alpha virt. eigenvalues --    0.18552   0.20168   0.20778   0.21708   0.22157
 Alpha virt. eigenvalues --    0.22684   0.23570   0.23959   0.24957   0.26403

 Mulliken charges:
               1
     1  C   -1.572894
     2  H    1.674091
     3  Cl  -0.596264
     4  Cl  -0.588970
     5  C   -0.211280
     6  H    1.764964
     7  C    2.729968
     8  N   -2.812535
     9  C    3.156775
    10  N   -2.828280
    11  N   -2.968213
    12  H    0.650784
    13  H    0.601855
 Sum of Mulliken charges =  -1.00000

 Dipole moment (field-independent basis, Debye):
    X=             -2.1440    Y=             -0.7756    Z=              3.1917  Tot=              3.9223

 Test job not archived.
 1\1\GINC-SE049\SP\RHF\Aug-CC-pVDZ\C4H4Cl2N3(1-)\OHZDE\09-Apr-2025\0\\#
 t hf aug-cc-pvdz iop(5/13=1,5/36=2,99/5=2) pseudo=read geom=check gues
 s=(read,tcheck) scf=(maxcycle=1)\\title\\-1,1\C,0,0.60926899,-0.032261
 39,-0.05393218\H,0,1.68603249,1.79260433,-0.15670719\Cl,0,-1.70914133,
 -0.16408492,-0.01580835\Cl,0,2.89700424,-0.30727071,0.36964367\C,0,0.6
 4137871,1.4945822,-0.06713464\H,0,0.52103984,-0.58961946,0.85761884\C,
 0,0.70189729,-0.72136359,-1.30804806\N,0,0.77409271,-1.28298519,-2.339
 78753\C,0,0.17249442,2.01036437,1.23713656\N,0,-0.16467725,2.52939503,

 Normal termination of Gaussian 16 at Wed Apr  9 02:47:13 2025.
