 Gaussian 16, Revision C.01,

 ----------------------------------------------------------------------
 #t hf aug-cc-pvdz symm=none int=(grid=ultrafine) guess=(read,tcheck) s
 table=(opt,rrhf)
 ----------------------------------------------------------------------
 -----
 title
 -----
 Symbolic Z-matrix:
 Charge = -1 Multiplicity = 1

 SCF Done:  E(RHF) =  -479.406220145     A.U. after   15 cycles
 Normal termination of Gaussian 16 at Wed Apr  9 02:50:59 2025.
 Gaussian 16:  ES64L-G16RevC.01  3-Jul-2019

 ----------------------------------------------------------------------
 #t hf aug-cc-pvdz iop(5/13=1,5/36=2,99/5=2) pseudo=read geom=check gue
 ss=(read,tcheck) scf=(maxcycle=1)
 ----------------------------------------------------------------------
 -----
 title
 -----
 Structure from the checkpoint file:  "E2SN2_301_mol2.chk"
 Charge = -1 Multiplicity = 1

                         Standard orientation:
 ---------------------------------------------------------------------
 Center     Atomic      Atomic             Coordinates (Angstroms)
 Number     Number       Type             X           Y           Z
 ---------------------------------------------------------------------
      1          6           0       -0.499445    0.137147    0.229783
      2          6           0        0.367310    0.649050   -0.929202
      3          9           0       -0.970345    1.316856    0.922102
      4          1           0        0.600899   -0.207968   -1.563733
      5          1           0       -0.242930    1.365677   -1.492266
      6          6           0       -1.758807   -0.457267   -0.292084
      7          7           0       -2.728822   -0.964179   -0.721030
      8          7           0        0.202122   -0.699113    1.084758
      9          1           0        1.130627   -1.052249    0.680165
     10          1           0       -0.366388   -1.391470    1.545085
     11          7           0        1.625516    1.237361   -0.513050
     12          1           0        2.206836    0.426904   -0.255497
     13          1           0        1.455810    1.791917    0.318444
     14          9           0        2.400243   -1.308509   -0.059649
 ---------------------------------------------------------------------

 SCF Done:  E(RHF) =  -481.400421436     A.U. after    2 cycles

 The electronic state is 1-A.
 Alpha  occ. eigenvalues --  -29.11341 -28.92024 -15.65147 -15.57690 -15.56784
 Alpha  occ. eigenvalues --  -11.41040 -11.32391 -11.27139  -1.30631  -1.17166
 Alpha  occ. eigenvalues --   -1.15334  -0.96537  -0.79259  -0.65719  -0.59733
 Alpha  occ. eigenvalues --   -0.54815  -0.52813  -0.44189  -0.41486  -0.38511
 Alpha  occ. eigenvalues --   -0.38060  -0.34239  -0.32709  -0.28704  -0.25944
 Alpha  occ. eigenvalues --   -0.23089  -0.17148  -0.12574  -0.11963  -0.00794
 Alpha  occ. eigenvalues --    0.00021   0.01343
 Alpha virt. eigenvalues --    0.14523   0.15727   0.15847   0.17112   0.18637
 Alpha virt. eigenvalues --    0.19196   0.20816   0.21610   0.22674   0.23851
 Alpha virt. eigenvalues --    0.25094   0.25933   0.26204   0.27485   0.28311

 Mulliken charges:
               1
     1  C    2.756458
     2  C   -1.418063
     3  F    0.094368
     4  H    1.393235
     5  H    1.253174
     6  C    1.789574
     7  N   -2.536095
     8  N   -3.187052
     9  H    0.099074
    10  H    0.471878
    11  N   -2.367692
    12  H    0.463162
    13  H    0.542023
    14  F   -0.354043
 Sum of Mulliken charges =  -1.00000

 Dipole moment (field-independent basis, Debye):
    X=             -3.3911    Y=              3.9326    Z=              1.8629  Tot=              5.5168

 Test job not archived.
 1\1\GINC-SE131\SP\RHF\Aug-CC-pVDZ\C3H6F2N3(1-)\OHZDE\09-Apr-2025\0\\#t
  hf aug-cc-pvdz iop(5/13=1,5/36=2,99/5=2) pseudo=read geom=check guess
 =(read,tcheck) scf=(maxcycle=1)\\title\\-1,1\C,0,0.008085,0.079945,0.0
 45848\C,0,-0.538586,0.098432,-1.388504\F,0,1.386359,-0.346076,-0.06200
 1\H,0,-1.521934,0.571317,-1.355636\H,0,0.145025,0.716643,-1.983044\C,0
 ,0.13694,1.467177,0.566089\N,0,0.191067,2.566062,0.9801\N,0,-0.713976,
 -0.764332,0.875507\H,0,-1.660984,-1.063921,0.470607\H,0,-0.719735,-0.4
 87347,1.843861\N,0,-0.708285,-1.216803,-1.974793\H,0,-1.550189,-1.5892

 Normal termination of Gaussian 16 at Wed Apr  9 02:51:04 2025.
