 Gaussian 16, Revision C.01,

 ----------------------------------------------------------------------
 #t hf aug-cc-pvdz symm=none int=(grid=ultrafine) guess=(read,tcheck) s
 table=(opt,rrhf)
 ----------------------------------------------------------------------
 -----
 title
 -----
 Symbolic Z-matrix:
 Charge = -1 Multiplicity = 1

 SCF Done:  E(RHF) =  -943.975805785     A.U. after   18 cycles
 Normal termination of Gaussian 16 at Wed Apr  9 02:36:42 2025.
 Gaussian 16:  ES64L-G16RevC.01  3-Jul-2019

 ----------------------------------------------------------------------
 #t hf aug-cc-pvdz iop(5/13=1,5/36=2,99/5=2) pseudo=read geom=check gue
 ss=(read,tcheck) scf=(maxcycle=1)
 ----------------------------------------------------------------------
 -----
 title
 -----
 Structure from the checkpoint file:  "E2SN2_130_mol1.chk"
 Charge = -1 Multiplicity = 1

                         Standard orientation:
 ---------------------------------------------------------------------
 Center     Atomic      Atomic             Coordinates (Angstroms)
 Number     Number       Type             X           Y           Z
 ---------------------------------------------------------------------
      1          6           0       -0.289297   -0.486525    0.204041
      2          6           0        1.100899    0.026027    0.508229
      3         17           0       -0.424368   -1.187339   -1.472855
      4          1           0        1.117615   -0.446883    2.889373
      5          1           0        1.041395    0.141199    1.749780
      6          7           0       -0.759495   -1.449440    1.141090
      7          1           0       -0.281711   -1.242441    2.033450
      8          1           0       -0.477977   -2.371624    0.839403
      9          7           0       -1.245599    0.722067    0.275137
     10          8           0       -1.597518    1.291585   -0.750835
     11          8           0       -1.533755    1.056302    1.419034
     12          7           0        2.134868   -0.976056    0.458112
     13          1           0        1.953801   -1.675651   -0.251014
     14          1           0        2.151367   -1.400982    1.390619
     15          6           0        1.454713    1.235379   -0.196466
     16          7           0        1.750520    2.238967   -0.739125
 ---------------------------------------------------------------------

 SCF Done:  E(RHF) =  -946.415574965     A.U. after    2 cycles

 The electronic state is 1-A.
 Alpha  occ. eigenvalues --  -99.78537 -20.98172 -20.97829 -15.87216 -15.63374
 Alpha  occ. eigenvalues --  -15.62698 -15.61924 -11.45969 -11.34543 -11.29163
 Alpha  occ. eigenvalues --  -10.35940  -9.56048  -9.55164  -9.55148  -1.87466
 Alpha  occ. eigenvalues --   -1.57626  -1.34971  -1.22241  -1.17032  -1.14665
 Alpha  occ. eigenvalues --   -1.01106  -0.87597  -0.71728  -0.65010  -0.61641
 Alpha  occ. eigenvalues --   -0.59528  -0.55231  -0.52307  -0.48521  -0.46606
 Alpha  occ. eigenvalues --   -0.45620  -0.41813  -0.41104  -0.39018  -0.38622
 Alpha  occ. eigenvalues --   -0.31726  -0.30653  -0.28413  -0.26620  -0.21781
 Alpha  occ. eigenvalues --   -0.19642  -0.18793  -0.13623
 Alpha virt. eigenvalues --    0.13132   0.14612   0.15513   0.17130   0.17493
 Alpha virt. eigenvalues --    0.18511   0.19295   0.21246   0.21434   0.22896
 Alpha virt. eigenvalues --    0.23756   0.24013   0.24843   0.25672   0.26356

 Mulliken charges:
               1
     1  C    3.830112
     2  C    1.022518
     3  Cl  -0.089326
     4  H   -0.700169
     5  H    1.591515
     6  N   -3.557883
     7  H    0.724554
     8  H    0.599199
     9  N    3.841599
    10  O   -2.946089
    11  O   -2.784014
    12  N   -2.788009
    13  H    0.615999
    14  H    0.493298
    15  C    1.720005
    16  N   -2.573309
 Sum of Mulliken charges =  -1.00000

 Dipole moment (field-independent basis, Debye):
    X=             -3.2281    Y=             -2.8981    Z=             -4.1329  Tot=              5.9917

 Test job not archived.
 1\1\GINC-SE049\SP\RHF\Aug-CC-pVDZ\C3H6Cl1N4O2(1-)\OHZDE\09-Apr-2025\0\
 \#t hf aug-cc-pvdz iop(5/13=1,5/36=2,99/5=2) pseudo=read geom=check gu
 ess=(read,tcheck) scf=(maxcycle=1)\\title\\-1,1\C,0,-0.14967298,-0.081
 0091,-0.30653298\C,0,-0.14777954,0.06661835,1.19881981\Cl,0,1.51608767
 ,-0.3834296,-0.98117789\H,0,-2.34371927,-0.87473839,1.62947736\H,0,-1.
 36391555,-0.06388892,1.4482925\N,0,-1.02565316,-1.09905467,-0.77833116
 \H,0,-1.78051638,-1.17923088,-0.07748373\H,0,-0.52827022,-1.97793822,-
 0.80773747\N,0,-0.64752258,1.25576731,-0.89427253\O,0,0.15388904,2.081

 Normal termination of Gaussian 16 at Wed Apr  9 02:36:52 2025.
