 Gaussian 16, Revision C.01,

 ----------------------------------------------------------------------
 #t hf aug-cc-pvdz symm=none int=(grid=ultrafine) guess=(read,tcheck) s
 table=(opt,rrhf)
 ----------------------------------------------------------------------
 -----
 title
 -----
 Symbolic Z-matrix:
 Charge = -1 Multiplicity = 1

 SCF Done:  E(RHF) =  -891.308677028     A.U. after   16 cycles
 Normal termination of Gaussian 16 at Wed Apr  9 02:56:35 2025.
 Gaussian 16:  ES64L-G16RevC.01  3-Jul-2019

 ----------------------------------------------------------------------
 #t hf aug-cc-pvdz iop(5/13=1,5/36=2,99/5=2) pseudo=read geom=check gue
 ss=(read,tcheck) scf=(maxcycle=1)
 ----------------------------------------------------------------------
 -----
 title
 -----
 Structure from the checkpoint file:  "E2SN2_364_mol2.chk"
 Charge = -1 Multiplicity = 1

                         Standard orientation:
 ---------------------------------------------------------------------
 Center     Atomic      Atomic             Coordinates (Angstroms)
 Number     Number       Type             X           Y           Z
 ---------------------------------------------------------------------
      1          6           0        0.929750    0.066469    0.063212
      2          6           0       -0.362160    0.591651   -0.599695
      3         17           0        0.809435   -1.790817   -0.058097
      4          1           0       -0.413356    0.237272   -1.631615
      5          6           0        2.115239    0.487384   -0.784196
      6          1           0        3.008972    0.002712   -0.389435
      7          1           0        2.231451    1.570718   -0.681107
      8          1           0        1.980560    0.202243   -1.830040
      9          7           0        1.157929    0.448924    1.404525
     10          1           0        0.298518    0.378938    1.936331
     11          1           0        1.455617    1.451407    1.399293
     12          7           0       -0.499942    1.997198   -0.469504
     13          1           0        0.229974    2.454384    0.126829
     14          1           0       -0.513413    2.448661   -1.371947
     15          7           0       -1.594939   -0.075566    0.015201
     16          8           0       -1.762680    0.019094    1.228362
     17          8           0       -2.378463   -0.629119   -0.757144
     18          1           0        1.552131    3.110824    0.932124
 ---------------------------------------------------------------------

 SCF Done:  E(RHF) =  -893.552364580     A.U. after    2 cycles

 The electronic state is 1-A.
 Alpha  occ. eigenvalues --  -99.74822 -20.97397 -20.96992 -15.85781 -15.60784
 Alpha  occ. eigenvalues --  -15.58882 -11.41028 -11.35812 -11.26187 -10.32186
 Alpha  occ. eigenvalues --   -9.52237  -9.51626  -9.51397  -1.86261  -1.56485
 Alpha  occ. eigenvalues --   -1.32424  -1.20792  -1.13548  -0.99295  -0.96499
 Alpha  occ. eigenvalues --   -0.77764  -0.68889  -0.60197  -0.58777  -0.58273
 Alpha  occ. eigenvalues --   -0.53139  -0.50083  -0.47918  -0.46708  -0.43175
 Alpha  occ. eigenvalues --   -0.40851  -0.40509  -0.38726  -0.35720  -0.34402
 Alpha  occ. eigenvalues --   -0.27473  -0.25304  -0.20177  -0.19103  -0.18653
 Alpha  occ. eigenvalues --   -0.12589
 Alpha virt. eigenvalues --    0.13132   0.14148   0.14606   0.15510   0.16997
 Alpha virt. eigenvalues --    0.17329   0.17517   0.19901   0.21188   0.21380
 Alpha virt. eigenvalues --    0.21863   0.23234   0.24165   0.24440   0.25149

 Mulliken charges:
               1
     1  C    3.570693
     2  C    0.682511
     3  Cl  -0.257965
     4  H    1.903022
     5  C   -3.854848
     6  H    1.151277
     7  H    1.379266
     8  H    1.068883
     9  N   -3.830239
    10  H    0.771791
    11  H    0.711159
    12  N   -3.094172
    13  H    0.869471
    14  H    0.493687
    15  N    4.343191
    16  O   -2.878137
    17  O   -2.857518
    18  H   -1.172073
 Sum of Mulliken charges =  -1.00000

 Dipole moment (field-independent basis, Debye):
    X=             -3.0123    Y=             -5.9408    Z=             -4.0295  Tot=              7.7849

 Test job not archived.
 1\1\GINC-SE016\SP\RHF\Aug-CC-pVDZ\C3H9Cl1N3O2(1-)\OHZDE\09-Apr-2025\0\
 \#t hf aug-cc-pvdz iop(5/13=1,5/36=2,99/5=2) pseudo=read geom=check gu
 ess=(read,tcheck) scf=(maxcycle=1)\\title\\-1,1\C,0,-0.033595,0.006795
 ,-0.045966\C,0,-0.287577,-0.08172,-1.566477\Cl,0,1.823216,0.018429,0.1
 29589\H,0,0.179429,0.770545,-2.065088\C,0,-0.531515,1.350426,0.45141\H
 ,0,-0.229635,1.464384,1.493228\H,0,-1.624857,1.339635,0.40417\H,0,-0.1
 18737,2.172769,-0.137318\N,0,-0.587662,-1.019046,0.752857\H,0,-0.44900
 8,-1.918533,0.307884\H,0,-1.616694,-0.844871,0.819\N,0,-1.663061,-0.24

 Normal termination of Gaussian 16 at Wed Apr  9 02:56:44 2025.
