 Gaussian 16, Revision C.01,

 ----------------------------------------------------------------------
 #t hf aug-cc-pvdz symm=none int=(grid=ultrafine) guess=(read,tcheck) s
 table=(opt,rrhf)
 ----------------------------------------------------------------------
 -----
 title
 -----
 Symbolic Z-matrix:
 Charge = -1 Multiplicity = 1

 SCF Done:  E(RHF) =  -1295.25276411     A.U. after   17 cycles
 Normal termination of Gaussian 16 at Wed Apr  9 03:00:46 2025.
 Gaussian 16:  ES64L-G16RevC.01  3-Jul-2019

 ----------------------------------------------------------------------
 #t hf aug-cc-pvdz iop(5/13=1,5/36=2,99/5=2) pseudo=read geom=check gue
 ss=(read,tcheck) scf=(maxcycle=1)
 ----------------------------------------------------------------------
 -----
 title
 -----
 Structure from the checkpoint file:  "E2SN2_56_mol1.chk"
 Charge = -1 Multiplicity = 1

                         Standard orientation:
 ---------------------------------------------------------------------
 Center     Atomic      Atomic             Coordinates (Angstroms)
 Number     Number       Type             X           Y           Z
 ---------------------------------------------------------------------
      1          6           0       -0.518366   -0.011957   -0.449009
      2          6           0        0.432762   -0.810931    0.181047
      3         17           0       -2.680645   -0.793726   -0.232975
      4         17           0        3.053061    0.379737   -0.346114
      5          1           0        1.571343   -0.058043   -0.206730
      6          1           0       -0.559462   -0.031706   -1.528659
      7          6           0        0.737968   -2.109025   -0.523346
      8          1           0        0.799237   -1.969324   -1.604494
      9          1           0        1.695952   -2.507427   -0.178329
     10          1           0       -0.057311   -2.823779   -0.292506
     11          7           0        0.522734   -0.919442    1.593191
     12          1           0        0.166674   -0.085525    2.040561
     13          1           0        1.490266   -1.064588    1.859429
     14          7           0       -0.765111    1.343705    0.024367
     15          8           0       -1.018867    2.189431   -0.836245
     16          8           0       -0.688047    1.585549    1.233765
 ---------------------------------------------------------------------

 SCF Done:  E(RHF) =  -1297.47220687     A.U. after    2 cycles

 The electronic state is 1-A.
 Alpha  occ. eigenvalues --  -99.70404 -99.67778 -20.98617 -20.98033 -15.88567
 Alpha  occ. eigenvalues --  -15.62318 -11.42230 -11.32432 -11.26751 -10.27349
 Alpha  occ. eigenvalues --  -10.24595  -9.47381  -9.46824  -9.46788  -9.44681
 Alpha  occ. eigenvalues --   -9.44183  -9.44081  -1.87698  -1.57510  -1.27156
 Alpha  occ. eigenvalues --   -1.10547  -1.08479  -1.03092  -0.97675  -0.79977
 Alpha  occ. eigenvalues --   -0.68808  -0.60242  -0.58859  -0.56463  -0.52724
 Alpha  occ. eigenvalues --   -0.50469  -0.44987  -0.43576  -0.41245  -0.38746
 Alpha  occ. eigenvalues --   -0.36612  -0.34492  -0.33930  -0.31698  -0.31276
 Alpha  occ. eigenvalues --   -0.29652  -0.24428  -0.20170  -0.19975  -0.16565
 Alpha virt. eigenvalues --    0.13338   0.14660   0.14913   0.15299   0.16315
 Alpha virt. eigenvalues --    0.16662   0.17185   0.18579   0.20630   0.22019
 Alpha virt. eigenvalues --    0.23664   0.24570   0.25246   0.26094   0.26148

 Mulliken charges:
               1
     1  C   -1.180580
     2  C    3.602361
     3  Cl  -0.564503
     4  Cl  -0.954209
     5  H    1.602318
     6  H    1.613995
     7  C   -4.711813
     8  H    1.075848
     9  H    1.217476
    10  H    1.175256
    11  N   -3.551675
    12  H    0.760505
    13  H    0.500411
    14  N    3.987751
    15  O   -2.758082
    16  O   -2.815058
 Sum of Mulliken charges =  -1.00000

 Dipole moment (field-independent basis, Debye):
    X=              1.2969    Y=             -0.1611    Z=              0.8641  Tot=              1.5667

 Test job not archived.
 1\1\GINC-SE080\SP\RHF\Aug-CC-pVDZ\C3H7Cl2N2O2(1-)\OHZDE\09-Apr-2025\0\
 \#t hf aug-cc-pvdz iop(5/13=1,5/36=2,99/5=2) pseudo=read geom=check gu
 ess=(read,tcheck) scf=(maxcycle=1)\\title\\-1,1\C,0,-0.33003697,0.0104
 6172,-0.26396492\C,0,-0.06373518,0.0044961,1.103157\Cl,0,1.56574712,-0
 .05000539,-1.58139764\Cl,0,-2.63486313,0.17906903,2.48893372\H,0,-1.41
 098677,0.09496118,1.53939706\H,0,-0.67654418,0.93313208,-0.70706312\C,
 0,0.46606709,1.30544905,1.65197327\H,0,-0.05727156,2.16101096,1.220368
 57\H,0,0.33179602,1.33803831,2.73659457\H,0,1.53197247,1.3727689,1.415

 Normal termination of Gaussian 16 at Wed Apr  9 03:00:54 2025.
