 Gaussian 16, Revision C.01,

 ----------------------------------------------------------------------
 #t hf aug-cc-pvdz symm=none int=(grid=ultrafine) guess=(read,tcheck) s
 table=(opt,rrhf)
 ----------------------------------------------------------------------
 -----
 title
 -----
 Symbolic Z-matrix:
 Charge = -1 Multiplicity = 1

 SCF Done:  E(RHF) =  -682.852565524     A.U. after   16 cycles
 Normal termination of Gaussian 16 at Wed Apr  9 02:52:41 2025.
 Gaussian 16:  ES64L-G16RevC.01  3-Jul-2019

 ----------------------------------------------------------------------
 #t hf aug-cc-pvdz iop(5/13=1,5/36=2,99/5=2) pseudo=read geom=check gue
 ss=(read,tcheck) scf=(maxcycle=1)
 ----------------------------------------------------------------------
 -----
 title
 -----
 Structure from the checkpoint file:  "E2SN2_320_mol1.chk"
 Charge = -1 Multiplicity = 1

                         Standard orientation:
 ---------------------------------------------------------------------
 Center     Atomic      Atomic             Coordinates (Angstroms)
 Number     Number       Type             X           Y           Z
 ---------------------------------------------------------------------
      1          6           0       -0.820245    0.170197    0.234363
      2          1           0        0.784475    0.793073    1.448534
      3          9           0       -1.198842    1.000598   -1.287533
      4          9           0       -0.509029   -0.874298    1.678355
      5          6           0        0.615760    0.711860    0.381269
      6          6           0       -1.178379   -1.069806   -0.451271
      7          7           0       -1.544760   -2.064781   -0.957750
      8          7           0       -1.789512    0.947976    0.954466
      9          1           0       -2.131122    0.358172    1.700593
     10          1           0       -2.521537    1.188945    0.301828
     11          7           0        0.937522    1.946337   -0.279229
     12          1           0        0.557216    2.684951    0.299787
     13          1           0        0.390638    1.940638   -1.135245
     14          7           0        1.611268   -0.306680   -0.089386
     15          8           0        2.472832   -0.680451    0.703640
     16          8           0        1.538009   -0.649043   -1.268109
 ---------------------------------------------------------------------

 SCF Done:  E(RHF) =  -685.682688041     A.U. after    2 cycles

 The electronic state is 1-A.
 Alpha  occ. eigenvalues --  -29.00834 -28.98922 -20.96280 -20.95968 -15.85322
 Alpha  occ. eigenvalues --  -15.62980 -15.62280 -15.61649 -11.52275 -11.37001
 Alpha  occ. eigenvalues --  -11.30740  -1.85419  -1.55402  -1.32027  -1.23049
 Alpha  occ. eigenvalues --   -1.14764  -1.01979  -0.90825  -0.74760  -0.67824
 Alpha  occ. eigenvalues --   -0.61796  -0.59391  -0.56145  -0.50665  -0.48634
 Alpha  occ. eigenvalues --   -0.46199  -0.43988  -0.42000  -0.39854  -0.35469
 Alpha  occ. eigenvalues --   -0.32680  -0.30013  -0.27142  -0.26453  -0.20819
 Alpha  occ. eigenvalues --   -0.18049  -0.17761  -0.15995  -0.07430  -0.06368
 Alpha  occ. eigenvalues --   -0.05480  -0.04873   0.00152
 Alpha virt. eigenvalues --    0.13534   0.13987   0.15604   0.16194   0.17198
 Alpha virt. eigenvalues --    0.19852   0.22279   0.22772   0.23404   0.24492
 Alpha virt. eigenvalues --    0.24966   0.25664   0.27004   0.27394   0.28648

 Mulliken charges:
               1
     1  C    5.444786
     2  H    1.733461
     3  F   -0.460090
     4  F   -0.453378
     5  C    0.251448
     6  C    2.053033
     7  N   -3.164537
     8  N   -3.865473
     9  H    0.524027
    10  H    0.454998
    11  N   -2.977388
    12  H    0.509246
    13  H    0.280015
    14  N    4.658926
    15  O   -2.920237
    16  O   -3.068837
 Sum of Mulliken charges =  -1.00000

 Dipole moment (field-independent basis, Debye):
    X=              0.3236    Y=              3.6786    Z=              1.1263  Tot=              3.8607

 Test job not archived.
 1\1\GINC-SE459\SP\RHF\Aug-CC-pVDZ\C3H5F2N4O2(1-)\OHZDE\09-Apr-2025\0\\
 #t hf aug-cc-pvdz iop(5/13=1,5/36=2,99/5=2) pseudo=read geom=check gue
 ss=(read,tcheck) scf=(maxcycle=1)\\title\\-1,1\C,0,0.68778246,0.015289
 37,0.06478266\H,0,1.60802217,1.89069178,0.33559228\F,0,-0.96986302,-0.
 28529728,0.62239153\F,0,2.32840746,0.17224718,-0.68130958\C,0,0.607979
 37,1.55482647,0.08815753\C,0,0.36095113,-0.81988239,-1.08917989\N,0,0.
 14551728,-1.55769355,-1.97797339\N,0,1.24303991,-0.53593682,1.26927639
 \H,0,2.13300047,-0.94088006,1.01380909\H,0,0.59484926,-1.23489064,1.60

 Normal termination of Gaussian 16 at Wed Apr  9 02:52:49 2025.
