 Gaussian 16, Revision C.01,

 ----------------------------------------------------------------------
 #t hf aug-cc-pvdz symm=none int=(grid=ultrafine) guess=(read,tcheck) s
 table=(opt,rrhf)
 ----------------------------------------------------------------------
 -----
 title
 -----
 Symbolic Z-matrix:
 Charge = -1 Multiplicity = 1

 SCF Done:  E(RHF) =  -419.416144305     A.U. after   17 cycles
 Normal termination of Gaussian 16 at Wed Apr  9 02:57:58 2025.
 Gaussian 16:  ES64L-G16RevC.01  3-Jul-2019

 ----------------------------------------------------------------------
 #t hf aug-cc-pvdz iop(5/13=1,5/36=2,99/5=2) pseudo=read geom=check gue
 ss=(read,tcheck) scf=(maxcycle=1)
 ----------------------------------------------------------------------
 -----
 title
 -----
 Structure from the checkpoint file:  "E2SN2_393_mol1.chk"
 Charge = -1 Multiplicity = 1

                         Standard orientation:
 ---------------------------------------------------------------------
 Center     Atomic      Atomic             Coordinates (Angstroms)
 Number     Number       Type             X           Y           Z
 ---------------------------------------------------------------------
      1          6           0        0.330166   -0.389002   -0.272096
      2          1           0       -1.217095    0.233379   -1.607607
      3          9           0        0.121472   -0.719564    1.345783
      4          1           0        0.872766    0.191143   -1.968715
      5          6           0       -1.034218    0.284496   -0.537712
      6          7           0        0.492864   -1.768567   -0.675438
      7          1           0        0.993098   -2.226318    0.077544
      8          1           0        1.040563   -1.775480   -1.522128
      9          6           0        1.503679    0.444624   -0.121488
     10          7           0        2.448612    1.058266    0.243494
     11          6           0       -0.969347    1.747322   -0.105168
     12          1           0       -0.730474    1.803200    0.959813
     13          1           0       -0.207371    2.292006   -0.667549
     14          1           0       -1.938250    2.230607   -0.277102
     15          7           0       -2.113252   -0.469629    0.123642
     16          1           0       -2.907899    0.154642    0.217493
     17          1           0       -1.777835   -0.692230    1.053099
 ---------------------------------------------------------------------

 SCF Done:  E(RHF) =  -421.334713192     A.U. after    2 cycles

 The electronic state is 1-A.
 Alpha  occ. eigenvalues --  -29.01828 -15.59676 -15.58154 -15.57787 -11.43522
 Alpha  occ. eigenvalues --  -11.30082 -11.28662 -11.23415  -1.27892  -1.17498
 Alpha  occ. eigenvalues --   -1.11108  -0.96983  -0.87110  -0.73341  -0.62877
 Alpha  occ. eigenvalues --   -0.55235  -0.52234  -0.46864  -0.44812  -0.41495
 Alpha  occ. eigenvalues --   -0.40009  -0.36322  -0.35184  -0.34893  -0.29893
 Alpha  occ. eigenvalues --   -0.25857  -0.22947  -0.20988  -0.16584  -0.07677
 Alpha  occ. eigenvalues --   -0.06814  -0.06098
 Alpha virt. eigenvalues --    0.13192   0.14360   0.14906   0.15564   0.16297
 Alpha virt. eigenvalues --    0.16749   0.17615   0.18018   0.19726   0.21110
 Alpha virt. eigenvalues --    0.23488   0.24921   0.25515   0.25955   0.26541

 Mulliken charges:
               1
     1  C    2.345278
     2  H    1.753216
     3  F   -0.192202
     4  H   -0.715914
     5  C   -0.374146
     6  N   -3.294757
     7  H    0.427717
     8  H    0.632027
     9  C    3.313793
    10  N   -3.052363
    11  C   -3.577505
    12  H    1.222217
    13  H    1.369256
    14  H    1.011969
    15  N   -2.866268
    16  H    0.578764
    17  H    0.418918
 Sum of Mulliken charges =  -1.00000

 Dipole moment (field-independent basis, Debye):
    X=             -4.6855    Y=             -1.5163    Z=              5.7359  Tot=              7.5600

 Test job not archived.
 1\1\GINC-SE058\SP\RHF\Aug-CC-pVDZ\C4H9F1N3(1-)\OHZDE\09-Apr-2025\0\\#t
  hf aug-cc-pvdz iop(5/13=1,5/36=2,99/5=2) pseudo=read geom=check guess
 =(read,tcheck) scf=(maxcycle=1)\\title\\-1,1\C,0,0.43626876,-0.0305153
 6,-0.09036533\H,0,1.6409621,1.71390299,-0.35622306\F,0,-1.21286066,-0.
 0959394,-0.30587912\H,0,2.21494134,-0.14636749,0.48617892\C,0,0.601777
 89,1.50492708,-0.11714774\N,0,0.76228366,-0.76654338,-1.29216918\H,0,0
 .03709616,-1.46582177,-1.40109629\H,0,1.6592617,-1.20394672,-1.1472069
 4\C,0,0.46460636,-0.71449986,1.18482537\N,0,0.24177653,-1.30665248,2.1

 Normal termination of Gaussian 16 at Wed Apr  9 02:58:05 2025.
