 Gaussian 16, Revision C.01,

 ----------------------------------------------------------------------
 #t hf aug-cc-pvdz symm=none int=(grid=ultrafine) guess=(read,tcheck) s
 table=(opt,rrhf)
 ----------------------------------------------------------------------
 -----
 title
 -----
 Symbolic Z-matrix:
 Charge = -1 Multiplicity = 1

 SCF Done:  E(RHF) =  -531.193900341     A.U. after   17 cycles
 Normal termination of Gaussian 16 at Wed Apr  9 02:59:35 2025.
 Gaussian 16:  ES64L-G16RevC.01  3-Jul-2019

 ----------------------------------------------------------------------
 #t hf aug-cc-pvdz iop(5/13=1,5/36=2,99/5=2) pseudo=read geom=check gue
 ss=(read,tcheck) scf=(maxcycle=1)
 ----------------------------------------------------------------------
 -----
 title
 -----
 Structure from the checkpoint file:  "E2SN2_410_mol1.chk"
 Charge = -1 Multiplicity = 1

                         Standard orientation:
 ---------------------------------------------------------------------
 Center     Atomic      Atomic             Coordinates (Angstroms)
 Number     Number       Type             X           Y           Z
 ---------------------------------------------------------------------
      1          6           0       -1.090656   -0.062434   -0.147466
      2          1           0        0.314227    0.198016   -1.720770
      3          9           0       -0.513707   -0.785640    1.206026
      4          1           0       -1.743282    0.793348   -1.656269
      5          6           0        0.249722    0.482044   -0.676601
      6          7           0       -1.946167    0.832797    0.617288
      7          1           0       -2.222627    0.331723    1.453774
      8          1           0       -2.735904    1.073768    0.041908
      9          7           0       -1.540104   -1.306084   -0.744312
     10          1           0       -2.341500   -1.112300   -1.320270
     11          1           0       -1.766333   -1.933114    0.018454
     12          7           0        1.439972   -0.248446   -0.057188
     13          8           0        2.036200    0.251343    0.895591
     14          8           0        1.763152   -1.312287   -0.585738
     15          6           0        0.442225    1.963826   -0.452188
     16          1           0        0.403786    2.187104    0.611996
     17          1           0        1.405888    2.291005   -0.854976
     18          1           0       -0.369362    2.480279   -0.959894
 ---------------------------------------------------------------------

 SCF Done:  E(RHF) =  -533.551697963     A.U. after    2 cycles

 The electronic state is 1-A.
 Alpha  occ. eigenvalues --  -29.01159 -20.93378 -20.93193 -15.82269 -15.58805
 Alpha  occ. eigenvalues --  -15.58611 -11.46571 -11.32159 -11.23452  -1.82607
 Alpha  occ. eigenvalues --   -1.52642  -1.28641  -1.11196  -1.08172  -0.86985
 Alpha  occ. eigenvalues --   -0.79234  -0.67962  -0.59611  -0.54347  -0.51875
 Alpha  occ. eigenvalues --   -0.51292  -0.48941  -0.45087  -0.43753  -0.39484
 Alpha  occ. eigenvalues --   -0.37655  -0.35739  -0.34429  -0.26079  -0.22287
 Alpha  occ. eigenvalues --   -0.19681  -0.16625  -0.16532  -0.14850  -0.07454
 Alpha  occ. eigenvalues --   -0.05790  -0.05183
 Alpha virt. eigenvalues --    0.13817   0.14401   0.14667   0.15730   0.16325
 Alpha virt. eigenvalues --    0.16687   0.16788   0.18246   0.19540   0.23118
 Alpha virt. eigenvalues --    0.24988   0.25291   0.26003   0.27149   0.27488

 Mulliken charges:
               1
     1  C    3.675730
     2  H    2.293126
     3  F   -0.145058
     4  H   -0.908924
     5  C   -1.274539
     6  N   -2.996223
     7  H    0.406338
     8  H    0.626755
     9  N   -3.255223
    10  H    0.598341
    11  H    0.380067
    12  N    4.630278
    13  O   -2.915248
    14  O   -3.007992
    15  C   -2.907167
    16  H    1.322361
    17  H    1.129794
    18  H    1.347584
 Sum of Mulliken charges =  -1.00000

 Dipole moment (field-independent basis, Debye):
    X=              1.8962    Y=             -1.9431    Z=              5.0706  Tot=              5.7517

 Test job not archived.
 1\1\GINC-SE177\SP\RHF\Aug-CC-pVDZ\C3H9F1N3O2(1-)\OHZDE\09-Apr-2025\0\\
 #t hf aug-cc-pvdz iop(5/13=1,5/36=2,99/5=2) pseudo=read geom=check gue
 ss=(read,tcheck) scf=(maxcycle=1)\\title\\-1,1\C,0,0.50747041,-0.11364
 19,0.04156765\H,0,1.46028263,1.65967235,0.72297882\F,0,-1.04327582,-0.
 31897475,0.53234459\H,0,2.2459738,0.12813337,-0.55334466\C,0,0.5609960
 5,1.42079833,0.16678987\N,0,0.23805701,-0.69081942,-1.26704602\H,0,-0.
 49036402,-1.38366701,-1.13828586\H,0,1.0925741,-1.09874736,-1.60794227
 \N,0,1.06675972,-0.85234605,1.15799245\H,0,1.92020552,-1.29009563,0.85

 Normal termination of Gaussian 16 at Wed Apr  9 02:59:43 2025.
