 Gaussian 16, Revision C.01,

 ----------------------------------------------------------------------
 #t hf aug-cc-pvdz symm=none int=(grid=ultrafine) guess=(read,tcheck) s
 table=(opt,rrhf)
 ----------------------------------------------------------------------
 -----
 title
 -----
 Symbolic Z-matrix:
 Charge = -1 Multiplicity = 1

 SCF Done:  E(RHF) =  -974.235334644     A.U. after   16 cycles
 Normal termination of Gaussian 16 at Wed Apr  9 02:56:50 2025.
 Gaussian 16:  ES64L-G16RevC.01  3-Jul-2019

 ----------------------------------------------------------------------
 #t hf aug-cc-pvdz iop(5/13=1,5/36=2,99/5=2) pseudo=read geom=check gue
 ss=(read,tcheck) scf=(maxcycle=1)
 ----------------------------------------------------------------------
 -----
 title
 -----
 Structure from the checkpoint file:  "E2SN2_350_mol1.chk"
 Charge = -1 Multiplicity = 1

                         Standard orientation:
 ---------------------------------------------------------------------
 Center     Atomic      Atomic             Coordinates (Angstroms)
 Number     Number       Type             X           Y           Z
 ---------------------------------------------------------------------
      1          6           0        0.641920    0.341564    0.354879
      2          1           0       -0.005860   -0.854690   -1.346791
      3          9           0       -0.954637    1.410321    1.049847
      4         17           0        2.340511   -0.863222   -0.627558
      5          6           0       -0.384946   -0.044432   -0.725650
      6          6           0        0.766057   -0.387243    1.670670
      7          1           0       -0.028719   -0.031154    2.321960
      8          1           0        0.695557   -1.462215    1.548220
      9          1           0        1.740748   -0.151266    2.100486
     10          6           0        1.402430    1.643846    0.219049
     11          1           0        2.424280    1.507832    0.569440
     12          1           0        1.425758    1.961398   -0.820419
     13          1           0        0.887574    2.387219    0.823838
     14          7           0       -0.734835    1.078632   -1.517398
     15          1           0       -1.147602    1.727910   -0.851011
     16          1           0       -1.431023    0.808834   -2.198756
     17          7           0       -1.640067   -0.702948   -0.097031
     18          8           0       -2.739385   -0.293088   -0.455451
     19          8           0       -1.471378   -1.689935    0.612977
 ---------------------------------------------------------------------

 SCF Done:  E(RHF) =  -976.747974663     A.U. after    2 cycles

 The electronic state is 1-A.
 Alpha  occ. eigenvalues --  -99.65766 -28.94298 -20.95425 -20.95161 -15.84330
 Alpha  occ. eigenvalues --  -15.61044 -11.42133 -11.35083 -11.25541 -11.23747
 Alpha  occ. eigenvalues --  -10.22810  -9.42944  -9.42518  -9.42385  -1.84791
 Alpha  occ. eigenvalues --   -1.54916  -1.27373  -1.11069  -1.01378  -0.96445
 Alpha  occ. eigenvalues --   -0.89613  -0.76364  -0.67784  -0.59734  -0.56710
 Alpha  occ. eigenvalues --   -0.51766  -0.50682  -0.49960  -0.46139  -0.44017
 Alpha  occ. eigenvalues --   -0.42546  -0.41101  -0.35638  -0.34797  -0.32548
 Alpha  occ. eigenvalues --   -0.30202  -0.29631  -0.29458  -0.28489  -0.20250
 Alpha  occ. eigenvalues --   -0.17856  -0.16272  -0.05132  -0.02165  -0.01817
 Alpha virt. eigenvalues --    0.13871   0.14505   0.15001   0.15549   0.15945
 Alpha virt. eigenvalues --    0.16384   0.16986   0.17580   0.18627   0.21384
 Alpha virt. eigenvalues --    0.22882   0.23346   0.24423   0.25743   0.26034

 Mulliken charges:
               1
     1  C    5.810544
     2  H    1.563606
     3  F   -0.874577
     4  Cl  -0.814484
     5  C   -2.072683
     6  C   -4.777218
     7  H    1.146248
     8  H    1.320475
     9  H    1.119863
    10  C   -4.786789
    11  H    1.164662
    12  H    1.178095
    13  H    1.154472
    14  N   -2.597379
    15  H    0.406366
    16  H    0.628586
    17  N    5.577434
    18  O   -2.864923
    19  O   -3.282298
 Sum of Mulliken charges =  -1.00000

 Dipole moment (field-independent basis, Debye):
    X=             -4.6536    Y=              2.9173    Z=              1.5745  Tot=              5.7136

 Test job not archived.
 1\1\GINC-SE083\SP\RHF\Aug-CC-pVDZ\C4H9Cl1F1N2O2(1-)\OHZDE\09-Apr-2025\
 0\\#t hf aug-cc-pvdz iop(5/13=1,5/36=2,99/5=2) pseudo=read geom=check
 guess=(read,tcheck) scf=(maxcycle=1)\\title\\-1,1\C,0,0.75869611,-0.06
 459573,0.01656927\H,0,1.85272035,1.80644729,-0.20396494\F,0,-1.2399091
 9,0.35119576,0.09969932\Cl,0,3.04613525,-0.32793952,0.00335521\C,0,0.8
 4059789,1.47302147,0.02070376\C,0,0.56896596,-0.87569687,-1.24199886\H
 ,0,-0.48533988,-0.83512708,-1.50551493\H,0,1.17359821,-0.50271354,-2.0
 6104171\H,0,0.86664096,-1.90432552,-1.03280627\C,0,0.618796,-0.8000405

 Normal termination of Gaussian 16 at Wed Apr  9 02:57:04 2025.
