 Gaussian 16, Revision C.01,

 ----------------------------------------------------------------------
 #t hf aug-cc-pvdz symm=none int=(grid=ultrafine) guess=(read,tcheck) s
 table=(opt,rrhf)
 ----------------------------------------------------------------------
 -----
 title
 -----
 Symbolic Z-matrix:
 Charge = -1 Multiplicity = 1

 SCF Done:  E(RHF) =  -572.805811426     A.U. after   16 cycles
 Normal termination of Gaussian 16 at Wed Apr  9 02:37:40 2025.
 Gaussian 16:  ES64L-G16RevC.01  3-Jul-2019

 ----------------------------------------------------------------------
 #t hf aug-cc-pvdz iop(5/13=1,5/36=2,99/5=2) pseudo=read geom=check gue
 ss=(read,tcheck) scf=(maxcycle=1)
 ----------------------------------------------------------------------
 -----
 title
 -----
 Structure from the checkpoint file:  "E2SN2_165_mol2.chk"
 Charge = -1 Multiplicity = 1

                         Standard orientation:
 ---------------------------------------------------------------------
 Center     Atomic      Atomic             Coordinates (Angstroms)
 Number     Number       Type             X           Y           Z
 ---------------------------------------------------------------------
      1          6           0        0.258698    1.247614   -0.620262
      2          6           0        0.179709    0.023629    0.271988
      3          9           0       -0.792367    2.109046   -0.279474
      4          1           0        0.390839    0.295786    1.299079
      5          1           0        0.133184    0.973876   -1.669007
      6          1           0        1.225800    1.686048   -0.386844
      7          6           0        1.092083   -1.030071   -0.161668
      8          7           0        1.560019   -2.016674   -0.600630
      9          7           0       -1.235666   -0.523490    0.209602
     10          8           0       -1.695480   -0.796586   -0.896371
     11          8           0       -1.836851   -0.648176    1.275443
     12          9           0        2.465190    0.661678    0.670701
 ---------------------------------------------------------------------

 SCF Done:  E(RHF) =  -575.108712046     A.U. after    2 cycles

 The electronic state is 1-A.
 Alpha  occ. eigenvalues --  -29.14288 -28.90195 -20.98836 -20.98438 -15.87726
 Alpha  occ. eigenvalues --  -15.62697 -11.39751 -11.33728 -11.30823  -1.87686
 Alpha  occ. eigenvalues --   -1.57745  -1.21866  -1.12405  -0.96770  -0.79340
 Alpha  occ. eigenvalues --   -0.64126  -0.61187  -0.57305  -0.53795  -0.50562
 Alpha  occ. eigenvalues --   -0.47395  -0.45065  -0.38346  -0.36032  -0.30843
 Alpha  occ. eigenvalues --   -0.27440  -0.24847  -0.23894  -0.20516  -0.20309
 Alpha  occ. eigenvalues --   -0.14429  -0.14088   0.00781   0.01192   0.02720
 Alpha virt. eigenvalues --    0.14942   0.16895   0.17670   0.20453   0.22073
 Alpha virt. eigenvalues --    0.22413   0.23099   0.23937   0.24454   0.25706
 Alpha virt. eigenvalues --    0.26556   0.27553   0.28102   0.29586   0.31190

 Mulliken charges:
               1
     1  C   -1.754081
     2  C   -2.443462
     3  F    0.099081
     4  H    1.799379
     5  H    1.464241
     6  H    1.017257
     7  C    3.938422
     8  N   -3.078750
     9  N    4.560198
    10  O   -2.952168
    11  O   -2.729717
    12  F   -0.920399
 Sum of Mulliken charges =  -1.00000

 Dipole moment (field-independent basis, Debye):
    X=             -6.4986    Y=              3.3819    Z=             -0.2741  Tot=              7.3311

 Test job not archived.
 1\1\GINC-SE070\SP\RHF\Aug-CC-pVDZ\C3H3F2N2O2(1-)\OHZDE\09-Apr-2025\0\\
 #t hf aug-cc-pvdz iop(5/13=1,5/36=2,99/5=2) pseudo=read geom=check gue
 ss=(read,tcheck) scf=(maxcycle=1)\\title\\-1,1\C,0,-0.103744,-0.222487
 ,0.030773\C,0,-0.496419,-0.200394,-1.434084\F,0,1.277018,-0.002115,0.1
 19496\H,0,-0.366632,0.795298,-1.840674\H,0,-0.310759,-1.197413,0.47486
 3\H,0,-0.667728,0.596325,0.470619\C,0,-1.870878,-0.646986,-1.639474\N,
 0,-2.834956,-1.259964,-1.922051\N,0,0.423311,-1.143111,-2.190324\O,0,0
 .491131,-2.307766,-1.805401\O,0,1.052225,-0.674033,-3.137647\F,0,-2.05

 Normal termination of Gaussian 16 at Wed Apr  9 02:37:45 2025.
