 Gaussian 16, Revision C.01,

 ----------------------------------------------------------------------
 #t hf aug-cc-pvdz symm=none int=(grid=ultrafine) guess=(read,tcheck) s
 table=(opt,rrhf)
 ----------------------------------------------------------------------
 -----
 title
 -----
 Symbolic Z-matrix:
 Charge = -1 Multiplicity = 1

 SCF Done:  E(RHF) =  -1220.20581449     A.U. after   16 cycles
 Normal termination of Gaussian 16 at Wed Apr  9 02:49:18 2025.
 Gaussian 16:  ES64L-G16RevC.01  3-Jul-2019

 ----------------------------------------------------------------------
 #t hf aug-cc-pvdz iop(5/13=1,5/36=2,99/5=2) pseudo=read geom=check gue
 ss=(read,tcheck) scf=(maxcycle=1)
 ----------------------------------------------------------------------
 -----
 title
 -----
 Structure from the checkpoint file:  "E2SN2_279_mol1.chk"
 Charge = -1 Multiplicity = 1

                         Standard orientation:
 ---------------------------------------------------------------------
 Center     Atomic      Atomic             Coordinates (Angstroms)
 Number     Number       Type             X           Y           Z
 ---------------------------------------------------------------------
      1          6           0        0.076211   -0.479683   -0.224148
      2          1           0       -0.916945    0.569799   -1.806949
      3         17           0        2.432850   -0.133197   -0.060373
      4         17           0       -2.288774   -0.693456   -0.072853
      5          6           0       -0.084061    0.742776   -1.124883
      6          1           0        0.828439    0.877900   -1.705899
      7          6           0        0.059086   -0.377094    1.209298
      8          7           0        0.050084   -0.329891    2.386550
      9          6           0        0.293988   -1.817940   -0.903834
     10          1           0       -0.642547   -2.202887   -1.300878
     11          1           0        1.017489   -1.694575   -1.709052
     12          1           0        0.709751   -2.527893   -0.190379
     13          6           0       -0.344097    1.979706   -0.398177
     14          7           0       -0.543264    3.007630    0.131801
 ---------------------------------------------------------------------

 SCF Done:  E(RHF) =  -1222.12503916     A.U. after    2 cycles

 The electronic state is 1-A.
 Alpha  occ. eigenvalues --  -99.67992 -99.67886 -15.65109 -15.64000 -11.46745
 Alpha  occ. eigenvalues --  -11.37482 -11.33827 -11.32207 -11.29337 -10.24996
 Alpha  occ. eigenvalues --  -10.24868  -9.45038  -9.44930  -9.44628  -9.44567
 Alpha  occ. eigenvalues --   -9.44464  -9.44426  -1.25480  -1.17986  -1.12091
 Alpha  occ. eigenvalues --   -1.04932  -1.03243  -0.97709  -0.84115  -0.64445
 Alpha  occ. eigenvalues --   -0.56866  -0.54661  -0.49704  -0.49482  -0.45044
 Alpha  occ. eigenvalues --   -0.41568  -0.39785  -0.38774  -0.33429  -0.32828
 Alpha  occ. eigenvalues --   -0.32582  -0.31664  -0.30901  -0.30679  -0.30584
 Alpha  occ. eigenvalues --   -0.29590  -0.26183
 Alpha virt. eigenvalues --    0.13046   0.14703   0.14843   0.15356   0.15907
 Alpha virt. eigenvalues --    0.16507   0.18379   0.19668   0.20472   0.21370
 Alpha virt. eigenvalues --    0.21886   0.22662   0.23795   0.24704   0.25099

 Mulliken charges:
               1
     1  C    4.821534
     2  H    1.321081
     3  Cl  -0.664317
     4  Cl  -0.624553
     5  C   -4.217231
     6  H    1.279241
     7  C    1.350457
     8  N   -2.671140
     9  C   -4.691924
    10  H    1.127672
    11  H    1.195186
    12  H    1.153123
    13  C    2.199038
    14  N   -2.578167
 Sum of Mulliken charges =  -1.00000

 Dipole moment (field-independent basis, Debye):
    X=              0.2832    Y=             -1.8803    Z=             -4.3645  Tot=              4.7608

 Test job not archived.
 1\1\GINC-SE149\SP\RHF\Aug-CC-pVDZ\C5H5Cl2N2(1-)\OHZDE\09-Apr-2025\0\\#
 t hf aug-cc-pvdz iop(5/13=1,5/36=2,99/5=2) pseudo=read geom=check gues
 s=(read,tcheck) scf=(maxcycle=1)\\title\\-1,1\C,0,0.57807235,-0.073512
 16,0.01137258\H,0,1.50776077,1.79783655,0.48757346\Cl,0,-1.79675875,-0
 .14839126,0.24630893\Cl,0,2.88992771,-0.0714754,-0.55170895\C,0,0.5755
 0928,1.4531279,0.03933983\H,0,-0.26003325,1.79574593,0.65005751\C,0,0.
 38419468,-0.81334933,-1.20544215\N,0,0.22841552,-1.45154201,-2.1835392
 5\C,0,0.75770252,-0.79091943,1.33552924\H,0,1.80047645,-0.77048484,1.6

 Normal termination of Gaussian 16 at Wed Apr  9 02:49:24 2025.
