 Gaussian 16, Revision C.01,

 ----------------------------------------------------------------------
 #t hf aug-cc-pvdz symm=none int=(grid=ultrafine) guess=(read,tcheck) s
 table=(opt,rrhf)
 ----------------------------------------------------------------------
 -----
 title
 -----
 Symbolic Z-matrix:
 Charge = -1 Multiplicity = 1

 SCF Done:  E(RHF) =  -502.371603562     A.U. after   16 cycles
 Normal termination of Gaussian 16 at Wed Apr  9 02:49:44 2025.
 Gaussian 16:  ES64L-G16RevC.01  3-Jul-2019

 ----------------------------------------------------------------------
 #t hf aug-cc-pvdz iop(5/13=1,5/36=2,99/5=2) pseudo=read geom=check gue
 ss=(read,tcheck) scf=(maxcycle=1)
 ----------------------------------------------------------------------
 -----
 title
 -----
 Structure from the checkpoint file:  "E2SN2_286_mol1.chk"
 Charge = -1 Multiplicity = 1

                         Standard orientation:
 ---------------------------------------------------------------------
 Center     Atomic      Atomic             Coordinates (Angstroms)
 Number     Number       Type             X           Y           Z
 ---------------------------------------------------------------------
      1          6           0       -0.300182   -0.144939    0.225670
      2          1           0        0.716073   -0.180998   -1.610040
      3          9           0       -0.550657    1.649209    0.751787
      4          9           0       -0.408310   -1.846188   -0.345877
      5          6           0        1.000700    0.055296   -0.574258
      6          6           0       -1.558832    0.096530   -0.456501
      7          7           0       -2.566448    0.248455   -1.042283
      8          6           0       -0.259594   -0.507944    1.693020
      9          1           0       -0.002460   -1.557538    1.815430
     10          1           0        0.476982    0.121562    2.187242
     11          1           0       -1.233438   -0.305166    2.137478
     12          7           0        1.988142   -0.906625   -0.061748
     13          1           0        2.804537   -0.860772   -0.662464
     14          1           0        1.552037   -1.814269   -0.186007
     15          6           0        1.621226    1.441633   -0.549951
     16          1           0        0.924273    2.188102   -0.920636
     17          1           0        1.898665    1.715654    0.466218
     18          1           0        2.522269    1.429968   -1.180068
 ---------------------------------------------------------------------

 SCF Done:  E(RHF) =  -504.533728274     A.U. after    2 cycles

 The electronic state is 1-A.
 Alpha  occ. eigenvalues --  -28.97780 -28.94232 -15.59381 -15.58998 -11.43865
 Alpha  occ. eigenvalues --  -11.31400 -11.28933 -11.25550 -11.22980  -1.25265
 Alpha  occ. eigenvalues --   -1.14766  -1.04886  -0.94551  -0.83947  -0.72418
 Alpha  occ. eigenvalues --   -0.59199  -0.57670  -0.51729  -0.45971  -0.44931
 Alpha  occ. eigenvalues --   -0.42450  -0.40439  -0.37522  -0.36097  -0.34146
 Alpha  occ. eigenvalues --   -0.33516  -0.32327  -0.26413  -0.25204  -0.23142
 Alpha  occ. eigenvalues --   -0.12204  -0.04264  -0.03640  -0.01332  -0.01002
 Alpha  occ. eigenvalues --    0.03159
 Alpha virt. eigenvalues --    0.12937   0.14192   0.14894   0.15431   0.15729
 Alpha virt. eigenvalues --    0.16491   0.16813   0.17643   0.18073   0.21040
 Alpha virt. eigenvalues --    0.22263   0.23971   0.24523   0.25453   0.25657

 Mulliken charges:
               1
     1  C    5.367033
     2  H    1.671469
     3  F   -0.651199
     4  F   -0.647360
     5  C   -0.256441
     6  C    1.896283
     7  N   -3.078634
     8  C   -5.686349
     9  H    1.046078
    10  H    1.175399
    11  H    1.287004
    12  N   -3.200178
    13  H    0.589836
    14  H    0.519422
    15  C   -4.383503
    16  H    1.148209
    17  H    1.232809
    18  H    0.970122
 Sum of Mulliken charges =  -1.00000

 Dipole moment (field-independent basis, Debye):
    X=              4.4509    Y=             -0.9474    Z=              0.5809  Tot=              4.5875

 Test job not archived.
 1\1\GINC-SE424\SP\RHF\Aug-CC-pVDZ\C5H9F2N2(1-)\OHZDE\09-Apr-2025\0\\#t
  hf aug-cc-pvdz iop(5/13=1,5/36=2,99/5=2) pseudo=read geom=check guess
 =(read,tcheck) scf=(maxcycle=1)\\title\\-1,1\C,0,0.71510683,-0.0698665
 7,-0.0160874\H,0,1.58485425,1.64610415,-0.85447247\F,0,-0.91711765,-0.
 42054321,-0.89436415\F,0,2.38872429,-0.01513878,0.63860094\C,0,0.72201
 807,1.45950426,-0.19843529\C,0,1.2346871,-0.88367874,-1.10034384\N,0,1
 .70595917,-1.52015772,-1.96885306\C,0,0.11688889,-0.70010428,1.2214387
 4\H,0,0.7907662,-0.58503026,2.06724969\H,0,-0.83674187,-0.22044874,1.4

 Normal termination of Gaussian 16 at Wed Apr  9 02:49:52 2025.
