 Gaussian 16, Revision C.01,

 ----------------------------------------------------------------------
 #t hf aug-cc-pvdz symm=none int=(grid=ultrafine) guess=(read,tcheck) s
 table=(opt,rrhf)
 ----------------------------------------------------------------------
 -----
 title
 -----
 Symbolic Z-matrix:
 Charge = -1 Multiplicity = 1

 SCF Done:  E(RHF) =  -823.516436771     A.U. after   14 cycles
 Normal termination of Gaussian 16 at Wed Apr  9 02:41:05 2025.
 Gaussian 16:  ES64L-G16RevC.01  3-Jul-2019

 ----------------------------------------------------------------------
 #t hf aug-cc-pvdz iop(5/13=1,5/36=2,99/5=2) pseudo=read geom=check gue
 ss=(read,tcheck) scf=(maxcycle=1)
 ----------------------------------------------------------------------
 -----
 title
 -----
 Structure from the checkpoint file:  "E2SN2_192_mol2.chk"
 Charge = -1 Multiplicity = 1

                         Standard orientation:
 ---------------------------------------------------------------------
 Center     Atomic      Atomic             Coordinates (Angstroms)
 Number     Number       Type             X           Y           Z
 ---------------------------------------------------------------------
      1          6           0       -0.331260    0.899592    0.295326
      2          6           0       -0.361744   -0.573572   -0.103735
      3          9           0       -1.209810    1.064719    1.387879
      4          1           0        0.326008   -0.680073   -0.948031
      5          1           0        0.678833    1.103503    0.651285
      6          6           0       -0.736201    1.854410   -0.799161
      7          1           0       -0.029189    1.770938   -1.627312
      8          1           0       -0.711719    2.880313   -0.425251
      9          1           0       -1.745753    1.635045   -1.155072
     10          6           0       -1.720003   -0.946861   -0.539008
     11          7           0       -2.805977   -1.216456   -0.894909
     12          7           0        0.101495   -1.482751    0.936435
     13          1           0        1.116723   -1.388839    0.929926
     14          1           0       -0.243114   -1.141666    1.827182
     15         17           0        2.901360   -0.133450   -0.303227
 ---------------------------------------------------------------------

 SCF Done:  E(RHF) =  -825.361178816     A.U. after    2 cycles

 The electronic state is 1-A.
 Alpha  occ. eigenvalues --  -99.61726 -29.13567 -15.64519 -15.61214 -11.38252
 Alpha  occ. eigenvalues --  -11.35132 -11.31337 -11.27191 -10.18373  -9.38411
 Alpha  occ. eigenvalues --   -9.38061  -9.38004  -1.28587  -1.16238  -1.10344
 Alpha  occ. eigenvalues --   -0.97385  -0.90084  -0.82860  -0.64785  -0.55596
 Alpha  occ. eigenvalues --   -0.54092  -0.51445  -0.45652  -0.43578  -0.42731
 Alpha  occ. eigenvalues --   -0.41902  -0.38147  -0.31923  -0.31396  -0.27105
 Alpha  occ. eigenvalues --   -0.25751  -0.25467  -0.24723  -0.23160  -0.14101
 Alpha  occ. eigenvalues --   -0.13692
 Alpha virt. eigenvalues --    0.12976   0.14562   0.15129   0.15741   0.16612
 Alpha virt. eigenvalues --    0.17523   0.18297   0.19596   0.21533   0.22394
 Alpha virt. eigenvalues --    0.23561   0.24563   0.24779   0.25135   0.26148

 Mulliken charges:
               1
     1  C   -0.107912
     2  C    0.214434
     3  F   -0.078165
     4  H    1.959000
     5  H    1.474555
     6  C   -4.057429
     7  H    1.180621
     8  H    1.148145
     9  H    1.263905
    10  C    1.099673
    11  N   -2.305905
    12  N   -2.803232
    13  H    0.447851
    14  H    0.542463
    15  Cl  -0.978004
 Sum of Mulliken charges =  -1.00000

 Dipole moment (field-independent basis, Debye):
    X=             -7.4371    Y=              2.9761    Z=              3.3219  Tot=              8.6719

 Test job not archived.
 1\1\GINC-SE059\SP\RHF\Aug-CC-pVDZ\C4H7Cl1F1N2(1-)\OHZDE\09-Apr-2025\0\
 \#t hf aug-cc-pvdz iop(5/13=1,5/36=2,99/5=2) pseudo=read geom=check gu
 ess=(read,tcheck) scf=(maxcycle=1)\\title\\-1,1\C,0,-0.124645,-0.08833
 2,0.018542\C,0,-0.552749,-0.014557,-1.444904\F,0,1.251362,0.221374,0.0
 77477\H,0,-1.61999,-0.254658,-1.467916\H,0,-0.663057,0.703785,0.539347
 \C,0,-0.34649,-1.429914,0.670079\H,0,-1.415569,-1.652843,0.676456\H,0,
 0.007964,-1.404678,1.702848\H,0,0.189357,-2.217473,0.134722\C,0,0.1839
 04,-1.018892,-2.233782\N,0,0.772107,-1.835906,-2.838092\N,0,-0.403108,

 Normal termination of Gaussian 16 at Wed Apr  9 02:41:11 2025.
