 Gaussian 16, Revision C.01,

 ----------------------------------------------------------------------
 #t hf aug-cc-pvdz symm=none int=(grid=ultrafine) guess=(read,tcheck) s
 table=(opt,rrhf)
 ----------------------------------------------------------------------
 -----
 title
 -----
 Symbolic Z-matrix:
 Charge = -1 Multiplicity = 1

 SCF Done:  E(RHF) =  -816.225034759     A.U. after   16 cycles
 Normal termination of Gaussian 16 at Wed Apr  9 02:51:56 2025.
 Gaussian 16:  ES64L-G16RevC.01  3-Jul-2019

 ----------------------------------------------------------------------
 #t hf aug-cc-pvdz iop(5/13=1,5/36=2,99/5=2) pseudo=read geom=check gue
 ss=(read,tcheck) scf=(maxcycle=1)
 ----------------------------------------------------------------------
 -----
 title
 -----
 Structure from the checkpoint file:  "E2SN2_310_mol2.chk"
 Charge = -1 Multiplicity = 1

                         Standard orientation:
 ---------------------------------------------------------------------
 Center     Atomic      Atomic             Coordinates (Angstroms)
 Number     Number       Type             X           Y           Z
 ---------------------------------------------------------------------
      1          6           0        0.438024   -0.214311    0.380814
      2          6           0       -0.615698    0.886946    0.139792
      3         17           0        0.312597   -1.482103   -0.949859
      4          1           0       -0.482294    1.488656    1.082652
      5          6           0        1.779349    0.374181    0.223369
      6          7           0        2.841699    0.843585    0.047319
      7          7           0        0.345378   -0.829112    1.661594
      8          1           0        0.339713    0.013219    2.325560
      9          1           0       -0.579749   -1.248686    1.732914
     10          6           0       -1.947738    0.300916    0.192136
     11          7           0       -3.036350   -0.142001    0.226172
     12          6           0       -0.426915    1.730978   -1.116101
     13          1           0       -1.201700    2.499678   -1.166544
     14          1           0        0.544077    2.228942   -1.083185
     15          1           0       -0.481532    1.119237   -2.019567
     16          1           0        0.130112    1.515132    2.810118
 ---------------------------------------------------------------------

 SCF Done:  E(RHF) =  -818.158506742     A.U. after    2 cycles

 The electronic state is 1-A.
 Alpha  occ. eigenvalues --  -99.77946 -15.65905 -15.65296 -15.60812 -11.44252
 Alpha  occ. eigenvalues --  -11.36689 -11.34250 -11.31965 -11.28961 -10.35302
 Alpha  occ. eigenvalues --   -9.55304  -9.54592  -9.54533  -1.34783  -1.19534
 Alpha  occ. eigenvalues --   -1.17518  -1.15820  -1.07772  -0.89842  -0.84084
 Alpha  occ. eigenvalues --   -0.64271  -0.60309  -0.55043  -0.52533  -0.48262
 Alpha  occ. eigenvalues --   -0.46051  -0.45500  -0.43775  -0.41402  -0.39167
 Alpha  occ. eigenvalues --   -0.38598  -0.37310  -0.34264  -0.32474  -0.31277
 Alpha  occ. eigenvalues --   -0.30910  -0.25267  -0.12466
 Alpha virt. eigenvalues --    0.12901   0.14160   0.15135   0.15867   0.16337
 Alpha virt. eigenvalues --    0.17742   0.18769   0.19204   0.20122   0.20993
 Alpha virt. eigenvalues --    0.21870   0.22274   0.22854   0.23678   0.24537

 Mulliken charges:
               1
     1  C    3.250060
     2  C   -0.664869
     3  Cl  -0.177029
     4  H    1.818643
     5  C    1.958178
     6  N   -2.620526
     7  N   -3.650354
     8  H    0.699854
     9  H    0.630816
    10  C    2.133066
    11  N   -2.679214
    12  C   -4.178529
    13  H    1.180139
    14  H    1.149742
    15  H    1.212344
    16  H   -1.062320
 Sum of Mulliken charges =  -1.00000

 Dipole moment (field-independent basis, Debye):
    X=             -0.8434    Y=             -2.6676    Z=             -7.8204  Tot=              8.3058

 Test job not archived.
 1\1\GINC-SE105\SP\RHF\Aug-CC-pVDZ\C5H7Cl1N3(1-)\OHZDE\09-Apr-2025\0\\#
 t hf aug-cc-pvdz iop(5/13=1,5/36=2,99/5=2) pseudo=read geom=check gues
 s=(read,tcheck) scf=(maxcycle=1)\\title\\-1,1\C,0,-0.009399,0.022886,0
 .012475\C,0,-0.55527,-0.061043,-1.428417\Cl,0,1.826518,-0.125739,-0.01
 9742\H,0,-1.660831,-0.077438,-1.213235\C,0,-0.274775,1.37286,0.539173\
 N,0,-0.448469,2.466961,0.929933\N,0,-0.569399,-0.94181,0.897192\H,0,-1
 .623664,-0.808258,0.75195\H,0,-0.349298,-1.863182,0.523538\C,0,-0.2123
 57,-1.355553,-2.000391\N,0,0.05077,-2.390844,-2.491662\C,0,-0.16462,1.

 Normal termination of Gaussian 16 at Wed Apr  9 02:52:04 2025.
