 Gaussian 16, Revision C.01,

 ----------------------------------------------------------------------
 #t hf aug-cc-pvdz symm=none int=(grid=ultrafine) guess=(read,tcheck) s
 table=(opt,rrhf)
 ----------------------------------------------------------------------
 -----
 title
 -----
 Symbolic Z-matrix:
 Charge = -1 Multiplicity = 1

 SCF Done:  E(RHF) =  -456.124142596     A.U. after   17 cycles
 Normal termination of Gaussian 16 at Wed Apr  9 03:01:27 2025.
 Gaussian 16:  ES64L-G16RevC.01  3-Jul-2019

 ----------------------------------------------------------------------
 #t hf aug-cc-pvdz iop(5/13=1,5/36=2,99/5=2) pseudo=read geom=check gue
 ss=(read,tcheck) scf=(maxcycle=1)
 ----------------------------------------------------------------------
 -----
 title
 -----
 Structure from the checkpoint file:  "E2SN2_72_mol1.chk"
 Charge = -1 Multiplicity = 1

                         Standard orientation:
 ---------------------------------------------------------------------
 Center     Atomic      Atomic             Coordinates (Angstroms)
 Number     Number       Type             X           Y           Z
 ---------------------------------------------------------------------
      1          6           0        0.313949    0.047202    0.208644
      2          6           0       -1.050545   -0.093254   -0.345068
      3          9           0        0.362080    0.057745    1.654016
      4          1           0       -1.139223   -0.996578   -2.642657
      5          1           0       -0.951262   -0.310930   -1.564183
      6          6           0        1.162934   -1.097011   -0.177366
      7          7           0        1.850863   -2.004061   -0.468110
      8          6           0       -1.945801    1.108562   -0.119404
      9          1           0       -1.484191    2.043075   -0.455268
     10          1           0       -2.852154    0.948533   -0.710297
     11          1           0       -2.240719    1.214207    0.931263
     12          7           0       -1.686823   -1.337583    0.049430
     13          1           0       -1.235955   -1.775224    0.843017
     14          1           0       -1.627936   -1.952915   -0.769730
     15          6           0        0.968005    1.300953   -0.205579
     16          7           0        1.490455    2.300418   -0.536414
 ---------------------------------------------------------------------

 SCF Done:  E(RHF) =  -458.143703403     A.U. after    2 cycles

 The electronic state is 1-A.
 Alpha  occ. eigenvalues --  -29.16560 -15.68097 -15.67235 -15.59518 -11.48849
 Alpha  occ. eigenvalues --  -11.36517 -11.34976 -11.29452 -11.24957  -1.31207
 Alpha  occ. eigenvalues --   -1.19883  -1.18849  -1.09030  -0.95264  -0.75172
 Alpha  occ. eigenvalues --   -0.70637  -0.68826  -0.57050  -0.51120  -0.45109
 Alpha  occ. eigenvalues --   -0.44622  -0.44445  -0.40499  -0.37597  -0.37097
 Alpha  occ. eigenvalues --   -0.35471  -0.34825  -0.33381  -0.32514  -0.26431
 Alpha  occ. eigenvalues --   -0.22800  -0.17459  -0.16913  -0.08551
 Alpha virt. eigenvalues --    0.13757   0.14791   0.14974   0.15998   0.17356
 Alpha virt. eigenvalues --    0.17778   0.19450   0.20406   0.21771   0.22506
 Alpha virt. eigenvalues --    0.22648   0.23140   0.23853   0.24014   0.24804

 Mulliken charges:
               1
     1  C    3.222424
     2  C   -0.919979
     3  F   -0.027107
     4  H   -0.490894
     5  H    1.757993
     6  C    1.296656
     7  N   -2.562695
     8  C   -4.127169
     9  H    1.220004
    10  H    1.134210
    11  H    1.222294
    12  N   -2.628317
    13  H    0.559091
    14  H    0.469006
    15  C    1.364552
    16  N   -2.490070
 Sum of Mulliken charges =  -1.00000

 Dipole moment (field-independent basis, Debye):
    X=              1.4416    Y=              2.8062    Z=             11.1733  Tot=             11.6101

 Test job not archived.
 1\1\GINC-SE250\SP\RHF\Aug-CC-pVDZ\C5H7F1N3(1-)\OHZDE\09-Apr-2025\0\\#t
  hf aug-cc-pvdz iop(5/13=1,5/36=2,99/5=2) pseudo=read geom=check guess
 =(read,tcheck) scf=(maxcycle=1)\\title\\-1,1\C,0,-0.14337922,0.0292293
 6,-0.37067467\C,0,-0.14368206,0.0545376,1.10835511\F,0,1.17753362,-0.0
 3675369,-0.95579188\H,0,-2.24595894,-0.7203088,2.14893948\H,0,-1.31216
 377,-0.11136109,1.49643901\C,0,-0.82981111,-1.17414332,-0.88029067\N,0
 ,-1.36544716,-2.13034927,-1.30370829\C,0,0.41209507,1.32775492,1.71399
 591\H,0,-0.06535235,2.22650474,1.3096492\H,0,0.20468971,1.2893081,2.78

 Normal termination of Gaussian 16 at Wed Apr  9 03:01:34 2025.
