 Gaussian 16, Revision C.01,

 ----------------------------------------------------------------------
 #t hf aug-cc-pvdz symm=none int=(grid=ultrafine) guess=(read,tcheck) s
 table=(opt,rrhf)
 ----------------------------------------------------------------------
 -----
 title
 -----
 Symbolic Z-matrix:
 Charge = -1 Multiplicity = 1

 SCF Done:  E(RHF) =  -974.329452385     A.U. after   15 cycles
 Normal termination of Gaussian 16 at Wed Apr  9 02:59:51 2025.
 Gaussian 16:  ES64L-G16RevC.01  3-Jul-2019

 ----------------------------------------------------------------------
 #t hf aug-cc-pvdz iop(5/13=1,5/36=2,99/5=2) pseudo=read geom=check gue
 ss=(read,tcheck) scf=(maxcycle=1)
 ----------------------------------------------------------------------
 -----
 title
 -----
 Structure from the checkpoint file:  "E2SN2_401_mol2.chk"
 Charge = -1 Multiplicity = 1

                         Standard orientation:
 ---------------------------------------------------------------------
 Center     Atomic      Atomic             Coordinates (Angstroms)
 Number     Number       Type             X           Y           Z
 ---------------------------------------------------------------------
      1          6           0        0.116590    1.046970   -0.021934
      2          6           0        0.331038   -0.476735   -0.228424
      3          9           0        1.269021    1.673787   -0.527447
      4          1           0       -0.421487   -0.992119    0.371101
      5          7           0       -0.995211    1.563391   -0.761456
      6          1           0       -1.834098    1.055115   -0.465240
      7          1           0       -0.858790    1.364538   -1.746094
      8          6           0       -0.036969    1.419952    1.434148
      9          1           0       -0.136752    2.504718    1.488596
     10          1           0        0.820250    1.093588    2.021516
     11          1           0       -0.943391    0.951272    1.822800
     12          7           0        1.663530   -0.857444    0.337884
     13          8           0        1.721088   -1.093075    1.547350
     14          8           0        2.632942   -0.895187   -0.420559
     15          6           0        0.240842   -0.911909   -1.675399
     16          1           0       -0.808984   -0.891877   -1.967028
     17          1           0        0.598430   -1.937342   -1.784044
     18          1           0        0.840926   -0.269954   -2.321987
     19         17           0       -3.064516   -0.791014    0.248690
 ---------------------------------------------------------------------

 SCF Done:  E(RHF) =  -976.822296728     A.U. after    2 cycles

 The electronic state is 1-A.
 Alpha  occ. eigenvalues --  -99.62084 -29.13443 -20.98065 -20.97848 -15.87111
 Alpha  occ. eigenvalues --  -15.60784 -11.41860 -11.35682 -11.28727 -11.25557
 Alpha  occ. eigenvalues --  -10.18751  -9.38810  -9.38492  -9.38379  -1.87320
 Alpha  occ. eigenvalues --   -1.57172  -1.30607  -1.12059  -1.00303  -0.97858
 Alpha  occ. eigenvalues --   -0.90768  -0.83385  -0.72600  -0.61391  -0.60160
 Alpha  occ. eigenvalues --   -0.56302  -0.53465  -0.49875  -0.48892  -0.46377
 Alpha  occ. eigenvalues --   -0.43667  -0.42885  -0.40988  -0.39595  -0.36886
 Alpha  occ. eigenvalues --   -0.28525  -0.26341  -0.25938  -0.25666  -0.23171
 Alpha  occ. eigenvalues --   -0.21957  -0.20587  -0.19284  -0.14079  -0.13028
 Alpha virt. eigenvalues --    0.13224   0.13757   0.14405   0.15321   0.15438
 Alpha virt. eigenvalues --    0.16650   0.17287   0.18066   0.19305   0.20444
 Alpha virt. eigenvalues --    0.21679   0.23621   0.24017   0.24643   0.24885

 Mulliken charges:
               1
     1  C    4.484506
     2  C   -1.589349
     3  F   -0.037462
     4  H    2.110883
     5  N   -3.477825
     6  H    0.513886
     7  H    0.388413
     8  C   -4.480252
     9  H    1.172768
    10  H    1.330961
    11  H    1.152927
    12  N    4.317444
    13  O   -3.008406
    14  O   -2.886727
    15  C   -3.521799
    16  H    1.123992
    17  H    1.132313
    18  H    1.252198
    19  Cl  -0.978470
 Sum of Mulliken charges =  -1.00000

 Dipole moment (field-independent basis, Debye):
    X=              9.7379    Y=              3.2465    Z=             -2.5236  Tot=             10.5705

 Test job not archived.
 1\1\GINC-SE336\SP\RHF\Aug-CC-pVDZ\C4H9Cl1F1N2O2(1-)\OHZDE\09-Apr-2025\
 0\\#t hf aug-cc-pvdz iop(5/13=1,5/36=2,99/5=2) pseudo=read geom=check
 guess=(read,tcheck) scf=(maxcycle=1)\\title\\-1,1\C,0,-0.012222,-0.028
 863,0.016488\C,0,-0.469755,-0.142151,-1.462746\F,0,1.385178,0.121267,-
 0.019206\H,0,-1.499273,-0.504605,-1.454647\N,0,-0.537064,1.125958,0.68
 0276\H,0,-1.559611,1.075117,0.639855\H,0,-0.259819,1.956185,0.168883\C
 ,0,-0.345204,-1.261953,0.823633\H,0,0.049272,-1.114715,1.829788\H,0,0.
 08774,-2.157471,0.379849\H,0,-1.430949,-1.368145,0.870479\N,0,0.349324

 Normal termination of Gaussian 16 at Wed Apr  9 03:00:02 2025.
