 Gaussian 16, Revision C.01,

 ----------------------------------------------------------------------
 #t hf aug-cc-pvdz symm=none int=(grid=ultrafine) guess=(read,tcheck) s
 table=(opt,rrhf)
 ----------------------------------------------------------------------
 -----
 title
 -----
 Symbolic Z-matrix:
 Charge = -1 Multiplicity = 1

 SCF Done:  E(RHF) =  -1334.37741914     A.U. after   16 cycles
 Normal termination of Gaussian 16 at Wed Apr  9 02:34:32 2025.
 Gaussian 16:  ES64L-G16RevC.01  3-Jul-2019

 ----------------------------------------------------------------------
 #t hf aug-cc-pvdz iop(5/13=1,5/36=2,99/5=2) pseudo=read geom=check gue
 ss=(read,tcheck) scf=(maxcycle=1)
 ----------------------------------------------------------------------
 -----
 title
 -----
 Structure from the checkpoint file:  "E2SN2_109_mol2.chk"
 Charge = -1 Multiplicity = 1

                         Standard orientation:
 ---------------------------------------------------------------------
 Center     Atomic      Atomic             Coordinates (Angstroms)
 Number     Number       Type             X           Y           Z
 ---------------------------------------------------------------------
      1          6           0       -0.474065   -0.846860    0.377307
      2          6           0        0.082955    0.507566   -0.111976
      3         17           0       -1.820402   -1.374677   -0.728533
      4          1           0        0.887529    0.782711    0.575089
      5          6           0        0.627602   -1.888310    0.282538
      6          1           0        0.975690   -2.000081   -0.743115
      7          1           0        0.251768   -2.850525    0.639765
      8          1           0        1.490050   -1.568366    0.870444
      9          6           0       -1.043064   -0.782700    1.784919
     10          1           0       -1.345717   -1.783749    2.100571
     11          1           0       -0.272635   -0.411623    2.465786
     12          1           0       -1.906442   -0.121615    1.850084
     13          7           0       -0.986658    1.569310    0.094094
     14          8           0       -1.752205    1.811749   -0.833106
     15          8           0       -1.031230    2.106441    1.204324
     16          7           0        0.581713    0.579245   -1.432263
     17          1           0        0.115702   -0.060000   -2.059872
     18          1           0        1.588144    0.423089   -1.389629
     19         17           0        3.476723    0.155064    0.028038
 ---------------------------------------------------------------------

 SCF Done:  E(RHF) =  -1336.78608097     A.U. after    2 cycles

 The electronic state is 1-A.
 Alpha  occ. eigenvalues --  -99.77239 -99.61766 -20.97887 -20.97325 -15.86260
 Alpha  occ. eigenvalues --  -15.61533 -11.41606 -11.35634 -11.30126 -11.26923
 Alpha  occ. eigenvalues --  -10.34667 -10.18433  -9.54681  -9.54032  -9.53951
 Alpha  occ. eigenvalues --   -9.38466  -9.38162  -9.38063  -1.86749  -1.56894
 Alpha  occ. eigenvalues --   -1.31113  -1.20954  -1.07250  -0.98691  -0.97412
 Alpha  occ. eigenvalues --   -0.92304  -0.77826  -0.70006  -0.61441  -0.59209
 Alpha  occ. eigenvalues --   -0.55234  -0.53927  -0.50492  -0.48736  -0.48051
 Alpha  occ. eigenvalues --   -0.45097  -0.43502  -0.42205  -0.40120  -0.38735
 Alpha  occ. eigenvalues --   -0.36010  -0.35418  -0.27654  -0.25659  -0.25610
 Alpha  occ. eigenvalues --   -0.25160  -0.21681  -0.19518  -0.18420
 Alpha virt. eigenvalues --    0.12277   0.13415   0.14074   0.15081   0.15763
 Alpha virt. eigenvalues --    0.15977   0.16750   0.17537   0.19023   0.19487
 Alpha virt. eigenvalues --    0.21418   0.22541   0.22930   0.23661   0.24486

 Mulliken charges:
               1
     1  C    2.171737
     2  C    0.532516
     3  Cl  -0.381134
     4  H    2.126383
     5  C   -4.109193
     6  H    1.278020
     7  H    1.201183
     8  H    1.127162
     9  C   -3.976805
    10  H    1.165903
    11  H    1.339953
    12  H    1.301227
    13  N    4.055883
    14  O   -2.853688
    15  O   -2.826396
    16  N   -3.064422
    17  H    0.515974
    18  H    0.374026
    19  Cl  -0.978328
 Sum of Mulliken charges =  -1.00000

 Dipole moment (field-independent basis, Debye):
    X=             -9.1531    Y=             -2.6447    Z=              0.9525  Tot=              9.5750

 Test job not archived.
 1\1\GINC-SE459\SP\RHF\Aug-CC-pVDZ\C4H9Cl2N2O2(1-)\OHZDE\09-Apr-2025\0\
 \#t hf aug-cc-pvdz iop(5/13=1,5/36=2,99/5=2) pseudo=read geom=check gu
 ess=(read,tcheck) scf=(maxcycle=1)\\title\\-1,1\C,0,-0.313481,-0.01179
 6,-1.510463\C,0,0.044179,-0.120212,-0.012309\Cl,0,-2.09196,0.339425,-1
 .67706\H,0,1.116474,-0.326418,0.040279\C,0,0.440599,1.164449,-2.106349
 \H,0,0.17076,2.095909,-1.611181\H,0,0.208311,1.244987,-3.171372\H,0,1.
 513368,1.030898,-1.954213\C,0,-0.029662,-1.288708,-2.28389\H,0,-0.2273
 03,-1.122272,-3.345291\H,0,1.021565,-1.559102,-2.15486\H,0,-0.643028,-

 Normal termination of Gaussian 16 at Wed Apr  9 02:34:44 2025.
