 Gaussian 16, Revision C.01,

 ----------------------------------------------------------------------
 #t hf aug-cc-pvdz symm=none int=(grid=ultrafine) guess=(read,tcheck) s
 table=(opt,rrhf)
 ----------------------------------------------------------------------
 -----
 title
 -----
 Symbolic Z-matrix:
 Charge = -1 Multiplicity = 1

 SCF Done:  E(RHF) =  -502.376762944     A.U. after   15 cycles
 Normal termination of Gaussian 16 at Wed Apr  9 02:54:23 2025.
 Gaussian 16:  ES64L-G16RevC.01  3-Jul-2019

 ----------------------------------------------------------------------
 #t hf aug-cc-pvdz iop(5/13=1,5/36=2,99/5=2) pseudo=read geom=check gue
 ss=(read,tcheck) scf=(maxcycle=1)
 ----------------------------------------------------------------------
 -----
 title
 -----
 Structure from the checkpoint file:  "E2SN2_338_mol1.chk"
 Charge = -1 Multiplicity = 1

                         Standard orientation:
 ---------------------------------------------------------------------
 Center     Atomic      Atomic             Coordinates (Angstroms)
 Number     Number       Type             X           Y           Z
 ---------------------------------------------------------------------
      1          6           0        0.258509    0.386585    0.004717
      2          1           0       -1.013445   -0.005178    1.622826
      3          9           0       -0.266328    0.211558   -1.713235
      4          9           0        1.058737    0.340549    1.700123
      5          6           0       -1.025371   -0.234774    0.558243
      6          6           0        0.380305    1.890508   -0.036104
      7          1           0       -0.236555    2.287927   -0.838477
      8          1           0        0.059245    2.285715    0.925477
      9          1           0        1.423215    2.169101   -0.191859
     10          6           0        1.396889   -0.444808   -0.346776
     11          7           0        2.308105   -1.113108   -0.670000
     12          6           0       -1.019094   -1.748925    0.373771
     13          1           0       -0.953935   -1.983020   -0.690443
     14          1           0       -0.166758   -2.194178    0.892593
     15          1           0       -1.939758   -2.180417    0.784072
     16          7           0       -2.186496    0.439299   -0.035381
     17          1           0       -3.022308   -0.050274    0.266240
     18          1           0       -2.080061    0.326516   -1.037855
 ---------------------------------------------------------------------

 SCF Done:  E(RHF) =  -504.538143190     A.U. after    2 cycles

 The electronic state is 1-A.
 Alpha  occ. eigenvalues --  -28.97595 -28.94695 -15.59293 -15.58738 -11.43926
 Alpha  occ. eigenvalues --  -11.31901 -11.29300 -11.25180 -11.23321  -1.25046
 Alpha  occ. eigenvalues --   -1.14689  -1.05147  -0.94749  -0.82667  -0.74372
 Alpha  occ. eigenvalues --   -0.61924  -0.53831  -0.49877  -0.46587  -0.45390
 Alpha  occ. eigenvalues --   -0.42376  -0.40516  -0.38888  -0.37206  -0.35386
 Alpha  occ. eigenvalues --   -0.33343  -0.31531  -0.26730  -0.25098  -0.21587
 Alpha  occ. eigenvalues --   -0.12373  -0.04451  -0.03581  -0.01886  -0.00875
 Alpha  occ. eigenvalues --    0.03170
 Alpha virt. eigenvalues --    0.12949   0.14137   0.14904   0.15759   0.15836
 Alpha virt. eigenvalues --    0.16198   0.17354   0.17766   0.17967   0.21075
 Alpha virt. eigenvalues --    0.22015   0.24251   0.24503   0.25143   0.25808

 Mulliken charges:
               1
     1  C    6.200388
     2  H    1.417480
     3  F   -0.679403
     4  F   -0.692497
     5  C   -1.970921
     6  C   -5.413258
     7  H    1.124202
     8  H    1.213854
     9  H    1.153051
    10  C    2.252103
    11  N   -3.205686
    12  C   -4.002996
    13  H    1.293706
    14  H    1.357185
    15  H    1.006863
    16  N   -3.133705
    17  H    0.585331
    18  H    0.494304
 Sum of Mulliken charges =  -1.00000

 Dipole moment (field-independent basis, Debye):
    X=             -4.3952    Y=              0.5233    Z=              0.2114  Tot=              4.4313

 Test job not archived.
 1\1\GINC-SE131\SP\RHF\Aug-CC-pVDZ\C5H9F2N2(1-)\OHZDE\09-Apr-2025\0\\#t
  hf aug-cc-pvdz iop(5/13=1,5/36=2,99/5=2) pseudo=read geom=check guess
 =(read,tcheck) scf=(maxcycle=1)\\title\\-1,1\C,0,0.58510086,-0.0167449
 5,-0.05331901\H,0,1.59288036,1.79737492,-0.34136859\F,0,-1.21514125,-0
 .14500767,-0.06454839\F,0,2.43054623,-0.02791174,0.27998817\C,0,0.5699
 4912,1.51246719,-0.09922646\C,0,0.79036811,-0.78140518,-1.33840406\H,0
 ,-0.11556157,-0.74241314,-1.93842967\H,0,1.62415413,-0.33219393,-1.874
 04914\H,0,1.04524846,-1.81723176,-1.11117243\C,0,0.54321991,-0.7242499

 Normal termination of Gaussian 16 at Wed Apr  9 02:54:32 2025.
