 Gaussian 16, Revision C.01,

 ----------------------------------------------------------------------
 #t hf aug-cc-pvdz symm=none int=(grid=ultrafine) guess=(read,tcheck) s
 table=(opt,rrhf)
 ----------------------------------------------------------------------
 -----
 title
 -----
 Symbolic Z-matrix:
 Charge = -1 Multiplicity = 1

 SCF Done:  E(RHF) =  -1295.27376954     A.U. after   16 cycles
 Normal termination of Gaussian 16 at Wed Apr  9 02:59:41 2025.
 Gaussian 16:  ES64L-G16RevC.01  3-Jul-2019

 ----------------------------------------------------------------------
 #t hf aug-cc-pvdz iop(5/13=1,5/36=2,99/5=2) pseudo=read geom=check gue
 ss=(read,tcheck) scf=(maxcycle=1)
 ----------------------------------------------------------------------
 -----
 title
 -----
 Structure from the checkpoint file:  "E2SN2_41_mol1.chk"
 Charge = -1 Multiplicity = 1

                         Standard orientation:
 ---------------------------------------------------------------------
 Center     Atomic      Atomic             Coordinates (Angstroms)
 Number     Number       Type             X           Y           Z
 ---------------------------------------------------------------------
      1          6           0       -0.254656    0.151300   -0.472891
      2          6           0        0.549086   -0.953148   -0.274963
      3         17           0       -2.755656   -0.855545   -0.251897
      4         17           0        3.317675    0.030707   -0.308832
      5          1           0        1.854577   -0.344008   -0.280139
      6          1           0        0.668052   -1.507902   -1.206786
      7          7           0       -0.523356    1.089822    0.644409
      8          8           0       -1.046446    2.166841    0.357688
      9          8           0       -0.174491    0.757279    1.773474
     10          7           0       -0.494286    0.717320   -1.683106
     11          1           0       -0.799424    0.026517   -2.352991
     12          1           0       -1.157068    1.477023   -1.605729
     13          6           0        0.556944   -1.800081    0.975425
     14          1           0       -0.475009   -1.996661    1.279082
     15          1           0        1.056442   -2.746604    0.756818
     16          1           0        1.080871   -1.317513    1.798305
 ---------------------------------------------------------------------

 SCF Done:  E(RHF) =  -1297.49043920     A.U. after    2 cycles

 The electronic state is 1-A.
 Alpha  occ. eigenvalues --  -99.71477 -99.63362 -20.99556 -20.99290 -15.89564
 Alpha  occ. eigenvalues --  -15.68055 -11.46310 -11.30241 -11.25934 -10.28425
 Alpha  occ. eigenvalues --  -10.20124  -9.48472  -9.47895  -9.47857  -9.40208
 Alpha  occ. eigenvalues --   -9.39762  -9.39720  -1.89157  -1.59053  -1.32353
 Alpha  occ. eigenvalues --   -1.11367  -1.06809  -0.99620  -0.98239  -0.83687
 Alpha  occ. eigenvalues --   -0.67295  -0.62135  -0.59451  -0.57073  -0.52862
 Alpha  occ. eigenvalues --   -0.50408  -0.48776  -0.43165  -0.40767  -0.39930
 Alpha  occ. eigenvalues --   -0.39174  -0.34894  -0.34788  -0.28291  -0.27491
 Alpha  occ. eigenvalues --   -0.26613  -0.25536  -0.21428  -0.21180  -0.19742
 Alpha virt. eigenvalues --    0.13248   0.13796   0.14771   0.15652   0.16043
 Alpha virt. eigenvalues --    0.16814   0.17301   0.18189   0.20881   0.22537
 Alpha virt. eigenvalues --    0.23570   0.24204   0.24858   0.25546   0.25796

 Mulliken charges:
               1
     1  C    4.981551
     2  C   -1.974671
     3  Cl  -0.879596
     4  Cl  -0.984473
     5  H    1.515311
     6  H    1.150187
     7  N    3.789894
     8  O   -2.878107
     9  O   -2.999020
    10  N   -3.743676
    11  H    0.587329
    12  H    0.861042
    13  C   -4.038901
    14  H    1.291036
    15  H    1.062765
    16  H    1.259330
 Sum of Mulliken charges =  -1.00000

 Dipole moment (field-independent basis, Debye):
    X=              1.3476    Y=              1.7613    Z=             -0.8545  Tot=              2.3766

 Test job not archived.
 1\1\GINC-SE074\SP\RHF\Aug-CC-pVDZ\C3H7Cl2N2O2(1-)\OHZDE\09-Apr-2025\0\
 \#t hf aug-cc-pvdz iop(5/13=1,5/36=2,99/5=2) pseudo=read geom=check gu
 ess=(read,tcheck) scf=(maxcycle=1)\\title\\-1,1\C,0,-0.53886534,0.1172
 8673,-0.12624694\C,0,-0.24722202,-0.012365,1.21655537\Cl,0,1.90122934,
 0.10322726,-1.29385751\Cl,0,-2.83146367,-0.19423385,2.60321386\H,0,-1.
 57140632,-0.12241806,1.77316058\H,0,-0.01184577,0.9609357,1.64954918\N
 ,0,-0.93732163,-1.06963722,-0.92237936\O,0,-1.4059644,-0.86164748,-2.0
 4171666\O,0,-0.81522683,-2.17717458,-0.40707952\N,0,-0.91384748,1.2788

 Normal termination of Gaussian 16 at Wed Apr  9 02:59:49 2025.
