 Gaussian 16, Revision C.01,

 ----------------------------------------------------------------------
 #t hf aug-cc-pvdz symm=none int=(grid=ultrafine) guess=(read,tcheck) s
 table=(opt,rrhf)
 ----------------------------------------------------------------------
 -----
 title
 -----
 Symbolic Z-matrix:
 Charge = -1 Multiplicity = 1

 SCF Done:  E(RHF) =  -1384.71072489     A.U. after   16 cycles
 Normal termination of Gaussian 16 at Wed Apr  9 02:43:46 2025.
 Gaussian 16:  ES64L-G16RevC.01  3-Jul-2019

 ----------------------------------------------------------------------
 #t hf aug-cc-pvdz iop(5/13=1,5/36=2,99/5=2) pseudo=read geom=check gue
 ss=(read,tcheck) scf=(maxcycle=1)
 ----------------------------------------------------------------------
 -----
 title
 -----
 Structure from the checkpoint file:  "E2SN2_216_mol2.chk"
 Charge = -1 Multiplicity = 1

                         Standard orientation:
 ---------------------------------------------------------------------
 Center     Atomic      Atomic             Coordinates (Angstroms)
 Number     Number       Type             X           Y           Z
 ---------------------------------------------------------------------
      1          6           0        0.018896   -0.357764   -0.506713
      2          6           0        0.342395    0.776286    0.461628
      3         17           0        1.430413   -0.838958   -1.462817
      4          1           0       -0.606590    0.961181    0.994039
      5          1           0       -0.795047   -0.047324   -1.159170
      6          7           0       -0.490101   -1.570350    0.235684
      7          8           0       -0.936637   -2.468165   -0.464669
      8          8           0       -0.417711   -1.566276    1.459622
      9          6           0        0.665070    1.982148   -0.305394
     10          7           0        0.954677    2.947421   -0.907159
     11          6           0        1.447776    0.472381    1.372649
     12          7           0        2.350137    0.280064    2.098783
     13         17           0       -2.742847    0.987395    0.055837
 ---------------------------------------------------------------------

 SCF Done:  E(RHF) =  -1387.21860246     A.U. after    2 cycles

 The electronic state is 1-A.
 Alpha  occ. eigenvalues --  -99.82558 -99.63487 -21.01239 -21.00898 -15.91008
 Alpha  occ. eigenvalues --  -15.68592 -15.68543 -11.46713 -11.42294 -11.37752
 Alpha  occ. eigenvalues --  -11.35378 -10.39992 -10.20213  -9.59960  -9.59165
 Alpha  occ. eigenvalues --   -9.59068  -9.40304  -9.39909  -9.39806  -1.90594
 Alpha  occ. eigenvalues --   -1.60722  -1.32986  -1.24118  -1.20076  -1.11805
 Alpha  occ. eigenvalues --   -1.01348  -0.99586  -0.78417  -0.70527  -0.66277
 Alpha  occ. eigenvalues --   -0.61948  -0.61057  -0.56683  -0.50478  -0.49528
 Alpha  occ. eigenvalues --   -0.45238  -0.44862  -0.43482  -0.42396  -0.36698
 Alpha  occ. eigenvalues --   -0.36501  -0.34638  -0.34262  -0.27896  -0.27409
 Alpha  occ. eigenvalues --   -0.27219  -0.26405  -0.22873  -0.22180
 Alpha virt. eigenvalues --    0.13695   0.15320   0.16596   0.18476   0.18798
 Alpha virt. eigenvalues --    0.19435   0.20635   0.21225   0.21701   0.22056
 Alpha virt. eigenvalues --    0.23004   0.23865   0.24310   0.25316   0.25587

 Mulliken charges:
               1
     1  C   -1.358236
     2  C    1.018410
     3  Cl   0.088224
     4  H    1.434351
     5  H    1.829530
     6  N    4.507241
     7  O   -2.880643
     8  O   -2.826725
     9  C    2.017051
    10  N   -2.673540
    11  C    1.217819
    12  N   -2.446431
    13  Cl  -0.927051
 Sum of Mulliken charges =  -1.00000

 Dipole moment (field-independent basis, Debye):
    X=              5.6639    Y=             -4.2315    Z=             -0.5044  Tot=              7.0880

 Test job not archived.
 1\1\GINC-SE059\SP\RHF\Aug-CC-pVDZ\C4H2Cl2N3O2(1-)\OHZDE\09-Apr-2025\0\
 \#t hf aug-cc-pvdz iop(5/13=1,5/36=2,99/5=2) pseudo=read geom=check gu
 ess=(read,tcheck) scf=(maxcycle=1)\\title\\-1,1\C,0,-0.09029,0.033808,
 0.007215\C,0,-0.569878,0.022504,-1.441326\Cl,0,1.649015,-0.277159,0.13
 4428\H,0,-1.649641,0.241219,-1.374272\H,0,-0.651876,-0.706564,0.573824
 \N,0,-0.386337,1.362254,0.661573\O,0,-0.195195,1.409457,1.868717\O,0,-
 0.785936,2.276643,-0.050813\C,0,-0.422325,-1.330779,-1.982989\N,0,-0.2
 81906,-2.403106,-2.439216\C,0,0.142588,0.968484,-2.302544\N,0,0.711464

 Normal termination of Gaussian 16 at Wed Apr  9 02:43:53 2025.
