 Gaussian 16, Revision C.01,

 ----------------------------------------------------------------------
 #t hf aug-cc-pvdz symm=none int=(grid=ultrafine) guess=(read,tcheck) s
 table=(opt,rrhf)
 ----------------------------------------------------------------------
 -----
 title
 -----
 Symbolic Z-matrix:
 Charge = -1 Multiplicity = 1

 SCF Done:  E(RHF) =  -1295.25002952     A.U. after   17 cycles
 Normal termination of Gaussian 16 at Wed Apr  9 03:02:17 2025.
 Gaussian 16:  ES64L-G16RevC.01  3-Jul-2019

 ----------------------------------------------------------------------
 #t hf aug-cc-pvdz iop(5/13=1,5/36=2,99/5=2) pseudo=read geom=check gue
 ss=(read,tcheck) scf=(maxcycle=1)
 ----------------------------------------------------------------------
 -----
 title
 -----
 Structure from the checkpoint file:  "E2SN2_7_mol1.chk"
 Charge = -1 Multiplicity = 1

                         Standard orientation:
 ---------------------------------------------------------------------
 Center     Atomic      Atomic             Coordinates (Angstroms)
 Number     Number       Type             X           Y           Z
 ---------------------------------------------------------------------
      1          6           0        0.449983    0.045656   -0.393979
      2          6           0       -0.453504   -0.731814    0.315217
      3         17           0        2.587472   -0.935660   -0.446037
      4         17           0       -3.084207    0.286470   -0.492822
      5          1           0       -1.652193   -0.021359   -0.124127
      6          1           0        0.428405    0.019621   -1.474011
      7          6           0       -0.618473   -0.700857    1.811325
      8          1           0       -0.733555    0.307040    2.205589
      9          1           0       -1.500203   -1.294256    2.062554
     10          1           0        0.259689   -1.162259    2.274749
     11          7           0       -0.658685   -2.038136   -0.255008
     12          1           0        0.090671   -2.254647   -0.902406
     13          1           0       -1.558141   -2.109980   -0.716828
     14          7           0        0.833073    1.376586    0.063325
     15          8           0        1.030133    1.572765    1.262513
     16          8           0        0.922500    2.240363   -0.814826
 ---------------------------------------------------------------------

 SCF Done:  E(RHF) =  -1297.46789921     A.U. after    2 cycles

 The electronic state is 1-A.
 Alpha  occ. eigenvalues --  -99.71907 -99.67084 -20.98416 -20.98203 -15.88540
 Alpha  occ. eigenvalues --  -15.62601 -11.41618 -11.32463 -11.25895 -10.28871
 Alpha  occ. eigenvalues --  -10.23909  -9.48920  -9.48335  -9.48322  -9.43995
 Alpha  occ. eigenvalues --   -9.43514  -9.43414  -1.87624  -1.57379  -1.27040
 Alpha  occ. eigenvalues --   -1.10476  -1.09067  -1.02863  -0.96142  -0.80674
 Alpha  occ. eigenvalues --   -0.68091  -0.60290  -0.58809  -0.56441  -0.52105
 Alpha  occ. eigenvalues --   -0.49182  -0.47259  -0.43528  -0.40159  -0.39141
 Alpha  occ. eigenvalues --   -0.36245  -0.35413  -0.35295  -0.30899  -0.30686
 Alpha  occ. eigenvalues --   -0.28165  -0.23762  -0.19886  -0.19717  -0.18338
 Alpha virt. eigenvalues --    0.13572   0.14475   0.15057   0.15605   0.16049
 Alpha virt. eigenvalues --    0.16513   0.17150   0.18597   0.20646   0.22228
 Alpha virt. eigenvalues --    0.24002   0.24495   0.25283   0.26124   0.26479

 Mulliken charges:
               1
     1  C   -0.335341
     2  C    2.585589
     3  Cl  -0.618748
     4  Cl  -0.919714
     5  H    1.524216
     6  H    1.647822
     7  C   -4.854942
     8  H    1.282303
     9  H    1.224262
    10  H    1.205571
    11  N   -3.319087
    12  H    0.680877
    13  H    0.460475
    14  N    4.082176
    15  O   -2.844218
    16  O   -2.801242
 Sum of Mulliken charges =  -1.00000

 Dipole moment (field-independent basis, Debye):
    X=             -1.6060    Y=              0.4562    Z=              1.0299  Tot=              1.9617

 Test job not archived.
 1\1\GINC-SE090\SP\RHF\Aug-CC-pVDZ\C3H7Cl2N2O2(1-)\OHZDE\09-Apr-2025\0\
 \#t hf aug-cc-pvdz iop(5/13=1,5/36=2,99/5=2) pseudo=read geom=check gu
 ess=(read,tcheck) scf=(maxcycle=1)\\title\\-1,1\C,0,-0.46900105,-0.023
 8752,-0.14097444\C,0,-0.10995985,0.12768249,1.19012535\Cl,0,1.37692846
 ,-0.60670037,-1.47791564\Cl,0,-2.65334268,0.01550896,2.64925068\H,0,-1
 .47168278,0.15501053,1.71888617\H,0,-0.96117851,-0.93482548,-0.4500757
 3\C,0,0.46658569,1.3860097,1.78234265\H,0,-0.11102629,2.27506397,1.536
 39494\H,0,0.49960025,1.26025305,2.86667704\H,0,1.48872105,1.51643113,1

 Normal termination of Gaussian 16 at Wed Apr  9 03:02:25 2025.
