 Gaussian 16, Revision C.01,

 ----------------------------------------------------------------------
 #t hf aug-cc-pvdz symm=none int=(grid=ultrafine) guess=(read,tcheck) s
 table=(opt,rrhf)
 ----------------------------------------------------------------------
 -----
 title
 -----
 Symbolic Z-matrix:
 Charge = -1 Multiplicity = 1

 SCF Done:  E(RHF) =  -575.110354542     A.U. after   16 cycles
 Normal termination of Gaussian 16 at Wed Apr  9 02:53:17 2025.
 Gaussian 16:  ES64L-G16RevC.01  3-Jul-2019

 ----------------------------------------------------------------------
 #t hf aug-cc-pvdz iop(5/13=1,5/36=2,99/5=2) pseudo=read geom=check gue
 ss=(read,tcheck) scf=(maxcycle=1)
 ----------------------------------------------------------------------
 -----
 title
 -----
 Structure from the checkpoint file:  "E2SN2_332_mol1.chk"
 Charge = -1 Multiplicity = 1

                         Standard orientation:
 ---------------------------------------------------------------------
 Center     Atomic      Atomic             Coordinates (Angstroms)
 Number     Number       Type             X           Y           Z
 ---------------------------------------------------------------------
      1          6           0       -0.036514    0.488813    0.017192
      2          1           0        1.220906    0.380255   -1.689247
      3          9           0        0.537673    0.030554    1.639829
      4          9           0       -0.865700    0.715685   -1.582503
      5          6           0        1.359108    0.524749   -0.621953
      6          1           0        1.712039    1.550604   -0.464663
      7          6           0       -0.698483    1.733075    0.542997
      8          1           0       -0.147164    2.103389    1.405133
      9          1           0       -0.735435    2.474422   -0.252473
     10          1           0       -1.715656    1.488093    0.843277
     11          7           0       -0.772994   -0.809916    0.022360
     12          8           0       -0.210893   -1.772912   -0.495410
     13          8           0       -1.880476   -0.858345    0.540641
     14          7           0        2.381096   -0.395545   -0.137325
     15          1           0        2.073050   -1.319849   -0.415397
     16          1           0        2.274073   -0.384613    0.870918
 ---------------------------------------------------------------------

 SCF Done:  E(RHF) =  -577.509587450     A.U. after    2 cycles

 The electronic state is 1-A.
 Alpha  occ. eigenvalues --  -28.98370 -28.96398 -20.93611 -20.93206 -15.84018
 Alpha  occ. eigenvalues --  -15.57772 -11.44515 -11.28255 -11.24118  -1.83755
 Alpha  occ. eigenvalues --   -1.53578  -1.21914  -1.10503  -0.90040  -0.84085
 Alpha  occ. eigenvalues --   -0.65632  -0.62798  -0.56060  -0.51347  -0.49562
 Alpha  occ. eigenvalues --   -0.47184  -0.41739  -0.41132  -0.40129  -0.37028
 Alpha  occ. eigenvalues --   -0.34296  -0.30865  -0.24393  -0.19894  -0.16588
 Alpha  occ. eigenvalues --   -0.15798  -0.14117  -0.04914  -0.03987  -0.02675
 Alpha  occ. eigenvalues --   -0.01589   0.02276
 Alpha virt. eigenvalues --    0.14548   0.14965   0.15708   0.15944   0.16671
 Alpha virt. eigenvalues --    0.16937   0.17957   0.21758   0.23584   0.24283
 Alpha virt. eigenvalues --    0.26273   0.27029   0.27812   0.29061   0.29291

 Mulliken charges:
               1
     1  C    4.438027
     2  H    1.148372
     3  F   -0.592784
     4  F   -0.696766
     5  C   -2.279099
     6  H    1.294733
     7  C   -4.679071
     8  H    1.042669
     9  H    1.026032
    10  H    1.285003
    11  N    4.811106
    12  O   -3.234193
    13  O   -3.340517
    14  N   -2.271033
    15  H    0.690687
    16  H    0.356834
 Sum of Mulliken charges =  -1.00000

 Dipole moment (field-independent basis, Debye):
    X=             -0.0258    Y=              0.3581    Z=              0.8701  Tot=              0.9413

 Test job not archived.
 1\1\GINC-SE457\SP\RHF\Aug-CC-pVDZ\C3H7F2N2O2(1-)\OHZDE\09-Apr-2025\0\\
 #t hf aug-cc-pvdz iop(5/13=1,5/36=2,99/5=2) pseudo=read geom=check gue
 ss=(read,tcheck) scf=(maxcycle=1)\\title\\-1,1\C,0,0.74729494,0.036632
 64,0.00503285\H,0,1.67964357,1.93792253,0.14872653\F,0,-0.95442394,-0.
 21427188,0.46746508\F,0,2.54783793,0.04598833,-0.23161382\C,0,0.668590
 88,1.57004576,0.00198045\H,0,0.36030464,1.83189251,-1.01687832\C,0,0.5
 8025976,-0.76693775,-1.25561618\H,0,-0.44111885,-0.66897458,-1.6183178
 4\H,0,1.29859862,-0.41623382,-1.9936737\H,0,0.78561763,-1.81262817,-1.

 Normal termination of Gaussian 16 at Wed Apr  9 02:53:24 2025.
