 Gaussian 16, Revision C.01,

 ----------------------------------------------------------------------
 #t hf aug-cc-pvdz symm=none int=(grid=ultrafine) guess=(read,tcheck) s
 table=(opt,rrhf)
 ----------------------------------------------------------------------
 -----
 title
 -----
 Symbolic Z-matrix:
 Charge = -1 Multiplicity = 1

 SCF Done:  E(RHF) =  -1347.94694551     A.U. after   17 cycles
 Normal termination of Gaussian 16 at Wed Apr  9 02:48:07 2025.
 Gaussian 16:  ES64L-G16RevC.01  3-Jul-2019

 ----------------------------------------------------------------------
 #t hf aug-cc-pvdz iop(5/13=1,5/36=2,99/5=2) pseudo=read geom=check gue
 ss=(read,tcheck) scf=(maxcycle=1)
 ----------------------------------------------------------------------
 -----
 title
 -----
 Structure from the checkpoint file:  "E2SN2_266_mol1.chk"
 Charge = -1 Multiplicity = 1

                         Standard orientation:
 ---------------------------------------------------------------------
 Center     Atomic      Atomic             Coordinates (Angstroms)
 Number     Number       Type             X           Y           Z
 ---------------------------------------------------------------------
      1          6           0       -0.000516   -0.103973   -0.042261
      2          1           0        0.631206   -1.202084   -1.764302
      3         17           0       -2.221249    0.512862    0.169040
      4         17           0        2.332571   -0.534689   -0.070318
      5          6           0       -0.302935   -0.938401   -1.276434
      6          1           0       -0.880086   -0.302453   -1.951724
      7          6           0       -0.000628   -0.624654    1.291796
      8          7           0       -0.044133   -1.059597    2.385040
      9          7           0        0.356994    1.335215   -0.216535
     10          8           0        0.417796    1.731465   -1.374099
     11          8           0        0.544546    1.999589    0.790627
     12          7           0       -0.974957   -2.160171   -0.863419
     13          1           0       -0.942036   -2.830535   -1.619287
     14          1           0       -1.941155   -1.948247   -0.649387
 ---------------------------------------------------------------------

 SCF Done:  E(RHF) =  -1350.36211379     A.U. after    2 cycles

 The electronic state is 1-A.
 Alpha  occ. eigenvalues --  -99.70398 -99.68549 -20.98354 -20.98123 -15.89723
 Alpha  occ. eigenvalues --  -15.64908 -15.63343 -11.49540 -11.34889 -11.32350
 Alpha  occ. eigenvalues --  -10.27391 -10.25523  -9.47463  -9.46987  -9.46944
 Alpha  occ. eigenvalues --   -9.45587  -9.45119  -9.45051  -1.88481  -1.58299
 Alpha  occ. eigenvalues --   -1.27923  -1.18642  -1.11836  -1.06780  -1.03530
 Alpha  occ. eigenvalues --   -0.88226  -0.80437  -0.62342  -0.61112  -0.57940
 Alpha  occ. eigenvalues --   -0.54096  -0.49694  -0.46285  -0.46044  -0.42365
 Alpha  occ. eigenvalues --   -0.40494  -0.34334  -0.34051  -0.32970  -0.32570
 Alpha  occ. eigenvalues --   -0.31694  -0.30986  -0.27576  -0.27091  -0.23815
 Alpha  occ. eigenvalues --   -0.19903  -0.19624
 Alpha virt. eigenvalues --    0.12396   0.14089   0.14903   0.15099   0.16324
 Alpha virt. eigenvalues --    0.19365   0.20512   0.21293   0.21909   0.23257
 Alpha virt. eigenvalues --    0.24053   0.24943   0.25539   0.26174   0.27436

 Mulliken charges:
               1
     1  C    2.143568
     2  H    1.285261
     3  Cl  -0.596583
     4  Cl  -0.623043
     5  C   -2.160208
     6  H    1.497754
     7  C    3.541484
     8  N   -3.092363
     9  N    4.700414
    10  O   -3.077217
    11  O   -3.180736
    12  N   -2.622707
    13  H    0.624123
    14  H    0.560254
 Sum of Mulliken charges =  -1.00000

 Dipole moment (field-independent basis, Debye):
    X=             -1.6660    Y=             -0.5884    Z=             -3.6737  Tot=              4.0765

 Test job not archived.
 1\1\GINC-SE023\SP\RHF\Aug-CC-pVDZ\C3H4Cl2N3O2(1-)\OHZDE\09-Apr-2025\0\
 \#t hf aug-cc-pvdz iop(5/13=1,5/36=2,99/5=2) pseudo=read geom=check gu
 ess=(read,tcheck) scf=(maxcycle=1)\\title\\-1,1\C,0,0.6425833,-0.00388
 902,-0.01158691\H,0,1.52305571,1.92396849,0.26855282\Cl,0,-1.66069119,
 -0.22649712,0.03488656\Cl,0,3.01475622,-0.05274713,-0.0090582\C,0,0.54
 240564,1.51180035,0.04808651\H,0,-0.12870086,1.74973683,0.87667092\C,0
 ,0.7071436,-0.75119745,-1.23149715\N,0,0.71908988,-1.35262159,-2.24362
 143\N,0,0.71778656,-0.77100544,1.26720979\O,0,0.7320995,-0.09807069,2.

 Normal termination of Gaussian 16 at Wed Apr  9 02:48:14 2025.
