 Gaussian 16, Revision C.01,

 ----------------------------------------------------------------------
 #t hf aug-cc-pvdz symm=none int=(grid=ultrafine) guess=(read,tcheck) s
 table=(opt,rrhf)
 ----------------------------------------------------------------------
 -----
 title
 -----
 Symbolic Z-matrix:
 Charge = -1 Multiplicity = 1

 SCF Done:  E(RHF) =  -572.775586028     A.U. after   16 cycles
 Normal termination of Gaussian 16 at Wed Apr  9 02:37:38 2025.
 Gaussian 16:  ES64L-G16RevC.01  3-Jul-2019

 ----------------------------------------------------------------------
 #t hf aug-cc-pvdz iop(5/13=1,5/36=2,99/5=2) pseudo=read geom=check gue
 ss=(read,tcheck) scf=(maxcycle=1)
 ----------------------------------------------------------------------
 -----
 title
 -----
 Structure from the checkpoint file:  "E2SN2_165_mol1.chk"
 Charge = -1 Multiplicity = 1

                         Standard orientation:
 ---------------------------------------------------------------------
 Center     Atomic      Atomic             Coordinates (Angstroms)
 Number     Number       Type             X           Y           Z
 ---------------------------------------------------------------------
      1          6           0        1.250566   -0.289022    0.521837
      2          1           0        0.541099   -0.012432   -1.469617
      3          9           0        0.071120   -0.135020    1.829176
      4          9           0        2.469676   -0.393351   -0.764274
      5          6           0        0.187042    0.151649   -0.450817
      6          1           0        1.359740   -1.338445    0.714705
      7          1           0        1.866352    0.441307    1.009690
      8          6           0       -0.179049    1.552188   -0.264311
      9          7           0       -0.411273    2.700415   -0.196190
     10          7           0       -1.045692   -0.711983   -0.319296
     11          8           0       -2.145526   -0.172312   -0.274195
     12          8           0       -0.852844   -1.920563   -0.359648
 ---------------------------------------------------------------------

 SCF Done:  E(RHF) =  -575.086648900     A.U. after    2 cycles

 The electronic state is 1-A.
 Alpha  occ. eigenvalues --  -28.97625 -28.97600 -20.97693 -20.97310 -15.87513
 Alpha  occ. eigenvalues --  -15.65092 -11.42656 -11.36068 -11.32146  -1.87255
 Alpha  occ. eigenvalues --   -1.57100  -1.22224  -1.12861  -0.93483  -0.78079
 Alpha  occ. eigenvalues --   -0.65857  -0.61084  -0.56117  -0.50574  -0.48694
 Alpha  occ. eigenvalues --   -0.46608  -0.43463  -0.39501  -0.34040  -0.32598
 Alpha  occ. eigenvalues --   -0.31022  -0.24164  -0.19774  -0.19057  -0.14015
 Alpha  occ. eigenvalues --   -0.06597  -0.04830  -0.03646  -0.02064   0.04199
 Alpha virt. eigenvalues --    0.15290   0.16138   0.16540   0.19607   0.22531
 Alpha virt. eigenvalues --    0.23008   0.23675   0.24273   0.24540   0.25921
 Alpha virt. eigenvalues --    0.26883   0.27482   0.28001   0.28811   0.30044

 Mulliken charges:
               1
     1  C   -1.820204
     2  H    1.699312
     3  F   -0.549783
     4  F   -0.597272
     5  C   -2.539297
     6  H    1.401843
     7  H    1.304547
     8  C    3.645919
     9  N   -2.838527
    10  N    5.473355
    11  O   -2.998220
    12  O   -3.181673
 Sum of Mulliken charges =  -1.00000

 Dipole moment (field-independent basis, Debye):
    X=             -1.9744    Y=             -1.5376    Z=             -0.0969  Tot=              2.5043

 Test job not archived.
 1\1\GINC-SE340\SP\RHF\Aug-CC-pVDZ\C3H3F2N2O2(1-)\OHZDE\09-Apr-2025\0\\
 #t hf aug-cc-pvdz iop(5/13=1,5/36=2,99/5=2) pseudo=read geom=check gue
 ss=(read,tcheck) scf=(maxcycle=1)\\title\\-1,1\C,0,0.57717222,-0.06923
 095,0.02198869\H,0,1.75087114,1.69848944,-0.18616609\F,0,-1.17903985,0
 .11167811,-0.06129548\F,0,2.33430874,-0.27551302,0.16729332\C,0,0.7052
 1939,1.43164433,-0.02604945\H,0,0.58713619,-0.61019336,-0.90411492\H,0
 ,0.46742936,-0.56774589,0.96539232\C,0,0.20502738,2.063033,1.1911085\N
 ,0,-0.09710241,2.57866882,2.20097495\N,0,-0.03054995,1.99087484,-1.221

 Normal termination of Gaussian 16 at Wed Apr  9 02:37:43 2025.
