 Gaussian 16, Revision C.01,

 ----------------------------------------------------------------------
 #t hf aug-cc-pvdz symm=none int=(grid=ultrafine) guess=(read,tcheck) s
 table=(opt,rrhf)
 ----------------------------------------------------------------------
 -----
 title
 -----
 Symbolic Z-matrix:
 Charge = -1 Multiplicity = 1

 SCF Done:  E(RHF) =  -630.152755521     A.U. after   16 cycles
 Normal termination of Gaussian 16 at Wed Apr  9 02:55:47 2025.
 Gaussian 16:  ES64L-G16RevC.01  3-Jul-2019

 ----------------------------------------------------------------------
 #t hf aug-cc-pvdz iop(5/13=1,5/36=2,99/5=2) pseudo=read geom=check gue
 ss=(read,tcheck) scf=(maxcycle=1)
 ----------------------------------------------------------------------
 -----
 title
 -----
 Structure from the checkpoint file:  "E2SN2_361_mol1.chk"
 Charge = -1 Multiplicity = 1

                         Standard orientation:
 ---------------------------------------------------------------------
 Center     Atomic      Atomic             Coordinates (Angstroms)
 Number     Number       Type             X           Y           Z
 ---------------------------------------------------------------------
      1          6           0        0.912860    0.042911    0.154561
      2          1           0       -0.229627    0.572248   -1.586016
      3          9           0        0.404199   -1.413984    1.129023
      4          9           0        1.382745    1.563829   -0.821198
      5          6           0       -0.304263   -0.142688   -0.773376
      6          6           0        2.228658   -0.598133   -0.243185
      7          1           0        2.477742   -1.387725    0.464006
      8          1           0        2.140394   -1.028737   -1.240921
      9          1           0        2.995629    0.173089   -0.260868
     10          7           0        0.769064    0.856237    1.323078
     11          1           0        1.341196    1.673741    1.174554
     12          1           0        1.063098    0.302681    2.113584
     13          7           0       -1.557325    0.330907   -0.025138
     14          8           0       -2.290246   -0.512430    0.490539
     15          8           0       -1.785541    1.537268   -0.035900
     16          7           0       -0.432422   -1.476441   -1.252203
     17          1           0       -1.282341   -1.573457   -1.791561
     18          1           0       -0.461047   -2.066611   -0.428482
 ---------------------------------------------------------------------

 SCF Done:  E(RHF) =  -632.803441438     A.U. after    2 cycles

 The electronic state is 1-A.
 Alpha  occ. eigenvalues --  -28.96008 -28.94251 -20.93817 -20.93665 -15.82514
 Alpha  occ. eigenvalues --  -15.60238 -15.58248 -11.45268 -11.32947 -11.22961
 Alpha  occ. eigenvalues --   -1.82836  -1.52968  -1.27739  -1.19781  -0.98315
 Alpha  occ. eigenvalues --   -0.95016  -0.76659  -0.68214  -0.61831  -0.56343
 Alpha  occ. eigenvalues --   -0.55482  -0.50928  -0.47688  -0.45264  -0.43804
 Alpha  occ. eigenvalues --   -0.42274  -0.41202  -0.34918  -0.33636  -0.29971
 Alpha  occ. eigenvalues --   -0.27470  -0.22915  -0.18762  -0.15871  -0.14972
 Alpha  occ. eigenvalues --   -0.11863  -0.03563  -0.02465  -0.01255  -0.00612
 Alpha  occ. eigenvalues --    0.02734
 Alpha virt. eigenvalues --    0.13738   0.14596   0.15179   0.15392   0.16061
 Alpha virt. eigenvalues --    0.16254   0.17933   0.18245   0.21954   0.24217
 Alpha virt. eigenvalues --    0.24746   0.25497   0.26605   0.27113   0.27625

 Mulliken charges:
               1
     1  C    6.830299
     2  H    1.787409
     3  F   -0.604025
     4  F   -0.735306
     5  C   -0.633595
     6  C   -4.761358
     7  H    1.098649
     8  H    1.250896
     9  H    1.120745
    10  N   -4.305696
    11  H    0.435479
    12  H    0.558736
    13  N    4.606022
    14  O   -2.871680
    15  O   -2.997129
    16  N   -2.738597
    17  H    0.512384
    18  H    0.446767
 Sum of Mulliken charges =  -1.00000

 Dipole moment (field-independent basis, Debye):
    X=             -0.8975    Y=             -1.1885    Z=              0.2948  Tot=              1.5182

 Test job not archived.
 1\1\GINC-SE454\SP\RHF\Aug-CC-pVDZ\C3H8F2N3O2(1-)\OHZDE\09-Apr-2025\0\\
 #t hf aug-cc-pvdz iop(5/13=1,5/36=2,99/5=2) pseudo=read geom=check gue
 ss=(read,tcheck) scf=(maxcycle=1)\\title\\-1,1\C,0,0.5892497,-0.063783
 72,-0.04750577\H,0,1.76122789,1.73656746,-0.03060182\F,0,-1.21673006,0
 .0663358,-0.27632815\F,0,2.43025343,-0.17260614,0.24395878\C,0,0.70898
 866,1.47326637,-0.05408976\C,0,0.76961515,-0.8078356,-1.35682509\H,0,-
 0.17458751,-1.26437023,-1.64952751\H,0,1.08443381,-0.11145678,-2.13440
 736\H,0,1.54627111,-1.5575426,-1.22234471\N,0,0.36836023,-0.73102895,1

 Normal termination of Gaussian 16 at Wed Apr  9 02:55:57 2025.
