 Gaussian 16, Revision C.01,

 ----------------------------------------------------------------------
 #t hf aug-cc-pvdz symm=none int=(grid=ultrafine) guess=(read,tcheck) s
 table=(opt,rrhf)
 ----------------------------------------------------------------------
 -----
 title
 -----
 Symbolic Z-matrix:
 Charge = -1 Multiplicity = 1

 SCF Done:  E(RHF) =  -907.303998711     A.U. after   16 cycles
 Normal termination of Gaussian 16 at Wed Apr  9 02:38:30 2025.
 Gaussian 16:  ES64L-G16RevC.01  3-Jul-2019

 ----------------------------------------------------------------------
 #t hf aug-cc-pvdz iop(5/13=1,5/36=2,99/5=2) pseudo=read geom=check gue
 ss=(read,tcheck) scf=(maxcycle=1)
 ----------------------------------------------------------------------
 -----
 title
 -----
 Structure from the checkpoint file:  "E2SN2_161_mol1.chk"
 Charge = -1 Multiplicity = 1

                         Standard orientation:
 ---------------------------------------------------------------------
 Center     Atomic      Atomic             Coordinates (Angstroms)
 Number     Number       Type             X           Y           Z
 ---------------------------------------------------------------------
      1          6           0       -0.833917   -0.077644   -0.527885
      2          6           0        0.484315    0.652041   -0.389680
      3         17           0       -1.315938   -0.566828    1.461143
      4          1           0        0.114372    2.055658   -2.432734
      5          1           0        0.595107    1.081905   -1.494444
      6          7           0       -1.901383    0.791034   -0.896965
      7          1           0       -1.506505    1.327171   -1.693929
      8          1           0       -2.046189    1.458186   -0.150183
      9          7           0       -0.863468   -1.190373   -1.310609
     10          1           0       -0.105462   -1.838543   -1.172357
     11          1           0       -1.791002   -1.571983   -1.404535
     12          7           0        1.636328   -0.222267   -0.039445
     13          8           0        2.498851    0.189851    0.731168
     14          8           0        1.713270   -1.327222   -0.603876
     15          7           0        0.473411    1.825358    0.391609
     16          1           0       -0.124411    1.752358    1.203161
     17          1           0        0.221476    2.597641   -0.219482
 ---------------------------------------------------------------------

 SCF Done:  E(RHF) =  -909.606789592     A.U. after    2 cycles

 The electronic state is 1-A.
 Alpha  occ. eigenvalues --  -99.70779 -20.96539 -20.95196 -15.85532 -15.64509
 Alpha  occ. eigenvalues --  -15.61859 -15.61099 -11.42922 -11.31964 -10.27883
 Alpha  occ. eigenvalues --   -9.47990  -9.47401  -9.47349  -1.85472  -1.55157
 Alpha  occ. eigenvalues --   -1.36255  -1.22814  -1.14766  -1.09186  -0.99239
 Alpha  occ. eigenvalues --   -0.80360  -0.68880  -0.64031  -0.58989  -0.56782
 Alpha  occ. eigenvalues --   -0.54553  -0.51157  -0.50204  -0.44622  -0.43432
 Alpha  occ. eigenvalues --   -0.42537  -0.38065  -0.34875  -0.33914  -0.28752
 Alpha  occ. eigenvalues --   -0.27178  -0.25555  -0.21391  -0.18492  -0.16997
 Alpha  occ. eigenvalues --   -0.13137
 Alpha virt. eigenvalues --    0.13391   0.14575   0.15171   0.16734   0.17092
 Alpha virt. eigenvalues --    0.17849   0.18986   0.19598   0.20336   0.23259
 Alpha virt. eigenvalues --    0.24893   0.25024   0.25504   0.25640   0.26748

 Mulliken charges:
               1
     1  C    5.194947
     2  C    1.956640
     3  Cl  -0.484562
     4  H   -0.836974
     5  H    1.285201
     6  N   -3.172157
     7  H    0.642689
     8  H    0.608378
     9  N   -3.994531
    10  H    0.771996
    11  H    0.707596
    12  N    3.408604
    13  O   -2.670767
    14  O   -2.930792
    15  N   -2.450694
    16  H    0.481754
    17  H    0.482672
 Sum of Mulliken charges =  -1.00000

 Dipole moment (field-independent basis, Debye):
    X=             -1.0261    Y=             -4.0587    Z=              3.0307  Tot=              5.1682

 Test job not archived.
 1\1\GINC-SE129\SP\RHF\Aug-CC-pVDZ\C2H8Cl1N4O2(1-)\OHZDE\09-Apr-2025\0\
 \#t hf aug-cc-pvdz iop(5/13=1,5/36=2,99/5=2) pseudo=read geom=check gu
 ess=(read,tcheck) scf=(maxcycle=1)\\title\\-1,1\C,0,-0.37655658,0.1230
 6771,-0.28166127\C,0,-0.13674905,0.01211538,1.20812347\Cl,0,1.5528387,
 -0.1025165,-1.09062627\H,0,-2.41804252,-0.91358495,1.67700207\H,0,-1.2
 6183643,-0.06789323,1.58935745\N,0,-1.06384003,-1.0084221,-0.80861089\
 H,0,-1.85884923,-1.13050551,-0.15166298\H,0,-0.47511844,-1.82359643,-0
 .69617391\N,0,-0.95592114,1.26290642,-0.74727928\H,0,-0.58287167,2.121

 Normal termination of Gaussian 16 at Wed Apr  9 02:38:39 2025.
