 Gaussian 16, Revision C.01,

 ----------------------------------------------------------------------
 #t hf aug-cc-pvdz symm=none int=(grid=ultrafine) guess=(read,tcheck) s
 table=(opt,rrhf)
 ----------------------------------------------------------------------
 -----
 title
 -----
 Symbolic Z-matrix:
 Charge = -1 Multiplicity = 1

 SCF Done:  E(RHF) =  -528.861495363     A.U. after   17 cycles
 Normal termination of Gaussian 16 at Wed Apr  9 02:43:01 2025.
 Gaussian 16:  ES64L-G16RevC.01  3-Jul-2019

 ----------------------------------------------------------------------
 #t hf aug-cc-pvdz iop(5/13=1,5/36=2,99/5=2) pseudo=read geom=check gue
 ss=(read,tcheck) scf=(maxcycle=1)
 ----------------------------------------------------------------------
 -----
 title
 -----
 Structure from the checkpoint file:  "E2SN2_217_mol1.chk"
 Charge = -1 Multiplicity = 1

                         Standard orientation:
 ---------------------------------------------------------------------
 Center     Atomic      Atomic             Coordinates (Angstroms)
 Number     Number       Type             X           Y           Z
 ---------------------------------------------------------------------
      1          6           0       -0.281863   -0.235427    0.442349
      2          1           0        0.607557   -0.081192   -1.487063
      3          9           0       -0.527974    1.010454    1.298447
      4          1           0       -0.110419   -1.877840   -0.554640
      5          6           0        0.892491    0.149002   -0.464387
      6          1           0       -0.152189   -0.977023    1.210697
      7          7           0       -1.582168   -0.359925   -0.223484
      8          8           0       -1.746035    0.241213   -1.292857
      9          8           0       -2.492736   -0.883186    0.429321
     10          6           0        2.046360   -0.701866   -0.102745
     11          7           0        3.069742   -1.203729    0.189617
     12          7           0        1.226389    1.581294   -0.394565
     13          1           0        2.157086    1.712803   -0.773138
     14          1           0        1.220234    1.871224    0.574124
 ---------------------------------------------------------------------

 SCF Done:  E(RHF) =  -531.124687814     A.U. after    2 cycles

 The electronic state is 1-A.
 Alpha  occ. eigenvalues --  -29.08791 -20.93586 -20.93389 -15.84484 -15.63515
 Alpha  occ. eigenvalues --  -15.62551 -11.44005 -11.36228 -11.30576  -1.83067
 Alpha  occ. eigenvalues --   -1.53054  -1.28056  -1.15206  -1.09922  -0.90105
 Alpha  occ. eigenvalues --   -0.75741  -0.63465  -0.60297  -0.58058  -0.52898
 Alpha  occ. eigenvalues --   -0.48001  -0.45902  -0.43953  -0.40468  -0.39960
 Alpha  occ. eigenvalues --   -0.32386  -0.30792  -0.25486  -0.23448  -0.22077
 Alpha  occ. eigenvalues --   -0.17233  -0.15557  -0.11935  -0.10891  -0.09030
 Alpha virt. eigenvalues --    0.13463   0.15186   0.16237   0.16891   0.19191
 Alpha virt. eigenvalues --    0.19956   0.22309   0.23216   0.23563   0.24953
 Alpha virt. eigenvalues --    0.25567   0.27066   0.27327   0.27991   0.28885

 Mulliken charges:
               1
     1  C   -1.185463
     2  H    1.835472
     3  F    0.122092
     4  H   -0.831983
     5  C   -0.455410
     6  H    1.895470
     7  N    5.030964
     8  O   -2.986847
     9  O   -3.057356
    10  C    3.064913
    11  N   -2.799842
    12  N   -2.585431
    13  H    0.586040
    14  H    0.367381
 Sum of Mulliken charges =  -1.00000

 Dipole moment (field-independent basis, Debye):
    X=             -0.4282    Y=              7.6807    Z=              2.5700  Tot=              8.1106

 Test job not archived.
 1\1\GINC-SE106\SP\RHF\Aug-CC-pVDZ\C3H5F1N3O2(1-)\OHZDE\09-Apr-2025\0\\
 #t hf aug-cc-pvdz iop(5/13=1,5/36=2,99/5=2) pseudo=read geom=check gue
 ss=(read,tcheck) scf=(maxcycle=1)\\title\\-1,1\C,0,0.1802179,-0.013120
 28,-0.22636681\H,0,1.6053517,1.52195883,-0.6136815\F,0,-1.17571784,-0.
 02737219,-0.93835643\H,0,1.87561883,-0.17098412,0.68005313\C,0,0.59427
 552,1.46254521,-0.22094899\H,0,-0.07812379,-0.50612848,0.69414484\N,0,
 0.95464398,-0.88526185,-1.1147692\O,0,1.5438813,-0.36380748,-2.0701030
 1\O,0,0.79658225,-2.10350942,-0.97342021\C,0,0.61512628,1.92592907,1.1

 Normal termination of Gaussian 16 at Wed Apr  9 02:43:07 2025.
