 Gaussian 16, Revision C.01,

 ----------------------------------------------------------------------
 #t hf aug-cc-pvdz symm=none int=(grid=ultrafine) guess=(read,tcheck) s
 table=(opt,rrhf)
 ----------------------------------------------------------------------
 -----
 title
 -----
 Symbolic Z-matrix:
 Charge = -1 Multiplicity = 1

 SCF Done:  E(RHF) =  -555.083308148     A.U. after   16 cycles
 Normal termination of Gaussian 16 at Wed Apr  9 02:49:34 2025.
 Gaussian 16:  ES64L-G16RevC.01  3-Jul-2019

 ----------------------------------------------------------------------
 #t hf aug-cc-pvdz iop(5/13=1,5/36=2,99/5=2) pseudo=read geom=check gue
 ss=(read,tcheck) scf=(maxcycle=1)
 ----------------------------------------------------------------------
 -----
 title
 -----
 Structure from the checkpoint file:  "E2SN2_282_mol1.chk"
 Charge = -1 Multiplicity = 1

                         Standard orientation:
 ---------------------------------------------------------------------
 Center     Atomic      Atomic             Coordinates (Angstroms)
 Number     Number       Type             X           Y           Z
 ---------------------------------------------------------------------
      1          6           0        0.433992    0.332241    0.097045
      2          1           0       -0.605853    0.033871   -1.725546
      3          9           0       -0.074940   -0.558688    1.558418
      4          9           0        1.105958    1.127509   -1.436189
      5          6           0       -0.682440   -0.338008   -0.705212
      6          6           0        1.728467   -0.319089    0.174885
      7          7           0        2.783809   -0.819901    0.299740
      8          6           0        0.229657    1.703780    0.700591
      9          1           0        1.202269    2.156978    0.888718
     10          1           0       -0.291144    2.331689   -0.020795
     11          1           0       -0.335708    1.623654    1.626688
     12          6           0       -1.995448    0.082637   -0.162008
     13          7           0       -3.087471    0.352669    0.178346
     14          7           0       -0.513485   -1.784199   -0.705698
     15          1           0       -1.298344   -2.216440   -1.178530
     16          1           0       -0.515719   -2.058491    0.270883
 ---------------------------------------------------------------------

 SCF Done:  E(RHF) =  -557.419036995     A.U. after    2 cycles

 The electronic state is 1-A.
 Alpha  occ. eigenvalues --  -28.99728 -28.96849 -15.64186 -15.62279 -15.61189
 Alpha  occ. eigenvalues --  -11.48551 -11.37766 -11.32018 -11.30376 -11.26399
 Alpha  occ. eigenvalues --   -1.29682  -1.16986  -1.15794  -1.08032  -0.90745
 Alpha  occ. eigenvalues --   -0.83598  -0.66403  -0.60122  -0.56378  -0.53682
 Alpha  occ. eigenvalues --   -0.45812  -0.45042  -0.41514  -0.40170  -0.39380
 Alpha  occ. eigenvalues --   -0.37648  -0.36247  -0.32808  -0.30594  -0.28479
 Alpha  occ. eigenvalues --   -0.27138  -0.24930  -0.14515  -0.06414  -0.05631
 Alpha  occ. eigenvalues --   -0.03751  -0.03248   0.01410
 Alpha virt. eigenvalues --    0.13377   0.14742   0.15447   0.15979   0.16511
 Alpha virt. eigenvalues --    0.17785   0.18674   0.20266   0.20925   0.22261
 Alpha virt. eigenvalues --    0.23482   0.23771   0.25185   0.25756   0.26621

 Mulliken charges:
               1
     1  C    5.706093
     2  H    1.548079
     3  F   -0.545436
     4  F   -0.643200
     5  C   -3.205159
     6  C    1.970485
     7  N   -3.118659
     8  C   -5.213211
     9  H    1.158540
    10  H    1.174525
    11  H    1.053379
    12  C    3.790915
    13  N   -3.022796
    14  N   -2.841063
    15  H    0.659119
    16  H    0.528391
 Sum of Mulliken charges =  -1.00000

 Dipole moment (field-independent basis, Debye):
    X=             -2.6256    Y=             -0.2507    Z=             -0.0022  Tot=              2.6375

 Test job not archived.
 1\1\GINC-SE040\SP\RHF\Aug-CC-pVDZ\C5H6F2N3(1-)\OHZDE\09-Apr-2025\0\\#t
  hf aug-cc-pvdz iop(5/13=1,5/36=2,99/5=2) pseudo=read geom=check guess
 =(read,tcheck) scf=(maxcycle=1)\\title\\-1,1\C,0,0.6443499,-0.02426897
 ,0.02210733\H,0,1.67890503,1.82268368,0.12508178\F,0,-1.13189729,-0.03
 07864,-0.16032061\F,0,2.49739832,-0.05598359,0.02140905\C,0,0.64182784
 ,1.50517207,0.03074366\C,0,0.75748825,-0.71722349,-1.24792059\N,0,0.81
 111762,-1.3278536,-2.2501198\C,0,0.64670274,-0.80007696,1.32028118\H,0
 ,1.02095612,-1.80565002,1.13184012\H,0,1.33269461,-0.31948336,2.016230

 Normal termination of Gaussian 16 at Wed Apr  9 02:49:41 2025.
