 Gaussian 16, Revision C.01,

 ----------------------------------------------------------------------
 #t hf aug-cc-pvdz symm=none int=(grid=ultrafine) guess=(read,tcheck) s
 table=(opt,rrhf)
 ----------------------------------------------------------------------
 -----
 title
 -----
 Symbolic Z-matrix:
 Charge = -1 Multiplicity = 1

 SCF Done:  E(RHF) =  -876.140489507     A.U. after   16 cycles
 Normal termination of Gaussian 16 at Wed Apr  9 02:41:08 2025.
 Gaussian 16:  ES64L-G16RevC.01  3-Jul-2019

 ----------------------------------------------------------------------
 #t hf aug-cc-pvdz iop(5/13=1,5/36=2,99/5=2) pseudo=read geom=check gue
 ss=(read,tcheck) scf=(maxcycle=1)
 ----------------------------------------------------------------------
 -----
 title
 -----
 Structure from the checkpoint file:  "E2SN2_202_mol2.chk"
 Charge = -1 Multiplicity = 1

                         Standard orientation:
 ---------------------------------------------------------------------
 Center     Atomic      Atomic             Coordinates (Angstroms)
 Number     Number       Type             X           Y           Z
 ---------------------------------------------------------------------
      1          6           0        0.767499   -0.274056    0.362476
      2          6           0       -0.329654    0.324101   -0.554689
      3         17           0        2.392860    0.211448   -0.332402
      4          1           0        0.124309    0.541939   -1.530157
      5          1           0        0.724159    0.217507    1.330348
      6          7           0        0.647590   -1.699529    0.400608
      7          1           0        1.392855   -2.058436    0.989446
      8          1           0       -0.241344   -1.739759    0.945167
      9          6           0       -0.803185    1.597337   -0.007381
     10          7           0       -1.116994    2.670660    0.347822
     11          6           0       -1.461978   -0.569700   -0.830621
     12          7           0       -2.320104   -1.197300   -1.330162
     13          9           0       -1.354236   -0.604307    1.574383
 ---------------------------------------------------------------------

 SCF Done:  E(RHF) =  -878.175132549     A.U. after    2 cycles

 The electronic state is 1-A.
 Alpha  occ. eigenvalues --  -99.76474 -28.91293 -15.64491 -15.62388 -15.60048
 Alpha  occ. eigenvalues --  -11.41925 -11.36059 -11.33315 -11.30840 -10.33829
 Alpha  occ. eigenvalues --   -9.53868  -9.53083  -9.52996  -1.31117  -1.19324
 Alpha  occ. eigenvalues --   -1.15564  -1.14372  -1.03578  -0.80079  -0.65966
 Alpha  occ. eigenvalues --   -0.62362  -0.57606  -0.52029  -0.46345  -0.43772
 Alpha  occ. eigenvalues --   -0.40719  -0.39476  -0.38340  -0.37962  -0.33424
 Alpha  occ. eigenvalues --   -0.31700  -0.30737  -0.29258  -0.26597  -0.25527
 Alpha  occ. eigenvalues --   -0.01282  -0.00234   0.00857
 Alpha virt. eigenvalues --    0.13852   0.14425   0.16235   0.17393   0.19280
 Alpha virt. eigenvalues --    0.20205   0.20624   0.22461   0.22896   0.23307
 Alpha virt. eigenvalues --    0.24451   0.25118   0.25348   0.26097   0.26592

 Mulliken charges:
               1
     1  C   -0.388466
     2  C   -2.778528
     3  Cl  -0.200139
     4  H    1.486810
     5  H    1.985134
     6  N   -2.729667
     7  H    0.649337
     8  H    0.364256
     9  C    3.330451
    10  N   -2.919546
    11  C    4.151091
    12  N   -3.214393
    13  F   -0.736340
 Sum of Mulliken charges =  -1.00000

 Dipole moment (field-independent basis, Debye):
    X=              3.1091    Y=             -0.3328    Z=              0.7409  Tot=              3.2135

 Test job not archived.
 1\1\GINC-SE461\SP\RHF\Aug-CC-pVDZ\C4H4Cl1F1N3(1-)\OHZDE\09-Apr-2025\0\
 \#t hf aug-cc-pvdz iop(5/13=1,5/36=2,99/5=2) pseudo=read geom=check gu
 ess=(read,tcheck) scf=(maxcycle=1)\\title\\-1,1\C,0,-0.089194,0.03801,
 0.020712\C,0,-0.516985,-0.074334,-1.46492\Cl,0,1.700652,0.432828,0.051
 344\H,0,0.383739,-0.257523,-2.065096\H,0,-0.570179,0.906915,0.461104\N
 ,0,-0.338122,-1.199456,0.694892\H,0,-0.026116,-1.098076,1.655797\H,0,-
 1.379846,-1.143711,0.686542\C,0,-1.08639,1.195419,-1.921441\N,0,-1.439
 559,2.231973,-2.342744\C,0,-1.430519,-1.184657,-1.764613\N,0,-1.972152

 Normal termination of Gaussian 16 at Wed Apr  9 02:41:13 2025.
