 Gaussian 16, Revision C.01,

 ----------------------------------------------------------------------
 #t hf aug-cc-pvdz symm=none int=(grid=ultrafine) guess=(read,tcheck) s
 table=(opt,rrhf)
 ----------------------------------------------------------------------
 -----
 title
 -----
 Symbolic Z-matrix:
 Charge = -1 Multiplicity = 1

 SCF Done:  E(RHF) =  -465.669456116     A.U. after   13 cycles
 Normal termination of Gaussian 16 at Wed Apr  9 02:55:24 2025.
 Gaussian 16:  ES64L-G16RevC.01  3-Jul-2019

 ----------------------------------------------------------------------
 #t hf aug-cc-pvdz iop(5/13=1,5/36=2,99/5=2) pseudo=read geom=check gue
 ss=(read,tcheck) scf=(maxcycle=1)
 ----------------------------------------------------------------------
 -----
 title
 -----
 Structure from the checkpoint file:  "E2SN2_353_mol1.chk"
 Charge = -1 Multiplicity = 1

                         Standard orientation:
 ---------------------------------------------------------------------
 Center     Atomic      Atomic             Coordinates (Angstroms)
 Number     Number       Type             X           Y           Z
 ---------------------------------------------------------------------
      1          6           0       -0.534686   -0.004858    0.017512
      2          1           0        0.872022   -0.420769   -1.502541
      3          9           0       -0.531691    1.925064    0.237480
      4          9           0       -0.642490   -1.881699   -0.291206
      5          6           0        0.949597   -0.094050   -0.455288
      6          6           0       -1.655433    0.147677   -0.987196
      7          1           0       -2.095514    1.136725   -0.899679
      8          1           0       -1.266239    0.006417   -1.998835
      9          1           0       -2.397275   -0.630030   -0.810664
     10          6           0       -0.857357   -0.114292    1.485742
     11          1           0       -1.031043   -1.156911    1.744617
     12          1           0       -0.025736    0.275763    2.070989
     13          1           0       -1.739773    0.487261    1.703511
     14          7           0        1.662759   -1.068720    0.368338
     15          1           0        2.578976   -1.183803   -0.051751
     16          1           0        1.128888   -1.925365    0.266521
     17          7           0        1.765298    1.117102   -0.427076
     18          1           0        2.042196    1.202612    0.548005
     19          1           0        1.092005    1.872278   -0.540083
 ---------------------------------------------------------------------

 SCF Done:  E(RHF) =  -467.694668821     A.U. after    2 cycles

 The electronic state is 1-A.
 Alpha  occ. eigenvalues --  -28.93607 -28.92732 -15.56363 -15.55537 -11.37972
 Alpha  occ. eigenvalues --  -11.28503 -11.22836 -11.20902  -1.26225  -1.07043
 Alpha  occ. eigenvalues --   -1.05973  -0.87766  -0.78287  -0.63082  -0.55627
 Alpha  occ. eigenvalues --   -0.53349  -0.51225  -0.44992  -0.43085  -0.40745
 Alpha  occ. eigenvalues --   -0.37908  -0.35429  -0.33111  -0.31782  -0.30762
 Alpha  occ. eigenvalues --   -0.27923  -0.21716  -0.19357  -0.09102  -0.02063
 Alpha  occ. eigenvalues --   -0.00793  -0.00148   0.01753   0.03291
 Alpha virt. eigenvalues --    0.14473   0.14785   0.15111   0.15632   0.15827
 Alpha virt. eigenvalues --    0.16093   0.16807   0.17460   0.18515   0.19060
 Alpha virt. eigenvalues --    0.19591   0.23850   0.24805   0.25546   0.25866

 Mulliken charges:
               1
     1  C    6.277981
     2  H    1.630547
     3  F   -0.909264
     4  F   -0.782236
     5  C    0.189086
     6  C   -4.899344
     7  H    1.077424
     8  H    1.246507
     9  H    1.124690
    10  C   -5.650131
    11  H    1.075030
    12  H    1.283998
    13  H    1.238486
    14  N   -2.882407
    15  H    0.530474
    16  H    0.589239
    17  N   -2.911894
    18  H    0.445569
    19  H    0.326243
 Sum of Mulliken charges =  -1.00000

 Dipole moment (field-independent basis, Debye):
    X=              0.0248    Y=             -0.6960    Z=              0.1766  Tot=              0.7185

 Test job not archived.
 1\1\GINC-SE112\SP\RHF\Aug-CC-pVDZ\C4H11F2N2(1-)\OHZDE\09-Apr-2025\0\\#
 t hf aug-cc-pvdz iop(5/13=1,5/36=2,99/5=2) pseudo=read geom=check gues
 s=(read,tcheck) scf=(maxcycle=1)\\title\\-1,1\C,0,0.5608743,0.0068444,
 -0.05923148\H,0,1.35753756,1.73913337,-0.96855928\F,0,-1.25948735,-0.1
 5534098,-0.717237\F,0,2.38677395,0.08361704,0.47896904\C,0,0.61435379,
 1.56175096,-0.17753746\C,0,1.01499985,-0.86912289,-1.20606719\H,0,0.15
 947551,-1.376332,-1.64237284\H,0,1.50661544,-0.2566491,-1.96634993\H,0
 ,1.74945282,-1.58347777,-0.83647607\C,0,0.09223999,-0.62749212,1.22520

 Normal termination of Gaussian 16 at Wed Apr  9 02:55:32 2025.
