 Gaussian 16, Revision C.01,

 ----------------------------------------------------------------------
 #t hf aug-cc-pvdz symm=none int=(grid=ultrafine) guess=(read,tcheck) s
 table=(opt,rrhf)
 ----------------------------------------------------------------------
 -----
 title
 -----
 Symbolic Z-matrix:
 Charge = -1 Multiplicity = 1

 SCF Done:  E(RHF) =  -971.901802894     A.U. after   16 cycles
 Normal termination of Gaussian 16 at Wed Apr  9 02:40:34 2025.
 Gaussian 16:  ES64L-G16RevC.01  3-Jul-2019

 ----------------------------------------------------------------------
 #t hf aug-cc-pvdz iop(5/13=1,5/36=2,99/5=2) pseudo=read geom=check gue
 ss=(read,tcheck) scf=(maxcycle=1)
 ----------------------------------------------------------------------
 -----
 title
 -----
 Structure from the checkpoint file:  "E2SN2_187_mol2.chk"
 Charge = -1 Multiplicity = 1

                         Standard orientation:
 ---------------------------------------------------------------------
 Center     Atomic      Atomic             Coordinates (Angstroms)
 Number     Number       Type             X           Y           Z
 ---------------------------------------------------------------------
      1          6           0       -0.962859    0.285797    0.346497
      2          6           0        0.260949    0.005184   -0.523516
      3         17           0       -2.416715   -0.491777   -0.446677
      4          1           0       -0.060079   -0.263767   -1.540673
      5          1           0       -0.810092   -0.224379    1.287420
      6          6           0       -1.228953    1.756085    0.569111
      7          1           0       -1.327454    2.305996   -0.370134
      8          1           0       -0.368514    2.105661    1.139599
      9          1           0       -2.145861    1.883544    1.148909
     10          7           0        0.999192   -1.228652   -0.062267
     11          8           0        2.144212   -1.361716   -0.475179
     12          8           0        0.366951   -2.070188    0.560975
     13          6           0        1.194421    1.122298   -0.635942
     14          7           0        1.814490    2.037289   -1.038726
     15          9           0        1.158860    0.592416    1.601340
 ---------------------------------------------------------------------

 SCF Done:  E(RHF) =  -974.330623827     A.U. after    2 cycles

 The electronic state is 1-A.
 Alpha  occ. eigenvalues --  -99.76121 -28.90319 -20.96478 -20.96217 -15.86685
 Alpha  occ. eigenvalues --  -15.62328 -11.42376 -11.34730 -11.31820 -11.26304
 Alpha  occ. eigenvalues --  -10.33452  -9.53507  -9.52806  -9.52645  -1.86365
 Alpha  occ. eigenvalues --   -1.56214  -1.25766  -1.16902  -1.09232  -0.99027
 Alpha  occ. eigenvalues --   -0.79960  -0.76302  -0.65047  -0.59667  -0.55258
 Alpha  occ. eigenvalues --   -0.52064  -0.47773  -0.46926  -0.44326  -0.41411
 Alpha  occ. eigenvalues --   -0.40317  -0.38592  -0.36368  -0.35655  -0.33477
 Alpha  occ. eigenvalues --   -0.30362  -0.26436  -0.22593  -0.18791  -0.17709
 Alpha  occ. eigenvalues --    0.00119   0.00642   0.01039
 Alpha virt. eigenvalues --    0.13352   0.14185   0.15392   0.16778   0.17454
 Alpha virt. eigenvalues --    0.18051   0.20221   0.22041   0.23776   0.23969
 Alpha virt. eigenvalues --    0.24330   0.24991   0.25385   0.26244   0.26754

 Mulliken charges:
               1
     1  C   -0.683837
     2  C   -5.176865
     3  Cl  -0.314146
     4  H    1.750704
     5  H    1.699692
     6  C   -3.729665
     7  H    1.223749
     8  H    1.151143
     9  H    1.129052
    10  N    6.249096
    11  O   -3.264123
    12  O   -3.127524
    13  C    6.460923
    14  N   -3.431891
    15  F   -0.936307
 Sum of Mulliken charges =  -1.00000

 Dipole moment (field-independent basis, Debye):
    X=             -2.2036    Y=             -1.3687    Z=              1.0598  Tot=              2.8022

 Test job not archived.
 1\1\GINC-SE070\SP\RHF\Aug-CC-pVDZ\C4H5Cl1F1N2O2(1-)\OHZDE\09-Apr-2025\
 0\\#t hf aug-cc-pvdz iop(5/13=1,5/36=2,99/5=2) pseudo=read geom=check
 guess=(read,tcheck) scf=(maxcycle=1)\\title\\-1,1\C,0,-0.116811,0.0223
 34,0.064157\C,0,-0.625556,-0.318456,-1.335276\Cl,0,1.655981,0.456297,-
 0.063622\H,0,0.223744,-0.564145,-1.989744\H,0,-0.634948,0.915739,0.384
 023\C,0,-0.297869,-1.092506,1.067381\H,0,0.166572,-2.025362,0.738197\H
 ,0,-1.37822,-1.203715,1.159516\H,0,0.136957,-0.802683,2.026579\N,0,-1.
 239304,0.884222,-2.011283\O,0,-1.949572,0.656899,-2.982424\O,0,-0.8750

 Normal termination of Gaussian 16 at Wed Apr  9 02:40:41 2025.
