 Gaussian 16, Revision C.01,

 ----------------------------------------------------------------------
 #t hf aug-cc-pvdz symm=none int=(grid=ultrafine) guess=(read,tcheck) s
 table=(opt,rrhf)
 ----------------------------------------------------------------------
 -----
 title
 -----
 Symbolic Z-matrix:
 Charge = -1 Multiplicity = 1

 SCF Done:  E(RHF) =  -974.323992879     A.U. after   15 cycles
 Normal termination of Gaussian 16 at Wed Apr  9 02:47:31 2025.
 Gaussian 16:  ES64L-G16RevC.01  3-Jul-2019

 ----------------------------------------------------------------------
 #t hf aug-cc-pvdz iop(5/13=1,5/36=2,99/5=2) pseudo=read geom=check gue
 ss=(read,tcheck) scf=(maxcycle=1)
 ----------------------------------------------------------------------
 -----
 title
 -----
 Structure from the checkpoint file:  "E2SN2_246_mol2.chk"
 Charge = -1 Multiplicity = 1

                         Standard orientation:
 ---------------------------------------------------------------------
 Center     Atomic      Atomic             Coordinates (Angstroms)
 Number     Number       Type             X           Y           Z
 ---------------------------------------------------------------------
      1          6           0        0.742951    0.125712   -0.518421
      2          6           0        0.290144    1.236813    0.407511
      3          9           0        1.613025    0.667172   -1.483729
      4          1           0        1.203168    1.791758    0.643568
      5          7           0        1.780503   -0.772777    0.254083
      6          8           0        2.676629   -0.195984    0.863460
      7          8           0        1.655278   -1.992414    0.173899
      8          7           0       -0.250182   -0.607662   -1.106153
      9          1           0       -1.179168   -0.601243   -0.670873
     10          1           0        0.028594   -1.536510   -1.382097
     11          6           0       -0.320701    0.691544    1.697620
     12          1           0       -0.588403    1.528727    2.349044
     13          1           0        0.384118    0.061208    2.245995
     14          1           0       -1.231827    0.126890    1.490659
     15          6           0       -0.691563    2.150164   -0.327214
     16          1           0       -0.286403    2.464780   -1.291269
     17          1           0       -0.881245    3.041953    0.278076
     18          1           0       -1.642812    1.639480   -0.488004
     19         17           0       -3.283279   -0.739808    0.016889
 ---------------------------------------------------------------------

 SCF Done:  E(RHF) =  -976.830167371     A.U. after    2 cycles

 The electronic state is 1-A.
 Alpha  occ. eigenvalues --  -99.61542 -29.15769 -20.99375 -20.98796 -15.87120
 Alpha  occ. eigenvalues --  -15.62147 -11.47013 -11.32161 -11.27608 -11.25106
 Alpha  occ. eigenvalues --  -10.18221  -9.38267  -9.37931  -9.37850  -1.88064
 Alpha  occ. eigenvalues --   -1.58487  -1.32790  -1.11527  -1.01296  -0.97323
 Alpha  occ. eigenvalues --   -0.90380  -0.81390  -0.74032  -0.64236  -0.62360
 Alpha  occ. eigenvalues --   -0.56453  -0.54941  -0.49130  -0.48048  -0.47328
 Alpha  occ. eigenvalues --   -0.44208  -0.42670  -0.38740  -0.36127  -0.35225
 Alpha  occ. eigenvalues --   -0.30610  -0.29303  -0.25921  -0.25332  -0.25167
 Alpha  occ. eigenvalues --   -0.22394  -0.21452  -0.19368  -0.14938  -0.14189
 Alpha virt. eigenvalues --    0.12658   0.13551   0.14019   0.14321   0.15726
 Alpha virt. eigenvalues --    0.16069   0.17535   0.18218   0.19792   0.20646
 Alpha virt. eigenvalues --    0.22072   0.23066   0.23387   0.24485   0.24937

 Mulliken charges:
               1
     1  C    5.260829
     2  C   -1.545761
     3  F    0.277891
     4  H    1.863649
     5  N    3.924972
     6  O   -3.210369
     7  O   -2.806311
     8  N   -4.069838
     9  H    0.504067
    10  H    0.642047
    11  C   -4.239439
    12  H    1.101683
    13  H    1.128849
    14  H    1.374183
    15  C   -3.865277
    16  H    1.135096
    17  H    1.090788
    18  H    1.403226
    19  Cl  -0.970285
 Sum of Mulliken charges =  -1.00000

 Dipole moment (field-independent basis, Debye):
    X=             10.4138    Y=              4.1437    Z=             -1.3029  Tot=             11.2834

 Test job not archived.
 1\1\GINC-SE059\SP\RHF\Aug-CC-pVDZ\C4H9Cl1F1N2O2(1-)\OHZDE\09-Apr-2025\
 0\\#t hf aug-cc-pvdz iop(5/13=1,5/36=2,99/5=2) pseudo=read geom=check
 guess=(read,tcheck) scf=(maxcycle=1)\\title\\-1,1\C,0,-0.084222,0.0177
 04,0.040195\C,0,-0.447699,0.449155,-1.366455\F,0,1.285975,-0.303783,0.
 075333\H,0,0.353147,1.133072,-1.663445\N,0,-0.048093,1.296829,0.958394
 \O,0,0.559935,2.274785,0.532981\O,0,-0.596621,1.231224,2.055863\N,0,-0
 .840481,-0.988999,0.573301\H,0,-1.765759,-1.16658,0.167284\H,0,-0.8645
 19,-0.999925,1.581231\C,0,-1.786194,1.184928,-1.41006\H,0,-1.980702,1.

 Normal termination of Gaussian 16 at Wed Apr  9 02:47:42 2025.
