 Gaussian 16, Revision C.01,

 ----------------------------------------------------------------------
 #t hf aug-cc-pvdz symm=none int=(grid=ultrafine) guess=(read,tcheck) s
 table=(opt,rrhf)
 ----------------------------------------------------------------------
 -----
 title
 -----
 Symbolic Z-matrix:
 Charge = -1 Multiplicity = 1

 SCF Done:  E(RHF) =  -1010.94592399     A.U. after   16 cycles
 Normal termination of Gaussian 16 at Wed Apr  9 02:50:29 2025.
 Gaussian 16:  ES64L-G16RevC.01  3-Jul-2019

 ----------------------------------------------------------------------
 #t hf aug-cc-pvdz iop(5/13=1,5/36=2,99/5=2) pseudo=read geom=check gue
 ss=(read,tcheck) scf=(maxcycle=1)
 ----------------------------------------------------------------------
 -----
 title
 -----
 Structure from the checkpoint file:  "E2SN2_281_mol2.chk"
 Charge = -1 Multiplicity = 1

                         Standard orientation:
 ---------------------------------------------------------------------
 Center     Atomic      Atomic             Coordinates (Angstroms)
 Number     Number       Type             X           Y           Z
 ---------------------------------------------------------------------
      1          6           0       -0.591709   -0.305366   -0.322896
      2          6           0        0.389426    0.628201    0.405669
      3         17           0       -0.071373   -2.051100   -0.112295
      4          1           0        0.026487    1.643729    0.013085
      5          6           0       -1.899446   -0.207912    0.334065
      6          7           0       -2.953928   -0.239300    0.851098
      7          6           0       -0.776426   -0.007183   -1.804419
      8          1           0        0.149115   -0.186971   -2.345590
      9          1           0       -1.049488    1.054101   -1.823068
     10          1           0       -1.572452   -0.637436   -2.207629
     11          7           0        1.778557    0.345413   -0.039033
     12          8           0        2.613785   -0.003960    0.800478
     13          8           0        2.044261    0.502339   -1.233128
     14          6           0        0.277704    0.580673    1.912009
     15          1           0        1.060322    1.193420    2.360192
     16          1           0        0.363434   -0.432095    2.313916
     17          1           0       -0.686965    1.010734    2.183072
     18          9           0       -1.167909    2.484770   -0.439421
 ---------------------------------------------------------------------

 SCF Done:  E(RHF) =  -1013.57616516     A.U. after    2 cycles

 The electronic state is 1-A.
 Alpha  occ. eigenvalues --  -99.77717 -28.91633 -20.97283 -20.96834 -15.86613
 Alpha  occ. eigenvalues --  -15.64581 -11.42291 -11.34533 -11.33002 -11.27596
 Alpha  occ. eigenvalues --  -11.25774 -10.35061  -9.55077  -9.54462  -9.54348
 Alpha  occ. eigenvalues --   -1.86560  -1.56219  -1.29054  -1.16473  -1.12501
 Alpha  occ. eigenvalues --   -1.01152  -0.90696  -0.83985  -0.70459  -0.63992
 Alpha  occ. eigenvalues --   -0.58834  -0.55470  -0.52308  -0.48875  -0.48568
 Alpha  occ. eigenvalues --   -0.45552  -0.44814  -0.42615  -0.42061  -0.41416
 Alpha  occ. eigenvalues --   -0.38936  -0.36946  -0.35172  -0.31936  -0.30107
 Alpha  occ. eigenvalues --   -0.25818  -0.22845  -0.19335  -0.18394  -0.00924
 Alpha  occ. eigenvalues --   -0.00157   0.01922
 Alpha virt. eigenvalues --    0.13588   0.14359   0.14948   0.15708   0.16364
 Alpha virt. eigenvalues --    0.16901   0.18226   0.18768   0.20056   0.21561
 Alpha virt. eigenvalues --    0.22739   0.22932   0.24131   0.24713   0.25187

 Mulliken charges:
               1
     1  C    0.681302
     2  C    0.398687
     3  Cl  -0.147202
     4  H    1.042667
     5  C    3.204538
     6  N   -3.105058
     7  C   -3.980002
     8  H    1.370477
     9  H    1.045795
    10  H    1.187854
    11  N    3.534343
    12  O   -2.753184
    13  O   -3.021704
    14  C   -3.572238
    15  H    1.172703
    16  H    1.190967
    17  H    1.256601
    18  F   -0.506547
 Sum of Mulliken charges =  -1.00000

 Dipole moment (field-independent basis, Debye):
    X=              2.1647    Y=             -2.1935    Z=             -0.0972  Tot=              3.0833

 Test job not archived.
 1\1\GINC-SE112\SP\RHF\Aug-CC-pVDZ\C5H7Cl1F1N2O2(1-)\OHZDE\09-Apr-2025\
 0\\#t hf aug-cc-pvdz iop(5/13=1,5/36=2,99/5=2) pseudo=read geom=check
 guess=(read,tcheck) scf=(maxcycle=1)\\title\\-1,1\C,0,0.000278,-0.0270
 65,0.011252\C,0,-0.58264,-0.108032,-1.409533\Cl,0,1.832463,-0.056199,-
 0.059026\H,0,-1.691462,-0.26861,-1.160794\C,0,-0.34583,1.279429,0.5809
 5\N,0,-0.520252,2.330356,1.076297\C,0,-0.487246,-1.109634,0.964304\H,0
 ,-0.143452,-2.087122,0.63546\H,0,-1.579041,-1.031455,0.908571\H,0,-0.1
 17245,-0.903721,1.971356\N,0,-0.015759,-1.282967,-2.120579\O,0,0.61360

 Normal termination of Gaussian 16 at Wed Apr  9 02:50:40 2025.
