 Gaussian 16, Revision C.01,

 ----------------------------------------------------------------------
 #t hf aug-cc-pvdz symm=none int=(grid=ultrafine) guess=(read,tcheck) s
 table=(opt,rrhf)
 ----------------------------------------------------------------------
 -----
 title
 -----
 Symbolic Z-matrix:
 Charge = -1 Multiplicity = 1

 SCF Done:  E(RHF) =  -935.191869146     A.U. after   16 cycles
 Normal termination of Gaussian 16 at Wed Apr  9 02:45:21 2025.
 Gaussian 16:  ES64L-G16RevC.01  3-Jul-2019

 ----------------------------------------------------------------------
 #t hf aug-cc-pvdz iop(5/13=1,5/36=2,99/5=2) pseudo=read geom=check gue
 ss=(read,tcheck) scf=(maxcycle=1)
 ----------------------------------------------------------------------
 -----
 title
 -----
 Structure from the checkpoint file:  "E2SN2_244_mol1.chk"
 Charge = -1 Multiplicity = 1

                         Standard orientation:
 ---------------------------------------------------------------------
 Center     Atomic      Atomic             Coordinates (Angstroms)
 Number     Number       Type             X           Y           Z
 ---------------------------------------------------------------------
      1          6           0       -0.131648   -0.163831    0.185396
      2          1           0       -1.143964    0.296848   -1.648329
      3          9           0        0.224272   -2.092243    0.329844
      4         17           0       -0.245223    2.031781    0.029957
      5          6           0       -1.170177   -0.469768   -0.875950
      6          1           0       -0.893700   -1.419404   -1.323758
      7          7           0        1.307136   -0.169976   -0.290689
      8          8           0        1.501474   -0.279395   -1.494335
      9          8           0        2.176358   -0.049427    0.563016
     10          7           0       -0.381578   -0.191381    1.572160
     11          1           0        0.113671    0.563712    2.022384
     12          1           0       -0.027514   -1.093448    1.868390
     13          6           0       -2.551438   -0.557541   -0.249166
     14          1           0       -2.569603   -1.362665    0.485390
     15          1           0       -2.808582    0.373977    0.256855
     16          1           0       -3.301953   -0.762187   -1.020217
 ---------------------------------------------------------------------

 SCF Done:  E(RHF) =  -937.516492459     A.U. after    2 cycles

 The electronic state is 1-A.
 Alpha  occ. eigenvalues --  -99.68068 -28.94999 -20.94709 -20.94521 -15.84984
 Alpha  occ. eigenvalues --  -15.61072 -11.45848 -11.28962 -11.23454 -10.25151
 Alpha  occ. eigenvalues --   -9.45273  -9.44732  -9.44671  -1.84543  -1.54674
 Alpha  occ. eigenvalues --   -1.27502  -1.07698  -1.04033  -0.95844  -0.78707
 Alpha  occ. eigenvalues --   -0.64801  -0.63021  -0.57976  -0.51781  -0.49799
 Alpha  occ. eigenvalues --   -0.49137  -0.43915  -0.39060  -0.38385  -0.35684
 Alpha  occ. eigenvalues --   -0.33386  -0.32029  -0.31676  -0.30408  -0.28092
 Alpha  occ. eigenvalues --   -0.20382  -0.17243  -0.16046  -0.05565  -0.02776
 Alpha  occ. eigenvalues --   -0.01424
 Alpha virt. eigenvalues --    0.13076   0.14859   0.15486   0.15776   0.16269
 Alpha virt. eigenvalues --    0.17030   0.18700   0.20836   0.21876   0.24026
 Alpha virt. eigenvalues --    0.25715   0.25942   0.26203   0.27155   0.27483

 Mulliken charges:
               1
     1  C    4.704184
     2  H    1.440033
     3  F   -0.598121
     4  Cl  -0.705204
     5  C   -3.035716
     6  H    1.216806
     7  N    5.229914
     8  O   -3.307605
     9  O   -3.326547
    10  N   -3.389203
    11  H    0.675278
    12  H    0.359686
    13  C   -3.883088
    14  H    1.317712
    15  H    1.289803
    16  H    1.012071
 Sum of Mulliken charges =  -1.00000

 Dipole moment (field-independent basis, Debye):
    X=             -0.7754    Y=             -4.6506    Z=              0.4434  Tot=              4.7356

 Test job not archived.
 1\1\GINC-SE424\SP\RHF\Aug-CC-pVDZ\C3H7Cl1F1N2O2(1-)\OHZDE\09-Apr-2025\
 0\\#t hf aug-cc-pvdz iop(5/13=1,5/36=2,99/5=2) pseudo=read geom=check
 guess=(read,tcheck) scf=(maxcycle=1)\\title\\-1,1\C,0,0.68402101,-0.03
 361,0.07627129\H,0,1.41860655,1.89924998,-0.49293461\F,0,-1.21228807,-
 0.23690786,-0.40226679\Cl,0,2.85894441,-0.02482392,0.43320693\C,0,0.52
 059132,1.46801763,-0.05411267\H,0,-0.3098334,1.63749226,-0.73267933\N,
 0,0.8538692,-0.7857293,-1.2284366\O,0,0.98399609,-0.12150911,-2.248428
 16\O,0,0.86428789,-2.00851602,-1.16864986\N,0,0.38192355,-0.76703141,1

 Normal termination of Gaussian 16 at Wed Apr  9 02:45:28 2025.
