 Gaussian 16, Revision C.01,

 ----------------------------------------------------------------------
 #t hf aug-cc-pvdz symm=none int=(grid=ultrafine) guess=(read,tcheck) s
 table=(opt,rrhf)
 ----------------------------------------------------------------------
 -----
 title
 -----
 Symbolic Z-matrix:
 Charge = -1 Multiplicity = 1

 SCF Done:  E(RHF) =  -614.143182233     A.U. after   16 cycles
 Normal termination of Gaussian 16 at Wed Apr  9 02:56:06 2025.
 Gaussian 16:  ES64L-G16RevC.01  3-Jul-2019

 ----------------------------------------------------------------------
 #t hf aug-cc-pvdz iop(5/13=1,5/36=2,99/5=2) pseudo=read geom=check gue
 ss=(read,tcheck) scf=(maxcycle=1)
 ----------------------------------------------------------------------
 -----
 title
 -----
 Structure from the checkpoint file:  "E2SN2_359_mol1.chk"
 Charge = -1 Multiplicity = 1

                         Standard orientation:
 ---------------------------------------------------------------------
 Center     Atomic      Atomic             Coordinates (Angstroms)
 Number     Number       Type             X           Y           Z
 ---------------------------------------------------------------------
      1          6           0       -0.902408   -0.095862    0.137893
      2          1           0        0.261606   -0.515481   -1.579697
      3          9           0       -0.613414    1.433005    1.135010
      4          9           0       -1.239765   -1.654778   -0.755260
      5          6           0        0.331625    0.173337   -0.742786
      6          6           0       -2.237134    0.431587   -0.362861
      7          1           0       -2.371022    1.472595   -0.079624
      8          1           0       -2.305718    0.307702   -1.444448
      9          1           0       -3.024032   -0.182939    0.077548
     10          7           0       -0.721213   -0.850564    1.344461
     11          1           0       -1.269437   -1.691698    1.251103
     12          1           0       -1.012174   -0.260904    2.108700
     13          7           0        1.557535   -0.290560   -0.015462
     14          8           0        1.910641   -1.454027   -0.206684
     15          8           0        2.152739    0.501646    0.711735
     16          6           0        0.530612    1.599269   -1.213149
     17          1           0       -0.370578    1.933303   -1.732686
     18          1           0        0.702947    2.244080   -0.359930
     19          1           0        1.369550    1.646229   -1.916694
 ---------------------------------------------------------------------

 SCF Done:  E(RHF) =  -616.744320236     A.U. after    2 cycles

 The electronic state is 1-A.
 Alpha  occ. eigenvalues --  -28.94900 -28.94224 -20.93681 -20.93489 -15.83028
 Alpha  occ. eigenvalues --  -15.57752 -11.45981 -11.32545 -11.25792 -11.23406
 Alpha  occ. eigenvalues --   -1.83021  -1.52782  -1.24736  -1.09715  -0.96436
 Alpha  occ. eigenvalues --   -0.87963  -0.76055  -0.65771  -0.61402  -0.54927
 Alpha  occ. eigenvalues --   -0.53378  -0.50053  -0.46082  -0.44736  -0.42821
 Alpha  occ. eigenvalues --   -0.41995  -0.40893  -0.39076  -0.33226  -0.32030
 Alpha  occ. eigenvalues --   -0.29303  -0.22316  -0.19219  -0.16001  -0.15358
 Alpha  occ. eigenvalues --   -0.11327  -0.02970  -0.01637  -0.01314   0.00147
 Alpha  occ. eigenvalues --    0.03214
 Alpha virt. eigenvalues --    0.13367   0.14254   0.14598   0.15274   0.15720
 Alpha virt. eigenvalues --    0.16021   0.17057   0.17653   0.18208   0.22301
 Alpha virt. eigenvalues --    0.23403   0.24637   0.24832   0.25656   0.26716

 Mulliken charges:
               1
     1  C    7.763798
     2  H    1.906707
     3  F   -0.721332
     4  F   -0.666221
     5  C   -3.186402
     6  C   -4.823473
     7  H    1.017938
     8  H    1.231772
     9  H    1.083540
    10  N   -4.468609
    11  H    0.460041
    12  H    0.550615
    13  N    4.389323
    14  O   -2.877969
    15  O   -2.863801
    16  C   -3.576374
    17  H    1.363359
    18  H    1.260418
    19  H    1.156672
 Sum of Mulliken charges =  -1.00000

 Dipole moment (field-independent basis, Debye):
    X=              0.1944    Y=              0.8743    Z=             -0.3213  Tot=              0.9516

 Test job not archived.
 1\1\GINC-SE322\SP\RHF\Aug-CC-pVDZ\C4H9F2N2O2(1-)\OHZDE\09-Apr-2025\0\\
 #t hf aug-cc-pvdz iop(5/13=1,5/36=2,99/5=2) pseudo=read geom=check gue
 ss=(read,tcheck) scf=(maxcycle=1)\\title\\-1,1\C,0,0.68604349,-0.06450
 024,-0.03666095\H,0,1.60476151,1.81887418,-0.33662954\F,0,-1.15080434,
 -0.25215287,-0.11392925\F,0,2.50678104,0.02268798,0.10141774\C,0,0.594
 0018,1.46843648,-0.14861033\C,0,0.8627633,-0.8425343,-1.3304477\H,0,-0
 .09797265,-1.02265795,-1.80625141\H,0,1.53718146,-0.30649479,-1.999553
 45\H,0,1.34548095,-1.79006027,-1.08551778\N,0,0.63570848,-0.65185279,1

 Normal termination of Gaussian 16 at Wed Apr  9 02:56:16 2025.
