 Gaussian 16, Revision C.01,

 ----------------------------------------------------------------------
 #t hf aug-cc-pvdz symm=none int=(grid=ultrafine) guess=(read,tcheck) s
 table=(opt,rrhf)
 ----------------------------------------------------------------------
 -----
 title
 -----
 Symbolic Z-matrix:
 Charge = -1 Multiplicity = 1

 SCF Done:  E(RHF) =  -1006.26330631     A.U. after   16 cycles
 Normal termination of Gaussian 16 at Wed Apr  9 02:49:43 2025.
 Gaussian 16:  ES64L-G16RevC.01  3-Jul-2019

 ----------------------------------------------------------------------
 #t hf aug-cc-pvdz iop(5/13=1,5/36=2,99/5=2) pseudo=read geom=check gue
 ss=(read,tcheck) scf=(maxcycle=1)
 ----------------------------------------------------------------------
 -----
 title
 -----
 Structure from the checkpoint file:  "E2SN2_28_mol2.chk"
 Charge = -1 Multiplicity = 1

                         Standard orientation:
 ---------------------------------------------------------------------
 Center     Atomic      Atomic             Coordinates (Angstroms)
 Number     Number       Type             X           Y           Z
 ---------------------------------------------------------------------
      1          6           0        0.120450   -0.153094   -0.306545
      2          6           0       -0.613912    0.278142    0.971821
      3         17           0        0.629862    1.348929   -1.230441
      4          1           0       -0.832632   -0.665431    1.481424
      5          7           0        1.475115   -0.797499    0.182714
      6          8           0        2.552962   -0.447743   -0.281398
      7          8           0        1.323014   -1.705835    0.991423
      8          7           0       -0.572230   -1.076586   -1.047327
      9          1           0       -0.296967   -1.105476   -2.017159
     10          1           0       -1.634186   -1.121165   -0.873052
     11          7           0       -1.804299    1.033643    0.624181
     12          1           0       -2.440739    0.372022    0.136738
     13          1           0       -2.259805    1.255921    1.504843
     14          7           0        0.310475    1.034830    1.804975
     15          1           0       -0.026891    1.021137    2.759797
     16          1           0        0.276022    1.995203    1.478043
     17          9           0       -3.044770   -1.062930   -0.464088
 ---------------------------------------------------------------------

 SCF Done:  E(RHF) =  -1008.87166300     A.U. after    2 cycles

 The electronic state is 1-A.
 Alpha  occ. eigenvalues --  -99.74886 -28.93193 -20.96200 -20.95494 -15.84680
 Alpha  occ. eigenvalues --  -15.61721 -15.58531 -15.57380 -11.42099 -11.30859
 Alpha  occ. eigenvalues --  -10.32306  -9.52389  -9.51544  -9.51499  -1.85205
 Alpha  occ. eigenvalues --   -1.55427  -1.33468  -1.22832  -1.14034  -1.10655
 Alpha  occ. eigenvalues --   -0.95872  -0.81552  -0.67184  -0.61658  -0.59789
 Alpha  occ. eigenvalues --   -0.57346  -0.54043  -0.50179  -0.48391  -0.45651
 Alpha  occ. eigenvalues --   -0.43942  -0.42282  -0.40389  -0.38075  -0.34560
 Alpha  occ. eigenvalues --   -0.29521  -0.26074  -0.24861  -0.23309  -0.19950
 Alpha  occ. eigenvalues --   -0.17457  -0.17018  -0.01830  -0.01065   0.00014
 Alpha virt. eigenvalues --    0.12729   0.14715   0.15075   0.15413   0.16750
 Alpha virt. eigenvalues --    0.18662   0.20044   0.20867   0.22720   0.23915
 Alpha virt. eigenvalues --    0.24298   0.24825   0.25215   0.27117   0.27405

 Mulliken charges:
               1
     1  C    3.176936
     2  C    2.571665
     3  Cl  -0.004415
     4  H    1.858649
     5  N    4.844147
     6  O   -3.017207
     7  O   -3.061530
     8  N   -3.649082
     9  H    0.587883
    10  H    0.151472
    11  N   -2.996605
    12  H    0.399377
    13  H    0.455903
    14  N   -3.069777
    15  H    0.519966
    16  H    0.455392
    17  F   -0.222775
 Sum of Mulliken charges =  -1.00000

 Dipole moment (field-independent basis, Debye):
    X=              3.0305    Y=              1.5102    Z=              2.4444  Tot=              4.1761

 Test job not archived.
 1\1\GINC-SE461\SP\RHF\Aug-CC-pVDZ\C2H7Cl1F1N4O2(1-)\OHZDE\09-Apr-2025\
 0\\#t hf aug-cc-pvdz iop(5/13=1,5/36=2,99/5=2) pseudo=read geom=check
 guess=(read,tcheck) scf=(maxcycle=1)\\title\\-1,1\C,0,-0.072216,-0.164
 57,-1.418483\C,0,-0.015973,0.258088,0.057209\Cl,0,-1.692049,-0.96477,-
 1.742487\H,0,0.948632,0.766935,0.149272\N,0,-0.122036,1.181272,-2.2406
 62\O,0,-0.973327,1.373773,-3.099574\O,0,0.799468,1.947705,-1.984477\N,
 0,1.019176,-0.892814,-1.818391\H,0,0.849654,-1.459707,-2.635136\H,0,1.
 576484,-1.377464,-1.034406\N,0,-0.132646,-0.912264,0.908866\H,0,0.719,

 Normal termination of Gaussian 16 at Wed Apr  9 02:49:51 2025.
