 Gaussian 16, Revision C.01,

 ----------------------------------------------------------------------
 #t hf aug-cc-pvdz symm=none int=(grid=ultrafine) guess=(read,tcheck) s
 table=(opt,rrhf)
 ----------------------------------------------------------------------
 -----
 title
 -----
 Symbolic Z-matrix:
 Charge = -1 Multiplicity = 1

 SCF Done:  E(RHF) =  -971.977273168     A.U. after   16 cycles
 Normal termination of Gaussian 16 at Wed Apr  9 02:44:40 2025.
 Gaussian 16:  ES64L-G16RevC.01  3-Jul-2019

 ----------------------------------------------------------------------
 #t hf aug-cc-pvdz iop(5/13=1,5/36=2,99/5=2) pseudo=read geom=check gue
 ss=(read,tcheck) scf=(maxcycle=1)
 ----------------------------------------------------------------------
 -----
 title
 -----
 Structure from the checkpoint file:  "E2SN2_232_mol2.chk"
 Charge = -1 Multiplicity = 1

                         Standard orientation:
 ---------------------------------------------------------------------
 Center     Atomic      Atomic             Coordinates (Angstroms)
 Number     Number       Type             X           Y           Z
 ---------------------------------------------------------------------
      1          6           0       -0.623373   -0.504442    0.256600
      2          6           0       -0.651825    0.642646   -0.733312
      3          9           0       -1.848582   -1.158756    0.247461
      4          1           0       -0.834536    0.251692   -1.734794
      5          1           0        0.340527    1.129018   -0.704927
      6          7           0        0.332037   -1.576912   -0.279695
      7          8           0        0.319221   -1.770005   -1.492188
      8          8           0        0.963837   -2.235330    0.538889
      9          6           0       -0.252084   -0.110490    1.652356
     10          1           0        0.737059    0.352446    1.630291
     11          1           0       -0.252681   -0.984077    2.301663
     12          1           0       -0.986556    0.614054    2.009318
     13          6           0       -1.701496    1.589195   -0.379282
     14          7           0       -2.553491    2.347610   -0.101772
     15         17           0        2.487753    1.530119   -0.012366
 ---------------------------------------------------------------------

 SCF Done:  E(RHF) =  -974.394483262     A.U. after    2 cycles

 The electronic state is 1-A.
 Alpha  occ. eigenvalues --  -99.61844 -29.19202 -21.00247 -20.99855 -15.89080
 Alpha  occ. eigenvalues --  -15.66396 -11.46042 -11.37339 -11.33053 -11.28832
 Alpha  occ. eigenvalues --  -10.18497  -9.38522  -9.38221  -9.38092  -1.89363
 Alpha  occ. eigenvalues --   -1.59490  -1.27351  -1.18518  -0.99454  -0.97477
 Alpha  occ. eigenvalues --   -0.94336  -0.80017  -0.66618  -0.62586  -0.58839
 Alpha  occ. eigenvalues --   -0.54485  -0.53529  -0.50049  -0.46037  -0.45670
 Alpha  occ. eigenvalues --   -0.43276  -0.41455  -0.34889  -0.33104  -0.30067
 Alpha  occ. eigenvalues --   -0.27424  -0.25696  -0.25519  -0.24753  -0.22184
 Alpha  occ. eigenvalues --   -0.21597  -0.17852  -0.17314
 Alpha virt. eigenvalues --    0.13021   0.14492   0.15277   0.16658   0.18236
 Alpha virt. eigenvalues --    0.18448   0.19972   0.20851   0.22295   0.23552
 Alpha virt. eigenvalues --    0.23852   0.24096   0.24823   0.24981   0.25989

 Mulliken charges:
               1
     1  C    2.247681
     2  C   -2.794477
     3  F    0.199170
     4  H    1.493499
     5  H    1.506803
     6  N    3.939973
     7  O   -3.012266
     8  O   -2.930477
     9  C   -3.602337
    10  H    0.957394
    11  H    1.264899
    12  H    1.149053
    13  C    2.090409
    14  N   -2.580259
    15  Cl  -0.929065
 Sum of Mulliken charges =  -1.00000

 Dipole moment (field-independent basis, Debye):
    X=             -8.6638    Y=             -7.2059    Z=              0.4586  Tot=             11.2782

 Test job not archived.
 1\1\GINC-SE365\SP\RHF\Aug-CC-pVDZ\C4H5Cl1F1N2O2(1-)\OHZDE\09-Apr-2025\
 0\\#t hf aug-cc-pvdz iop(5/13=1,5/36=2,99/5=2) pseudo=read geom=check
 guess=(read,tcheck) scf=(maxcycle=1)\\title\\-1,1\C,0,0.000373,0.00431
 8,0.009174\C,0,-0.585029,-0.176729,-1.376853\F,0,1.387312,0.003173,-0.
 066625\H,0,-0.266756,0.648642,-2.014552\H,0,-1.685787,-0.158948,-1.276
 142\N,0,-0.307395,1.431597,0.476899\O,0,-0.242674,2.315969,-0.372386\O
 ,0,-0.494647,1.608552,1.675393\C,0,-0.468438,-0.998862,1.016664\H,0,-1
 .556471,-0.934699,1.08924\H,0,-0.007081,-0.804027,1.983071\H,0,-0.1837

 Normal termination of Gaussian 16 at Wed Apr  9 02:44:46 2025.
