 Gaussian 16, Revision C.01,

 ----------------------------------------------------------------------
 #t hf aug-cc-pvdz symm=none int=(grid=ultrafine) guess=(read,tcheck) s
 table=(opt,rrhf)
 ----------------------------------------------------------------------
 -----
 title
 -----
 Symbolic Z-matrix:
 Charge = -1 Multiplicity = 1

 SCF Done:  E(RHF) =  -823.435544197     A.U. after   16 cycles
 Normal termination of Gaussian 16 at Wed Apr  9 02:53:16 2025.
 Gaussian 16:  ES64L-G16RevC.01  3-Jul-2019

 ----------------------------------------------------------------------
 #t hf aug-cc-pvdz iop(5/13=1,5/36=2,99/5=2) pseudo=read geom=check gue
 ss=(read,tcheck) scf=(maxcycle=1)
 ----------------------------------------------------------------------
 -----
 title
 -----
 Structure from the checkpoint file:  "E2SN2_327_mol1.chk"
 Charge = -1 Multiplicity = 1

                         Standard orientation:
 ---------------------------------------------------------------------
 Center     Atomic      Atomic             Coordinates (Angstroms)
 Number     Number       Type             X           Y           Z
 ---------------------------------------------------------------------
      1          6           0        0.419092    0.433621   -0.350526
      2          1           0        0.022503   -0.718883    1.413508
      3          9           0       -1.142339    1.383195   -1.157621
      4         17           0        2.131499   -0.945620    0.011894
      5          6           0       -0.549120   -0.188071    0.650663
      6          1           0        0.415287    0.091587   -1.364912
      7          6           0        1.118604    1.705153    0.033881
      8          1           0        0.397389    2.516193   -0.016384
      9          1           0        1.526066    1.629303    1.041989
     10          1           0        1.940335    1.892672   -0.657799
     11          6           0       -1.382473   -1.194111   -0.041917
     12          7           0       -2.099282   -2.001327   -0.505177
     13          7           0       -1.339488    0.848792    1.310266
     14          1           0       -2.046764    0.404612    1.884348
     15          1           0       -1.774473    1.339490    0.527409
 ---------------------------------------------------------------------

 SCF Done:  E(RHF) =  -825.294264535     A.U. after    2 cycles

 The electronic state is 1-A.
 Alpha  occ. eigenvalues --  -99.66579 -28.94337 -15.62780 -15.60529 -11.39227
 Alpha  occ. eigenvalues --  -11.35015 -11.29840 -11.25137 -10.23591  -9.43680
 Alpha  occ. eigenvalues --   -9.43190  -9.43077  -1.27247  -1.14511  -1.08557
 Alpha  occ. eigenvalues --   -0.99906  -0.90100  -0.73954  -0.61524  -0.58932
 Alpha  occ. eigenvalues --   -0.48521  -0.45780  -0.45354  -0.42568  -0.38994
 Alpha  occ. eigenvalues --   -0.38137  -0.34916  -0.32477  -0.30401  -0.29493
 Alpha  occ. eigenvalues --   -0.28807  -0.27994  -0.24029  -0.04422  -0.02489
 Alpha  occ. eigenvalues --   -0.01879
 Alpha virt. eigenvalues --    0.13769   0.14610   0.15424   0.16079   0.16409
 Alpha virt. eigenvalues --    0.17697   0.18203   0.19653   0.21579   0.22416
 Alpha virt. eigenvalues --    0.22955   0.24148   0.25419   0.25910   0.27409

 Mulliken charges:
               1
     1  C   -0.032059
     2  H    1.700233
     3  F   -0.592285
     4  Cl  -0.669082
     5  C   -1.266478
     6  H    1.493313
     7  C   -4.183905
     8  H    1.308384
     9  H    1.212761
    10  H    1.095980
    11  C    3.180833
    12  N   -2.816165
    13  N   -2.510569
    14  H    0.640058
    15  H    0.438980
 Sum of Mulliken charges =  -1.00000

 Dipole moment (field-independent basis, Debye):
    X=             -3.1874    Y=              4.0863    Z=              0.8684  Tot=              5.2547

 Test job not archived.
 1\1\GINC-SE228\SP\RHF\Aug-CC-pVDZ\C4H7Cl1F1N2(1-)\OHZDE\09-Apr-2025\0\
 \#t hf aug-cc-pvdz iop(5/13=1,5/36=2,99/5=2) pseudo=read geom=check gu
 ess=(read,tcheck) scf=(maxcycle=1)\\title\\-1,1\C,0,0.68064321,-0.0155
 5501,-0.07836015\H,0,1.65841738,1.8810437,-0.28868067\F,0,-1.31616063,
 0.0185132,-0.02570197\Cl,0,2.83211613,-0.24861448,0.45346568\C,0,0.649
 1439,1.50909991,-0.10572716\H,0,0.44555841,-0.52830951,0.83147389\C,0,
 0.73130805,-0.74827843,-1.38772265\H,0,-0.24973164,-0.68256163,-1.8500
 0715\H,0,1.48364309,-0.31034345,-2.04366844\H,0,0.99196244,-1.79222397

 Normal termination of Gaussian 16 at Wed Apr  9 02:53:22 2025.
