 Gaussian 16, Revision C.01,

 ----------------------------------------------------------------------
 #t hf aug-cc-pvdz symm=none int=(grid=ultrafine) guess=(read,tcheck) s
 table=(opt,rrhf)
 ----------------------------------------------------------------------
 -----
 title
 -----
 Symbolic Z-matrix:
 Charge = -1 Multiplicity = 1

 SCF Done:  E(RHF) =  -627.865132738     A.U. after   16 cycles
 Normal termination of Gaussian 16 at Wed Apr  9 02:36:11 2025.
 Gaussian 16:  ES64L-G16RevC.01  3-Jul-2019

 ----------------------------------------------------------------------
 #t hf aug-cc-pvdz iop(5/13=1,5/36=2,99/5=2) pseudo=read geom=check gue
 ss=(read,tcheck) scf=(maxcycle=1)
 ----------------------------------------------------------------------
 -----
 title
 -----
 Structure from the checkpoint file:  "E2SN2_137_mol1.chk"
 Charge = -1 Multiplicity = 1

                         Standard orientation:
 ---------------------------------------------------------------------
 Center     Atomic      Atomic             Coordinates (Angstroms)
 Number     Number       Type             X           Y           Z
 ---------------------------------------------------------------------
      1          6           0       -0.162023   -0.389562    0.326767
      2          6           0        0.765006   -0.011122   -0.789497
      3          9           0       -0.136993   -1.739876    0.636532
      4          9           0        0.549391    2.441065   -0.255500
      5          1           0        0.670964    1.358940   -0.695605
      6          1           0        0.462059   -0.462824   -1.735805
      7          7           0       -0.024176    0.331429    1.546253
      8          1           0        0.098329    1.308082    1.272207
      9          1           0        0.844443    0.016195    1.965292
     10          6           0        2.120140   -0.347265   -0.456348
     11          7           0        3.239224   -0.594212   -0.179375
     12          7           0       -1.585426   -0.153455   -0.210089
     13          8           0       -1.991347   -0.971775   -1.032747
     14          8           0       -2.200336    0.830558    0.180442
 ---------------------------------------------------------------------

 SCF Done:  E(RHF) =  -630.448985104     A.U. after    2 cycles

 The electronic state is 1-A.
 Alpha  occ. eigenvalues --  -29.15567 -28.99680 -20.97869 -20.97119 -15.86207
 Alpha  occ. eigenvalues --  -15.62014 -15.61721 -11.44347 -11.31772 -11.25485
 Alpha  occ. eigenvalues --   -1.86780  -1.57004  -1.31750  -1.16255  -1.05290
 Alpha  occ. eigenvalues --   -0.93558  -0.79529  -0.65307  -0.59618  -0.59112
 Alpha  occ. eigenvalues --   -0.56627  -0.51273  -0.49535  -0.47584  -0.45725
 Alpha  occ. eigenvalues --   -0.37782  -0.34140  -0.30802  -0.29275  -0.27265
 Alpha  occ. eigenvalues --   -0.25378  -0.21973  -0.20559  -0.19424  -0.15375
 Alpha  occ. eigenvalues --   -0.13712  -0.06671  -0.06421  -0.02733
 Alpha virt. eigenvalues --    0.14684   0.15738   0.17614   0.19158   0.19660
 Alpha virt. eigenvalues --    0.20303   0.22155   0.23051   0.23925   0.24854
 Alpha virt. eigenvalues --    0.25501   0.26470   0.27268   0.27601   0.28725

 Mulliken charges:
               1
     1  C    4.883636
     2  C   -3.748921
     3  F    0.422387
     4  F    0.508492
     5  H    0.837528
     6  H    1.470858
     7  N   -3.520646
     8  H    0.438024
     9  H    0.519539
    10  C    2.271435
    11  N   -2.673458
    12  N    3.074343
    13  O   -2.882603
    14  O   -2.600615
 Sum of Mulliken charges =  -1.00000

 Dipole moment (field-independent basis, Debye):
    X=             -3.7805    Y=             -2.1747    Z=              1.8141  Tot=              4.7236

 Test job not archived.
 1\1\GINC-SE424\SP\RHF\Aug-CC-pVDZ\C3H4F2N3O2(1-)\OHZDE\09-Apr-2025\0\\
 #t hf aug-cc-pvdz iop(5/13=1,5/36=2,99/5=2) pseudo=read geom=check gue
 ss=(read,tcheck) scf=(maxcycle=1)\\title\\-1,1\C,0,-0.12330698,-0.0526
 1096,-0.33619204\C,0,-0.09364358,0.06397214,1.15852369\F,0,1.13253941,
 -0.17098515,-0.90957294\F,0,-2.5664016,-0.38393967,1.3308733\H,0,-1.44
 075399,-0.05898988,1.41328403\H,0,0.38715051,0.98916345,1.48127635\N,0
 ,-0.94134322,-1.0814229,-0.88239626\H,0,-1.80637851,-1.05804429,-0.339
 14025\H,0,-0.4706727,-1.95661091,-0.67750772\C,0,0.53506033,-1.0867839

 Normal termination of Gaussian 16 at Wed Apr  9 02:36:17 2025.
