 Gaussian 16, Revision C.01,

 ----------------------------------------------------------------------
 #t hf aug-cc-pvdz symm=none int=(grid=ultrafine) guess=(read,tcheck) s
 table=(opt,rrhf)
 ----------------------------------------------------------------------
 -----
 title
 -----
 Symbolic Z-matrix:
 Charge = -1 Multiplicity = 1

 SCF Done:  E(RHF) =  -974.220983923     A.U. after   16 cycles
 Normal termination of Gaussian 16 at Wed Apr  9 02:46:03 2025.
 Gaussian 16:  ES64L-G16RevC.01  3-Jul-2019

 ----------------------------------------------------------------------
 #t hf aug-cc-pvdz iop(5/13=1,5/36=2,99/5=2) pseudo=read geom=check gue
 ss=(read,tcheck) scf=(maxcycle=1)
 ----------------------------------------------------------------------
 -----
 title
 -----
 Structure from the checkpoint file:  "E2SN2_246_mol1.chk"
 Charge = -1 Multiplicity = 1

                         Standard orientation:
 ---------------------------------------------------------------------
 Center     Atomic      Atomic             Coordinates (Angstroms)
 Number     Number       Type             X           Y           Z
 ---------------------------------------------------------------------
      1          6           0        0.038530    0.040397    0.326996
      2          1           0       -0.916315    0.765692   -1.406158
      3          9           0       -0.594628   -1.735950    0.980440
      4         17           0        1.136044    1.815221   -0.387657
      5          6           0       -1.244139    0.320928   -0.465704
      6          7           0        1.063950   -0.868917   -0.322400
      7          8           0        0.854500   -1.222000   -1.476746
      8          8           0        2.047251   -1.162711    0.342831
      9          7           0        0.190396    0.362832    1.690579
     10          1           0        1.136550    0.674861    1.855323
     11          1           0        0.019285   -0.520666    2.160742
     12          6           0       -2.058697    1.359054    0.300389
     13          1           0       -2.403602    0.936096    1.245907
     14          1           0       -1.464986    2.245017    0.521489
     15          1           0       -2.930184    1.650339   -0.295891
     16          6           0       -2.127851   -0.871109   -0.832910
     17          1           0       -1.555150   -1.645432   -1.336526
     18          1           0       -2.576588   -1.310513    0.053164
     19          1           0       -2.911610   -0.505935   -1.510403
 ---------------------------------------------------------------------

 SCF Done:  E(RHF) =  -976.755110941     A.U. after    2 cycles

 The electronic state is 1-A.
 Alpha  occ. eigenvalues --  -99.68253 -28.94733 -20.94703 -20.94527 -15.85180
 Alpha  occ. eigenvalues --  -15.60961 -11.47806 -11.30661 -11.25861 -11.22663
 Alpha  occ. eigenvalues --  -10.25352  -9.45505  -9.44991  -9.44902  -1.84687
 Alpha  occ. eigenvalues --   -1.54815  -1.27873  -1.10200  -1.05841  -0.96517
 Alpha  occ. eigenvalues --   -0.87198  -0.76565  -0.64308  -0.62286  -0.58042
 Alpha  occ. eigenvalues --   -0.51836  -0.50302  -0.49288  -0.45297  -0.41975
 Alpha  occ. eigenvalues --   -0.41812  -0.37993  -0.34808  -0.33681  -0.32969
 Alpha  occ. eigenvalues --   -0.32080  -0.30824  -0.29680  -0.27885  -0.20347
 Alpha  occ. eigenvalues --   -0.17342  -0.16227  -0.05954  -0.02641  -0.00891
 Alpha virt. eigenvalues --    0.13106   0.14157   0.14648   0.15328   0.15549
 Alpha virt. eigenvalues --    0.16093   0.16444   0.17263   0.18581   0.21430
 Alpha virt. eigenvalues --    0.22570   0.24108   0.24854   0.25550   0.25869

 Mulliken charges:
               1
     1  C    4.504391
     2  H    1.739436
     3  F   -0.656361
     4  Cl  -0.703839
     5  C   -1.323681
     6  N    5.444618
     7  O   -3.504079
     8  O   -3.314169
     9  N   -3.508121
    10  H    0.662953
    11  H    0.366614
    12  C   -4.024102
    13  H    1.415509
    14  H    1.258905
    15  H    1.098158
    16  C   -4.017786
    17  H    1.411002
    18  H    1.159058
    19  H    0.991494
 Sum of Mulliken charges =  -1.00000

 Dipole moment (field-independent basis, Debye):
    X=             -3.4485    Y=             -3.4620    Z=              1.6098  Tot=              5.1448

 Test job not archived.
 1\1\GINC-SE462\SP\RHF\Aug-CC-pVDZ\C4H9Cl1F1N2O2(1-)\OHZDE\09-Apr-2025\
 0\\#t hf aug-cc-pvdz iop(5/13=1,5/36=2,99/5=2) pseudo=read geom=check
 guess=(read,tcheck) scf=(maxcycle=1)\\title\\-1,1\C,0,0.68476093,-0.04
 195355,0.04159817\H,0,1.62882636,1.76445465,-0.49434645\F,0,-1.1399519
 4,-0.31915376,-0.71791954\Cl,0,2.78806226,-0.1275567,0.70043337\C,0,0.
 6387982,1.4808836,-0.13494697\N,0,1.02377833,-0.86708274,-1.18489324\O
 ,0,1.35103483,-0.26251548,-2.19902016\O,0,0.97657984,-2.08349921,-1.06
 728114\N,0,0.18830574,-0.70292035,1.1831062\H,0,0.78880763,-1.48457388

 Normal termination of Gaussian 16 at Wed Apr  9 02:46:14 2025.
