 Gaussian 16, Revision C.01,

 ----------------------------------------------------------------------
 #t hf aug-cc-pvdz symm=none int=(grid=ultrafine) guess=(read,tcheck) s
 table=(opt,rrhf)
 ----------------------------------------------------------------------
 -----
 title
 -----
 Symbolic Z-matrix:
 Charge = -1 Multiplicity = 1

 SCF Done:  E(RHF) =  -931.177894892     A.U. after   16 cycles
 Normal termination of Gaussian 16 at Wed Apr  9 02:38:39 2025.
 Gaussian 16:  ES64L-G16RevC.01  3-Jul-2019

 ----------------------------------------------------------------------
 #t hf aug-cc-pvdz iop(5/13=1,5/36=2,99/5=2) pseudo=read geom=check gue
 ss=(read,tcheck) scf=(maxcycle=1)
 ----------------------------------------------------------------------
 -----
 title
 -----
 Structure from the checkpoint file:  "E2SN2_152_mol1.chk"
 Charge = -1 Multiplicity = 1

                         Standard orientation:
 ---------------------------------------------------------------------
 Center     Atomic      Atomic             Coordinates (Angstroms)
 Number     Number       Type             X           Y           Z
 ---------------------------------------------------------------------
      1          6           0        0.384734   -0.190749   -0.345450
      2          6           0       -0.638272    0.430615    0.573697
      3         17           0        0.454565   -2.048559   -0.143783
      4          9           0       -0.072413    2.637147   -0.515218
      5          1           0       -0.436878    1.730428    0.090191
      6          7           0        0.195778    0.067594   -1.755024
      7          1           0        0.127508    1.086847   -1.805026
      8          1           0       -0.713342   -0.311274   -2.006130
      9          6           0        1.724469    0.265916    0.060873
     10          7           0        2.785471    0.622011    0.417185
     11          7           0       -0.404808    0.310879    1.997584
     12          1           0        0.329615    0.951076    2.270300
     13          1           0       -0.117011   -0.632589    2.243692
     14          6           0       -1.964830    0.023930    0.188717
     15          7           0       -3.048211   -0.273568   -0.170999
 ---------------------------------------------------------------------

 SCF Done:  E(RHF) =  -933.488221733     A.U. after    2 cycles

 The electronic state is 1-A.
 Alpha  occ. eigenvalues --  -99.76588 -29.01101 -15.65363 -15.63079 -15.62141
 Alpha  occ. eigenvalues --  -15.61854 -11.43470 -11.33781 -11.32573 -11.27776
 Alpha  occ. eigenvalues --  -10.33889  -9.53924  -9.53189  -9.53148  -1.34618
 Alpha  occ. eigenvalues --   -1.21049  -1.17204  -1.15386  -1.14103  -0.94624
 Alpha  occ. eigenvalues --   -0.84306  -0.67903  -0.59411  -0.56479  -0.53710
 Alpha  occ. eigenvalues --   -0.51499  -0.49080  -0.47136  -0.42311  -0.39537
 Alpha  occ. eigenvalues --   -0.38339  -0.36328  -0.33546  -0.32648  -0.32021
 Alpha  occ. eigenvalues --   -0.31389  -0.28850  -0.24817  -0.21819  -0.08363
 Alpha  occ. eigenvalues --   -0.08168  -0.04668
 Alpha virt. eigenvalues --    0.13986   0.15495   0.15969   0.16941   0.18050
 Alpha virt. eigenvalues --    0.18473   0.19105   0.20355   0.21726   0.22797
 Alpha virt. eigenvalues --    0.23282   0.23383   0.25035   0.25419   0.25646

 Mulliken charges:
               1
     1  C    3.542418
     2  C   -0.003972
     3  Cl  -0.313039
     4  F    0.669616
     5  H    0.839923
     6  N   -3.636789
     7  H    0.557499
     8  H    0.603710
     9  C    2.134269
    10  N   -2.795824
    11  N   -3.116733
    12  H    0.422124
    13  H    0.543423
    14  C    2.204271
    15  N   -2.650895
 Sum of Mulliken charges =  -1.00000

 Dipole moment (field-independent basis, Debye):
    X=              2.0951    Y=              0.6174    Z=             -0.3853  Tot=              2.2179

 Test job not archived.
 1\1\GINC-SE097\SP\RHF\Aug-CC-pVDZ\C4H5Cl1F1N4(1-)\OHZDE\09-Apr-2025\0\
 \#t hf aug-cc-pvdz iop(5/13=1,5/36=2,99/5=2) pseudo=read geom=check gu
 ess=(read,tcheck) scf=(maxcycle=1)\\title\\-1,1\C,0,-0.21718166,0.0175
 3092,-0.28728825\C,0,-0.07486514,-0.02058908,1.21463045\Cl,0,1.4429962
 5,0.17569766,-1.13333461\F,0,-2.57403564,-0.36835097,1.30366601\H,0,-1
 .4450963,-0.20355913,1.44450119\N,0,-0.87918847,-1.12227018,-0.8805374
 9\H,0,-1.75801866,-1.18626348,-0.36130778\H,0,-0.32583935,-1.94165946,
 -0.64495117\C,0,-0.93145718,1.24918081,-0.66329283\N,0,-1.47997848,2.2

 Normal termination of Gaussian 16 at Wed Apr  9 02:38:47 2025.
