 Gaussian 16, Revision C.01,

 ----------------------------------------------------------------------
 #t hf aug-cc-pvdz symm=none int=(grid=ultrafine) guess=(read,tcheck) s
 table=(opt,rrhf)
 ----------------------------------------------------------------------
 -----
 title
 -----
 Symbolic Z-matrix:
 Charge = -1 Multiplicity = 1

 SCF Done:  E(RHF) =  -860.107945592     A.U. after   16 cycles
 Normal termination of Gaussian 16 at Wed Apr  9 02:48:19 2025.
 Gaussian 16:  ES64L-G16RevC.01  3-Jul-2019

 ----------------------------------------------------------------------
 #t hf aug-cc-pvdz iop(5/13=1,5/36=2,99/5=2) pseudo=read geom=check gue
 ss=(read,tcheck) scf=(maxcycle=1)
 ----------------------------------------------------------------------
 -----
 title
 -----
 Structure from the checkpoint file:  "E2SN2_270_mol1.chk"
 Charge = -1 Multiplicity = 1

                         Standard orientation:
 ---------------------------------------------------------------------
 Center     Atomic      Atomic             Coordinates (Angstroms)
 Number     Number       Type             X           Y           Z
 ---------------------------------------------------------------------
      1          6           0        0.106385   -0.192673   -0.074238
      2          1           0       -0.266242    0.688732   -1.990998
      3          9           0       -0.504617   -2.060155    0.041155
      4         17           0        0.818242    1.853329    0.065792
      5          6           0       -0.748302   -0.032123   -1.328877
      6          1           0       -0.761896   -1.011643   -1.801590
      7          6           0        1.409177   -0.798220   -0.226033
      8          7           0        2.484061   -1.237586   -0.411767
      9          6           0       -0.488495   -0.190742    1.244113
     10          7           0       -0.981334   -0.090511    2.307336
     11          6           0       -2.163414    0.403037   -0.988874
     12          1           0       -2.639569   -0.363679   -0.376364
     13          1           0       -2.163722    1.347902   -0.441390
     14          1           0       -2.748306    0.534488   -1.904045
 ---------------------------------------------------------------------

 SCF Done:  E(RHF) =  -862.111261537     A.U. after    2 cycles

 The electronic state is 1-A.
 Alpha  occ. eigenvalues --  -99.71121 -28.96317 -15.64048 -15.63170 -11.48040
 Alpha  occ. eigenvalues --  -11.33738 -11.33215 -11.31771 -11.25799 -10.28135
 Alpha  occ. eigenvalues --   -9.48189  -9.47649  -9.47640  -1.25636  -1.15904
 Alpha  occ. eigenvalues --   -1.12001  -1.06534  -0.96287  -0.79510  -0.69022
 Alpha  occ. eigenvalues --   -0.58509  -0.53838  -0.47758  -0.43617  -0.41321
 Alpha  occ. eigenvalues --   -0.39960  -0.39737  -0.37661  -0.36355  -0.33530
 Alpha  occ. eigenvalues --   -0.32754  -0.30768  -0.30616  -0.30183  -0.26785
 Alpha  occ. eigenvalues --   -0.06271  -0.03735  -0.02996
 Alpha virt. eigenvalues --    0.12444   0.14957   0.15514   0.15844   0.16512
 Alpha virt. eigenvalues --    0.19448   0.20191   0.20321   0.22313   0.22913
 Alpha virt. eigenvalues --    0.23672   0.24054   0.24516   0.24861   0.26347

 Mulliken charges:
               1
     1  C    3.820377
     2  H    1.236634
     3  F   -0.336400
     4  Cl  -0.545578
     5  C   -4.381028
     6  H    1.271670
     7  C    1.333150
     8  N   -2.841292
     9  C    2.565191
    10  N   -3.033878
    11  C   -3.856393
    12  H    1.367073
    13  H    1.361751
    14  H    1.038723
 Sum of Mulliken charges =  -1.00000

 Dipole moment (field-independent basis, Debye):
    X=             -4.6484    Y=             -3.9002    Z=             -3.4859  Tot=              6.9979

 Test job not archived.
 1\1\GINC-SE116\SP\RHF\Aug-CC-pVDZ\C5H5Cl1F1N2(1-)\OHZDE\09-Apr-2025\0\
 \#t hf aug-cc-pvdz iop(5/13=1,5/36=2,99/5=2) pseudo=read geom=check gu
 ess=(read,tcheck) scf=(maxcycle=1)\\title\\-1,1\C,0,0.69480171,-0.0388
 7087,0.00431462\H,0,1.40443792,1.92020865,-0.49380052\F,0,-1.24506069,
 -0.24053382,-0.26100204\Cl,0,2.82522958,-0.05657722,0.42077271\C,0,0.5
 0663732,1.47456101,-0.06279024\H,0,-0.33816301,1.6356461,-0.72872353\C
 ,0,0.77698156,-0.75821499,-1.24580001\N,0,0.90129582,-1.28862842,-2.28
 79723\C,0,0.34606866,-0.78630954,1.19244608\N,0,0.14580402,-1.35898905

 Normal termination of Gaussian 16 at Wed Apr  9 02:48:25 2025.
