 Gaussian 16, Revision C.01,

 ----------------------------------------------------------------------
 #t hf aug-cc-pvdz symm=none int=(grid=ultrafine) guess=(read,tcheck) s
 table=(opt,rrhf)
 ----------------------------------------------------------------------
 -----
 title
 -----
 Symbolic Z-matrix:
 Charge = -1 Multiplicity = 1

 SCF Done:  E(RHF) =  -935.205329056     A.U. after   16 cycles
 Normal termination of Gaussian 16 at Wed Apr  9 02:53:25 2025.
 Gaussian 16:  ES64L-G16RevC.01  3-Jul-2019

 ----------------------------------------------------------------------
 #t hf aug-cc-pvdz iop(5/13=1,5/36=2,99/5=2) pseudo=read geom=check gue
 ss=(read,tcheck) scf=(maxcycle=1)
 ----------------------------------------------------------------------
 -----
 title
 -----
 Structure from the checkpoint file:  "E2SN2_330_mol2.chk"
 Charge = -1 Multiplicity = 1

                         Standard orientation:
 ---------------------------------------------------------------------
 Center     Atomic      Atomic             Coordinates (Angstroms)
 Number     Number       Type             X           Y           Z
 ---------------------------------------------------------------------
      1          6           0       -0.351797   -0.301329    0.191585
      2          6           0        0.231010   -1.421093   -0.683536
      3         17           0       -2.166173   -0.375205   -0.002690
      4          1           0        0.025890   -1.155061   -1.722794
      5          1           0       -0.366201   -2.311265   -0.455573
      6          6           0        0.028299   -0.374340    1.642444
      7          1           0       -0.548888    0.338881    2.228755
      8          1           0       -0.153876   -1.387698    2.011656
      9          1           0        1.095303   -0.102391    1.649485
     10          7           0       -0.014936    1.088004   -0.355244
     11          8           0        0.291449    1.174342   -1.536873
     12          8           0       -0.193262    2.031314    0.402557
     13          7           0        1.639907   -1.702632   -0.499480
     14          1           0        1.736540   -2.236450    0.357904
     15          1           0        2.110615   -0.789998   -0.282034
     16          9           0        2.368911    0.584466    0.490329
 ---------------------------------------------------------------------

 SCF Done:  E(RHF) =  -937.503864535     A.U. after    2 cycles

 The electronic state is 1-A.
 Alpha  occ. eigenvalues --  -99.77053 -28.89659 -20.94751 -20.94491 -15.84599
 Alpha  occ. eigenvalues --  -15.55965 -11.38949 -11.29975 -11.24324 -10.34410
 Alpha  occ. eigenvalues --   -9.54469  -9.53689  -9.53646  -1.84509  -1.54574
 Alpha  occ. eigenvalues --   -1.26840  -1.16478  -1.04075  -0.89267  -0.84292
 Alpha  occ. eigenvalues --   -0.64753  -0.58702  -0.57419  -0.52628  -0.49788
 Alpha  occ. eigenvalues --   -0.47322  -0.46197  -0.42895  -0.40415  -0.39590
 Alpha  occ. eigenvalues --   -0.38564  -0.36647  -0.34821  -0.26194  -0.22105
 Alpha  occ. eigenvalues --   -0.19286  -0.16915  -0.16425   0.01160   0.01996
 Alpha  occ. eigenvalues --    0.03151
 Alpha virt. eigenvalues --    0.13485   0.14427   0.15169   0.15671   0.16352
 Alpha virt. eigenvalues --    0.16745   0.18785   0.20842   0.21653   0.23330
 Alpha virt. eigenvalues --    0.23950   0.24516   0.25662   0.26747   0.27334

 Mulliken charges:
               1
     1  C    0.750125
     2  C   -0.966568
     3  Cl  -0.275417
     4  H    1.335766
     5  H    1.318231
     6  C   -2.847440
     7  H    1.191353
     8  H    1.104141
     9  H    0.881129
    10  N    5.196301
    11  O   -3.084035
    12  O   -3.213305
    13  N   -2.298438
    14  H    0.420762
    15  H    0.348412
    16  F   -0.861018
 Sum of Mulliken charges =  -1.00000

 Dipole moment (field-independent basis, Debye):
    X=             -3.2468    Y=             -0.7898    Z=              0.5379  Tot=              3.3845

 Test job not archived.
 1\1\GINC-SE340\SP\RHF\Aug-CC-pVDZ\C3H7Cl1F1N2O2(1-)\OHZDE\09-Apr-2025\
 0\\#t hf aug-cc-pvdz iop(5/13=1,5/36=2,99/5=2) pseudo=read geom=check
 guess=(read,tcheck) scf=(maxcycle=1)\\title\\-1,1\C,0,-0.045543,0.0225
 53,-0.043164\C,0,-0.300708,0.105305,-1.555584\Cl,0,1.762676,-0.108548,
 0.17665\H,0,-0.012051,-0.857756,-1.98231\H,0,0.410123,0.84976,-1.93180
 3\C,0,-0.592955,1.173305,0.751131\H,0,-0.233307,1.138726,1.778286\H,0,
 -0.283523,2.112632,0.283887\H,0,-1.682914,1.019755,0.720872\N,0,-0.549
 42,-1.294408,0.552206\O,0,-0.709145,-2.238116,-0.210341\O,0,-0.642099,

 Normal termination of Gaussian 16 at Wed Apr  9 02:53:32 2025.
