 Gaussian 16, Revision C.01,

 ----------------------------------------------------------------------
 #t hf aug-cc-pvdz symm=none int=(grid=ultrafine) guess=(read,tcheck) s
 table=(opt,rrhf)
 ----------------------------------------------------------------------
 -----
 title
 -----
 Symbolic Z-matrix:
 Charge = -1 Multiplicity = 1

 SCF Done:  E(RHF) =  -453.805267662     A.U. after   18 cycles
 Normal termination of Gaussian 16 at Wed Apr  9 03:00:47 2025.
 Gaussian 16:  ES64L-G16RevC.01  3-Jul-2019

 ----------------------------------------------------------------------
 #t hf aug-cc-pvdz iop(5/13=1,5/36=2,99/5=2) pseudo=read geom=check gue
 ss=(read,tcheck) scf=(maxcycle=1)
 ----------------------------------------------------------------------
 -----
 title
 -----
 Structure from the checkpoint file:  "E2SN2_62_mol1.chk"
 Charge = -1 Multiplicity = 1

                         Standard orientation:
 ---------------------------------------------------------------------
 Center     Atomic      Atomic             Coordinates (Angstroms)
 Number     Number       Type             X           Y           Z
 ---------------------------------------------------------------------
      1          6           0       -0.704876   -0.241826   -0.474031
      2          6           0        0.571603    0.160184    0.230993
      3          9           0       -0.730334   -1.621206   -0.639080
      4          1           0       -1.135724    0.180753    1.686467
      5          1           0       -0.027017    0.208414    1.399060
      6          6           0       -1.924292    0.137050    0.437551
      7          7           0       -3.091646    0.340479    0.274410
      8          6           0        1.000268    1.493667   -0.092888
      9          7           0        1.312617    2.607235   -0.320066
     10          6           0        1.634853   -0.802246    0.262210
     11          7           0        2.508600   -1.590672    0.322162
     12          1           0       -0.836590    0.221423   -1.452362
 ---------------------------------------------------------------------

 SCF Done:  E(RHF) =  -455.773458188     A.U. after    2 cycles

 The electronic state is 1-A.
 Alpha  occ. eigenvalues --  -29.14733 -15.65657 -15.65048 -15.56219 -11.41235
 Alpha  occ. eigenvalues --  -11.36692 -11.34823 -11.31889 -11.27242  -1.26734
 Alpha  occ. eigenvalues --   -1.17239  -1.15822  -1.07441  -0.92896  -0.70406
 Alpha  occ. eigenvalues --   -0.67498  -0.56335  -0.55328  -0.47262  -0.42865
 Alpha  occ. eigenvalues --   -0.40846  -0.40509  -0.35502  -0.34249  -0.32459
 Alpha  occ. eigenvalues --   -0.31848  -0.28400  -0.27056  -0.23831  -0.15840
 Alpha  occ. eigenvalues --   -0.14879  -0.10173
 Alpha virt. eigenvalues --    0.14599   0.16600   0.17332   0.18792   0.19681
 Alpha virt. eigenvalues --    0.20497   0.21221   0.21915   0.22348   0.23544
 Alpha virt. eigenvalues --    0.24636   0.25125   0.25612   0.26229   0.26423

 Mulliken charges:
               1
     1  C   -0.528078
     2  C   -0.542981
     3  F    0.353737
     4  H    0.245629
     5  H    1.438810
     6  C    1.512075
     7  N   -2.793768
     8  C    1.418211
     9  N   -2.404542
    10  C    1.196363
    11  N   -2.416421
    12  H    1.520963
 Sum of Mulliken charges =  -1.00000

 Dipole moment (field-independent basis, Debye):
    X=              2.6409    Y=             -3.5472    Z=             -2.3692  Tot=              5.0170

 Test job not archived.
 1\1\GINC-SE116\SP\RHF\Aug-CC-pVDZ\C5H3F1N3(1-)\OHZDE\09-Apr-2025\0\\#t
  hf aug-cc-pvdz iop(5/13=1,5/36=2,99/5=2) pseudo=read geom=check guess
 =(read,tcheck) scf=(maxcycle=1)\\title\\-1,1\C,0,0.27429061,-0.3977575
 4,-0.17563399\C,0,0.11343976,-0.15815417,1.30921786\F,0,0.82558968,-1.
 65558168,-0.38665151\H,0,-1.87014376,-0.69776399,0.41032588\H,0,-1.150
 65244,-0.51370693,1.28271051\C,0,-1.14592485,-0.39795755,-0.84233681\N
 ,0,-1.58104644,-0.22593934,-1.94315083\C,0,0.16591987,1.23350511,1.666
 09276\N,0,0.15319285,2.3793434,1.94195373\C,0,0.84724952,-1.01499878,2

 Normal termination of Gaussian 16 at Wed Apr  9 03:00:53 2025.
