 Gaussian 16, Revision C.01,

 ----------------------------------------------------------------------
 #t hf aug-cc-pvdz symm=none int=(grid=ultrafine) guess=(read,tcheck) s
 table=(opt,rrhf)
 ----------------------------------------------------------------------
 -----
 title
 -----
 Symbolic Z-matrix:
 Charge = -1 Multiplicity = 1

 SCF Done:  E(RHF) =  -726.830962549     A.U. after   14 cycles
 Normal termination of Gaussian 16 at Wed Apr  9 02:56:18 2025.
 Gaussian 16:  ES64L-G16RevC.01  3-Jul-2019

 ----------------------------------------------------------------------
 #t hf aug-cc-pvdz iop(5/13=1,5/36=2,99/5=2) pseudo=read geom=check gue
 ss=(read,tcheck) scf=(maxcycle=1)
 ----------------------------------------------------------------------
 -----
 title
 -----
 Structure from the checkpoint file:  "E2SN2_365_mol2.chk"
 Charge = -1 Multiplicity = 1

                         Standard orientation:
 ---------------------------------------------------------------------
 Center     Atomic      Atomic             Coordinates (Angstroms)
 Number     Number       Type             X           Y           Z
 ---------------------------------------------------------------------
      1          6           0        0.259319    0.388599    0.124181
      2          6           0       -0.855390   -0.473001   -0.526884
      3         17           0        1.857848   -0.547873   -0.219474
      4          1           0       -0.516391   -0.726517   -1.539566
      5          6           0        0.404162    1.732696   -0.562135
      6          1           0        1.315011    2.216642   -0.208734
      7          1           0        0.449962    1.621240   -1.649242
      8          1           0       -0.451405    2.349604   -0.273845
      9          7           0        0.157299    0.608688    1.522724
     10          1           0       -0.030807   -0.264693    2.002334
     11          1           0       -0.670254    1.241820    1.688295
     12          7           0       -2.118324    0.253607   -0.633559
     13          1           0       -2.289631    0.780129    0.239830
     14          1           0       -2.028486    0.963319   -1.352324
     15          6           0       -1.119879   -1.763486    0.239005
     16          1           0       -1.799726   -2.385861   -0.346769
     17          1           0       -1.622597   -1.534556    1.181788
     18          1           0       -0.202972   -2.321368    0.442431
     19          1           0       -2.138216    2.029169    1.677706
 ---------------------------------------------------------------------

 SCF Done:  E(RHF) =  -728.460746322     A.U. after    2 cycles

 The electronic state is 1-A.
 Alpha  occ. eigenvalues --  -99.72929 -15.57624 -15.57322 -11.35892 -11.30900
 Alpha  occ. eigenvalues --  -11.26031 -11.23385 -10.30255  -9.50297  -9.49663
 Alpha  occ. eigenvalues --   -9.49518  -1.29919  -1.16850  -1.11240  -0.95834
 Alpha  occ. eigenvalues --   -0.94718  -0.78911  -0.66058  -0.55443  -0.54102
 Alpha  occ. eigenvalues --   -0.52374  -0.47652  -0.46199  -0.42366  -0.39438
 Alpha  occ. eigenvalues --   -0.38186  -0.36754  -0.35339  -0.34331  -0.34128
 Alpha  occ. eigenvalues --   -0.30897  -0.24769  -0.18869  -0.10839
 Alpha virt. eigenvalues --    0.13309   0.13724   0.14690   0.14927   0.15368
 Alpha virt. eigenvalues --    0.15865   0.16409   0.17725   0.18040   0.18809
 Alpha virt. eigenvalues --    0.20467   0.21811   0.22534   0.22848   0.23711

 Mulliken charges:
               1
     1  C    4.206316
     2  C   -0.434630
     3  Cl  -0.325282
     4  H    1.714034
     5  C   -4.150390
     6  H    1.096167
     7  H    1.099409
     8  H    1.461644
     9  N   -4.042723
    10  H    0.545702
    11  H    0.752647
    12  N   -2.915736
    13  H    0.714504
    14  H    0.481874
    15  C   -3.782211
    16  H    0.997416
    17  H    1.455472
    18  H    1.221005
    19  H   -1.095217
 Sum of Mulliken charges =  -1.00000

 Dipole moment (field-independent basis, Debye):
    X=              4.6226    Y=             -5.3122    Z=             -5.4087  Tot=              8.8793

 Test job not archived.
 1\1\GINC-SE102\SP\RHF\Aug-CC-pVDZ\C4H12Cl1N2(1-)\OHZDE\09-Apr-2025\0\\
 #t hf aug-cc-pvdz iop(5/13=1,5/36=2,99/5=2) pseudo=read geom=check gue
 ss=(read,tcheck) scf=(maxcycle=1)\\title\\-1,1\C,0,-0.066983,0.00409,-
 0.028054\C,0,-0.323659,-0.344649,-1.518462\Cl,0,1.793919,-0.18448,0.19
 967\H,0,0.411374,0.214767,-2.111333\C,0,-0.381734,1.456538,0.271837\H,
 0,-0.00434,1.70514,1.264063\H,0,0.072408,2.122675,-0.467309\H,0,-1.469
 355,1.569455,0.275395\N,0,-0.723584,-0.804622,0.936119\H,0,-0.605915,-
 1.785923,0.709392\H,0,-1.755705,-0.5923,0.883583\N,0,-1.661248,0.05187

 Normal termination of Gaussian 16 at Wed Apr  9 02:56:27 2025.
