 Gaussian 16, Revision C.01,

 ----------------------------------------------------------------------
 #t hf aug-cc-pvdz symm=none int=(grid=ultrafine) guess=(read,tcheck) s
 table=(opt,rrhf)
 ----------------------------------------------------------------------
 -----
 title
 -----
 Symbolic Z-matrix:
 Charge = -1 Multiplicity = 1

 SCF Done:  E(RHF) =  -832.217067916     A.U. after   16 cycles
 Normal termination of Gaussian 16 at Wed Apr  9 02:36:12 2025.
 Gaussian 16:  ES64L-G16RevC.01  3-Jul-2019

 ----------------------------------------------------------------------
 #t hf aug-cc-pvdz iop(5/13=1,5/36=2,99/5=2) pseudo=read geom=check gue
 ss=(read,tcheck) scf=(maxcycle=1)
 ----------------------------------------------------------------------
 -----
 title
 -----
 Structure from the checkpoint file:  "E2SN2_138_mol1.chk"
 Charge = -1 Multiplicity = 1

                         Standard orientation:
 ---------------------------------------------------------------------
 Center     Atomic      Atomic             Coordinates (Angstroms)
 Number     Number       Type             X           Y           Z
 ---------------------------------------------------------------------
      1          6           0        0.395520    0.172799    0.385594
      2          6           0       -0.618302   -0.893337   -0.020818
      3         17           0        0.350489    1.604057   -0.779046
      4          1           0        0.038619   -2.153742    2.109083
      5          1           0       -0.444212   -1.628233    0.929615
      6          7           0        0.221438    0.648171    1.728862
      7          1           0        0.226512   -0.226859    2.286580
      8          1           0       -0.717067    1.035216    1.793367
      9          6           0        1.748549   -0.390226    0.236660
     10          7           0        2.823790   -0.831613    0.066609
     11          6           0       -1.961520   -0.359422    0.064196
     12          7           0       -3.051861    0.068459    0.190122
     13          7           0       -0.382391   -1.620057   -1.246067
     14          1           0       -0.048847   -1.004869   -1.980616
     15          1           0        0.324356   -2.324079   -1.064728
 ---------------------------------------------------------------------

 SCF Done:  E(RHF) =  -834.202344764     A.U. after    2 cycles

 The electronic state is 1-A.
 Alpha  occ. eigenvalues --  -99.78077 -15.65966 -15.63955 -15.63583 -15.63144
 Alpha  occ. eigenvalues --  -11.44207 -11.35727 -11.33822 -11.30141 -10.35418
 Alpha  occ. eigenvalues --   -9.55441  -9.54685  -9.54626  -1.36261  -1.22713
 Alpha  occ. eigenvalues --   -1.17649  -1.16716  -1.15854  -0.95334  -0.85645
 Alpha  occ. eigenvalues --   -0.65248  -0.60163  -0.57161  -0.54189  -0.50527
 Alpha  occ. eigenvalues --   -0.47679  -0.45113  -0.41935  -0.39783  -0.39030
 Alpha  occ. eigenvalues --   -0.37583  -0.33702  -0.32540  -0.32251  -0.31124
 Alpha  occ. eigenvalues --   -0.30093  -0.23257  -0.12623
 Alpha virt. eigenvalues --    0.13776   0.15325   0.15702   0.16489   0.17942
 Alpha virt. eigenvalues --    0.18524   0.18925   0.19926   0.20563   0.21544
 Alpha virt. eigenvalues --    0.22684   0.23164   0.24005   0.25020   0.25532

 Mulliken charges:
               1
     1  C    3.166296
     2  C    0.556427
     3  Cl  -0.264352
     4  H   -0.666032
     5  H    1.696597
     6  N   -3.490097
     7  H    0.674468
     8  H    0.615606
     9  C    2.084271
    10  N   -2.650216
    11  C    1.935477
    12  N   -2.634251
    13  N   -2.983354
    14  H    0.549654
    15  H    0.409506
 Sum of Mulliken charges =  -1.00000

 Dipole moment (field-independent basis, Debye):
    X=              0.6733    Y=              4.5020    Z=             -4.9753  Tot=              6.7435

 Test job not archived.
 1\1\GINC-SE070\SP\RHF\Aug-CC-pVDZ\C4H6Cl1N4(1-)\OHZDE\09-Apr-2025\0\\#
 t hf aug-cc-pvdz iop(5/13=1,5/36=2,99/5=2) pseudo=read geom=check gues
 s=(read,tcheck) scf=(maxcycle=1)\\title\\-1,1\C,0,-0.15879028,-0.05857
 612,-0.35018537\C,0,-0.11295737,0.0077404,1.17400415\Cl,0,1.54332183,-
 0.15264609,-1.05791368\H,0,-2.67086497,-0.10192383,1.13244235\H,0,-1.3
 122637,-0.0364058,1.35680957\N,0,-0.94336714,-1.15002646,-0.85399619\H
 ,0,-1.85352639,-1.02264029,-0.37219254\H,0,-0.53440447,-2.0084642,-0.4
 926218\C,0,-0.70596718,1.21231163,-0.85546514\N,0,-1.09598937,2.247772

 Normal termination of Gaussian 16 at Wed Apr  9 02:36:19 2025.
