 Gaussian 16, Revision C.01,

 ----------------------------------------------------------------------
 #t hf aug-cc-pvdz symm=none int=(grid=ultrafine) guess=(read,tcheck) s
 table=(opt,rrhf)
 ----------------------------------------------------------------------
 -----
 title
 -----
 Symbolic Z-matrix:
 Charge = -1 Multiplicity = 1

 SCF Done:  E(RHF) =  -915.194130098     A.U. after   16 cycles
 Normal termination of Gaussian 16 at Wed Apr  9 03:02:54 2025.
 Gaussian 16:  ES64L-G16RevC.01  3-Jul-2019

 ----------------------------------------------------------------------
 #t hf aug-cc-pvdz iop(5/13=1,5/36=2,99/5=2) pseudo=read geom=check gue
 ss=(read,tcheck) scf=(maxcycle=1)
 ----------------------------------------------------------------------
 -----
 title
 -----
 Structure from the checkpoint file:  "E2SN2_87_mol2.chk"
 Charge = -1 Multiplicity = 1

                         Standard orientation:
 ---------------------------------------------------------------------
 Center     Atomic      Atomic             Coordinates (Angstroms)
 Number     Number       Type             X           Y           Z
 ---------------------------------------------------------------------
      1          6           0       -0.369107   -0.223092   -0.333399
      2          6           0        0.587159    0.574287    0.567657
      3         17           0        0.172640   -1.978301   -0.434324
      4          1           0        0.193243    1.590150    0.423659
      5          6           0       -1.700132   -0.297336    0.310325
      6          7           0       -2.778225   -0.380520    0.772184
      7          7           0       -0.374254    0.368338   -1.621863
      8          1           0       -1.101500   -0.058897   -2.186303
      9          1           0       -0.634974    1.384689   -1.391638
     10          6           0        1.943440    0.503189    0.032337
     11          7           0        3.069930    0.465576   -0.299648
     12          6           0        0.566678    0.160126    2.036734
     13          1           0        1.268011    0.778571    2.601247
     14          1           0       -0.431377    0.312148    2.451983
     15          1           0        0.850039   -0.887670    2.161967
     16          9           0       -0.963190    2.559481   -0.479339
 ---------------------------------------------------------------------

 SCF Done:  E(RHF) =  -917.439066950     A.U. after    2 cycles

 The electronic state is 1-A.
 Alpha  occ. eigenvalues --  -99.77191 -28.92890 -15.65143 -15.63697 -15.59626
 Alpha  occ. eigenvalues --  -11.43326 -11.35508 -11.33496 -11.31003 -11.28036
 Alpha  occ. eigenvalues --  -10.34561  -9.54555  -9.53857  -9.53782  -1.34056
 Alpha  occ. eigenvalues --   -1.18224  -1.16833  -1.15289  -1.07057  -0.88879
 Alpha  occ. eigenvalues --   -0.83022  -0.65092  -0.60997  -0.54760  -0.54068
 Alpha  occ. eigenvalues --   -0.47906  -0.46192  -0.43614  -0.42313  -0.41389
 Alpha  occ. eigenvalues --   -0.40131  -0.37382  -0.37195  -0.33833  -0.32438
 Alpha  occ. eigenvalues --   -0.31670  -0.28815  -0.26728  -0.24392  -0.02003
 Alpha  occ. eigenvalues --   -0.01152   0.00393
 Alpha virt. eigenvalues --    0.13202   0.14553   0.15001   0.15537   0.16631
 Alpha virt. eigenvalues --    0.18208   0.19347   0.19525   0.19930   0.21952
 Alpha virt. eigenvalues --    0.22550   0.23208   0.23754   0.24539   0.24997

 Mulliken charges:
               1
     1  C    3.099502
     2  C   -0.244338
     3  Cl  -0.158805
     4  H    1.385918
     5  C    2.965991
     6  N   -2.916040
     7  N   -3.796623
     8  H    0.609855
     9  H    0.128492
    10  C    1.737089
    11  N   -2.686429
    12  C   -4.083803
    13  H    1.167161
    14  H    1.142618
    15  H    1.193076
    16  F   -0.543665
 Sum of Mulliken charges =  -1.00000

 Dipole moment (field-independent basis, Debye):
    X=             -0.0357    Y=             -2.4781    Z=              1.8296  Tot=              3.0805

 Test job not archived.
 1\1\GINC-SE128\SP\RHF\Aug-CC-pVDZ\C5H6Cl1F1N3(1-)\OHZDE\09-Apr-2025\0\
 \#t hf aug-cc-pvdz iop(5/13=1,5/36=2,99/5=2) pseudo=read geom=check gu
 ess=(read,tcheck) scf=(maxcycle=1)\\title\\-1,1\C,0,-0.016545,-0.04097
 8,-1.482951\C,0,0.023901,0.017425,0.052339\Cl,0,-1.726048,-0.404197,-2
 .057498\H,0,1.105317,0.122869,0.217579\C,0,0.265406,1.304851,-2.031373
 \N,0,0.491349,2.349845,-2.520715\N,0,0.877734,-1.050388,-1.920343\H,0,
 0.966651,-1.007789,-2.930436\H,0,1.795668,-0.741447,-1.455691\C,0,-0.4
 26118,-1.256045,0.606303\N,0,-0.814503,-2.227703,1.140764\C,0,-0.75965

 Normal termination of Gaussian 16 at Wed Apr  9 03:03:03 2025.
