 Gaussian 16, Revision C.01,

 ----------------------------------------------------------------------
 #t hf aug-cc-pvdz symm=none int=(grid=ultrafine) guess=(read,tcheck) s
 table=(opt,rrhf)
 ----------------------------------------------------------------------
 -----
 title
 -----
 Symbolic Z-matrix:
 Charge = -1 Multiplicity = 1

 SCF Done:  E(RHF) =  -479.357728476     A.U. after   15 cycles
 Normal termination of Gaussian 16 at Wed Apr  9 02:59:08 2025.
 Gaussian 16:  ES64L-G16RevC.01  3-Jul-2019

 ----------------------------------------------------------------------
 #t hf aug-cc-pvdz iop(5/13=1,5/36=2,99/5=2) pseudo=read geom=check gue
 ss=(read,tcheck) scf=(maxcycle=1)
 ----------------------------------------------------------------------
 -----
 title
 -----
 Structure from the checkpoint file:  "E2SN2_413_mol1.chk"
 Charge = -1 Multiplicity = 1

                         Standard orientation:
 ---------------------------------------------------------------------
 Center     Atomic      Atomic             Coordinates (Angstroms)
 Number     Number       Type             X           Y           Z
 ---------------------------------------------------------------------
      1          6           0       -0.596382    0.066859    0.001113
      2          1           0        0.373939   -1.476078   -1.132475
      3          9           0        0.156909    1.721017   -0.020160
      4          9           0       -1.383504   -1.570459    0.042499
      5          6           0        0.551561   -0.434639   -0.869248
      6          1           0        0.560025    0.174505   -1.772436
      7          7           0       -1.743244    0.584539   -0.705452
      8          1           0       -1.821870    1.557746   -0.448151
      9          1           0       -2.536894    0.039970   -0.402418
     10          7           0       -0.451456    0.017142    1.429504
     11          1           0       -1.210422   -0.542926    1.786073
     12          1           0       -0.466589    0.967791    1.766435
     13          6           0        1.859606   -0.320431   -0.229233
     14          7           0        2.945051   -0.308362    0.216824
 ---------------------------------------------------------------------

 SCF Done:  E(RHF) =  -481.372782111     A.U. after    2 cycles

 The electronic state is 1-A.
 Alpha  occ. eigenvalues --  -28.95662 -28.95444 -15.60182 -15.58741 -15.58214
 Alpha  occ. eigenvalues --  -11.45123 -11.30745 -11.26113  -1.29192  -1.14703
 Alpha  occ. eigenvalues --   -1.12151  -0.98849  -0.72341  -0.66506  -0.55882
 Alpha  occ. eigenvalues --   -0.50353  -0.49765  -0.46113  -0.42908  -0.36103
 Alpha  occ. eigenvalues --   -0.35337  -0.31223  -0.28466  -0.27085  -0.25230
 Alpha  occ. eigenvalues --   -0.19740  -0.12299  -0.04012  -0.03555  -0.01943
 Alpha  occ. eigenvalues --   -0.01639   0.02349
 Alpha virt. eigenvalues --    0.14244   0.15068   0.16037   0.16347   0.17095
 Alpha virt. eigenvalues --    0.17891   0.20276   0.23337   0.23465   0.24871
 Alpha virt. eigenvalues --    0.25628   0.26709   0.28221   0.29191   0.30062

 Mulliken charges:
               1
     1  C    6.439160
     2  H    1.321864
     3  F   -0.471731
     4  F   -0.585755
     5  C   -3.348323
     6  H    1.458237
     7  N   -3.824357
     8  H    0.500882
     9  H    0.445242
    10  N   -3.736671
    11  H    0.479424
    12  H    0.468856
    13  C    2.552305
    14  N   -2.699134
 Sum of Mulliken charges =  -1.00000

 Dipole moment (field-independent basis, Debye):
    X=             -2.7499    Y=              0.8184    Z=             -0.1104  Tot=              2.8712

 Test job not archived.
 1\1\GINC-SE040\SP\RHF\Aug-CC-pVDZ\C3H6F2N3(1-)\OHZDE\09-Apr-2025\0\\#t
  hf aug-cc-pvdz iop(5/13=1,5/36=2,99/5=2) pseudo=read geom=check guess
 =(read,tcheck) scf=(maxcycle=1)\\title\\-1,1\C,0,0.67821843,-0.0899742
 2,0.0176952\H,0,1.68808052,1.80273256,-0.05328373\F,0,-1.13938159,-0.0
 6947442,0.02456705\F,0,2.49425179,-0.15294813,0.00570455\C,0,0.6658964
 9,1.43535663,0.0215963\H,0,0.09774702,1.7544596,-0.8514764\N,0,0.66214
 361,-0.71692496,-1.28199483\H,0,-0.19414884,-1.24967705,-1.33155188\H,
 0,1.48344462,-1.30132965,-1.32892227\N,0,0.67706344,-0.78283445,1.2761

 Normal termination of Gaussian 16 at Wed Apr  9 02:59:13 2025.
