 Gaussian 16, Revision C.01,

 ----------------------------------------------------------------------
 #t hf aug-cc-pvdz symm=none int=(grid=ultrafine) guess=(read,tcheck) s
 table=(opt,rrhf)
 ----------------------------------------------------------------------
 -----
 title
 -----
 Symbolic Z-matrix:
 Charge = -1 Multiplicity = 1

 SCF Done:  E(RHF) =  -839.418172546     A.U. after   16 cycles
 Normal termination of Gaussian 16 at Wed Apr  9 02:57:40 2025.
 Gaussian 16:  ES64L-G16RevC.01  3-Jul-2019

 ----------------------------------------------------------------------
 #t hf aug-cc-pvdz iop(5/13=1,5/36=2,99/5=2) pseudo=read geom=check gue
 ss=(read,tcheck) scf=(maxcycle=1)
 ----------------------------------------------------------------------
 -----
 title
 -----
 Structure from the checkpoint file:  "E2SN2_394_mol1.chk"
 Charge = -1 Multiplicity = 1

                         Standard orientation:
 ---------------------------------------------------------------------
 Center     Atomic      Atomic             Coordinates (Angstroms)
 Number     Number       Type             X           Y           Z
 ---------------------------------------------------------------------
      1          6           0        0.062305    0.056341    0.381118
      2          1           0        1.173744   -1.544925    1.078236
      3         17           0       -2.114183   -0.397840   -0.168181
      4          9           0        1.922716    0.616451    0.703486
      5          6           0        0.632467   -1.328888    0.149798
      6          1           0       -0.172352   -2.052961    0.036195
      7          7           0       -0.256322    0.423361    1.724196
      8          1           0       -1.083684    1.003189    1.725224
      9          1           0        0.557173    0.946948    2.030022
     10          6           0        0.104354    1.057870   -0.672113
     11          7           0        0.117659    1.927684   -1.464295
     12          7           0        1.468163   -1.331679   -1.041699
     13          1           0        1.817815   -2.267774   -1.204051
     14          1           0        2.242723   -0.716755   -0.818147
 ---------------------------------------------------------------------

 SCF Done:  E(RHF) =  -841.337072037     A.U. after    2 cycles

 The electronic state is 1-A.
 Alpha  occ. eigenvalues --  -99.66380 -28.96174 -15.61865 -15.61324 -15.59594
 Alpha  occ. eigenvalues --  -11.45442 -11.30767 -11.27860 -10.23402  -9.43467
 Alpha  occ. eigenvalues --   -9.42962  -9.42888  -1.29481  -1.18657  -1.13865
 Alpha  occ. eigenvalues --   -1.04085  -0.92624  -0.79516  -0.61458  -0.57085
 Alpha  occ. eigenvalues --   -0.54568  -0.49777  -0.41987  -0.40715  -0.39601
 Alpha  occ. eigenvalues --   -0.38326  -0.32331  -0.30398  -0.30059  -0.28828
 Alpha  occ. eigenvalues --   -0.26082  -0.25152  -0.23046  -0.06471  -0.03718
 Alpha  occ. eigenvalues --   -0.03309
 Alpha virt. eigenvalues --    0.13323   0.15029   0.15296   0.15954   0.17216
 Alpha virt. eigenvalues --    0.18081   0.20840   0.21759   0.22895   0.24330
 Alpha virt. eigenvalues --    0.24536   0.25560   0.26741   0.28205   0.28430

 Mulliken charges:
               1
     1  C    2.859423
     2  H    1.400224
     3  Cl  -0.717289
     4  F   -0.460045
     5  C   -2.080260
     6  H    1.251529
     7  N   -3.561493
     8  H    0.593378
     9  H    0.602386
    10  C    3.654874
    11  N   -3.238799
    12  N   -2.483910
    13  H    0.630677
    14  H    0.549306
 Sum of Mulliken charges =  -1.00000

 Dipole moment (field-independent basis, Debye):
    X=              5.9868    Y=             -1.3780    Z=              3.1317  Tot=              6.8955

 Test job not archived.
 1\1\GINC-SE097\SP\RHF\Aug-CC-pVDZ\C3H6Cl1F1N3(1-)\OHZDE\09-Apr-2025\0\
 \#t hf aug-cc-pvdz iop(5/13=1,5/36=2,99/5=2) pseudo=read geom=check gu
 ess=(read,tcheck) scf=(maxcycle=1)\\title\\-1,1\C,0,0.40602118,-0.0282
 8724,-0.01339812\H,0,1.24105841,1.73638323,-0.70185737\Cl,0,-1.8222662
 6,-0.32136673,-0.45379523\F,0,2.29134162,0.08793745,0.54412639\C,0,0.4
 2440006,1.48733661,-0.01432825\H,0,-0.50774025,1.87474207,-0.42170114\
 N,0,0.82396052,-0.69438049,-1.20576213\H,0,0.26950523,-1.52908125,-1.3
 3453908\H,0,1.79521819,-0.92523616,-1.02462259\C,0,0.24269188,-0.76434

 Normal termination of Gaussian 16 at Wed Apr  9 02:57:46 2025.
