 Gaussian 16, Revision C.01,

 ----------------------------------------------------------------------
 #t hf aug-cc-pvdz symm=none int=(grid=ultrafine) guess=(read,tcheck) s
 table=(opt,rrhf)
 ----------------------------------------------------------------------
 -----
 title
 -----
 Symbolic Z-matrix:
 Charge = -1 Multiplicity = 1

 SCF Done:  E(RHF) =  -1220.26724128     A.U. after   15 cycles
 Normal termination of Gaussian 16 at Wed Apr  9 02:53:33 2025.
 Gaussian 16:  ES64L-G16RevC.01  3-Jul-2019

 ----------------------------------------------------------------------
 #t hf aug-cc-pvdz iop(5/13=1,5/36=2,99/5=2) pseudo=read geom=check gue
 ss=(read,tcheck) scf=(maxcycle=1)
 ----------------------------------------------------------------------
 -----
 title
 -----
 Structure from the checkpoint file:  "E2SN2_325_mol2.chk"
 Charge = -1 Multiplicity = 1

                         Standard orientation:
 ---------------------------------------------------------------------
 Center     Atomic      Atomic             Coordinates (Angstroms)
 Number     Number       Type             X           Y           Z
 ---------------------------------------------------------------------
      1          6           0        0.314671   -0.786117   -0.433658
      2          6           0       -0.002939    0.549929    0.251004
      3         17           0        2.066808   -0.883898   -0.841760
      4          1           0       -1.120181    0.539235    0.324436
      5          1           0       -0.229098   -0.785139   -1.378717
      6          6           0       -0.097975   -1.966351    0.418044
      7          1           0       -1.168112   -1.874595    0.616629
      8          1           0        0.087615   -2.897169   -0.120945
      9          1           0        0.463359   -1.986434    1.354746
     10          6           0        0.386065    1.700852   -0.562202
     11          7           0        0.689721    2.625642   -1.218959
     12          6           0        0.594635    0.646342    1.581432
     13          7           0        1.055971    0.705557    2.659982
     14         17           0       -3.091524   -0.126821   -0.241242
 ---------------------------------------------------------------------

 SCF Done:  E(RHF) =  -1222.15988883     A.U. after    2 cycles

 The electronic state is 1-A.
 Alpha  occ. eigenvalues --  -99.78349 -99.62994 -15.67245 -15.66798 -11.42242
 Alpha  occ. eigenvalues --  -11.37785 -11.36176 -11.33568 -11.28223 -10.35752
 Alpha  occ. eigenvalues --  -10.19700  -9.55714  -9.55006  -9.54898  -9.39728
 Alpha  occ. eigenvalues --   -9.39378  -9.39276  -1.30283  -1.21268  -1.18751
 Alpha  occ. eigenvalues --   -1.08797  -0.99042  -0.98215  -0.79653  -0.67735
 Alpha  occ. eigenvalues --   -0.61784  -0.57093  -0.52409  -0.47309  -0.44951
 Alpha  occ. eigenvalues --   -0.43277  -0.42579  -0.41565  -0.39008  -0.37099
 Alpha  occ. eigenvalues --   -0.35022  -0.34244  -0.32957  -0.31945  -0.26906
 Alpha  occ. eigenvalues --   -0.26785  -0.25544
 Alpha virt. eigenvalues --    0.12765   0.14943   0.15235   0.16161   0.16607
 Alpha virt. eigenvalues --    0.17356   0.19775   0.19945   0.21054   0.21399
 Alpha virt. eigenvalues --    0.22217   0.22392   0.23888   0.24496   0.24806

 Mulliken charges:
               1
     1  C   -1.765218
     2  C    0.221667
     3  Cl  -0.104397
     4  H    1.788229
     5  H    1.630080
     6  C   -3.621691
     7  H    1.174480
     8  H    1.093278
     9  H    1.349503
    10  C    1.758447
    11  N   -2.496769
    12  C    1.325307
    13  N   -2.458119
    14  Cl  -0.894796
 Sum of Mulliken charges =  -1.00000

 Dipole moment (field-independent basis, Debye):
    X=              6.9329    Y=             -2.8224    Z=              0.1170  Tot=              7.4863

 Test job not archived.
 1\1\GINC-SE041\SP\RHF\Aug-CC-pVDZ\C5H5Cl2N2(1-)\OHZDE\09-Apr-2025\0\\#
 t hf aug-cc-pvdz iop(5/13=1,5/36=2,99/5=2) pseudo=read geom=check gues
 s=(read,tcheck) scf=(maxcycle=1)\\title\\-1,1\C,0,-0.049007,0.013876,0
 .023296\C,0,-0.614387,0.318039,-1.370435\Cl,0,1.74234,-0.164885,-0.048
 895\H,0,-1.721793,0.269448,-1.212234\H,0,-0.450824,-0.9572,0.313773\C,
 0,-0.435822,1.074245,1.030578\H,0,-1.526545,1.12685,1.05514\H,0,-0.068
 293,0.798655,2.020703\H,0,-0.013319,2.043776,0.757795\C,0,-0.252785,-0
 .700732,-2.354612\N,0,0.029472,-1.523519,-3.143361\C,0,-0.225291,1.643

 Normal termination of Gaussian 16 at Wed Apr  9 02:53:40 2025.
