 Gaussian 16, Revision C.01,

 ----------------------------------------------------------------------
 #t hf aug-cc-pvdz symm=none int=(grid=ultrafine) guess=(read,tcheck) s
 table=(opt,rrhf)
 ----------------------------------------------------------------------
 -----
 title
 -----
 Symbolic Z-matrix:
 Charge = -1 Multiplicity = 1

 SCF Done:  E(RHF) =  -987.978599953     A.U. after   16 cycles
 Normal termination of Gaussian 16 at Wed Apr  9 02:50:28 2025.
 Gaussian 16:  ES64L-G16RevC.01  3-Jul-2019

 ----------------------------------------------------------------------
 #t hf aug-cc-pvdz iop(5/13=1,5/36=2,99/5=2) pseudo=read geom=check gue
 ss=(read,tcheck) scf=(maxcycle=1)
 ----------------------------------------------------------------------
 -----
 title
 -----
 Structure from the checkpoint file:  "E2SN2_292_mol2.chk"
 Charge = -1 Multiplicity = 1

                         Standard orientation:
 ---------------------------------------------------------------------
 Center     Atomic      Atomic             Coordinates (Angstroms)
 Number     Number       Type             X           Y           Z
 ---------------------------------------------------------------------
      1          6           0        0.222950    0.747622    0.512350
      2          6           0        0.072406   -0.687317    0.027923
      3          9           0        1.234071    0.736466    1.500945
      4          1           0       -0.396854   -1.273486    0.813124
      5          1           0       -0.532605   -0.740703   -0.876114
      6          6           0        0.750731    1.665581   -0.529809
      7          7           0        1.093496    2.475622   -1.308282
      8          7           0       -0.997287    1.177745    1.054751
      9          1           0       -1.147305    2.170326    0.952371
     10          1           0       -1.804377    0.645919    0.697080
     11          7           0        1.407103   -1.282408   -0.241162
     12          8           0        1.769873   -2.220708    0.465651
     13          8           0        2.058566   -0.798852   -1.165960
     14         17           0       -3.214866   -0.601517   -0.358378
 ---------------------------------------------------------------------

 SCF Done:  E(RHF) =  -990.438516904     A.U. after    2 cycles

 The electronic state is 1-A.
 Alpha  occ. eigenvalues --  -99.63254 -29.16908 -21.00314 -20.99859 -15.89613
 Alpha  occ. eigenvalues --  -15.67903 -15.64212 -11.48254 -11.37152 -11.34061
 Alpha  occ. eigenvalues --  -10.19965  -9.39968  -9.39646  -9.39506  -1.89409
 Alpha  occ. eigenvalues --   -1.59306  -1.35197  -1.19365  -1.12103  -0.99390
 Alpha  occ. eigenvalues --   -0.96816  -0.78922  -0.72015  -0.63376  -0.62117
 Alpha  occ. eigenvalues --   -0.56121  -0.54895  -0.53261  -0.47495  -0.46069
 Alpha  occ. eigenvalues --   -0.43360  -0.36889  -0.35479  -0.30310  -0.28213
 Alpha  occ. eigenvalues --   -0.27469  -0.27089  -0.25236  -0.24103  -0.22140
 Alpha  occ. eigenvalues --   -0.21466  -0.17313  -0.16891
 Alpha virt. eigenvalues --    0.14250   0.15948   0.16814   0.18387   0.18725
 Alpha virt. eigenvalues --    0.20017   0.20810   0.21352   0.22409   0.23822
 Alpha virt. eigenvalues --    0.24281   0.24385   0.25633   0.26296   0.26807

 Mulliken charges:
               1
     1  C    3.312227
     2  C   -2.356026
     3  F    0.204015
     4  H    1.611551
     5  H    1.484252
     6  C    1.644180
     7  N   -2.476700
     8  N   -3.231488
     9  H    0.575884
    10  H    0.445998
    11  N    4.192260
    12  O   -2.653847
    13  O   -2.785294
    14  Cl  -0.967012
 Sum of Mulliken charges =  -1.00000

 Dipole moment (field-independent basis, Debye):
    X=              9.2289    Y=              1.0155    Z=              3.9680  Tot=             10.0970

 Test job not archived.
 1\1\GINC-SE114\SP\RHF\Aug-CC-pVDZ\C3H4Cl1F1N3O2(1-)\OHZDE\09-Apr-2025\
 0\\#t hf aug-cc-pvdz iop(5/13=1,5/36=2,99/5=2) pseudo=read geom=check
 guess=(read,tcheck) scf=(maxcycle=1)\\title\\-1,1\C,0,0.043526,0.05571
 1,0.031129\C,0,-0.58487,-0.045784,-1.351333\F,0,1.405541,-0.29456,-0.1
 17318\H,0,-0.658088,-1.09452,-1.625436\H,0,-1.576045,0.405122,-1.37197
 8\C,0,0.085853,1.445353,0.554962\N,0,0.096091,2.496797,1.078446\N,0,-0
 .607378,-0.836622,0.896142\H,0,-0.615856,-0.522324,1.854969\H,0,-1.558
 336,-1.078437,0.580919\N,0,0.277801,0.623482,-2.359221\O,0,0.793027,-0

 Normal termination of Gaussian 16 at Wed Apr  9 02:50:35 2025.
