 Gaussian 16, Revision C.01,

 ----------------------------------------------------------------------
 #t hf aug-cc-pvdz symm=none int=(grid=ultrafine) guess=(read,tcheck) s
 table=(opt,rrhf)
 ----------------------------------------------------------------------
 -----
 title
 -----
 Symbolic Z-matrix:
 Charge = -1 Multiplicity = 1

 SCF Done:  E(RHF) =  -778.676256892     A.U. after   16 cycles
 Normal termination of Gaussian 16 at Wed Apr  9 02:46:23 2025.
 Gaussian 16:  ES64L-G16RevC.01  3-Jul-2019

 ----------------------------------------------------------------------
 #t hf aug-cc-pvdz iop(5/13=1,5/36=2,99/5=2) pseudo=read geom=check gue
 ss=(read,tcheck) scf=(maxcycle=1)
 ----------------------------------------------------------------------
 -----
 title
 -----
 Structure from the checkpoint file:  "E2SN2_242_mol2.chk"
 Charge = -1 Multiplicity = 1

                         Standard orientation:
 ---------------------------------------------------------------------
 Center     Atomic      Atomic             Coordinates (Angstroms)
 Number     Number       Type             X           Y           Z
 ---------------------------------------------------------------------
      1          6           0       -0.393874   -0.183027   -0.505562
      2          6           0        0.647396   -0.156609    0.609998
      3          9           0       -0.386299   -1.391813   -1.188299
      4          1           0        0.408733    0.748817    1.176973
      5          7           0       -1.835448   -0.247047    0.148026
      6          8           0       -2.757285   -0.085086   -0.646593
      7          8           0       -1.976268   -0.474796    1.344950
      8          7           0       -0.262021    0.901958   -1.336211
      9          1           0       -1.019506    0.889687   -2.010231
     10          1           0       -0.376632    1.736178   -0.622652
     11          7           0        1.971718    0.105484   -0.050385
     12          8           0        2.547235    1.157457    0.214635
     13          8           0        2.427012   -0.780941   -0.773396
     14          6           0        0.806201   -1.434881    1.411909
     15          1           0       -0.083659   -1.607847    2.010739
     16          1           0        0.974731   -2.280003    0.744925
     17          1           0        1.666497   -1.339269    2.079971
     18          9           0       -0.610790    2.352225    0.641123
 ---------------------------------------------------------------------

 SCF Done:  E(RHF) =  -781.888095834     A.U. after    2 cycles

 The electronic state is 1-A.
 Alpha  occ. eigenvalues --  -29.16261 -28.92943 -20.97487 -20.97276 -20.97077
 Alpha  occ. eigenvalues --  -20.96561 -15.86387 -15.85683 -15.58627 -11.47301
 Alpha  occ. eigenvalues --  -11.35575 -11.28206  -1.87177  -1.85445  -1.56789
 Alpha  occ. eigenvalues --   -1.56182  -1.32010  -1.12656  -1.00108  -0.91069
 Alpha  occ. eigenvalues --   -0.80273  -0.75008  -0.62095  -0.61809  -0.56532
 Alpha  occ. eigenvalues --   -0.55453  -0.54088  -0.52936  -0.49397  -0.48249
 Alpha  occ. eigenvalues --   -0.46760  -0.43763  -0.41472  -0.38377  -0.32706
 Alpha  occ. eigenvalues --   -0.29316  -0.27289  -0.24229  -0.22018  -0.19510
 Alpha  occ. eigenvalues --   -0.19040  -0.18677  -0.17694  -0.15660  -0.13359
 Alpha  occ. eigenvalues --   -0.01452  -0.01198   0.00810
 Alpha virt. eigenvalues --    0.12954   0.14413   0.14814   0.15550   0.17511
 Alpha virt. eigenvalues --    0.19736   0.20783   0.21824   0.22212   0.23761
 Alpha virt. eigenvalues --    0.24581   0.25570   0.26298   0.26660   0.27596

 Mulliken charges:
               1
     1  C    5.820849
     2  C   -1.061344
     3  F    0.309789
     4  H    1.380847
     5  N    4.431111
     6  O   -3.105297
     7  O   -3.042845
     8  N   -4.197104
     9  H    0.496413
    10  H   -0.200344
    11  N    4.267956
    12  O   -2.766881
    13  O   -2.952645
    14  C   -3.580135
    15  H    1.350687
    16  H    1.357783
    17  H    1.219376
    18  F   -0.728216
 Sum of Mulliken charges =  -1.00000

 Dipole moment (field-independent basis, Debye):
    X=              0.8560    Y=             -6.1383    Z=             -0.7092  Tot=              6.2381

 Test job not archived.
 1\1\GINC-SE114\SP\RHF\Aug-CC-pVDZ\C3H6F2N3O4(1-)\OHZDE\09-Apr-2025\0\\
 #t hf aug-cc-pvdz iop(5/13=1,5/36=2,99/5=2) pseudo=read geom=check gue
 ss=(read,tcheck) scf=(maxcycle=1)\\title\\-1,1\C,0,-0.021347,-0.02161,
 -0.026761\C,0,-0.499757,0.096252,-1.471284\F,0,1.363253,-0.08309,0.053
 561\H,0,-1.566044,0.326955,-1.381696\N,0,-0.276818,1.359356,0.706094\O
 ,0,-0.103428,1.325361,1.92109\O,0,-0.587648,2.362295,0.072197\N,0,-0.6
 41958,-1.061016,0.620567\H,0,-0.359175,-1.053165,1.594327\H,0,-1.70395
 9,-0.780889,0.511447\N,0,-0.422935,-1.284872,-2.058841\O,0,-1.473438,-

 Normal termination of Gaussian 16 at Wed Apr  9 02:46:34 2025.
