 Gaussian 16, Revision C.01,

 ----------------------------------------------------------------------
 #t hf aug-cc-pvdz symm=none int=(grid=ultrafine) guess=(read,tcheck) s
 table=(opt,rrhf)
 ----------------------------------------------------------------------
 -----
 title
 -----
 Symbolic Z-matrix:
 Charge = -1 Multiplicity = 1

 SCF Done:  E(RHF) =  -1144.53311107     A.U. after   14 cycles
 Normal termination of Gaussian 16 at Wed Apr  9 02:37:34 2025.
 Gaussian 16:  ES64L-G16RevC.01  3-Jul-2019

 ----------------------------------------------------------------------
 #t hf aug-cc-pvdz iop(5/13=1,5/36=2,99/5=2) pseudo=read geom=check gue
 ss=(read,tcheck) scf=(maxcycle=1)
 ----------------------------------------------------------------------
 -----
 title
 -----
 Structure from the checkpoint file:  "E2SN2_166_mol2.chk"
 Charge = -1 Multiplicity = 1

                         Standard orientation:
 ---------------------------------------------------------------------
 Center     Atomic      Atomic             Coordinates (Angstroms)
 Number     Number       Type             X           Y           Z
 ---------------------------------------------------------------------
      1          6           0       -0.272149    0.662879   -0.688337
      2          6           0       -0.218851   -0.726670   -0.055297
      3         17           0       -1.472436    1.714628    0.136861
      4          1           0        0.544872   -1.262149   -0.630631
      5          1           0       -0.563054    0.612719   -1.738393
      6          1           0        0.714420    1.109940   -0.580792
      7          6           0       -1.506609   -1.422045   -0.230739
      8          7           0       -2.535268   -1.964530   -0.391446
      9          7           0        0.202707   -0.778818    1.332303
     10          1           0       -0.273444   -0.050177    1.852054
     11          1           0        1.200501   -0.566062    1.312897
     12         17           0        3.042453   -0.051441   -0.193032
 ---------------------------------------------------------------------

 SCF Done:  E(RHF) =  -1146.08527619     A.U. after    2 cycles

 The electronic state is 1-A.
 Alpha  occ. eigenvalues --  -99.77512 -99.61935 -15.64998 -15.61412 -11.37391
 Alpha  occ. eigenvalues --  -11.33774 -11.30460 -10.34882 -10.18597  -9.54805
 Alpha  occ. eigenvalues --   -9.54113  -9.54027  -9.38594  -9.38287  -9.38199
 Alpha  occ. eigenvalues --   -1.29596  -1.19706  -1.16289  -0.97667  -0.97169
 Alpha  occ. eigenvalues --   -0.81945  -0.62410  -0.56672  -0.52323  -0.49444
 Alpha  occ. eigenvalues --   -0.47662  -0.43064  -0.39264  -0.38536  -0.36661
 Alpha  occ. eigenvalues --   -0.31753  -0.31637  -0.27037  -0.25692  -0.25675
 Alpha  occ. eigenvalues --   -0.24064
 Alpha virt. eigenvalues --    0.13700   0.14933   0.16536   0.16766   0.17242
 Alpha virt. eigenvalues --    0.18320   0.19348   0.21995   0.22674   0.22840
 Alpha virt. eigenvalues --    0.24020   0.25103   0.25877   0.26742   0.26777

 Mulliken charges:
               1
     1  C   -3.028035
     2  C    0.858877
     3  Cl  -0.091132
     4  H    1.670351
     5  H    1.547598
     6  H    1.395435
     7  C    1.625431
     8  N   -2.294054
     9  N   -2.748097
    10  H    0.585648
    11  H    0.459200
    12  Cl  -0.981222
 Sum of Mulliken charges =  -1.00000

 Dipole moment (field-independent basis, Debye):
    X=             -6.4914    Y=              1.6948    Z=              0.0289  Tot=              6.7090

 Test job not archived.
 1\1\GINC-SE455\SP\RHF\Aug-CC-pVDZ\C3H5Cl2N2(1-)\OHZDE\09-Apr-2025\0\\#
 t hf aug-cc-pvdz iop(5/13=1,5/36=2,99/5=2) pseudo=read geom=check gues
 s=(read,tcheck) scf=(maxcycle=1)\\title\\-1,1\C,0,-0.039268,-0.226788,
 0.008035\C,0,-0.512482,-0.357679,-1.43881\Cl,0,1.685049,0.270649,0.092
 332\H,0,-1.565318,-0.651146,-1.358594\H,0,-0.122883,-1.173658,0.543018
 \H,0,-0.646684,0.541353,0.48317\C,0,0.220688,-1.436934,-2.124607\N,0,0
 .806042,-2.308469,-2.650007\N,0,-0.485789,0.858349,-2.230281\H,0,0.392
 247,1.339474,-2.071064\H,0,-1.243464,1.43174,-1.858278\Cl,0,-3.019664,

 Normal termination of Gaussian 16 at Wed Apr  9 02:37:39 2025.
