 Gaussian 16, Revision C.01,

 ----------------------------------------------------------------------
 #t hf aug-cc-pvdz symm=none int=(grid=ultrafine) guess=(read,tcheck) s
 table=(opt,rrhf)
 ----------------------------------------------------------------------
 -----
 title
 -----
 Symbolic Z-matrix:
 Charge = -1 Multiplicity = 1

 SCF Done:  E(RHF) =  -832.214722677     A.U. after   17 cycles
 Normal termination of Gaussian 16 at Wed Apr  9 02:37:05 2025.
 Gaussian 16:  ES64L-G16RevC.01  3-Jul-2019

 ----------------------------------------------------------------------
 #t hf aug-cc-pvdz iop(5/13=1,5/36=2,99/5=2) pseudo=read geom=check gue
 ss=(read,tcheck) scf=(maxcycle=1)
 ----------------------------------------------------------------------
 -----
 title
 -----
 Structure from the checkpoint file:  "E2SN2_149_mol1.chk"
 Charge = -1 Multiplicity = 1

                         Standard orientation:
 ---------------------------------------------------------------------
 Center     Atomic      Atomic             Coordinates (Angstroms)
 Number     Number       Type             X           Y           Z
 ---------------------------------------------------------------------
      1          6           0        0.570203   -0.080198   -0.281319
      2          6           0       -0.888902   -0.432351   -0.498027
      3         17           0        1.073886   -0.386622    1.484315
      4          1           0       -0.670524   -0.964546   -2.876597
      5          1           0       -0.931321   -0.397600   -1.739297
      6          7           0        1.465314   -0.843897   -1.118178
      7          1           0        0.971343   -0.906892   -2.027254
      8          1           0        1.477289   -1.791030   -0.753466
      9          6           0        0.799931    1.351706   -0.513828
     10          7           0        0.969894    2.494852   -0.726483
     11          7           0       -1.226400   -1.818914   -0.308864
     12          1           0       -0.699307   -2.243273    0.445004
     13          1           0       -1.031352   -2.285010   -1.197705
     14          6           0       -1.805465    0.468347    0.161688
     15          7           0       -2.555492    1.213090    0.682795
 ---------------------------------------------------------------------

 SCF Done:  E(RHF) =  -834.205128116     A.U. after    2 cycles

 The electronic state is 1-A.
 Alpha  occ. eigenvalues --  -99.77899 -15.66013 -15.63278 -15.62870 -15.62243
 Alpha  occ. eigenvalues --  -11.44413 -11.35221 -11.33096 -11.29452 -10.35212
 Alpha  occ. eigenvalues --   -9.55235  -9.54522  -9.54451  -1.35873  -1.21901
 Alpha  occ. eigenvalues --   -1.17553  -1.16086  -1.14836  -0.96474  -0.82554
 Alpha  occ. eigenvalues --   -0.64710  -0.63396  -0.57068  -0.53089  -0.48814
 Alpha  occ. eigenvalues --   -0.48232  -0.42854  -0.41836  -0.39817  -0.38641
 Alpha  occ. eigenvalues --   -0.37456  -0.33398  -0.32545  -0.31696  -0.30553
 Alpha  occ. eigenvalues --   -0.27004  -0.24377  -0.13708
 Alpha virt. eigenvalues --    0.13228   0.14879   0.15419   0.16855   0.17502
 Alpha virt. eigenvalues --    0.18003   0.18765   0.19818   0.20954   0.22179
 Alpha virt. eigenvalues --    0.22844   0.23283   0.23973   0.24782   0.25047

 Mulliken charges:
               1
     1  C    2.347104
     2  C    1.203842
     3  Cl  -0.203121
     4  H   -0.669611
     5  H    1.391836
     6  N   -3.259590
     7  H    0.750529
     8  H    0.602984
     9  C    2.193292
    10  N   -2.623017
    11  N   -2.960811
    12  H    0.570569
    13  H    0.452550
    14  C    1.758464
    15  N   -2.555020
 Sum of Mulliken charges =  -1.00000

 Dipole moment (field-independent basis, Debye):
    X=              3.2903    Y=             -2.4857    Z=              4.7242  Tot=              6.2708

 Test job not archived.
 1\1\GINC-SE365\SP\RHF\Aug-CC-pVDZ\C4H6Cl1N4(1-)\OHZDE\09-Apr-2025\0\\#
 t hf aug-cc-pvdz iop(5/13=1,5/36=2,99/5=2) pseudo=read geom=check gues
 s=(read,tcheck) scf=(maxcycle=1)\\title\\-1,1\C,0,-0.20341856,0.008222
 85,-0.36480911\C,0,-0.10209536,0.06541305,1.14728396\Cl,0,1.47264583,-
 0.24084121,-1.135413\H,0,-2.36590825,-0.75486334,1.58410816\H,0,-1.306
 0775,-0.02039619,1.44193921\N,0,-1.05098851,-1.06265672,-0.8334622\H,0
 ,-1.83754429,-1.07792562,-0.15856126\H,0,-0.54727674,-1.92996167,-0.67
 765795\C,0,-0.69856913,1.28250895,-0.90165868\N,0,-1.11777769,2.300795

 Normal termination of Gaussian 16 at Wed Apr  9 02:37:11 2025.
