 Gaussian 16, Revision C.01,

 ----------------------------------------------------------------------
 #t hf aug-cc-pvdz symm=none int=(grid=ultrafine) guess=(read,tcheck) s
 table=(opt,rrhf)
 ----------------------------------------------------------------------
 -----
 title
 -----
 Symbolic Z-matrix:
 Charge = -1 Multiplicity = 1

 SCF Done:  E(RHF) =  -722.144242007     A.U. after   16 cycles
 Normal termination of Gaussian 16 at Wed Apr  9 03:02:12 2025.
 Gaussian 16:  ES64L-G16RevC.01  3-Jul-2019

 ----------------------------------------------------------------------
 #t hf aug-cc-pvdz iop(5/13=1,5/36=2,99/5=2) pseudo=read geom=check gue
 ss=(read,tcheck) scf=(maxcycle=1)
 ----------------------------------------------------------------------
 -----
 title
 -----
 Structure from the checkpoint file:  "E2SN2_96_mol1.chk"
 Charge = -1 Multiplicity = 1

                         Standard orientation:
 ---------------------------------------------------------------------
 Center     Atomic      Atomic             Coordinates (Angstroms)
 Number     Number       Type             X           Y           Z
 ---------------------------------------------------------------------
      1          6           0        0.532239    0.037205    0.615892
      2          6           0       -0.765706   -0.690156    0.872063
      3         17           0        1.666974   -0.833129   -0.488267
      4          1           0       -0.381590    0.085690    3.285171
      5          1           0       -0.979446   -0.295031    1.963535
      6          1           0        1.006324    0.100397    1.611220
      7          1           0       -0.557000   -1.751649    1.030020
      8          6           0       -1.794221   -0.514099   -0.124864
      9          7           0       -2.669126   -0.384302   -0.902229
     10          6           0        0.339490    1.390054    0.108135
     11          7           0        0.198033    2.482269   -0.300164
 ---------------------------------------------------------------------

 SCF Done:  E(RHF) =  -723.610105185     A.U. after    2 cycles

 The electronic state is 1-A.
 Alpha  occ. eigenvalues --  -99.79020 -15.66027 -15.64098 -11.39874 -11.34217
 Alpha  occ. eigenvalues --  -11.33097 -11.29256 -10.36342  -9.56284  -9.55547
 Alpha  occ. eigenvalues --   -9.55431  -1.28560  -1.18056  -1.17558  -1.04965
 Alpha  occ. eigenvalues --   -0.87202  -0.65692  -0.57672  -0.53824  -0.51401
 Alpha  occ. eigenvalues --   -0.45642  -0.42051  -0.40898  -0.38846  -0.37780
 Alpha  occ. eigenvalues --   -0.32940  -0.32005  -0.30623  -0.30410  -0.12336
 Alpha virt. eigenvalues --    0.14088   0.15670   0.16362   0.18182   0.19582
 Alpha virt. eigenvalues --    0.19702   0.20634   0.21456   0.22776   0.23749
 Alpha virt. eigenvalues --    0.24304   0.24892   0.25032   0.26252   0.26651

 Mulliken charges:
               1
     1  C   -1.411974
     2  C   -1.953973
     3  Cl  -0.062299
     4  H   -0.819335
     5  H    1.340349
     6  H    1.550631
     7  H    1.422971
     8  C    1.704927
     9  N   -2.449651
    10  C    2.032637
    11  N   -2.354283
 Sum of Mulliken charges =  -1.00000

 Dipole moment (field-independent basis, Debye):
    X=              3.0731    Y=             -2.3486    Z=             -6.9700  Tot=              7.9712

 Test job not archived.
 1\1\GINC-SE021\SP\RHF\Aug-CC-pVDZ\C4H4Cl1N2(1-)\OHZDE\09-Apr-2025\0\\#
 t hf aug-cc-pvdz iop(5/13=1,5/36=2,99/5=2) pseudo=read geom=check gues
 s=(read,tcheck) scf=(maxcycle=1)\\title\\-1,1\C,0,-0.37026507,-0.00303
 758,-0.36021763\C,0,-0.09536779,-0.21236477,1.10946078\Cl,0,0.98097888
 ,0.78464715,-1.26463184\H,0,-2.52332878,0.56775581,1.3721205\H,0,-1.20
 161324,-0.12693997,1.51200616\H,0,-1.23656796,0.68155015,-0.3771454\H,
 0,0.38505839,0.68182895,1.51551937\C,0,0.65821249,-1.39584879,1.447373
 79\N,0,1.25351238,-2.35863008,1.77183103\C,0,-0.73717262,-1.23133747,-

 Normal termination of Gaussian 16 at Wed Apr  9 03:02:17 2025.
