 Gaussian 16, Revision C.01,

 ----------------------------------------------------------------------
 #t hf aug-cc-pvdz symm=none int=(grid=ultrafine) guess=(read,tcheck) s
 table=(opt,rrhf)
 ----------------------------------------------------------------------
 -----
 title
 -----
 Symbolic Z-matrix:
 Charge = -1 Multiplicity = 1

 SCF Done:  E(RHF) =  -476.160275603     A.U. after   17 cycles
 Normal termination of Gaussian 16 at Wed Apr  9 02:32:59 2025.
 Gaussian 16:  ES64L-G16RevC.01  3-Jul-2019

 ----------------------------------------------------------------------
 #t hf aug-cc-pvdz iop(5/13=1,5/36=2,99/5=2) pseudo=read geom=check gue
 ss=(read,tcheck) scf=(maxcycle=1)
 ----------------------------------------------------------------------
 -----
 title
 -----
 Structure from the checkpoint file:  "E2SN2_101_mol1.chk"
 Charge = -1 Multiplicity = 1

                         Standard orientation:
 ---------------------------------------------------------------------
 Center     Atomic      Atomic             Coordinates (Angstroms)
 Number     Number       Type             X           Y           Z
 ---------------------------------------------------------------------
      1          6           0       -0.075412    0.597537    0.077418
      2          6           0        1.133904    0.499052   -0.746591
      3          9           0        0.156289    0.825094    1.466746
      4          1           0        0.851020   -1.201774   -2.477308
      5          1           0        0.847683   -0.263852   -1.781087
      6          1           0        1.426542    1.489153   -1.113818
      7          6           0       -1.058580    1.643637   -0.380757
      8          1           0       -0.588464    2.620964   -0.257193
      9          1           0       -1.314979    1.487886   -1.427475
     10          1           0       -1.968258    1.605887    0.221083
     11          7           0       -0.746174   -0.769091    0.082957
     12          8           0       -0.203731   -1.658138    0.739050
     13          8           0       -1.722618   -0.935431   -0.651154
     14          7           0        2.237027   -0.267285   -0.209009
     15          1           0        2.200175   -1.181804   -0.669533
     16          1           0        2.115023   -0.420484    0.783383
 ---------------------------------------------------------------------

 SCF Done:  E(RHF) =  -478.247055767     A.U. after    2 cycles

 The electronic state is 1-A.
 Alpha  occ. eigenvalues --  -29.12935 -20.95337 -20.95096 -15.83864 -15.56874
 Alpha  occ. eigenvalues --  -11.41403 -11.29211 -11.22473  -1.84331  -1.54516
 Alpha  occ. eigenvalues --   -1.23103  -1.11135  -0.91131  -0.80955  -0.73777
 Alpha  occ. eigenvalues --   -0.59693  -0.55255  -0.52638  -0.50909  -0.46531
 Alpha  occ. eigenvalues --   -0.43391  -0.42614  -0.41375  -0.36970  -0.34973
 Alpha  occ. eigenvalues --   -0.26284  -0.22332  -0.21624  -0.18472  -0.16289
 Alpha  occ. eigenvalues --   -0.13155  -0.11380  -0.06431
 Alpha virt. eigenvalues --    0.12976   0.14041   0.15365   0.15612   0.16094
 Alpha virt. eigenvalues --    0.18486   0.20195   0.20913   0.22183   0.22834
 Alpha virt. eigenvalues --    0.24798   0.25282   0.25719   0.26805   0.27956

 Mulliken charges:
               1
     1  C    3.142658
     2  C   -2.451336
     3  F    0.038300
     4  H   -0.139916
     5  H    0.568869
     6  H    1.099038
     7  C   -3.585417
     8  H    1.133763
     9  H    1.205197
    10  H    1.226971
    11  N    3.890517
    12  O   -3.003712
    13  O   -2.879564
    14  N   -2.419599
    15  H    0.499614
    16  H    0.674617
 Sum of Mulliken charges =  -1.00000

 Dipole moment (field-independent basis, Debye):
    X=             -3.0597    Y=              4.9233    Z=              8.9770  Tot=             10.6858

 Test job not archived.
 1\1\GINC-SE227\SP\RHF\Aug-CC-pVDZ\C3H8F1N2O2(1-)\OHZDE\09-Apr-2025\0\\
 #t hf aug-cc-pvdz iop(5/13=1,5/36=2,99/5=2) pseudo=read geom=check gue
 ss=(read,tcheck) scf=(maxcycle=1)\\title\\-1,1\C,0,-0.13978703,-0.0770
 588,-0.29946969\C,0,-0.26349311,-0.14263335,1.16050732\F,0,1.15315164,
 0.28623158,-0.7811635\H,0,-2.44478083,0.6975441,1.87064997\H,0,-1.5193
 2718,0.11235648,1.46380201\H,0,-0.01529183,-1.14786371,1.51925788\C,0,
 -0.53575068,-1.3421293,-1.01618251\H,0,0.17612642,-2.12110066,-0.73711
 504\H,0,-1.54168682,-1.64126281,-0.72595857\H,0,-0.50209205,-1.1978498

 Normal termination of Gaussian 16 at Wed Apr  9 02:33:05 2025.
