 Gaussian 16, Revision C.01,

 ----------------------------------------------------------------------
 #t hf aug-cc-pvdz symm=none int=(grid=ultrafine) guess=(read,tcheck) s
 table=(opt,rrhf)
 ----------------------------------------------------------------------
 -----
 title
 -----
 Symbolic Z-matrix:
 Charge = -1 Multiplicity = 1

 SCF Done:  E(RHF) =  -1236.20445009     A.U. after   17 cycles
 Normal termination of Gaussian 16 at Wed Apr  9 03:00:23 2025.
 Gaussian 16:  ES64L-G16RevC.01  3-Jul-2019

 ----------------------------------------------------------------------
 #t hf aug-cc-pvdz iop(5/13=1,5/36=2,99/5=2) pseudo=read geom=check gue
 ss=(read,tcheck) scf=(maxcycle=1)
 ----------------------------------------------------------------------
 -----
 title
 -----
 Structure from the checkpoint file:  "E2SN2_51_mol1.chk"
 Charge = -1 Multiplicity = 1

                         Standard orientation:
 ---------------------------------------------------------------------
 Center     Atomic      Atomic             Coordinates (Angstroms)
 Number     Number       Type             X           Y           Z
 ---------------------------------------------------------------------
      1          6           0        0.674141   -0.222808   -0.529835
      2          6           0       -0.152057    0.577130    0.288908
      3         17           0        2.784128    0.076046   -0.162184
      4         17           0       -2.958965   -0.543459   -0.261595
      5          1           0       -1.667743   -0.017498   -0.164454
      6          1           0        0.705284    0.027175   -1.587538
      7          6           0        0.621657   -1.642042   -0.260624
      8          7           0        0.524761   -2.792868   -0.034869
      9          7           0       -0.231088    0.336669    1.705710
     10          1           0        0.710536    0.220397    2.071861
     11          1           0       -0.750236   -0.514497    1.888818
     12          6           0       -0.296154    1.947746   -0.102499
     13          7           0       -0.452407    3.066241   -0.439433
 ---------------------------------------------------------------------

 SCF Done:  E(RHF) =  -1238.16515169     A.U. after    2 cycles

 The electronic state is 1-A.
 Alpha  occ. eigenvalues --  -99.74271 -99.71531 -15.66755 -15.63269 -15.62558
 Alpha  occ. eigenvalues --  -11.43040 -11.34660 -11.34100 -11.29260 -10.31312
 Alpha  occ. eigenvalues --  -10.28453  -9.51413  -9.50736  -9.50701  -9.48470
 Alpha  occ. eigenvalues --   -9.47957  -9.47873  -1.29070  -1.19553  -1.14916
 Alpha  occ. eigenvalues --   -1.13493  -1.10529  -1.00951  -0.84187  -0.62403
 Alpha  occ. eigenvalues --   -0.59128  -0.58449  -0.51003  -0.48845  -0.45773
 Alpha  occ. eigenvalues --   -0.42349  -0.38721  -0.37480  -0.37415  -0.36095
 Alpha  occ. eigenvalues --   -0.34892  -0.34180  -0.33239  -0.31235  -0.29913
 Alpha  occ. eigenvalues --   -0.26689  -0.18589
 Alpha virt. eigenvalues --    0.13607   0.15256   0.15710   0.16625   0.17034
 Alpha virt. eigenvalues --    0.18969   0.19655   0.20713   0.21573   0.22269
 Alpha virt. eigenvalues --    0.23314   0.23623   0.24246   0.24726   0.26208

 Mulliken charges:
               1
     1  C   -1.656406
     2  C    3.427389
     3  Cl  -0.408460
     4  Cl  -0.928530
     5  H    1.118214
     6  H    1.625015
     7  C    2.227835
     8  N   -2.488001
     9  N   -3.361100
    10  H    0.664917
    11  H    0.502929
    12  C    0.582853
    13  N   -2.306653
 Sum of Mulliken charges =  -1.00000

 Dipole moment (field-independent basis, Debye):
    X=             -0.7808    Y=             -1.6850    Z=              0.5468  Tot=              1.9359

 Test job not archived.
 1\1\GINC-SE113\SP\RHF\Aug-CC-pVDZ\C4H4Cl2N3(1-)\OHZDE\09-Apr-2025\0\\#
 t hf aug-cc-pvdz iop(5/13=1,5/36=2,99/5=2) pseudo=read geom=check gues
 s=(read,tcheck) scf=(maxcycle=1)\\title\\-1,1\C,0,-0.05116142,-0.06191
 367,-0.36633815\C,0,0.10133086,0.05752186,1.03199116\Cl,0,1.79932345,-
 0.51402185,-1.38997239\Cl,0,-2.79993377,0.21027916,2.03040826\H,0,-1.5
 1564579,0.25768628,1.48115194\H,0,-0.26610193,0.85148604,-0.91560915\C
 ,0,-0.8116438,-1.20883764,-0.80870294\N,0,-1.4654012,-2.13395832,-1.12
 730746\N,0,0.41640963,-1.09474153,1.8347429\H,0,1.1711076,-1.60955165,

 Normal termination of Gaussian 16 at Wed Apr  9 03:00:29 2025.
