 Gaussian 16, Revision C.01,

 ----------------------------------------------------------------------
 #t hf aug-cc-pvdz symm=none int=(grid=ultrafine) guess=(read,tcheck) s
 table=(opt,rrhf)
 ----------------------------------------------------------------------
 -----
 title
 -----
 Symbolic Z-matrix:
 Charge = -1 Multiplicity = 1

 SCF Done:  E(RHF) =  -1099.67679600     A.U. after   16 cycles
 Normal termination of Gaussian 16 at Wed Apr  9 02:56:58 2025.
 Gaussian 16:  ES64L-G16RevC.01  3-Jul-2019

 ----------------------------------------------------------------------
 #t hf aug-cc-pvdz iop(5/13=1,5/36=2,99/5=2) pseudo=read geom=check gue
 ss=(read,tcheck) scf=(maxcycle=1)
 ----------------------------------------------------------------------
 -----
 title
 -----
 Structure from the checkpoint file:  "E2SN2_366_mol2.chk"
 Charge = -1 Multiplicity = 1

                         Standard orientation:
 ---------------------------------------------------------------------
 Center     Atomic      Atomic             Coordinates (Angstroms)
 Number     Number       Type             X           Y           Z
 ---------------------------------------------------------------------
      1          6           0       -1.116917    0.079799   -0.409342
      2          6           0        0.367947    0.294574   -0.207677
      3         17           0       -1.745550   -1.469383    0.284657
      4          1           0        0.505424    1.305063   -0.746675
      5          1           0       -1.252227   -0.031748   -1.486336
      6          7           0       -1.777928    1.204378    0.189633
      7          1           0       -2.760036    1.162241   -0.058339
      8          1           0       -1.339930    1.999862   -0.317655
      9          7           0        1.219744   -0.735182   -0.840717
     10          8           0        0.772525   -1.299072   -1.837813
     11          8           0        2.355344   -0.887331   -0.394627
     12          7           0        0.736877    0.403299    1.226030
     13          8           0        0.988948    1.528212    1.651386
     14          8           0        0.749157   -0.630315    1.893357
     15          9           0       -0.129301    2.499826   -1.450122
 ---------------------------------------------------------------------

 SCF Done:  E(RHF) =  -1102.57913528     A.U. after    2 cycles

 The electronic state is 1-A.
 Alpha  occ. eigenvalues --  -99.76325 -28.94371 -20.99087 -20.98918 -20.98129
 Alpha  occ. eigenvalues --  -20.97605 -15.89221 -15.87825 -15.60851 -11.41966
 Alpha  occ. eigenvalues --  -11.34331 -10.33727  -9.53726  -9.52982  -9.52861
 Alpha  occ. eigenvalues --   -1.89760  -1.86059  -1.58563  -1.57133  -1.30610
 Alpha  occ. eigenvalues --   -1.15259  -1.13678  -0.88906  -0.85299  -0.70884
 Alpha  occ. eigenvalues --   -0.63594  -0.62993  -0.58192  -0.56051  -0.51948
 Alpha  occ. eigenvalues --   -0.50582  -0.48889  -0.47334  -0.46046  -0.44125
 Alpha  occ. eigenvalues --   -0.38827  -0.36834  -0.29585  -0.29151  -0.23937
 Alpha  occ. eigenvalues --   -0.23391  -0.22216  -0.20165  -0.18880  -0.17435
 Alpha  occ. eigenvalues --   -0.03220  -0.02580  -0.00730
 Alpha virt. eigenvalues --    0.13689   0.15797   0.16723   0.18588   0.18746
 Alpha virt. eigenvalues --    0.22344   0.23031   0.23655   0.24196   0.24698
 Alpha virt. eigenvalues --    0.24968   0.26098   0.26434   0.27496   0.27640

 Mulliken charges:
               1
     1  C   -0.056081
     2  C    1.588732
     3  Cl  -0.059437
     4  H    1.245199
     5  H    1.900058
     6  N   -2.650933
     7  H    0.613555
     8  H    0.307874
     9  N    3.862937
    10  O   -2.962014
    11  O   -2.875544
    12  N    4.384648
    13  O   -2.757022
    14  O   -3.126262
    15  F   -0.415711
 Sum of Mulliken charges =  -1.00000

 Dipole moment (field-independent basis, Debye):
    X=             -0.7872    Y=             -1.9060    Z=              0.6333  Tot=              2.1573

 Test job not archived.
 1\1\GINC-SE024\SP\RHF\Aug-CC-pVDZ\C2H4Cl1F1N3O4(1-)\OHZDE\09-Apr-2025\
 0\\#t hf aug-cc-pvdz iop(5/13=1,5/36=2,99/5=2) pseudo=read geom=check
 guess=(read,tcheck) scf=(maxcycle=1)\\title\\-1,1\C,0,-0.051393,0.0161
 88,0.022757\C,0,-0.597552,-0.145547,-1.379802\Cl,0,1.750861,0.163026,0
 .106988\H,0,-1.724704,-0.238219,-1.152983\H,0,-0.270215,-0.923971,0.53
 1566\N,0,-0.677766,1.184439,0.573421\H,0,-0.444484,1.233028,1.558825\H
 ,0,-1.685865,0.94534,0.480974\N,0,-0.121761,-1.359028,-2.078218\O,0,0.
 181205,-2.325976,-1.381512\O,0,-0.157835,-1.359355,-3.307214\N,0,-0.32

 Normal termination of Gaussian 16 at Wed Apr  9 02:57:06 2025.
