 Gaussian 16, Revision C.01,

 ----------------------------------------------------------------------
 #t hf aug-cc-pvdz symm=none int=(grid=ultrafine) guess=(read,tcheck) s
 table=(opt,rrhf)
 ----------------------------------------------------------------------
 -----
 title
 -----
 Symbolic Z-matrix:
 Charge = -1 Multiplicity = 1

 SCF Done:  E(RHF) =  -876.218077273     A.U. after   15 cycles
 Normal termination of Gaussian 16 at Wed Apr  9 02:57:17 2025.
 Gaussian 16:  ES64L-G16RevC.01  3-Jul-2019

 ----------------------------------------------------------------------
 #t hf aug-cc-pvdz iop(5/13=1,5/36=2,99/5=2) pseudo=read geom=check gue
 ss=(read,tcheck) scf=(maxcycle=1)
 ----------------------------------------------------------------------
 -----
 title
 -----
 Structure from the checkpoint file:  "E2SN2_383_mol2.chk"
 Charge = -1 Multiplicity = 1

                         Standard orientation:
 ---------------------------------------------------------------------
 Center     Atomic      Atomic             Coordinates (Angstroms)
 Number     Number       Type             X           Y           Z
 ---------------------------------------------------------------------
      1          6           0       -0.494206   -0.599609   -0.449231
      2          6           0       -0.243567    0.897949   -0.297777
      3          9           0       -1.570879   -0.766279   -1.340271
      4          1           0        0.577286    1.062668    0.408546
      5          1           0        0.110946    1.254779   -1.268158
      6          7           0        0.656990   -1.218150   -0.970838
      7          1           0        0.688679   -2.205730   -0.758355
      8          1           0        1.518177   -0.758069   -0.641316
      9          6           0       -0.989821   -1.191401    0.824194
     10          7           0       -1.348596   -1.701416    1.819806
     11          6           0       -1.450118    1.621401    0.085508
     12          7           0       -2.414607    2.219891    0.383427
     13         17           0        3.061917    0.474738    0.277576
 ---------------------------------------------------------------------

 SCF Done:  E(RHF) =  -878.242217131     A.U. after    2 cycles

 The electronic state is 1-A.
 Alpha  occ. eigenvalues --  -99.63049 -29.16802 -15.67998 -15.66649 -15.63831
 Alpha  occ. eigenvalues --  -11.46418 -11.37057 -11.34875 -11.32446 -10.19755
 Alpha  occ. eigenvalues --   -9.39767  -9.39467  -9.39286  -1.35260  -1.20584
 Alpha  occ. eigenvalues --   -1.19323  -1.06655  -0.99109  -0.92837  -0.71107
 Alpha  occ. eigenvalues --   -0.66972  -0.58044  -0.54128  -0.50858  -0.49579
 Alpha  occ. eigenvalues --   -0.43953  -0.41297  -0.36768  -0.35753  -0.33622
 Alpha  occ. eigenvalues --   -0.33024  -0.29187  -0.28039  -0.26931  -0.26802
 Alpha  occ. eigenvalues --   -0.24307  -0.17222  -0.16799
 Alpha virt. eigenvalues --    0.13829   0.14924   0.17145   0.18080   0.18405
 Alpha virt. eigenvalues --    0.19467   0.20037   0.21268   0.21465   0.23258
 Alpha virt. eigenvalues --    0.23879   0.24607   0.24694   0.25593   0.25851

 Mulliken charges:
               1
     1  C    3.685533
     2  C   -2.890723
     3  F    0.207541
     4  H    1.273044
     5  H    1.467205
     6  N   -3.449012
     7  H    0.597816
     8  H    0.440781
     9  C    1.470605
    10  N   -2.460078
    11  C    2.115022
    12  N   -2.491444
    13  Cl  -0.966290
 Sum of Mulliken charges =  -1.00000

 Dipole moment (field-independent basis, Debye):
    X=             -7.7256    Y=             -2.5615    Z=             -4.5779  Tot=              9.3383

 Test job not archived.
 1\1\GINC-SE454\SP\RHF\Aug-CC-pVDZ\C4H4Cl1F1N3(1-)\OHZDE\09-Apr-2025\0\
 \#t hf aug-cc-pvdz iop(5/13=1,5/36=2,99/5=2) pseudo=read geom=check gu
 ess=(read,tcheck) scf=(maxcycle=1)\\title\\-1,1\C,0,0.040347,-0.050035
 ,0.017223\C,0,-0.565389,0.194913,-1.361734\F,0,1.412149,0.256054,-0.05
 6433\H,0,-1.631581,-0.055539,-1.343536\H,0,-0.50654,1.271379,-1.541746
 \N,0,-0.585167,0.786161,0.960317\H,0,-0.49812,0.430456,1.902317\H,0,-1
 .577903,0.941256,0.731575\C,0,0.015799,-1.498073,0.363698\N,0,-0.01809
 8,-2.626727,0.687843\C,0,0.148492,-0.522675,-2.411257\N,0,0.718692,-1.

 Normal termination of Gaussian 16 at Wed Apr  9 02:57:23 2025.
