 Gaussian 16, Revision C.01,

 ----------------------------------------------------------------------
 #t hf aug-cc-pvdz symm=none int=(grid=ultrafine) guess=(read,tcheck) s
 table=(opt,rrhf)
 ----------------------------------------------------------------------
 -----
 title
 -----
 Symbolic Z-matrix:
 Charge = -1 Multiplicity = 1

 SCF Done:  E(RHF) =  -364.445225583     A.U. after   15 cycles
 Normal termination of Gaussian 16 at Wed Apr  9 02:55:56 2025.
 Gaussian 16:  ES64L-G16RevC.01  3-Jul-2019

 ----------------------------------------------------------------------
 #t hf aug-cc-pvdz iop(5/13=1,5/36=2,99/5=2) pseudo=read geom=check gue
 ss=(read,tcheck) scf=(maxcycle=1)
 ----------------------------------------------------------------------
 -----
 title
 -----
 Structure from the checkpoint file:  "E2SN2_371_mol2.chk"
 Charge = -1 Multiplicity = 1

                         Standard orientation:
 ---------------------------------------------------------------------
 Center     Atomic      Atomic             Coordinates (Angstroms)
 Number     Number       Type             X           Y           Z
 ---------------------------------------------------------------------
      1          6           0       -1.036147    0.225526    0.016843
      2          6           0        0.396034    0.377524    0.535020
      3          9           0       -1.019975    0.354765   -1.383087
      4          1           0        0.236613    0.274824    1.631050
      5          1           0       -1.608283    1.066761    0.416903
      6          7           0       -1.696862   -0.971911    0.403739
      7          1           0       -1.075484   -1.760772    0.247095
      8          1           0       -1.789020   -0.854025    1.432028
      9          6           0        1.011024    1.734242    0.197803
     10          1           0        0.386601    2.519977    0.631140
     11          1           0        1.064015    1.881456   -0.882930
     12          1           0        2.015431    1.828783    0.617656
     13          6           0        1.234846   -0.716534    0.059319
     14          7           0        1.919769   -1.589389   -0.329699
     15          1           0       -1.244977    0.054668    2.982646
 ---------------------------------------------------------------------

 SCF Done:  E(RHF) =  -366.071108192     A.U. after    2 cycles

 The electronic state is 1-A.
 Alpha  occ. eigenvalues --  -29.12058 -15.63948 -15.58783 -11.36865 -11.33848
 Alpha  occ. eigenvalues --  -11.30279 -11.26810  -1.28010  -1.17541  -1.06556
 Alpha  occ. eigenvalues --   -0.89631  -0.81888  -0.64210  -0.55302  -0.51763
 Alpha  occ. eigenvalues --   -0.49457  -0.45344  -0.42440  -0.42200  -0.40875
 Alpha  occ. eigenvalues --   -0.37171  -0.31453  -0.30326  -0.24672  -0.21365
 Alpha  occ. eigenvalues --   -0.13883  -0.12535  -0.09950
 Alpha virt. eigenvalues --    0.13073   0.14476   0.14772   0.16299   0.16496
 Alpha virt. eigenvalues --    0.18148   0.19815   0.20050   0.22021   0.22304
 Alpha virt. eigenvalues --    0.23331   0.24053   0.25027   0.25521   0.25863

 Mulliken charges:
               1
     1  C    0.109535
     2  C   -0.920847
     3  F    0.141153
     4  H    1.820109
     5  H    1.770971
     6  N   -2.786650
     7  H    0.557673
     8  H    0.618245
     9  C   -4.036175
    10  H    1.247570
    11  H    1.246339
    12  H    1.203740
    13  C    1.548712
    14  N   -2.448151
    15  H   -1.072224
 Sum of Mulliken charges =  -1.00000

 Dipole moment (field-independent basis, Debye):
    X=              3.2626    Y=              2.5462    Z=            -10.5091  Tot=             11.2947

 Test job not archived.
 1\1\GINC-SE070\SP\RHF\Aug-CC-pVDZ\C4H8F1N2(1-)\OHZDE\09-Apr-2025\0\\#t
  hf aug-cc-pvdz iop(5/13=1,5/36=2,99/5=2) pseudo=read geom=check guess
 =(read,tcheck) scf=(maxcycle=1)\\title\\-1,1\C,0,-0.015357,0.010737,-0
 .007738\C,0,-0.478569,0.052446,-1.465973\F,0,1.390311,-0.009816,0.0132
 64\H,0,-1.583409,0.046479,-1.33738\H,0,-0.363112,-0.938787,0.407636\N,
 0,-0.515434,1.054515,0.81721\H,0,-0.404624,1.942299,0.335017\H,0,-1.53
 3228,0.847267,0.847412\C,0,-0.016572,-1.159132,-2.272972\H,0,-0.403413
 ,-2.064894,-1.798617\H,0,1.07354,-1.215193,-2.304208\H,0,-0.398637,-1.

 Normal termination of Gaussian 16 at Wed Apr  9 02:56:01 2025.
