 Gaussian 16, Revision C.01,

 ----------------------------------------------------------------------
 #t hf aug-cc-pvdz symm=none int=(grid=ultrafine) guess=(read,tcheck) s
 table=(opt,rrhf)
 ----------------------------------------------------------------------
 -----
 title
 -----
 Symbolic Z-matrix:
 Charge = -1 Multiplicity = 1

 SCF Done:  E(RHF) =  -515.237281743     A.U. after   17 cycles
 Normal termination of Gaussian 16 at Wed Apr  9 02:57:49 2025.
 Gaussian 16:  ES64L-G16RevC.01  3-Jul-2019

 ----------------------------------------------------------------------
 #t hf aug-cc-pvdz iop(5/13=1,5/36=2,99/5=2) pseudo=read geom=check gue
 ss=(read,tcheck) scf=(maxcycle=1)
 ----------------------------------------------------------------------
 -----
 title
 -----
 Structure from the checkpoint file:  "E2SN2_38_mol2.chk"
 Charge = -1 Multiplicity = 1

                         Standard orientation:
 ---------------------------------------------------------------------
 Center     Atomic      Atomic             Coordinates (Angstroms)
 Number     Number       Type             X           Y           Z
 ---------------------------------------------------------------------
      1          6           0       -0.113182    0.503030   -0.165819
      2          6           0        1.090976   -0.290413    0.335636
      3          9           0       -0.112871    0.537497   -1.540237
      4          1           0        1.046008   -0.302526    1.435648
      5          7           0       -1.380997   -0.240781    0.223592
      6          8           0       -2.060610   -0.761320   -0.656107
      7          8           0       -1.618583   -0.293647    1.429016
      8          6           0       -0.196425    1.911103    0.359992
      9          1           0       -1.036801    2.434597   -0.103787
     10          1           0        0.748015    2.389840    0.107118
     11          1           0       -0.316189    1.898511    1.442395
     12          7           0        2.291462    0.440714   -0.015206
     13          1           0        2.653042    0.070924   -0.889657
     14          1           0        2.976451    0.170822    0.750781
     15          6           0        1.072578   -1.736236   -0.154839
     16          1           0        1.961989   -2.215571    0.257633
     17          1           0        1.114640   -1.771604   -1.247986
     18          1           0        0.189458   -2.293222    0.175966
     19          1           0        3.615827   -0.503947    2.042230
 ---------------------------------------------------------------------

 SCF Done:  E(RHF) =  -517.511659339     A.U. after    2 cycles

 The electronic state is 1-A.
 Alpha  occ. eigenvalues --  -29.16787 -20.99505 -20.99066 -15.88122 -15.56591
 Alpha  occ. eigenvalues --  -11.44010 -11.32814 -11.29233 -11.24912  -1.88797
 Alpha  occ. eigenvalues --   -1.58839  -1.27793  -1.14111  -0.96657  -0.91635
 Alpha  occ. eigenvalues --   -0.81491  -0.76013  -0.62777  -0.59057  -0.56102
 Alpha  occ. eigenvalues --   -0.53552  -0.49686  -0.46086  -0.45301  -0.44477
 Alpha  occ. eigenvalues --   -0.43750  -0.39890  -0.37290  -0.35312  -0.28865
 Alpha  occ. eigenvalues --   -0.24311  -0.22537  -0.22106  -0.21401  -0.15150
 Alpha  occ. eigenvalues --   -0.14696  -0.09773
 Alpha virt. eigenvalues --    0.12427   0.13917   0.14848   0.15063   0.15262
 Alpha virt. eigenvalues --    0.16578   0.17372   0.18129   0.19547   0.20839
 Alpha virt. eigenvalues --    0.21654   0.22811   0.23065   0.24488   0.24611

 Mulliken charges:
               1
     1  C    2.951480
     2  C   -0.578196
     3  F    0.197515
     4  H    2.086390
     5  N    3.577927
     6  O   -2.672584
     7  O   -3.089150
     8  C   -4.490526
     9  H    1.201086
    10  H    1.310366
    11  H    1.298590
    12  N   -2.754505
    13  H    0.490246
    14  H    0.603988
    15  C   -3.725968
    16  H    1.146438
    17  H    1.190780
    18  H    1.232480
    19  H   -0.976358
 Sum of Mulliken charges =  -1.00000

 Dipole moment (field-independent basis, Debye):
    X=            -11.3666    Y=              2.0528    Z=             -9.6947  Tot=             15.0798

 Test job not archived.
 1\1\GINC-SE457\SP\RHF\Aug-CC-pVDZ\C4H10F1N2O2(1-)\OHZDE\09-Apr-2025\0\
 \#t hf aug-cc-pvdz iop(5/13=1,5/36=2,99/5=2) pseudo=read geom=check gu
 ess=(read,tcheck) scf=(maxcycle=1)\\title\\-1,1\C,0,-0.549224,0.104508
 ,-1.491068\C,0,0.130874,0.061128,-0.124836\F,0,-1.900347,-0.106703,-1.
 349401\H,0,1.204863,0.24523,-0.282468\N,0,-0.412763,1.509304,-2.056911
 \O,0,-1.41438,2.211966,-2.155572\O,0,0.729755,1.856463,-2.350889\C,0,-
 0.001879,-0.87682,-2.492809\H,0,-0.589456,-0.838108,-3.414016\H,0,-0.0
 6931,-1.859328,-2.028878\H,0,1.04161,-0.649254,-2.705986\N,0,0.020111,

 Normal termination of Gaussian 16 at Wed Apr  9 02:57:57 2025.
