 Gaussian 16, Revision C.01,

 ----------------------------------------------------------------------
 #t hf aug-cc-pvdz symm=none int=(grid=ultrafine) guess=(read,tcheck) s
 table=(opt,rrhf)
 ----------------------------------------------------------------------
 -----
 title
 -----
 Symbolic Z-matrix:
 Charge = -1 Multiplicity = 1

 SCF Done:  E(RHF) =  -931.151823383     A.U. after   16 cycles
 Normal termination of Gaussian 16 at Wed Apr  9 02:58:32 2025.
 Gaussian 16:  ES64L-G16RevC.01  3-Jul-2019

 ----------------------------------------------------------------------
 #t hf aug-cc-pvdz iop(5/13=1,5/36=2,99/5=2) pseudo=read geom=check gue
 ss=(read,tcheck) scf=(maxcycle=1)
 ----------------------------------------------------------------------
 -----
 title
 -----
 Structure from the checkpoint file:  "E2SN2_396_mol1.chk"
 Charge = -1 Multiplicity = 1

                         Standard orientation:
 ---------------------------------------------------------------------
 Center     Atomic      Atomic             Coordinates (Angstroms)
 Number     Number       Type             X           Y           Z
 ---------------------------------------------------------------------
      1          6           0        0.510389    0.026853    0.399413
      2          1           0       -0.504060   -1.668249    0.973338
      3         17           0       -0.617268    1.911045   -0.228916
      4          9           0        1.633243   -1.459103    0.760857
      5          6           0       -0.565668   -1.020910    0.090656
      6          7           0        0.622066    0.444148    1.761471
      7          1           0        0.696566    1.449615    1.805800
      8          1           0        1.455221   -0.007782    2.116761
      9          6           0        1.508267    0.367951   -0.601358
     10          7           0        2.374127    0.650334   -1.346178
     11          7           0       -0.229014   -1.704311   -1.152963
     12          1           0       -0.928782   -2.411545   -1.344784
     13          1           0        0.658055   -2.158539   -0.960212
     14          6           0       -1.960506   -0.564145    0.031236
     15          7           0       -3.129683   -0.449862    0.013850
 ---------------------------------------------------------------------

 SCF Done:  E(RHF) =  -933.460747714     A.U. after    2 cycles

 The electronic state is 1-A.
 Alpha  occ. eigenvalues --  -99.67569 -28.99643 -15.63848 -15.63735 -15.62946
 Alpha  occ. eigenvalues --  -15.62877 -11.51276 -11.37583 -11.32834 -11.31342
 Alpha  occ. eigenvalues --  -10.24667  -9.44708  -9.44299  -9.44148  -1.33494
 Alpha  occ. eigenvalues --   -1.23315  -1.15774  -1.15502  -1.05731  -0.96853
 Alpha  occ. eigenvalues --   -0.86425  -0.67415  -0.60976  -0.58634  -0.55030
 Alpha  occ. eigenvalues --   -0.50249  -0.45457  -0.43665  -0.40184  -0.39089
 Alpha  occ. eigenvalues --   -0.35235  -0.34438  -0.32589  -0.31536  -0.30456
 Alpha  occ. eigenvalues --   -0.28608  -0.26984  -0.26739  -0.26186  -0.09727
 Alpha  occ. eigenvalues --   -0.06801  -0.06154
 Alpha virt. eigenvalues --    0.13392   0.14554   0.15135   0.16215   0.16838
 Alpha virt. eigenvalues --    0.19419   0.20212   0.21285   0.22152   0.23728
 Alpha virt. eigenvalues --    0.23977   0.24552   0.25069   0.25782   0.26506

 Mulliken charges:
               1
     1  C    3.302194
     2  H    1.727636
     3  Cl  -0.684434
     4  F   -0.313221
     5  C   -0.415786
     6  N   -3.741261
     7  H    0.621716
     8  H    0.571355
     9  C    3.249253
    10  N   -3.224437
    11  N   -3.150419
    12  H    0.721354
    13  H    0.554619
    14  C    2.545428
    15  N   -2.763997
 Sum of Mulliken charges =  -1.00000

 Dipole moment (field-independent basis, Debye):
    X=              2.8424    Y=             -6.6801    Z=              3.2662  Tot=              7.9606

 Test job not archived.
 1\1\GINC-SE120\SP\RHF\Aug-CC-pVDZ\C4H5Cl1F1N4(1-)\OHZDE\09-Apr-2025\0\
 \#t hf aug-cc-pvdz iop(5/13=1,5/36=2,99/5=2) pseudo=read geom=check gu
 ess=(read,tcheck) scf=(maxcycle=1)\\title\\-1,1\C,0,0.48239795,-0.0796
 239,-0.03953628\H,0,1.50709647,1.58848,-0.67143212\Cl,0,-1.71813123,-0
 .37573995,-0.57486328\F,0,2.25859648,0.02994092,0.61820315\C,0,0.55866
 103,1.44851508,-0.13959435\N,0,0.94603074,-0.81689181,-1.17235964\H,0,
 0.28882174,-1.54951827,-1.39555104\H,0,1.84623524,-1.1927235,-0.902174
 96\C,0,0.19154934,-0.71600161,1.23485858\N,0,0.01305005,-1.29384594,2.

 Normal termination of Gaussian 16 at Wed Apr  9 02:58:40 2025.
