 Gaussian 16, Revision C.01,

 ----------------------------------------------------------------------
 #t hf aug-cc-pvdz symm=none int=(grid=ultrafine) guess=(read,tcheck) s
 table=(opt,rrhf)
 ----------------------------------------------------------------------
 -----
 title
 -----
 Symbolic Z-matrix:
 Charge = -1 Multiplicity = 1

 SCF Done:  E(RHF) =  -823.530197054     A.U. after   14 cycles
 Normal termination of Gaussian 16 at Wed Apr  9 02:58:28 2025.
 Gaussian 16:  ES64L-G16RevC.01  3-Jul-2019

 ----------------------------------------------------------------------
 #t hf aug-cc-pvdz iop(5/13=1,5/36=2,99/5=2) pseudo=read geom=check gue
 ss=(read,tcheck) scf=(maxcycle=1)
 ----------------------------------------------------------------------
 -----
 title
 -----
 Structure from the checkpoint file:  "E2SN2_398_mol2.chk"
 Charge = -1 Multiplicity = 1

                         Standard orientation:
 ---------------------------------------------------------------------
 Center     Atomic      Atomic             Coordinates (Angstroms)
 Number     Number       Type             X           Y           Z
 ---------------------------------------------------------------------
      1          6           0        0.513076    0.809931   -0.036129
      2          6           0        0.577787   -0.572655   -0.684016
      3          9           0        1.738034    1.456488   -0.296020
      4          1           0       -0.372577   -1.084741   -0.489540
      5          1           0        0.672953   -0.425421   -1.762661
      6          7           0       -0.514379    1.545820   -0.712775
      7          1           0       -0.694577    2.400349   -0.195697
      8          1           0       -1.372910    0.988063   -0.667143
      9          6           0        0.372424    0.737823    1.472568
     10          1           0        1.201850    0.188118    1.924207
     11          1           0       -0.576367    0.252595    1.709804
     12          1           0        0.369218    1.754536    1.876269
     13          6           0        1.705162   -1.363013   -0.203487
     14          7           0        2.613110   -2.000663    0.179765
     15         17           0       -2.857159   -0.686501    0.041553
 ---------------------------------------------------------------------

 SCF Done:  E(RHF) =  -825.380980443     A.U. after    2 cycles

 The electronic state is 1-A.
 Alpha  occ. eigenvalues --  -99.61965 -29.12866 -15.64784 -15.60665 -11.39138
 Alpha  occ. eigenvalues --  -11.34862 -11.30824 -11.26140 -10.18627  -9.38659
 Alpha  occ. eigenvalues --   -9.38333  -9.38261  -1.30513  -1.18572  -1.04499
 Alpha  occ. eigenvalues --   -0.97760  -0.95337  -0.81071  -0.63991  -0.57030
 Alpha  occ. eigenvalues --   -0.54062  -0.50139  -0.46922  -0.45517  -0.42028
 Alpha  occ. eigenvalues --   -0.40655  -0.38703  -0.31953  -0.31298  -0.26838
 Alpha  occ. eigenvalues --   -0.25931  -0.25689  -0.25336  -0.21889  -0.13921
 Alpha  occ. eigenvalues --   -0.13202
 Alpha virt. eigenvalues --    0.13119   0.14437   0.14755   0.15901   0.16884
 Alpha virt. eigenvalues --    0.17704   0.18766   0.19249   0.20097   0.22524
 Alpha virt. eigenvalues --    0.23553   0.24535   0.25207   0.25450   0.26210

 Mulliken charges:
               1
     1  C    4.289952
     2  C   -3.431101
     3  F    0.057761
     4  H    1.320992
     5  H    1.480192
     6  N   -3.611272
     7  H    0.517513
     8  H    0.436161
     9  C   -4.218179
    10  H    1.259228
    11  H    1.041285
    12  H    1.091446
    13  C    2.285407
    14  N   -2.539406
    15  Cl  -0.979980
 Sum of Mulliken charges =  -1.00000

 Dipole moment (field-independent basis, Debye):
    X=              7.9288    Y=              5.0537    Z=             -0.3111  Tot=              9.4076

 Test job not archived.
 1\1\GINC-SE220\SP\RHF\Aug-CC-pVDZ\C4H7Cl1F1N2(1-)\OHZDE\09-Apr-2025\0\
 \#t hf aug-cc-pvdz iop(5/13=1,5/36=2,99/5=2) pseudo=read geom=check gu
 ess=(read,tcheck) scf=(maxcycle=1)\\title\\-1,1\C,0,-0.011412,-0.01142
 8,0.002811\C,0,-0.486992,0.037056,-1.448727\F,0,1.39357,0.098092,-0.00
 8624\H,0,-1.580808,-0.045413,-1.451694\H,0,-0.216377,1.016782,-1.85011
 7\N,0,-0.529006,1.15493,0.656073\H,0,-0.373198,1.06266,1.654707\H,0,-1
 .544227,1.160618,0.516268\C,0,-0.337981,-1.330646,0.676731\H,0,0.10992
 5,-2.172362,0.142882\H,0,-1.423426,-1.441557,0.714668\H,0,0.059496,-1.

 Normal termination of Gaussian 16 at Wed Apr  9 02:58:34 2025.
