 Gaussian 16, Revision C.01,

 ----------------------------------------------------------------------
 #t hf aug-cc-pvdz symm=none int=(grid=ultrafine) guess=(read,tcheck) s
 table=(opt,rrhf)
 ----------------------------------------------------------------------
 -----
 title
 -----
 Symbolic Z-matrix:
 Charge = -1 Multiplicity = 1

 SCF Done:  E(RHF) =  -852.254563741     A.U. after   16 cycles
 Normal termination of Gaussian 16 at Wed Apr  9 02:33:56 2025.
 Gaussian 16:  ES64L-G16RevC.01  3-Jul-2019

 ----------------------------------------------------------------------
 #t hf aug-cc-pvdz iop(5/13=1,5/36=2,99/5=2) pseudo=read geom=check gue
 ss=(read,tcheck) scf=(maxcycle=1)
 ----------------------------------------------------------------------
 -----
 title
 -----
 Structure from the checkpoint file:  "E2SN2_119_mol2.chk"
 Charge = -1 Multiplicity = 1

                         Standard orientation:
 ---------------------------------------------------------------------
 Center     Atomic      Atomic             Coordinates (Angstroms)
 Number     Number       Type             X           Y           Z
 ---------------------------------------------------------------------
      1          6           0       -0.743600    0.518875   -0.252796
      2          6           0        0.357348   -0.365402    0.363363
      3         17           0       -2.311029   -0.405804   -0.270008
      4          1           0        0.362190   -0.126983    1.435588
      5          1           0       -0.529174    0.709819   -1.305365
      6          7           0       -0.938212    1.744428    0.457154
      7          1           0       -0.187307    2.365241    0.179446
      8          1           0       -0.809017    1.537739    1.458580
      9          7           0        1.672540    0.108256   -0.134308
     10          8           0        2.633744   -0.655621   -0.002179
     11          8           0        1.774379    1.263580   -0.566481
     12          7           0        0.274903   -1.784789    0.062300
     13          1           0       -0.554124   -2.123995    0.536363
     14          1           0        1.069897   -2.218642    0.518851
     15          1           0       -0.077069    0.495717    2.956536
 ---------------------------------------------------------------------

 SCF Done:  E(RHF) =  -854.274962977     A.U. after    2 cycles

 The electronic state is 1-A.
 Alpha  occ. eigenvalues --  -99.75495 -20.97611 -20.97415 -15.86640 -15.62955
 Alpha  occ. eigenvalues --  -15.59899 -11.39610 -11.31957 -10.32891  -9.52881
 Alpha  occ. eigenvalues --   -9.52192  -9.51972  -1.86917  -1.56777  -1.31220
 Alpha  occ. eigenvalues --   -1.21128  -1.13643  -1.00610  -0.83235  -0.70497
 Alpha  occ. eigenvalues --   -0.62872  -0.58679  -0.55794  -0.52560  -0.48403
 Alpha  occ. eigenvalues --   -0.46881  -0.45091  -0.44057  -0.42249  -0.36020
 Alpha  occ. eigenvalues --   -0.35814  -0.27472  -0.26102  -0.21875  -0.19547
 Alpha  occ. eigenvalues --   -0.19469  -0.10613
 Alpha virt. eigenvalues --    0.13735   0.14606   0.15562   0.16143   0.18536
 Alpha virt. eigenvalues --    0.19266   0.21365   0.21630   0.22405   0.23517
 Alpha virt. eigenvalues --    0.24253   0.25611   0.25754   0.26331   0.26820

 Mulliken charges:
               1
     1  C   -1.678705
     2  C    2.290432
     3  Cl   0.003046
     4  H    2.024314
     5  H    1.929103
     6  N   -2.138958
     7  H    0.530071
     8  H    0.707048
     9  N    3.720203
    10  O   -2.767172
    11  O   -2.828500
    12  N   -2.835409
    13  H    0.489139
    14  H    0.635272
    15  H   -1.079884
 Sum of Mulliken charges =  -1.00000

 Dipole moment (field-independent basis, Debye):
    X=              1.3874    Y=             -1.5466    Z=             -8.7380  Tot=              8.9816

 Test job not archived.
 1\1\GINC-SE455\SP\RHF\Aug-CC-pVDZ\C2H7Cl1N3O2(1-)\OHZDE\09-Apr-2025\0\
 \#t hf aug-cc-pvdz iop(5/13=1,5/36=2,99/5=2) pseudo=read geom=check gu
 ess=(read,tcheck) scf=(maxcycle=1)\\title\\-1,1\C,0,-0.365863,-0.14988
 3,-1.457113\C,0,0.009045,-0.000642,0.029781\Cl,0,-0.55419,1.503773,-2.
 193399\H,0,1.106999,-0.011163,0.060113\H,0,-1.353048,-0.60431,-1.55355
 7\N,0,0.606441,-0.88152,-2.207589\H,0,0.458233,-1.862015,-2.000097\H,0
 ,1.532183,-0.626626,-1.833026\N,0,-0.399845,-1.236043,0.742769\O,0,-0.
 465946,-1.18042,1.974603\O,0,-0.562749,-2.279806,0.097835\N,0,-0.60218

 Normal termination of Gaussian 16 at Wed Apr  9 02:34:02 2025.
