 Gaussian 16, Revision C.01,

 ----------------------------------------------------------------------
 #t hf aug-cc-pvdz symm=none int=(grid=ultrafine) guess=(read,tcheck) s
 table=(opt,rrhf)
 ----------------------------------------------------------------------
 -----
 title
 -----
 Symbolic Z-matrix:
 Charge = -1 Multiplicity = 1

 SCF Done:  E(RHF) =  -476.157783593     A.U. after   17 cycles
 Normal termination of Gaussian 16 at Wed Apr  9 02:41:06 2025.
 Gaussian 16:  ES64L-G16RevC.01  3-Jul-2019

 ----------------------------------------------------------------------
 #t hf aug-cc-pvdz iop(5/13=1,5/36=2,99/5=2) pseudo=read geom=check gue
 ss=(read,tcheck) scf=(maxcycle=1)
 ----------------------------------------------------------------------
 -----
 title
 -----
 Structure from the checkpoint file:  "E2SN2_196_mol1.chk"
 Charge = -1 Multiplicity = 1

                         Standard orientation:
 ---------------------------------------------------------------------
 Center     Atomic      Atomic             Coordinates (Angstroms)
 Number     Number       Type             X           Y           Z
 ---------------------------------------------------------------------
      1          6           0       -1.237550    0.457425    0.120583
      2          1           0        0.011697    0.597310   -1.611808
      3          9           0       -0.762202   -0.528571    1.377594
      4          1           0       -1.812564    1.744111   -1.095442
      5          6           0        0.129007    0.651921   -0.534978
      6          1           0       -1.561339    1.234013    0.796440
      7          7           0       -2.148640   -0.493346   -0.465398
      8          1           0       -2.923061    0.015375   -0.858446
      9          1           0       -2.444022   -1.103315    0.285519
     10          7           0        1.045656   -0.523509   -0.230102
     11          8           0        1.939294   -0.400795    0.606813
     12          8           0        0.859034   -1.544168   -0.889758
     13          6           0        0.791311    1.929209   -0.070642
     14          1           0        0.126809    2.748482   -0.344156
     15          1           0        0.931283    1.896642    1.010073
     16          1           0        1.768670    2.070887   -0.538245
 ---------------------------------------------------------------------

 SCF Done:  E(RHF) =  -478.244018456     A.U. after    2 cycles

 The electronic state is 1-A.
 Alpha  occ. eigenvalues --  -29.00063 -20.93771 -20.93601 -15.82831 -15.58523
 Alpha  occ. eigenvalues --  -11.40023 -11.32005 -11.24330  -1.83085  -1.53056
 Alpha  occ. eigenvalues --   -1.22702  -1.08912  -0.87606  -0.82862  -0.67419
 Alpha  occ. eigenvalues --   -0.57866  -0.53998  -0.53038  -0.50464  -0.46130
 Alpha  occ. eigenvalues --   -0.44533  -0.40429  -0.37595  -0.36078  -0.34458
 Alpha  occ. eigenvalues --   -0.23747  -0.21002  -0.17151  -0.16712  -0.15201
 Alpha  occ. eigenvalues --   -0.06582  -0.04618  -0.03999
 Alpha virt. eigenvalues --    0.13981   0.14903   0.15564   0.15981   0.16452
 Alpha virt. eigenvalues --    0.16651   0.17397   0.20518   0.23221   0.24387
 Alpha virt. eigenvalues --    0.24889   0.26200   0.27129   0.27508   0.28331

 Mulliken charges:
               1
     1  C    0.420424
     2  H    2.137885
     3  F   -0.351668
     4  H   -0.976160
     5  C   -1.740000
     6  H    1.762311
     7  N   -3.059945
     8  H    0.628943
     9  H    0.452095
    10  N    4.911759
    11  O   -2.906428
    12  O   -3.098866
    13  C   -2.864322
    14  H    1.289441
    15  H    1.222893
    16  H    1.171636
 Sum of Mulliken charges =  -1.00000

 Dipole moment (field-independent basis, Debye):
    X=              3.7038    Y=             -3.6269    Z=              4.2981  Tot=              6.7340

 Test job not archived.
 1\1\GINC-SE113\SP\RHF\Aug-CC-pVDZ\C3H8F1N2O2(1-)\OHZDE\09-Apr-2025\0\\
 #t hf aug-cc-pvdz iop(5/13=1,5/36=2,99/5=2) pseudo=read geom=check gue
 ss=(read,tcheck) scf=(maxcycle=1)\\title\\-1,1\C,0,0.37117582,-0.06883
 185,0.09516254\H,0,1.65570787,1.5948103,0.49968402\F,0,-1.19427774,-0.
 03393938,0.66643845\H,0,2.01193827,-0.18100612,-0.77675268\C,0,0.65014
 453,1.43324826,0.12679592\H,0,0.06073404,-0.48019407,-0.85305573\N,0,0
 .89132403,-0.88419557,1.16383089\H,0,1.61085425,-1.47697776,0.78449218
 \H,0,0.11049439,-1.42204067,1.51627335\N,0,-0.21705564,2.12100802,1.17

 Normal termination of Gaussian 16 at Wed Apr  9 02:41:12 2025.
