 Gaussian 16, Revision C.01,

 ----------------------------------------------------------------------
 #t hf aug-cc-pvdz symm=none int=(grid=ultrafine) guess=(read,tcheck) s
 table=(opt,rrhf)
 ----------------------------------------------------------------------
 -----
 title
 -----
 Symbolic Z-matrix:
 Charge = -1 Multiplicity = 1

 SCF Done:  E(RHF) =  -403.414640210     A.U. after   17 cycles
 Normal termination of Gaussian 16 at Wed Apr  9 02:49:25 2025.
 Gaussian 16:  ES64L-G16RevC.01  3-Jul-2019

 ----------------------------------------------------------------------
 #t hf aug-cc-pvdz iop(5/13=1,5/36=2,99/5=2) pseudo=read geom=check gue
 ss=(read,tcheck) scf=(maxcycle=1)
 ----------------------------------------------------------------------
 -----
 title
 -----
 Structure from the checkpoint file:  "E2SN2_285_mol1.chk"
 Charge = -1 Multiplicity = 1

                         Standard orientation:
 ---------------------------------------------------------------------
 Center     Atomic      Atomic             Coordinates (Angstroms)
 Number     Number       Type             X           Y           Z
 ---------------------------------------------------------------------
      1          6           0        0.373360    0.284533    0.089371
      2          1           0       -0.656808   -0.448567   -1.611357
      3          9           0        0.552852   -0.908569    1.270193
      4          1           0        0.448850    1.484718   -1.337006
      5          6           0       -0.940706   -0.163108   -0.589406
      6          6           0        1.597292   -0.016323   -0.611584
      7          7           0        2.621896   -0.406978   -1.051685
      8          6           0        0.362527    1.407690    1.117772
      9          1           0        0.273913    2.391737    0.669051
     10          1           0       -0.482607    1.234556    1.785270
     11          1           0        1.281503    1.340529    1.703775
     12          7           0       -1.893575    0.956825   -0.587651
     13          1           0       -2.701261    0.674853   -1.136477
     14          1           0       -1.404432    1.690330   -1.102429
     15          6           0       -1.628291   -1.359755    0.063414
     16          1           0       -0.967746   -2.223504    0.084111
     17          1           0       -1.921669   -1.126126    1.086343
     18          1           0       -2.528753   -1.608564   -0.515067
 ---------------------------------------------------------------------

 SCF Done:  E(RHF) =  -405.281537929     A.U. after    2 cycles

 The electronic state is 1-A.
 Alpha  occ. eigenvalues --  -28.99464 -15.58545 -15.57882 -11.41384 -11.30679
 Alpha  occ. eigenvalues --  -11.28312 -11.25491 -11.22796  -1.24493  -1.13272
 Alpha  occ. eigenvalues --   -1.03448  -0.94102  -0.82445  -0.70939  -0.58533
 Alpha  occ. eigenvalues --   -0.54828  -0.50317  -0.45045  -0.44330  -0.41822
 Alpha  occ. eigenvalues --   -0.38781  -0.37441  -0.35095  -0.33092  -0.31941
 Alpha  occ. eigenvalues --   -0.28491  -0.24792  -0.22721  -0.16530  -0.05857
 Alpha  occ. eigenvalues --   -0.04515  -0.04259
 Alpha virt. eigenvalues --    0.13044   0.14325   0.14796   0.15117   0.15401
 Alpha virt. eigenvalues --    0.16494   0.16635   0.17202   0.18255   0.20480
 Alpha virt. eigenvalues --    0.21153   0.23139   0.24109   0.24763   0.25515

 Mulliken charges:
               1
     1  C    2.742344
     2  H    1.689050
     3  F   -0.308153
     4  H   -0.852181
     5  C   -0.486382
     6  C    1.883550
     7  N   -2.895204
     8  C   -4.197786
     9  H    1.271304
    10  H    1.244747
    11  H    1.252170
    12  N   -2.949176
    13  H    0.552293
    14  H    0.737459
    15  C   -4.112717
    16  H    1.174732
    17  H    1.241340
    18  H    1.012611
 Sum of Mulliken charges =  -1.00000

 Dipole moment (field-independent basis, Debye):
    X=             -4.6182    Y=             -3.5022    Z=              4.5314  Tot=              7.3571

 Test job not archived.
 1\1\GINC-SE339\SP\RHF\Aug-CC-pVDZ\C5H10F1N2(1-)\OHZDE\09-Apr-2025\0\\#
 t hf aug-cc-pvdz iop(5/13=1,5/36=2,99/5=2) pseudo=read geom=check gues
 s=(read,tcheck) scf=(maxcycle=1)\\title\\-1,1\C,0,0.58185491,-0.093360
 89,-0.07940413\H,0,1.55343115,1.61092778,-0.88102478\F,0,-0.89046039,-
 0.39023623,-0.85025031\H,0,2.33665217,0.05722639,0.53598431\C,0,0.6898
 4185,1.44136223,-0.22380967\C,0,1.38253238,-0.88470445,-0.98082175\N,0
 ,1.86819379,-1.56607203,-1.81507883\C,0,0.10743563,-0.70995899,1.22977
 098\H,0,0.87018798,-0.70369361,2.00160164\H,0,-0.75767947,-0.13833259,

 Normal termination of Gaussian 16 at Wed Apr  9 02:49:32 2025.
