 Gaussian 16, Revision C.01,

 ----------------------------------------------------------------------
 #t hf aug-cc-pvdz symm=none int=(grid=ultrafine) guess=(read,tcheck) s
 table=(opt,rrhf)
 ----------------------------------------------------------------------
 -----
 title
 -----
 Symbolic Z-matrix:
 Charge = -1 Multiplicity = 1

 SCF Done:  E(RHF) =  -1199.56742584     A.U. after   15 cycles
 Normal termination of Gaussian 16 at Wed Apr  9 03:00:17 2025.
 Gaussian 16:  ES64L-G16RevC.01  3-Jul-2019

 ----------------------------------------------------------------------
 #t hf aug-cc-pvdz iop(5/13=1,5/36=2,99/5=2) pseudo=read geom=check gue
 ss=(read,tcheck) scf=(maxcycle=1)
 ----------------------------------------------------------------------
 -----
 title
 -----
 Structure from the checkpoint file:  "E2SN2_52_mol2.chk"
 Charge = -1 Multiplicity = 1

                         Standard orientation:
 ---------------------------------------------------------------------
 Center     Atomic      Atomic             Coordinates (Angstroms)
 Number     Number       Type             X           Y           Z
 ---------------------------------------------------------------------
      1          6           0       -0.727887    0.002021   -0.149764
      2          6           0        0.008717    0.508672    1.088917
      3         17           0       -1.531353   -1.659532    0.436069
      4          1           0        0.745009   -0.258674    1.342654
      5          1           0       -0.715101    0.592436    1.902202
      6          6           0       -1.909263    0.809011   -0.479196
      7          7           0       -2.853283    1.455327   -0.745413
      8          7           0        0.119258   -0.127792   -1.223847
      9          1           0       -0.269150   -0.528570   -2.062212
     10          1           0        1.083816   -0.400406   -1.005487
     11          7           0        0.591533    1.810232    0.795059
     12          1           0        0.840368    2.249803    1.673508
     13          1           0        1.465060    1.634141    0.303258
     14         17           0        3.155944   -0.291722   -0.241614
 ---------------------------------------------------------------------

 SCF Done:  E(RHF) =  -1201.37869501     A.U. after    2 cycles

 The electronic state is 1-A.
 Alpha  occ. eigenvalues --  -99.75647 -99.62345 -15.66188 -15.63532 -15.61175
 Alpha  occ. eigenvalues --  -11.42626 -11.34289 -11.30551 -10.32861 -10.19051
 Alpha  occ. eigenvalues --   -9.52866  -9.52209  -9.52131  -9.39058  -9.38752
 Alpha  occ. eigenvalues --   -9.38624  -1.34431  -1.19522  -1.17774  -1.14547
 Alpha  occ. eigenvalues --   -0.98396  -0.94135  -0.81122  -0.63852  -0.57379
 Alpha  occ. eigenvalues --   -0.54858  -0.52392  -0.49095  -0.44764  -0.42507
 Alpha  occ. eigenvalues --   -0.39889  -0.38339  -0.36249  -0.32874  -0.31893
 Alpha  occ. eigenvalues --   -0.27063  -0.26574  -0.26241  -0.25877  -0.24328
 Alpha virt. eigenvalues --    0.13170   0.14599   0.14949   0.16752   0.17279
 Alpha virt. eigenvalues --    0.18293   0.18691   0.19419   0.20879   0.22199
 Alpha virt. eigenvalues --    0.22458   0.23282   0.24677   0.26045   0.26705

 Mulliken charges:
               1
     1  C    1.686509
     2  C   -1.007331
     3  Cl  -0.166322
     4  H    1.427401
     5  H    1.448081
     6  C    2.854002
     7  N   -2.687893
     8  N   -3.488474
     9  H    0.765616
    10  H    0.516262
    11  N   -2.489292
    12  H    0.541509
    13  H    0.583788
    14  Cl  -0.983857
 Sum of Mulliken charges =  -1.00000

 Dipole moment (field-independent basis, Debye):
    X=             -5.7357    Y=              1.1833    Z=              0.9418  Tot=              5.9318

 Test job not archived.
 1\1\GINC-SE340\SP\RHF\Aug-CC-pVDZ\C3H6Cl2N3(1-)\OHZDE\09-Apr-2025\0\\#
 t hf aug-cc-pvdz iop(5/13=1,5/36=2,99/5=2) pseudo=read geom=check gues
 s=(read,tcheck) scf=(maxcycle=1)\\title\\-1,1\C,0,-0.485637,0.087994,-
 1.388354\C,0,-0.179301,-0.209773,0.07831\Cl,0,-0.279543,-1.627536,-2.2
 62424\H,0,0.846874,-0.585926,0.106618\H,0,-0.858036,-0.997176,0.412491
 \C,0,-1.904918,0.379157,-1.625579\N,0,-3.039743,0.614807,-1.816395\N,0
 ,0.329729,1.076535,-1.884464\H,0,0.246264,1.283148,-2.866647\H,0,1.281
 015,1.109036,-1.501882\N,0,-0.384988,1.000577,0.861146\H,0,-0.441042,0

 Normal termination of Gaussian 16 at Wed Apr  9 03:00:21 2025.
