 Gaussian 16, Revision C.01,

 ----------------------------------------------------------------------
 #t hf aug-cc-pvdz symm=none int=(grid=ultrafine) guess=(read,tcheck) s
 table=(opt,rrhf)
 ----------------------------------------------------------------------
 -----
 title
 -----
 Symbolic Z-matrix:
 Charge = -1 Multiplicity = 1

 SCF Done:  E(RHF) =  -878.490752730     A.U. after   15 cycles
 Normal termination of Gaussian 16 at Wed Apr  9 03:01:43 2025.
 Gaussian 16:  ES64L-G16RevC.01  3-Jul-2019

 ----------------------------------------------------------------------
 #t hf aug-cc-pvdz iop(5/13=1,5/36=2,99/5=2) pseudo=read geom=check gue
 ss=(read,tcheck) scf=(maxcycle=1)
 ----------------------------------------------------------------------
 -----
 title
 -----
 Structure from the checkpoint file:  "E2SN2_76_mol2.chk"
 Charge = -1 Multiplicity = 1

                         Standard orientation:
 ---------------------------------------------------------------------
 Center     Atomic      Atomic             Coordinates (Angstroms)
 Number     Number       Type             X           Y           Z
 ---------------------------------------------------------------------
      1          6           0        0.769542    0.046992    0.217475
      2          6           0       -0.724116    0.028584   -0.167255
      3         17           0        1.593573   -1.377767   -0.557779
      4          1           0       -0.781990    0.103816   -1.263386
      5          6           0        1.420220    1.239766   -0.327749
      6          7           0        1.997453    2.175410   -0.742035
      7          6           0        0.985132   -0.043904    1.719435
      8          1           0        0.609116    0.870127    2.183361
      9          1           0        0.419146   -0.898891    2.087080
     10          1           0        2.045881   -0.149759    1.953835
     11          7           0       -1.343565    1.228095    0.360184
     12          1           0       -2.306242    1.126787   -0.037963
     13          1           0       -1.484158    1.047586    1.352737
     14          7           0       -1.382573   -1.164714    0.344781
     15          1           0       -2.374507   -0.933483    0.104946
     16          1           0       -1.115355   -1.960380   -0.228076
     17          9           0       -3.522944    0.101785   -0.562471
 ---------------------------------------------------------------------

 SCF Done:  E(RHF) =  -880.607529316     A.U. after    2 cycles

 The electronic state is 1-A.
 Alpha  occ. eigenvalues --  -99.78046 -28.90485 -15.65310 -15.56484 -15.56299
 Alpha  occ. eigenvalues --  -11.40042 -11.34328 -11.31723 -11.27926 -10.35420
 Alpha  occ. eigenvalues --   -9.55416  -9.54702  -9.54627  -1.32907  -1.21498
 Alpha  occ. eigenvalues --   -1.17112  -1.07991  -1.03568  -0.87453  -0.74288
 Alpha  occ. eigenvalues --   -0.61946  -0.58224  -0.53288  -0.48799  -0.48285
 Alpha  occ. eigenvalues --   -0.46440  -0.43955  -0.42487  -0.40387  -0.37820
 Alpha  occ. eigenvalues --   -0.36878  -0.35466  -0.32064  -0.30278  -0.27350
 Alpha  occ. eigenvalues --   -0.22451  -0.21614   0.00340   0.01018   0.02715
 Alpha virt. eigenvalues --    0.12737   0.14284   0.14795   0.15446   0.16465
 Alpha virt. eigenvalues --    0.16840   0.17547   0.18723   0.19450   0.20907
 Alpha virt. eigenvalues --    0.21631   0.22023   0.23646   0.24575   0.25029

 Mulliken charges:
               1
     1  C    0.206245
     2  C    2.840646
     3  Cl  -0.118206
     4  H    1.731164
     5  C    2.435811
     6  N   -2.705300
     7  C   -3.966907
     8  H    1.428510
     9  H    1.288366
    10  H    1.239452
    11  N   -3.009657
    12  H    0.248900
    13  H    0.400731
    14  N   -3.235862
    15  H    0.415395
    16  H    0.448450
    17  F   -0.647737
 Sum of Mulliken charges =  -1.00000

 Dipole moment (field-independent basis, Debye):
    X=              5.8413    Y=             -2.0482    Z=              2.6360  Tot=              6.7279

 Test job not archived.
 1\1\GINC-SE456\SP\RHF\Aug-CC-pVDZ\C4H8Cl1F1N3(1-)\OHZDE\09-Apr-2025\0\
 \#t hf aug-cc-pvdz iop(5/13=1,5/36=2,99/5=2) pseudo=read geom=check gu
 ess=(read,tcheck) scf=(maxcycle=1)\\title\\-1,1\C,0,-0.715177,-0.00376
 8,-1.570003\C,0,0.158216,0.029639,-0.299004\Cl,0,-0.42482,1.518788,-2.
 522631\H,0,1.208239,0.08294,-0.62323\C,0,-0.308109,-1.110581,-2.43754\
 N,0,-0.0244,-1.979023,-3.176173\C,0,-2.199825,-0.08615,-1.254314\H,0,-
 2.407707,-1.055895,-0.797756\H,0,-2.435568,0.707937,-0.546955\H,0,-2.7
 96202,0.012776,-2.163097\N,0,0.004872,-1.235946,0.390572\H,0,0.69857,-

 Normal termination of Gaussian 16 at Wed Apr  9 03:01:51 2025.
