 Gaussian 16, Revision C.01,

 ----------------------------------------------------------------------
 #t hf aug-cc-pvdz symm=none int=(grid=ultrafine) guess=(read,tcheck) s
 table=(opt,rrhf)
 ----------------------------------------------------------------------
 -----
 title
 -----
 Symbolic Z-matrix:
 Charge = -1 Multiplicity = 1

 SCF Done:  E(RHF) =  -1236.25644626     A.U. after   15 cycles
 Normal termination of Gaussian 16 at Wed Apr  9 02:47:19 2025.
 Gaussian 16:  ES64L-G16RevC.01  3-Jul-2019

 ----------------------------------------------------------------------
 #t hf aug-cc-pvdz iop(5/13=1,5/36=2,99/5=2) pseudo=read geom=check gue
 ss=(read,tcheck) scf=(maxcycle=1)
 ----------------------------------------------------------------------
 -----
 title
 -----
 Structure from the checkpoint file:  "E2SN2_254_mol2.chk"
 Charge = -1 Multiplicity = 1

                         Standard orientation:
 ---------------------------------------------------------------------
 Center     Atomic      Atomic             Coordinates (Angstroms)
 Number     Number       Type             X           Y           Z
 ---------------------------------------------------------------------
      1          6           0        0.129535   -0.460684   -0.384948
      2          6           0        0.275609    0.600776    0.728560
      3         17           0        1.746126   -0.896691   -1.059130
      4          1           0       -0.761918    0.889669    0.939920
      5          1           0       -0.495136   -0.066515   -1.186237
      6          6           0       -0.466604   -1.669115    0.173291
      7          7           0       -0.847048   -2.659909    0.676212
      8          6           0        0.966212    1.780505    0.193844
      9          7           0        1.546729    2.716438   -0.211776
     10          7           0        0.939701    0.165615    1.944002
     11          1           0        0.348388   -0.508705    2.414962
     12          1           0        1.819945   -0.283853    1.717630
     13         17           0       -2.794094    0.714662   -0.412036
 ---------------------------------------------------------------------

 SCF Done:  E(RHF) =  -1238.19539840     A.U. after    2 cycles

 The electronic state is 1-A.
 Alpha  occ. eigenvalues --  -99.80301 -99.62035 -15.66912 -15.66131 -15.65905
 Alpha  occ. eigenvalues --  -11.42566 -11.38169 -11.34933 -11.32527 -10.37661
 Alpha  occ. eigenvalues --  -10.18716  -9.57604  -9.56902  -9.56792  -9.38733
 Alpha  occ. eigenvalues --   -9.38384  -9.38296  -1.34083  -1.23563  -1.18746
 Alpha  occ. eigenvalues --   -1.17799  -1.01854  -0.97795  -0.88421  -0.66200
 Alpha  occ. eigenvalues --   -0.62526  -0.59797  -0.54290  -0.51907  -0.47570
 Alpha  occ. eigenvalues --   -0.44027  -0.41742  -0.40914  -0.39209  -0.35044
 Alpha  occ. eigenvalues --   -0.33751  -0.32953  -0.31984  -0.28671  -0.25946
 Alpha  occ. eigenvalues --   -0.25719  -0.25654
 Alpha virt. eigenvalues --    0.13034   0.14679   0.15001   0.16271   0.17001
 Alpha virt. eigenvalues --    0.18563   0.19778   0.21187   0.21502   0.22256
 Alpha virt. eigenvalues --    0.23008   0.23165   0.24192   0.25596   0.25976

 Mulliken charges:
               1
     1  C   -2.178707
     2  C    1.082824
     3  Cl  -0.035055
     4  H    1.626127
     5  H    1.588027
     6  C    2.589210
     7  N   -2.586652
     8  C    2.259833
     9  N   -2.549260
    10  N   -2.985411
    11  H    0.546528
    12  H    0.589953
    13  Cl  -0.947415
 Sum of Mulliken charges =  -1.00000

 Dipole moment (field-independent basis, Debye):
    X=              7.9714    Y=             -3.0762    Z=              1.9974  Tot=              8.7748

 Test job not archived.
 1\1\GINC-SE060\SP\RHF\Aug-CC-pVDZ\C4H4Cl2N3(1-)\OHZDE\09-Apr-2025\0\\#
 t hf aug-cc-pvdz iop(5/13=1,5/36=2,99/5=2) pseudo=read geom=check gues
 s=(read,tcheck) scf=(maxcycle=1)\\title\\-1,1\C,0,-0.108075,0.060475,0
 .001489\C,0,-0.549266,0.203915,-1.472523\Cl,0,1.6831,-0.134526,0.10945
 8\H,0,-1.644229,0.156366,-1.414298\H,0,-0.587891,-0.812466,0.443528\C,
 0,-0.47514,1.265772,0.736226\N,0,-0.687348,2.289824,1.270665\C,0,-0.09
 2883,-0.963257,-2.236747\N,0,0.294635,-1.87469,-2.866523\N,0,-0.128549
 ,1.416451,-2.151076\H,0,-0.614253,2.204948,-1.740556\H,0,0.86828,1.555

 Normal termination of Gaussian 16 at Wed Apr  9 02:47:25 2025.
