 Gaussian 16, Revision C.01,

 ----------------------------------------------------------------------
 #t hf aug-cc-pvdz symm=none int=(grid=ultrafine) guess=(read,tcheck) s
 table=(opt,rrhf)
 ----------------------------------------------------------------------
 -----
 title
 -----
 Symbolic Z-matrix:
 Charge = -1 Multiplicity = 1

 SCF Done:  E(RHF) =  -784.388808110     A.U. after   15 cycles
 Normal termination of Gaussian 16 at Wed Apr  9 02:37:29 2025.
 Gaussian 16:  ES64L-G16RevC.01  3-Jul-2019

 ----------------------------------------------------------------------
 #t hf aug-cc-pvdz iop(5/13=1,5/36=2,99/5=2) pseudo=read geom=check gue
 ss=(read,tcheck) scf=(maxcycle=1)
 ----------------------------------------------------------------------
 -----
 title
 -----
 Structure from the checkpoint file:  "E2SN2_167_mol1.chk"
 Charge = -1 Multiplicity = 1

                         Standard orientation:
 ---------------------------------------------------------------------
 Center     Atomic      Atomic             Coordinates (Angstroms)
 Number     Number       Type             X           Y           Z
 ---------------------------------------------------------------------
      1          6           0        0.429996   -0.913509   -0.130356
      2          1           0        1.111763    0.751388   -1.187757
      3         17           0       -1.730312   -1.217667    0.191320
      4          9           0        2.337220   -1.022342   -0.405468
      5          6           0        0.599603    0.596498   -0.229233
      6          1           0        0.375706   -1.495117   -1.028131
      7          1           0        0.635261   -1.375770    0.815039
      8          7           0        1.424356    1.023380    0.907859
      9          1           0        1.675111    1.997886    0.778441
     10          1           0        2.256723    0.450085    0.772556
     11          6           0       -0.616045    1.424867   -0.262418
     12          7           0       -1.446580    2.251737   -0.339478
 ---------------------------------------------------------------------

 SCF Done:  E(RHF) =  -786.042820138     A.U. after    2 cycles

 The electronic state is 1-A.
 Alpha  occ. eigenvalues --  -99.66126 -28.95684 -15.62677 -15.60834 -11.38487
 Alpha  occ. eigenvalues --  -11.33680 -11.29650 -10.23123  -9.43082  -9.42710
 Alpha  occ. eigenvalues --   -9.42525  -1.26934  -1.14396  -1.06005  -0.95765
 Alpha  occ. eigenvalues --   -0.81784  -0.60542  -0.57213  -0.48880  -0.47319
 Alpha  occ. eigenvalues --   -0.43425  -0.39561  -0.36726  -0.32163  -0.30770
 Alpha  occ. eigenvalues --   -0.29305  -0.28303  -0.27776  -0.25009  -0.05349
 Alpha  occ. eigenvalues --   -0.03577  -0.02810
 Alpha virt. eigenvalues --    0.13972   0.15304   0.16282   0.17058   0.17136
 Alpha virt. eigenvalues --    0.20246   0.21339   0.24005   0.24820   0.25101
 Alpha virt. eigenvalues --    0.25775   0.26845   0.27753   0.28030   0.30015

 Mulliken charges:
               1
     1  C   -2.516662
     2  H    1.569460
     3  Cl  -0.629956
     4  F   -0.471213
     5  C   -0.537413
     6  H    1.359223
     7  H    1.429658
     8  N   -2.535868
     9  H    0.645958
    10  H    0.472841
    11  C    2.743245
    12  N   -2.529275
 Sum of Mulliken charges =  -1.00000

 Dipole moment (field-independent basis, Debye):
    X=              6.0276    Y=              1.4361    Z=             -0.9255  Tot=              6.2651

 Test job not archived.
 1\1\GINC-SE461\SP\RHF\Aug-CC-pVDZ\C3H5Cl1F1N2(1-)\OHZDE\09-Apr-2025\0\
 \#t hf aug-cc-pvdz iop(5/13=1,5/36=2,99/5=2) pseudo=read geom=check gu
 ess=(read,tcheck) scf=(maxcycle=1)\\title\\-1,1\C,0,0.52877197,-0.0450
 8334,0.06137655\H,0,1.59523264,1.63423111,-0.56898248\Cl,0,-1.29845464
 ,-0.66629859,-1.00551193\F,0,2.16636726,0.13216746,1.06730939\C,0,0.60
 089052,1.46299586,-0.13651398\H,0,1.11164973,-0.68529333,-0.56917799\H
 ,0,0.11356627,-0.40622953,0.98157636\N,0,0.4628732,2.08856897,1.184483
 1\H,0,0.65919607,3.07995359,1.09558234\H,0,1.22937422,1.64692271,1.691

 Normal termination of Gaussian 16 at Wed Apr  9 02:37:34 2025.
