 Gaussian 16, Revision C.01,

 ----------------------------------------------------------------------
 #t hf aug-cc-pvdz symm=none int=(grid=ultrafine) guess=(read,tcheck) s
 table=(opt,rrhf)
 ----------------------------------------------------------------------
 -----
 title
 -----
 Symbolic Z-matrix:
 Charge = -1 Multiplicity = 1

 SCF Done:  E(RHF) =  -591.775347970     A.U. after   16 cycles
 Normal termination of Gaussian 16 at Wed Apr  9 02:48:40 2025.
 Gaussian 16:  ES64L-G16RevC.01  3-Jul-2019

 ----------------------------------------------------------------------
 #t hf aug-cc-pvdz iop(5/13=1,5/36=2,99/5=2) pseudo=read geom=check gue
 ss=(read,tcheck) scf=(maxcycle=1)
 ----------------------------------------------------------------------
 -----
 title
 -----
 Structure from the checkpoint file:  "E2SN2_268_mol1.chk"
 Charge = -1 Multiplicity = 1

                         Standard orientation:
 ---------------------------------------------------------------------
 Center     Atomic      Atomic             Coordinates (Angstroms)
 Number     Number       Type             X           Y           Z
 ---------------------------------------------------------------------
      1          6           0       -0.450802    0.183224    0.071292
      2          1           0        0.749055   -0.441630    1.699699
      3          9           0        0.186304    0.087707   -1.590824
      4          9           0       -1.216146    0.263447    1.648764
      5          6           0        0.747059   -0.606487    0.621153
      6          6           0       -1.637977   -0.494565   -0.424734
      7          7           0       -2.586364   -1.073601   -0.805398
      8          6           0       -0.382888    1.632033    0.009352
      9          7           0       -0.303234    2.803653   -0.015416
     10          6           0        2.024809   -0.113944    0.098437
     11          7           0        3.106545    0.218057   -0.215832
     12          6           0        0.591128   -2.098610    0.331927
     13          1           0       -0.315284   -2.467423    0.814857
     14          1           0        0.517853   -2.247580   -0.744542
     15          1           0        1.450348   -2.650429    0.720492
 ---------------------------------------------------------------------

 SCF Done:  E(RHF) =  -594.243465785     A.U. after    2 cycles

 The electronic state is 1-A.
 Alpha  occ. eigenvalues --  -29.02742 -29.01364 -15.64930 -15.64588 -15.64446
 Alpha  occ. eigenvalues --  -11.54811 -11.39447 -11.34529 -11.34260 -11.32841
 Alpha  occ. eigenvalues --  -11.29144  -1.28630  -1.19018  -1.17264  -1.12174
 Alpha  occ. eigenvalues --   -1.01167  -0.85635  -0.71490  -0.69201  -0.61362
 Alpha  occ. eigenvalues --   -0.53771  -0.47628  -0.45769  -0.43436  -0.42238
 Alpha  occ. eigenvalues --   -0.40386  -0.38880  -0.38373  -0.35631  -0.33727
 Alpha  occ. eigenvalues --   -0.31993  -0.30442  -0.30391  -0.28599  -0.17678
 Alpha  occ. eigenvalues --   -0.08742  -0.07763  -0.07746  -0.06868  -0.00690
 Alpha virt. eigenvalues --    0.12608   0.14853   0.15096   0.15915   0.18093
 Alpha virt. eigenvalues --    0.19142   0.20223   0.21464   0.22014   0.22357
 Alpha virt. eigenvalues --    0.23013   0.23787   0.24751   0.24950   0.25376

 Mulliken charges:
               1
     1  C    5.949528
     2  H    1.425924
     3  F   -0.327384
     4  F   -0.548330
     5  C   -3.990560
     6  C    2.401162
     7  N   -3.073046
     8  C    0.340531
     9  N   -2.755592
    10  C    2.447946
    11  N   -2.864646
    12  C   -3.811179
    13  H    1.326261
    14  H    1.333060
    15  H    1.146327
 Sum of Mulliken charges =  -1.00000

 Dipole moment (field-independent basis, Debye):
    X=              1.1067    Y=             -3.5490    Z=              1.4217  Tot=              3.9802

 Test job not archived.
 1\1\GINC-SE164\SP\RHF\Aug-CC-pVDZ\C6H4F2N3(1-)\OHZDE\09-Apr-2025\0\\#t
  hf aug-cc-pvdz iop(5/13=1,5/36=2,99/5=2) pseudo=read geom=check guess
 =(read,tcheck) scf=(maxcycle=1)\\title\\-1,1\C,0,0.61762108,-0.0644833
 9,0.0265884\H,0,1.69841581,1.74735842,0.20243746\F,0,-1.14703867,-0.07
 528133,0.27861084\F,0,2.33654384,-0.17382144,-0.31098451\C,0,0.6540675
 1,1.47143536,0.04866096\C,0,0.37080398,-0.79587491,-1.20587739\N,0,0.1
 8171032,-1.35499951,-2.22138153\C,0,0.79458859,-0.80061578,1.26525223\
 N,0,0.95447511,-1.3681567,2.28111905\C,0,-0.11719479,2.02985724,1.1630

 Normal termination of Gaussian 16 at Wed Apr  9 02:48:48 2025.
