 Gaussian 16, Revision C.01,

 ----------------------------------------------------------------------
 #t hf aug-cc-pvdz symm=none int=(grid=ultrafine) guess=(read,tcheck) s
 table=(opt,rrhf)
 ----------------------------------------------------------------------
 -----
 title
 -----
 Symbolic Z-matrix:
 Charge = -1 Multiplicity = 1

 SCF Done:  E(RHF) =  -1191.35733206     A.U. after   18 cycles
 Normal termination of Gaussian 16 at Wed Apr  9 02:52:52 2025.
 Gaussian 16:  ES64L-G16RevC.01  3-Jul-2019

 ----------------------------------------------------------------------
 #t hf aug-cc-pvdz iop(5/13=1,5/36=2,99/5=2) pseudo=read geom=check gue
 ss=(read,tcheck) scf=(maxcycle=1)
 ----------------------------------------------------------------------
 -----
 title
 -----
 Structure from the checkpoint file:  "E2SN2_306_mol1.chk"
 Charge = -1 Multiplicity = 1

                         Standard orientation:
 ---------------------------------------------------------------------
 Center     Atomic      Atomic             Coordinates (Angstroms)
 Number     Number       Type             X           Y           Z
 ---------------------------------------------------------------------
      1          6           0        0.771746    0.579534    0.148099
      2          1           0       -0.505115    0.613164   -1.563912
      3         17           0        0.844126   -1.130584    1.567568
      4          9           0        0.818512    2.013157   -1.090938
      5          6           0       -0.512780    0.157422   -0.580354
      6          6           0        2.042150    0.196169   -0.438777
      7          7           0        3.113771   -0.058648   -0.852406
      8          7           0        0.670067    1.560406    1.179888
      9          1           0        1.074469    2.406895    0.806036
     10          1           0        1.121666    1.240659    2.022260
     11          7           0       -1.716202    0.695493    0.117926
     12          8           0       -2.373918    1.511800   -0.530680
     13          8           0       -1.974630    0.293848    1.242293
     14          7           0       -0.688687   -1.313014   -0.832889
     15          8           0       -1.740628   -1.854275   -0.518216
     16          8           0        0.230788   -1.819826   -1.462904
 ---------------------------------------------------------------------

 SCF Done:  E(RHF) =  -1194.67257920     A.U. after    2 cycles

 The electronic state is 1-A.
 Alpha  occ. eigenvalues --  -99.70371 -29.00233 -21.00648 -21.00082 -20.99789
 Alpha  occ. eigenvalues --  -20.99519 -15.90866 -15.89900 -15.64916 -15.64868
 Alpha  occ. eigenvalues --  -11.55690 -11.43468 -11.33965 -10.27499  -9.47597
 Alpha  occ. eigenvalues --   -9.47184  -9.47025  -1.91242  -1.87843  -1.60247
 Alpha  occ. eigenvalues --   -1.59035  -1.32730  -1.17820  -1.17238  -1.08677
 Alpha  occ. eigenvalues --   -0.94621  -0.90382  -0.73668  -0.69188  -0.65941
 Alpha  occ. eigenvalues --   -0.61539  -0.60765  -0.57329  -0.53132  -0.50564
 Alpha  occ. eigenvalues --   -0.50375  -0.47347  -0.44201  -0.41810  -0.36225
 Alpha  occ. eigenvalues --   -0.35803  -0.35149  -0.33735  -0.30123  -0.28805
 Alpha  occ. eigenvalues --   -0.27064  -0.24689  -0.22881  -0.21602  -0.20561
 Alpha  occ. eigenvalues --   -0.18670  -0.10213  -0.06982  -0.06653
 Alpha virt. eigenvalues --    0.13791   0.15189   0.16506   0.19216   0.20234
 Alpha virt. eigenvalues --    0.20936   0.21700   0.21830   0.22792   0.23156
 Alpha virt. eigenvalues --    0.24326   0.24814   0.25352   0.26064   0.26715

 Mulliken charges:
               1
     1  C    5.929392
     2  H    1.850641
     3  Cl  -0.822375
     4  F   -0.290460
     5  C   -1.067792
     6  C    2.011682
     7  N   -3.165612
     8  N   -4.236627
     9  H    0.548694
    10  H    0.593979
    11  N    4.965512
    12  O   -2.864377
    13  O   -3.152924
    14  N    4.739046
    15  O   -2.957236
    16  O   -3.081543
 Sum of Mulliken charges =  -1.00000

 Dipole moment (field-independent basis, Debye):
    X=             -3.3535    Y=              4.4257    Z=             -2.2683  Tot=              5.9981

 Test job not archived.
 1\1\GINC-SE332\SP\RHF\Aug-CC-pVDZ\C3H3Cl1F1N4O4(1-)\OHZDE\09-Apr-2025\
 0\\#t hf aug-cc-pvdz iop(5/13=1,5/36=2,99/5=2) pseudo=read geom=check
 guess=(read,tcheck) scf=(maxcycle=1)\\title\\-1,1\C,0,0.5837416,-0.101
 7823,-0.01272754\H,0,1.61735049,1.7216217,-0.4242317\Cl,0,-1.60774024,
 -0.34035008,-0.30449555\F,0,2.46774816,0.02453751,0.15231203\C,0,0.616
 96198,1.42953611,-0.12581348\C,0,0.86605659,-0.87686544,-1.20640333\N,
 0,1.09803052,-1.58126462,-2.11985995\N,0,0.57362637,-0.6811522,1.29159
 763\H,0,1.48880394,-1.08562963,1.42834077\H,0,-0.17533409,-1.34981279,

 Normal termination of Gaussian 16 at Wed Apr  9 02:53:02 2025.
