 Gaussian 16, Revision C.01,

 ----------------------------------------------------------------------
 #t hf aug-cc-pvdz symm=none int=(grid=ultrafine) guess=(read,tcheck) s
 table=(opt,rrhf)
 ----------------------------------------------------------------------
 -----
 title
 -----
 Symbolic Z-matrix:
 Charge = -1 Multiplicity = 1

 SCF Done:  E(RHF) =  -915.142126034     A.U. after   17 cycles
 Normal termination of Gaussian 16 at Wed Apr  9 02:48:47 2025.
 Gaussian 16:  ES64L-G16RevC.01  3-Jul-2019

 ----------------------------------------------------------------------
 #t hf aug-cc-pvdz iop(5/13=1,5/36=2,99/5=2) pseudo=read geom=check gue
 ss=(read,tcheck) scf=(maxcycle=1)
 ----------------------------------------------------------------------
 -----
 title
 -----
 Structure from the checkpoint file:  "E2SN2_274_mol1.chk"
 Charge = -1 Multiplicity = 1

                         Standard orientation:
 ---------------------------------------------------------------------
 Center     Atomic      Atomic             Coordinates (Angstroms)
 Number     Number       Type             X           Y           Z
 ---------------------------------------------------------------------
      1          6           0       -0.110237    0.102656    0.146587
      2          1           0        0.437922   -0.278699   -1.885095
      3          9           0        1.302893    0.461530    1.431842
      4         17           0       -1.913070   -0.371846   -1.075083
      5          6           0        0.953581   -0.204164   -0.928418
      6          6           0       -0.516012    1.470104    0.374628
      7          7           0       -0.870406    2.576231    0.558510
      8          6           0       -0.484051   -0.881186    1.137931
      9          7           0       -0.793214   -1.716786    1.905783
     10          6           0        1.623959   -1.540928   -0.621968
     11          1           0        2.108249   -1.480033    0.352221
     12          1           0        0.902344   -2.362504   -0.617294
     13          1           0        2.373303   -1.749278   -1.392825
     14          7           0        1.853583    0.938200   -1.021534
     15          1           0        2.564721    0.734905   -1.714152
     16          1           0        2.276422    1.040813   -0.104897
 ---------------------------------------------------------------------

 SCF Done:  E(RHF) =  -917.399477237     A.U. after    2 cycles

 The electronic state is 1-A.
 Alpha  occ. eigenvalues --  -99.70142 -28.98321 -15.63813 -15.63772 -15.60780
 Alpha  occ. eigenvalues --  -11.49606 -11.34707 -11.34135 -11.33434 -11.26685
 Alpha  occ. eigenvalues --  -10.27146  -9.47209  -9.46729  -9.46674  -1.29423
 Alpha  occ. eigenvalues --   -1.19201  -1.15978  -1.09244  -1.02444  -0.95757
 Alpha  occ. eigenvalues --   -0.78096  -0.69485  -0.62437  -0.53855  -0.48458
 Alpha  occ. eigenvalues --   -0.47642  -0.44763  -0.43114  -0.40511  -0.39910
 Alpha  occ. eigenvalues --   -0.38916  -0.36786  -0.33565  -0.31700  -0.31028
 Alpha  occ. eigenvalues --   -0.30204  -0.29870  -0.27581  -0.23360  -0.08614
 Alpha  occ. eigenvalues --   -0.05359  -0.04646
 Alpha virt. eigenvalues --    0.12215   0.13644   0.14875   0.15539   0.16236
 Alpha virt. eigenvalues --    0.17425   0.19242   0.20443   0.20843   0.22133
 Alpha virt. eigenvalues --    0.22809   0.23640   0.24025   0.24695   0.25696

 Mulliken charges:
               1
     1  C    2.748877
     2  H    1.502166
     3  F   -0.380691
     4  Cl  -0.573008
     5  C   -0.713302
     6  C    2.081819
     7  N   -3.014110
     8  C    2.528350
     9  N   -3.012936
    10  C   -3.836204
    11  H    1.295962
    12  H    1.336542
    13  H    1.046249
    14  N   -3.112276
    15  H    0.610560
    16  H    0.492001
 Sum of Mulliken charges =  -1.00000

 Dipole moment (field-independent basis, Debye):
    X=              8.6686    Y=             -0.4651    Z=              0.4445  Tot=              8.6924

 Test job not archived.
 1\1\GINC-SE455\SP\RHF\Aug-CC-pVDZ\C5H6Cl1F1N3(1-)\OHZDE\09-Apr-2025\0\
 \#t hf aug-cc-pvdz iop(5/13=1,5/36=2,99/5=2) pseudo=read geom=check gu
 ess=(read,tcheck) scf=(maxcycle=1)\\title\\-1,1\C,0,0.70888322,0.00746
 346,-0.02129387\H,0,1.67411128,1.90926281,-0.17982934\F,0,-1.23082147,
 -0.05461667,-0.12759386\Cl,0,2.9125641,-0.20915674,0.23307375\C,0,0.65
 483572,1.54955032,-0.04427768\C,0,0.69206874,-0.72267027,-1.26756489\N
 ,0,0.69838663,-1.33020233,-2.27443669\C,0,0.46356994,-0.73622485,1.194
 10547\N,0,0.29741132,-1.309242,2.20773701\C,0,0.12110061,2.06552647,1.

 Normal termination of Gaussian 16 at Wed Apr  9 02:48:55 2025.
