 Gaussian 16, Revision C.01,

 ----------------------------------------------------------------------
 #t hf aug-cc-pvdz symm=none int=(grid=ultrafine) guess=(read,tcheck) s
 table=(opt,rrhf)
 ----------------------------------------------------------------------
 -----
 title
 -----
 Symbolic Z-matrix:
 Charge = -1 Multiplicity = 1

 SCF Done:  E(RHF) =  -987.880965529     A.U. after   17 cycles
 Normal termination of Gaussian 16 at Wed Apr  9 02:57:16 2025.
 Gaussian 16:  ES64L-G16RevC.01  3-Jul-2019

 ----------------------------------------------------------------------
 #t hf aug-cc-pvdz iop(5/13=1,5/36=2,99/5=2) pseudo=read geom=check gue
 ss=(read,tcheck) scf=(maxcycle=1)
 ----------------------------------------------------------------------
 -----
 title
 -----
 Structure from the checkpoint file:  "E2SN2_375_mol1.chk"
 Charge = -1 Multiplicity = 1

                         Standard orientation:
 ---------------------------------------------------------------------
 Center     Atomic      Atomic             Coordinates (Angstroms)
 Number     Number       Type             X           Y           Z
 ---------------------------------------------------------------------
      1          6           0        0.377534    0.099302    0.429760
      2          1           0       -0.524237    0.960165   -1.276615
      3          9           0       -0.865837   -1.258987    1.276991
      4         17           0        1.849850    1.339315   -0.177966
      5          6           0       -0.810584    0.767026   -0.234667
      6          1           0        0.522570    0.178322    1.488616
      7          7           0        0.861754   -1.152190   -0.180960
      8          8           0        0.404122   -1.442742   -1.284039
      9          8           0        1.732369   -1.767983    0.417572
     10          7           0       -1.109895    1.999790    0.507705
     11          1           0       -1.969619    2.388939    0.138719
     12          1           0       -0.361155    2.656829    0.320223
     13          6           0       -2.035612   -0.042088   -0.293958
     14          7           0       -3.123635   -0.402082   -0.557247
 ---------------------------------------------------------------------

 SCF Done:  E(RHF) =  -990.362824470     A.U. after    2 cycles

 The electronic state is 1-A.
 Alpha  occ. eigenvalues --  -99.74524 -28.93403 -20.96197 -20.95986 -15.87019
 Alpha  occ. eigenvalues --  -15.64365 -15.61681 -11.44614 -11.37086 -11.30513
 Alpha  occ. eigenvalues --  -10.31647  -9.51710  -9.51181  -9.51015  -1.86233
 Alpha  occ. eigenvalues --   -1.56165  -1.29888  -1.16493  -1.14161  -1.05479
 Alpha  occ. eigenvalues --   -0.90599  -0.74275  -0.65707  -0.60236  -0.58042
 Alpha  occ. eigenvalues --   -0.53348  -0.50957  -0.48757  -0.44319  -0.42504
 Alpha  occ. eigenvalues --   -0.38736  -0.37654  -0.35713  -0.34649  -0.30341
 Alpha  occ. eigenvalues --   -0.27653  -0.26582  -0.22526  -0.18488  -0.18188
 Alpha  occ. eigenvalues --   -0.03516  -0.01696  -0.00659
 Alpha virt. eigenvalues --    0.12824   0.14956   0.15259   0.16369   0.18705
 Alpha virt. eigenvalues --    0.20548   0.22351   0.23565   0.24097   0.24843
 Alpha virt. eigenvalues --    0.25237   0.25818   0.26442   0.27218   0.27645

 Mulliken charges:
               1
     1  C   -2.133889
     2  H    1.663318
     3  F   -0.467428
     4  Cl  -0.410981
     5  C   -0.038790
     6  H    1.573309
     7  N    5.880556
     8  O   -3.089413
     9  O   -3.294165
    10  N   -2.767613
    11  H    0.669796
    12  H    0.518952
    13  C    4.013683
    14  N   -3.117336
 Sum of Mulliken charges =  -1.00000

 Dipole moment (field-independent basis, Debye):
    X=             -0.8683    Y=              0.2797    Z=              1.5254  Tot=              1.7774

 Test job not archived.
 1\1\GINC-SE023\SP\RHF\Aug-CC-pVDZ\C3H4Cl1F1N3O2(1-)\OHZDE\09-Apr-2025\
 0\\#t hf aug-cc-pvdz iop(5/13=1,5/36=2,99/5=2) pseudo=read geom=check
 guess=(read,tcheck) scf=(maxcycle=1)\\title\\-1,1\C,0,0.57610159,-0.05
 77555,0.01584186\H,0,1.6044779,1.70259561,-0.54057188\F,0,-1.29731544,
 -0.05652139,-0.75812599\Cl,0,2.36572654,-0.38560302,0.89016236\C,0,0.6
 2568196,1.45231597,-0.11130339\H,0,-0.05279669,-0.52036087,0.74996619\
 N,0,0.77688944,-0.83416671,-1.22131201\O,0,1.16890685,-0.21307714,-2.2
 0680728\O,0,0.61033062,-2.04395068,-1.15733292\N,0,0.43205269,2.025422

 Normal termination of Gaussian 16 at Wed Apr  9 02:57:23 2025.
