 Gaussian 16, Revision C.01,

 ----------------------------------------------------------------------
 #t hf aug-cc-pvdz symm=none int=(grid=ultrafine) guess=(read,tcheck) s
 table=(opt,rrhf)
 ----------------------------------------------------------------------
 -----
 title
 -----
 Symbolic Z-matrix:
 Charge = -1 Multiplicity = 1

 SCF Done:  E(RHF) =  -1275.21753751     A.U. after   16 cycles
 Normal termination of Gaussian 16 at Wed Apr  9 02:49:24 2025.
 Gaussian 16:  ES64L-G16RevC.01  3-Jul-2019

 ----------------------------------------------------------------------
 #t hf aug-cc-pvdz iop(5/13=1,5/36=2,99/5=2) pseudo=read geom=check gue
 ss=(read,tcheck) scf=(maxcycle=1)
 ----------------------------------------------------------------------
 -----
 title
 -----
 Structure from the checkpoint file:  "E2SN2_275_mol1.chk"
 Charge = -1 Multiplicity = 1

                         Standard orientation:
 ---------------------------------------------------------------------
 Center     Atomic      Atomic             Coordinates (Angstroms)
 Number     Number       Type             X           Y           Z
 ---------------------------------------------------------------------
      1          6           0        0.085071   -0.182189   -0.022508
      2          1           0        0.771232    1.208210   -1.415094
      3         17           0       -2.293182   -0.526818    0.427797
      4         17           0        2.402569   -0.355460   -0.232369
      5          6           0        0.091156    1.264132   -0.555801
      6          6           0       -0.086568   -1.241361   -0.978685
      7          7           0       -0.185849   -2.039602   -1.839375
      8          6           0        0.204243   -0.470362    1.381700
      9          7           0        0.379015   -0.683421    2.526929
     10          7           0        0.589975    2.126769    0.504298
     11          1           0        0.557993    3.086355    0.180832
     12          1           0        1.558192    1.885145    0.686701
     13          6           0       -1.227876    1.814544   -1.073444
     14          1           0       -1.699189    1.128778   -1.776050
     15          1           0       -1.916751    2.000299   -0.253760
     16          1           0       -1.009207    2.755132   -1.595442
 ---------------------------------------------------------------------

 SCF Done:  E(RHF) =  -1277.39568215     A.U. after    2 cycles

 The electronic state is 1-A.
 Alpha  occ. eigenvalues --  -99.70254 -99.67547 -15.65610 -15.64444 -15.63135
 Alpha  occ. eigenvalues --  -11.50830 -11.36069 -11.35028 -11.34587 -11.28055
 Alpha  occ. eigenvalues --  -10.27234 -10.24522  -9.47300  -9.46834  -9.46783
 Alpha  occ. eigenvalues --   -9.44549  -9.44206  -9.44106  -1.31103  -1.20232
 Alpha  occ. eigenvalues --   -1.16660  -1.09323  -1.05425  -1.01776  -0.96656
 Alpha  occ. eigenvalues --   -0.78578  -0.71379  -0.58262  -0.56732  -0.50313
 Alpha  occ. eigenvalues --   -0.48408  -0.44191  -0.42166  -0.41865  -0.39948
 Alpha  occ. eigenvalues --   -0.38935  -0.38254  -0.33257  -0.33161  -0.32340
 Alpha  occ. eigenvalues --   -0.31871  -0.30665  -0.30345  -0.27563  -0.26466
 Alpha  occ. eigenvalues --   -0.26062
 Alpha virt. eigenvalues --    0.11806   0.13306   0.14034   0.14601   0.15035
 Alpha virt. eigenvalues --    0.15914   0.17092   0.19058   0.20615   0.21310
 Alpha virt. eigenvalues --    0.22114   0.22324   0.23382   0.23504   0.23988

 Mulliken charges:
               1
     1  C    2.493310
     2  H    1.581400
     3  Cl  -0.559578
     4  Cl  -0.500864
     5  C   -0.081221
     6  C    2.189027
     7  N   -2.814043
     8  C    2.305277
     9  N   -2.777123
    10  N   -3.297223
    11  H    0.645199
    12  H    0.545576
    13  C   -4.056333
    14  H    1.154605
    15  H    1.237598
    16  H    0.934392
 Sum of Mulliken charges =  -1.00000

 Dipole moment (field-independent basis, Debye):
    X=              0.6673    Y=              5.4568    Z=             -2.1519  Tot=              5.9036

 Test job not archived.
 1\1\GINC-SE015\SP\RHF\Aug-CC-pVDZ\C5H6Cl2N3(1-)\OHZDE\09-Apr-2025\0\\#
 t hf aug-cc-pvdz iop(5/13=1,5/36=2,99/5=2) pseudo=read geom=check gues
 s=(read,tcheck) scf=(maxcycle=1)\\title\\-1,1\C,0,0.62063048,-0.061226
 79,-0.01451384\H,0,1.65743463,1.63419576,-0.64212906\Cl,0,-1.68252164,
 -0.51966356,-0.69492458\Cl,0,2.82738044,-0.16439895,0.73680011\C,0,0.6
 8530478,1.47207281,-0.15974388\C,0,0.96857247,-0.85190225,-1.16314292\
 N,0,1.31497506,-1.41297993,-2.13937617\C,0,0.18978775,-0.6871188,1.206
 82907\N,0,-0.09360038,-1.17586496,2.24041917\N,0,0.6133971,2.04842638,

 Normal termination of Gaussian 16 at Wed Apr  9 02:49:34 2025.
