 Gaussian 16, Revision C.01,

 ----------------------------------------------------------------------
 #t hf aug-cc-pvdz symm=none int=(grid=ultrafine) guess=(read,tcheck) s
 table=(opt,rrhf)
 ----------------------------------------------------------------------
 -----
 title
 -----
 Symbolic Z-matrix:
 Charge = -1 Multiplicity = 1

 SCF Done:  E(RHF) =  -891.277565403     A.U. after   17 cycles
 Normal termination of Gaussian 16 at Wed Apr  9 02:36:40 2025.
 Gaussian 16:  ES64L-G16RevC.01  3-Jul-2019

 ----------------------------------------------------------------------
 #t hf aug-cc-pvdz iop(5/13=1,5/36=2,99/5=2) pseudo=read geom=check gue
 ss=(read,tcheck) scf=(maxcycle=1)
 ----------------------------------------------------------------------
 -----
 title
 -----
 Structure from the checkpoint file:  "E2SN2_131_mol2.chk"
 Charge = -1 Multiplicity = 1

                         Standard orientation:
 ---------------------------------------------------------------------
 Center     Atomic      Atomic             Coordinates (Angstroms)
 Number     Number       Type             X           Y           Z
 ---------------------------------------------------------------------
      1          6           0        0.094645    0.261588    0.306119
      2          6           0       -1.101150   -0.418320   -0.417875
      3         17           0        0.209952    1.955924   -0.229557
      4          1           0       -1.113904   -0.067699   -1.454024
      5          7           0        0.032797    0.245605    1.732421
      6          1           0        0.209265   -0.701647    2.047792
      7          1           0       -0.944407    0.480680    1.912357
      8          7           0        1.364211   -0.447368   -0.137068
      9          8           0        1.737128   -0.276119   -1.291790
     10          8           0        1.865218   -1.246494    0.654898
     11          7           0       -2.306444    0.045246    0.233008
     12          1           0       -2.980329    0.282071   -0.579654
     13          1           0       -2.742089   -0.740914    0.708081
     14          6           0       -0.969381   -1.939921   -0.429211
     15          1           0       -1.855316   -2.325883   -0.937271
     16          1           0       -0.085863   -2.297967   -0.965199
     17          1           0       -0.948901   -2.346164    0.588563
     18          1           0       -3.705056    0.323247   -1.875760
 ---------------------------------------------------------------------

 SCF Done:  E(RHF) =  -893.522434306     A.U. after    2 cycles

 The electronic state is 1-A.
 Alpha  occ. eigenvalues --  -99.77638 -20.99993 -20.99790 -15.88996 -15.64444
 Alpha  occ. eigenvalues --  -15.56881 -11.43873 -11.33023 -11.26482 -10.35131
 Alpha  occ. eigenvalues --   -9.55263  -9.54303  -9.54213  -1.89508  -1.59511
 Alpha  occ. eigenvalues --   -1.34927  -1.19524  -1.17198  -1.02203  -0.94628
 Alpha  occ. eigenvalues --   -0.80731  -0.68742  -0.64300  -0.60911  -0.56921
 Alpha  occ. eigenvalues --   -0.54347  -0.50523  -0.48882  -0.46272  -0.45058
 Alpha  occ. eigenvalues --   -0.43483  -0.40367  -0.40234  -0.36483  -0.34526
 Alpha  occ. eigenvalues --   -0.28216  -0.25656  -0.22374  -0.21793  -0.21103
 Alpha  occ. eigenvalues --   -0.10193
 Alpha virt. eigenvalues --    0.12886   0.13918   0.14425   0.15135   0.16017
 Alpha virt. eigenvalues --    0.16918   0.17277   0.18470   0.19725   0.20896
 Alpha virt. eigenvalues --    0.22179   0.23279   0.23445   0.24606   0.24910

 Mulliken charges:
               1
     1  C    3.016539
     2  C    0.497692
     3  Cl   0.017645
     4  H    2.085810
     5  N   -3.459138
     6  H    0.550209
     7  H    0.583729
     8  N    4.057508
     9  O   -3.161406
    10  O   -2.722584
    11  N   -2.590121
    12  H    0.609216
    13  H    0.505463
    14  C   -3.565175
    15  H    1.096919
    16  H    1.192259
    17  H    1.203988
    18  H   -0.918555
 Sum of Mulliken charges =  -1.00000

 Dipole moment (field-independent basis, Debye):
    X=             10.7119    Y=             -3.5412    Z=              6.9129  Tot=             13.2315

 Test job not archived.
 1\1\GINC-SE127\SP\RHF\Aug-CC-pVDZ\C3H9Cl1N3O2(1-)\OHZDE\09-Apr-2025\0\
 \#t hf aug-cc-pvdz iop(5/13=1,5/36=2,99/5=2) pseudo=read geom=check gu
 ess=(read,tcheck) scf=(maxcycle=1)\\title\\-1,1\C,0,-0.707809,0.000831
 ,-1.48973\C,0,0.100652,0.096044,-0.165459\Cl,0,0.138616,-1.095649,-2.6
 088\H,0,1.164235,0.129379,-0.419194\N,0,-2.054474,-0.452589,-1.350719\
 H,0,-2.59621,0.287482,-0.918628\H,0,-1.95877,-1.225367,-0.69025\N,0,-0
 .719214,1.383078,-2.122259\O,0,0.333325,1.803367,-2.588409\O,0,-1.7546
 37,2.040862,-2.012523\N,0,-0.152268,-1.122492,0.57107\H,0,0.820912,-1.

 Normal termination of Gaussian 16 at Wed Apr  9 02:36:49 2025.
