 Gaussian 16, Revision C.01,

 ----------------------------------------------------------------------
 #t hf aug-cc-pvdz symm=none int=(grid=ultrafine) guess=(read,tcheck) s
 table=(opt,rrhf)
 ----------------------------------------------------------------------
 -----
 title
 -----
 Symbolic Z-matrix:
 Charge = -1 Multiplicity = 1

 SCF Done:  E(RHF) =  -862.545642790     A.U. after   15 cycles
 Normal termination of Gaussian 16 at Wed Apr  9 02:55:03 2025.
 Gaussian 16:  ES64L-G16RevC.01  3-Jul-2019

 ----------------------------------------------------------------------
 #t hf aug-cc-pvdz iop(5/13=1,5/36=2,99/5=2) pseudo=read geom=check gue
 ss=(read,tcheck) scf=(maxcycle=1)
 ----------------------------------------------------------------------
 -----
 title
 -----
 Structure from the checkpoint file:  "E2SN2_339_mol2.chk"
 Charge = -1 Multiplicity = 1

                         Standard orientation:
 ---------------------------------------------------------------------
 Center     Atomic      Atomic             Coordinates (Angstroms)
 Number     Number       Type             X           Y           Z
 ---------------------------------------------------------------------
      1          6           0       -1.150318    0.086692   -0.368843
      2          6           0       -0.506386    0.836717    0.823368
      3          9           0       -2.187969    0.899062   -0.873345
      4          1           0       -1.363857    1.160815    1.430791
      5          6           0       -0.210304   -0.249171   -1.503589
      6          1           0        0.701155   -0.728788   -1.139069
      7          1           0        0.085209    0.678221   -1.995341
      8          1           0       -0.712345   -0.890391   -2.231520
      9          6           0       -1.814349   -1.127810    0.148327
     10          7           0       -2.356403   -2.076025    0.580286
     11          6           0        0.257816    2.061392    0.339101
     12          1           0        1.192920    1.751880   -0.133310
     13          1           0        0.509415    2.679384    1.203175
     14          1           0       -0.338272    2.652178   -0.360490
     15          7           0        0.368949    0.032693    1.648390
     16          1           0        1.225548   -0.208255    1.145501
     17          1           0       -0.083300   -0.819860    1.955748
     18         17           0        3.113451   -0.571196   -0.249782
 ---------------------------------------------------------------------

 SCF Done:  E(RHF) =  -864.602423379     A.U. after    2 cycles

 The electronic state is 1-A.
 Alpha  occ. eigenvalues --  -99.61028 -29.16178 -15.67167 -15.59916 -11.43550
 Alpha  occ. eigenvalues --  -11.35598 -11.33231 -11.28229 -11.25666 -10.17675
 Alpha  occ. eigenvalues --   -9.37712  -9.37414  -9.37309  -1.29873  -1.19689
 Alpha  occ. eigenvalues --   -1.11671  -0.96971  -0.96351  -0.89105  -0.75238
 Alpha  occ. eigenvalues --   -0.67640  -0.59778  -0.55441  -0.50053  -0.46952
 Alpha  occ. eigenvalues --   -0.45495  -0.44090  -0.41644  -0.39819  -0.37918
 Alpha  occ. eigenvalues --   -0.36139  -0.34285  -0.32904  -0.28644  -0.25651
 Alpha  occ. eigenvalues --   -0.24760  -0.24590  -0.22820  -0.16193  -0.14416
 Alpha virt. eigenvalues --    0.12883   0.13542   0.13857   0.14491   0.15525
 Alpha virt. eigenvalues --    0.16478   0.17131   0.18370   0.19128   0.19897
 Alpha virt. eigenvalues --    0.21354   0.22158   0.22893   0.23616   0.24296

 Mulliken charges:
               1
     1  C    3.314806
     2  C   -0.010377
     3  F   -0.138726
     4  H    1.613583
     5  C   -4.287439
     6  H    1.145079
     7  H    1.370050
     8  H    1.093146
     9  C    0.445479
    10  N   -2.413164
    11  C   -3.594082
    12  H    1.408297
    13  H    0.967658
    14  H    1.170202
    15  N   -3.214036
    16  H    0.572607
    17  H    0.546884
    18  Cl  -0.989967
 Sum of Mulliken charges =  -1.00000

 Dipole moment (field-independent basis, Debye):
    X=            -10.3972    Y=              5.0769    Z=             -1.2911  Tot=             11.6423

 Test job not archived.
 1\1\GINC-SE220\SP\RHF\Aug-CC-pVDZ\C5H9Cl1F1N2(1-)\OHZDE\09-Apr-2025\0\
 \#t hf aug-cc-pvdz iop(5/13=1,5/36=2,99/5=2) pseudo=read geom=check gu
 ess=(read,tcheck) scf=(maxcycle=1)\\title\\-1,1\C,0,0.057321,-0.030247
 ,-0.013756\C,0,-0.393621,0.15126,-1.484219\F,0,1.415064,0.345862,0.065
 372\H,0,0.399139,-0.336443,-2.069827\C,0,-0.721651,0.771016,1.003721\H
 ,0,-1.798959,0.648888,0.868973\H,0,-0.494339,1.82794,0.860739\H,0,-0.4
 29709,0.480777,2.015464\C,0,0.026548,-1.471951,0.308672\N,0,0.018484,-
 2.623487,0.539803\C,0,-0.452686,1.627977,-1.850507\H,0,-1.331233,2.088

 Normal termination of Gaussian 16 at Wed Apr  9 02:55:12 2025.
