 Gaussian 16, Revision C.01,

 ----------------------------------------------------------------------
 #t hf aug-cc-pvdz symm=none int=(grid=ultrafine) guess=(read,tcheck) s
 table=(opt,rrhf)
 ----------------------------------------------------------------------
 -----
 title
 -----
 Symbolic Z-matrix:
 Charge = -1 Multiplicity = 1

 SCF Done:  E(RHF) =  -860.122077482     A.U. after   16 cycles
 Normal termination of Gaussian 16 at Wed Apr  9 02:49:14 2025.
 Gaussian 16:  ES64L-G16RevC.01  3-Jul-2019

 ----------------------------------------------------------------------
 #t hf aug-cc-pvdz iop(5/13=1,5/36=2,99/5=2) pseudo=read geom=check gue
 ss=(read,tcheck) scf=(maxcycle=1)
 ----------------------------------------------------------------------
 -----
 title
 -----
 Structure from the checkpoint file:  "E2SN2_278_mol1.chk"
 Charge = -1 Multiplicity = 1

                         Standard orientation:
 ---------------------------------------------------------------------
 Center     Atomic      Atomic             Coordinates (Angstroms)
 Number     Number       Type             X           Y           Z
 ---------------------------------------------------------------------
      1          6           0       -0.431469    0.349059   -0.251924
      2          1           0        1.011832    0.841083   -1.704905
      3         17           0       -1.100061   -1.732399    0.115572
      4          9           0        0.277498    2.192374   -0.345235
      5          6           0        0.746600   -0.046742   -1.133012
      6          1           0        0.450072   -0.858353   -1.799584
      7          6           0       -0.252575    0.626863    1.152685
      8          7           0       -0.168552    0.795361    2.313946
      9          6           0       -1.707142    0.780840   -0.941612
     10          1           0       -1.572258    1.805239   -1.277574
     11          1           0       -1.917048    0.112895   -1.778465
     12          1           0       -2.542765    0.715381   -0.245338
     13          6           0        1.921208   -0.482109   -0.386703
     14          7           0        2.899123   -0.833116    0.159147
 ---------------------------------------------------------------------

 SCF Done:  E(RHF) =  -862.119212674     A.U. after    2 cycles

 The electronic state is 1-A.
 Alpha  occ. eigenvalues --  -99.69047 -28.95887 -15.64140 -15.62149 -11.45079
 Alpha  occ. eigenvalues --  -11.36128 -11.31967 -11.31024 -11.27751 -10.26094
 Alpha  occ. eigenvalues --   -9.46170  -9.45646  -9.45613  -1.24351  -1.16993
 Alpha  occ. eigenvalues --   -1.11421  -1.04470  -0.96669  -0.82924  -0.63270
 Alpha  occ. eigenvalues --   -0.59395  -0.53123  -0.49144  -0.48264  -0.43936
 Alpha  occ. eigenvalues --   -0.41028  -0.38737  -0.37435  -0.33410  -0.32869
 Alpha  occ. eigenvalues --   -0.32572  -0.30761  -0.30084  -0.29148  -0.26502
 Alpha  occ. eigenvalues --   -0.06063  -0.03487  -0.02784
 Alpha virt. eigenvalues --    0.13358   0.14903   0.15464   0.15752   0.16058
 Alpha virt. eigenvalues --    0.18675   0.20055   0.20926   0.21522   0.22517
 Alpha virt. eigenvalues --    0.23440   0.24211   0.25279   0.25698   0.26265

 Mulliken charges:
               1
     1  C    5.598959
     2  H    1.102464
     3  Cl  -0.716494
     4  F   -0.472732
     5  C   -4.595058
     6  H    1.330790
     7  C    1.547944
     8  N   -2.909243
     9  C   -5.005480
    10  H    1.084785
    11  H    1.140845
    12  H    1.085908
    13  C    2.417814
    14  N   -2.610502
 Sum of Mulliken charges =  -1.00000

 Dipole moment (field-independent basis, Debye):
    X=             -0.2899    Y=              4.5345    Z=             -5.3093  Tot=              6.9882

 Test job not archived.
 1\1\GINC-SE120\SP\RHF\Aug-CC-pVDZ\C5H5Cl1F1N2(1-)\OHZDE\09-Apr-2025\0\
 \#t hf aug-cc-pvdz iop(5/13=1,5/36=2,99/5=2) pseudo=read geom=check gu
 ess=(read,tcheck) scf=(maxcycle=1)\\title\\-1,1\C,0,0.51372745,-0.0692
 6091,0.02167571\H,0,1.6295124,1.69328492,0.31290655\Cl,0,-1.69697922,-
 0.1268527,0.17657083\F,0,2.4513882,-0.0589049,-0.37140799\C,0,0.605085
 81,1.45136967,0.03421286\H,0,-0.09724267,1.85528917,0.76533744\C,0,0.5
 2826811,-0.80749176,-1.21804556\N,0,0.46691601,-1.44730638,-2.20336324
 \C,0,0.75942268,-0.79583646,1.32596412\H,0,1.83293531,-0.82916052,1.49

 Normal termination of Gaussian 16 at Wed Apr  9 02:49:21 2025.
