 Gaussian 16, Revision C.01,

 ----------------------------------------------------------------------
 #t hf aug-cc-pvdz symm=none int=(grid=ultrafine) guess=(read,tcheck) s
 table=(opt,rrhf)
 ----------------------------------------------------------------------
 -----
 title
 -----
 Symbolic Z-matrix:
 Charge = -1 Multiplicity = 1

 SCF Done:  E(RHF) =  -364.434003678     A.U. after   16 cycles
 Normal termination of Gaussian 16 at Wed Apr  9 02:49:52 2025.
 Gaussian 16:  ES64L-G16RevC.01  3-Jul-2019

 ----------------------------------------------------------------------
 #t hf aug-cc-pvdz iop(5/13=1,5/36=2,99/5=2) pseudo=read geom=check gue
 ss=(read,tcheck) scf=(maxcycle=1)
 ----------------------------------------------------------------------
 -----
 title
 -----
 Structure from the checkpoint file:  "E2SN2_297_mol2.chk"
 Charge = -1 Multiplicity = 1

                         Standard orientation:
 ---------------------------------------------------------------------
 Center     Atomic      Atomic             Coordinates (Angstroms)
 Number     Number       Type             X           Y           Z
 ---------------------------------------------------------------------
      1          6           0        0.159270    0.042392    0.214632
      2          6           0       -0.836107   -0.325335   -0.874944
      3          9           0        0.131773   -1.014664    1.192850
      4          1           0       -0.566997   -1.317441   -1.251948
      5          1           0       -0.723616    0.413515   -1.675202
      6          6           0        1.554159   -0.057461   -0.309669
      7          7           0        2.654572   -0.098102   -0.721311
      8          7           0       -0.153576    1.268436    0.794996
      9          1           0        0.647190    1.701763    1.238121
     10          1           0       -0.611465    1.964364    0.086098
     11          6           0       -2.271581   -0.294292   -0.363596
     12          1           0       -2.569207    0.739857   -0.190750
     13          1           0       -2.944257   -0.730863   -1.109351
     14          1           0       -2.363808   -0.860485    0.565348
     15          1           0       -1.195212    2.837106   -0.912298
 ---------------------------------------------------------------------

 SCF Done:  E(RHF) =  -366.068444079     A.U. after    2 cycles

 The electronic state is 1-A.
 Alpha  occ. eigenvalues --  -29.11865 -15.64770 -15.57651 -11.41586 -11.32015
 Alpha  occ. eigenvalues --  -11.28680 -11.23586  -1.29772  -1.16145  -1.04132
 Alpha  occ. eigenvalues --   -0.92193  -0.76437  -0.65342  -0.58616  -0.51230
 Alpha  occ. eigenvalues --   -0.47509  -0.43684  -0.42760  -0.38020  -0.36900
 Alpha  occ. eigenvalues --   -0.35960  -0.33301  -0.30621  -0.25230  -0.20308
 Alpha  occ. eigenvalues --   -0.13696  -0.12797  -0.09424
 Alpha virt. eigenvalues --    0.13144   0.14482   0.15112   0.16006   0.17363
 Alpha virt. eigenvalues --    0.18092   0.19041   0.20972   0.21592   0.22520
 Alpha virt. eigenvalues --    0.23360   0.23912   0.24647   0.25325   0.26315

 Mulliken charges:
               1
     1  C    3.745517
     2  C   -3.789466
     3  F    0.083233
     4  H    1.350384
     5  H    1.549961
     6  C    1.272737
     7  N   -2.475090
     8  N   -3.226488
     9  H    0.516875
    10  H    0.627837
    11  C   -3.429303
    12  H    1.342242
    13  H    1.056397
    14  H    1.251784
    15  H   -0.876623
 Sum of Mulliken charges =  -1.00000

 Dipole moment (field-independent basis, Debye):
    X=              1.0663    Y=            -10.2452    Z=              4.5105  Tot=             11.2448

 Test job not archived.
 1\1\GINC-SE069\SP\RHF\Aug-CC-pVDZ\C4H8F1N2(1-)\OHZDE\09-Apr-2025\0\\#t
  hf aug-cc-pvdz iop(5/13=1,5/36=2,99/5=2) pseudo=read geom=check guess
 =(read,tcheck) scf=(maxcycle=1)\\title\\-1,1\C,0,0.064937,0.104255,0.0
 14994\C,0,-0.401063,0.176785,-1.430951\F,0,1.490666,-0.100476,-0.00539
 \H,0,0.17637,0.962644,-1.92877\H,0,-1.459824,0.455507,-1.413439\C,0,-0
 .045539,1.447847,0.657748\N,0,-0.16154,2.492388,1.18452\N,0,-0.57716,-
 0.920667,0.704287\H,0,-0.574385,-0.773489,1.70613\H,0,-1.599619,-1.087
 174,0.35305\C,0,-0.248026,-1.162411,-2.142401\H,0,-0.985488,-1.863331,

 Normal termination of Gaussian 16 at Wed Apr  9 02:49:56 2025.
