 Gaussian 16, Revision C.01,

 ----------------------------------------------------------------------
 #t hf aug-cc-pvdz symm=none int=(grid=ultrafine) guess=(read,tcheck) s
 table=(opt,rrhf)
 ----------------------------------------------------------------------
 -----
 title
 -----
 Symbolic Z-matrix:
 Charge = -1 Multiplicity = 1

 SCF Done:  E(RHF) =  -518.451116324     A.U. after   15 cycles
 Normal termination of Gaussian 16 at Wed Apr  9 02:58:34 2025.
 Gaussian 16:  ES64L-G16RevC.01  3-Jul-2019

 ----------------------------------------------------------------------
 #t hf aug-cc-pvdz iop(5/13=1,5/36=2,99/5=2) pseudo=read geom=check gue
 ss=(read,tcheck) scf=(maxcycle=1)
 ----------------------------------------------------------------------
 -----
 title
 -----
 Structure from the checkpoint file:  "E2SN2_405_mol2.chk"
 Charge = -1 Multiplicity = 1

                         Standard orientation:
 ---------------------------------------------------------------------
 Center     Atomic      Atomic             Coordinates (Angstroms)
 Number     Number       Type             X           Y           Z
 ---------------------------------------------------------------------
      1          6           0        0.269522    0.817868    0.013252
      2          6           0       -0.645066   -0.149832   -0.755329
      3          9           0       -0.433087    2.045733    0.040687
      4          1           0       -0.990486    0.415863   -1.632888
      5          7           0        0.431054    0.378302    1.364419
      6          1           0        1.001279   -0.497929    1.295249
      7          1           0        1.019955    1.062685    1.831334
      8          6           0        1.570475    1.051640   -0.733750
      9          1           0        1.406966    1.260663   -1.794616
     10          1           0        2.077447    1.906338   -0.273846
     11          1           0        2.172914    0.152324   -0.600583
     12          6           0       -1.860677   -0.421755    0.046105
     13          7           0       -2.876088   -0.708379    0.563507
     14          7           0        0.066798   -1.344659   -1.183083
     15          1           0        0.793045   -1.611347   -0.480491
     16          1           0       -0.587110   -2.108647   -1.293812
     17          9           0        1.960656   -1.672879    0.660876
 ---------------------------------------------------------------------

 SCF Done:  E(RHF) =  -520.647447646     A.U. after    2 cycles

 The electronic state is 1-A.
 Alpha  occ. eigenvalues --  -29.11287 -28.91961 -15.62530 -15.57983 -15.56659
 Alpha  occ. eigenvalues --  -11.38550 -11.34568 -11.30120 -11.24207  -1.30576
 Alpha  occ. eigenvalues --   -1.18557  -1.13687  -0.99244  -0.90518  -0.76744
 Alpha  occ. eigenvalues --   -0.63511  -0.59062  -0.52551  -0.48296  -0.47697
 Alpha  occ. eigenvalues --   -0.45090  -0.43827  -0.39696  -0.38887  -0.36827
 Alpha  occ. eigenvalues --   -0.30514  -0.29402  -0.28241  -0.23546  -0.22037
 Alpha  occ. eigenvalues --   -0.20522  -0.12361  -0.11844  -0.00554   0.00043
 Alpha  occ. eigenvalues --    0.01335
 Alpha virt. eigenvalues --    0.13524   0.14218   0.14793   0.15739   0.16038
 Alpha virt. eigenvalues --    0.17997   0.19137   0.19444   0.20611   0.21823
 Alpha virt. eigenvalues --    0.23101   0.23427   0.24915   0.25353   0.26009

 Mulliken charges:
               1
     1  C    5.523153
     2  C   -1.252562
     3  F    0.016840
     4  H    1.620658
     5  N   -3.878806
     6  H    0.224045
     7  H    0.434140
     8  C   -4.077081
     9  H    1.151554
    10  H    1.068139
    11  H    1.109953
    12  C    2.381220
    13  N   -2.703015
    14  N   -2.942886
    15  H    0.370086
    16  H    0.503547
    17  F   -0.548986
 Sum of Mulliken charges =  -1.00000

 Dipole moment (field-independent basis, Debye):
    X=             -1.2118    Y=              5.2185    Z=             -2.0312  Tot=              5.7295

 Test job not archived.
 1\1\GINC-SE069\SP\RHF\Aug-CC-pVDZ\C4H8F2N3(1-)\OHZDE\09-Apr-2025\0\\#t
  hf aug-cc-pvdz iop(5/13=1,5/36=2,99/5=2) pseudo=read geom=check guess
 =(read,tcheck) scf=(maxcycle=1)\\title\\-1,1\C,0,-0.039548,0.005931,-0
 .042796\C,0,-0.290709,-0.22408,-1.542011\F,0,1.345676,0.27474,0.061892
 \H,0,0.522174,-0.887272,-1.871912\N,0,-0.743564,1.16753,0.40443\H,0,-1
 .755876,0.900838,0.361758\H,0,-0.524072,1.28726,1.389662\C,0,-0.3236,-
 1.251496,0.759284\H,0,0.129878,-2.139859,0.310919\H,0,0.082599,-1.1110
 37,1.766415\H,0,-1.408489,-1.350122,0.811466\C,0,-0.090295,1.046341,-2

 Normal termination of Gaussian 16 at Wed Apr  9 02:58:41 2025.
