 Gaussian 16, Revision C.01,

 ----------------------------------------------------------------------
 #t hf aug-cc-pvdz symm=none int=(grid=ultrafine) guess=(read,tcheck) s
 table=(opt,rrhf)
 ----------------------------------------------------------------------
 -----
 title
 -----
 Symbolic Z-matrix:
 Charge = -1 Multiplicity = 1

 SCF Done:  E(RHF) =  -536.122123918     A.U. after   15 cycles
 Normal termination of Gaussian 16 at Wed Apr  9 02:42:46 2025.
 Gaussian 16:  ES64L-G16RevC.01  3-Jul-2019

 ----------------------------------------------------------------------
 #t hf aug-cc-pvdz iop(5/13=1,5/36=2,99/5=2) pseudo=read geom=check gue
 ss=(read,tcheck) scf=(maxcycle=1)
 ----------------------------------------------------------------------
 -----
 title
 -----
 Structure from the checkpoint file:  "E2SN2_222_mol2.chk"
 Charge = -1 Multiplicity = 1

                         Standard orientation:
 ---------------------------------------------------------------------
 Center     Atomic      Atomic             Coordinates (Angstroms)
 Number     Number       Type             X           Y           Z
 ---------------------------------------------------------------------
      1          6           0       -0.051974   -0.148258   -0.234383
      2          6           0        0.701560   -0.337183    1.074514
      3          9           0       -0.119616   -1.345763   -0.910976
      4          1           0        0.647031    0.612292    1.608575
      5          1           0        0.504167    0.613447   -0.822845
      6          1           0        0.197182   -1.112488    1.668206
      7          7           0       -1.458572    0.283608    0.038340
      8          8           0       -2.396379   -0.438837   -0.294995
      9          8           0       -1.576893    1.367230    0.611719
     10          7           0        2.099448   -0.667348    0.847904
     11          1           0        2.122177   -1.539775    0.329352
     12          1           0        2.394232    0.075017    0.177271
     13          9           0        2.068253    1.292783   -0.948894
 ---------------------------------------------------------------------

 SCF Done:  E(RHF) =  -538.294037554     A.U. after    2 cycles

 The electronic state is 1-A.
 Alpha  occ. eigenvalues --  -29.14251 -28.90446 -20.97317 -20.96830 -15.86229
 Alpha  occ. eigenvalues --  -15.56713 -11.36932 -11.26781  -1.86456  -1.56353
 Alpha  occ. eigenvalues --   -1.22689  -1.09325  -0.82856  -0.77301  -0.63071
 Alpha  occ. eigenvalues --   -0.59009  -0.55187  -0.51446  -0.45531  -0.44222
 Alpha  occ. eigenvalues --   -0.40274  -0.38554  -0.31986  -0.25784  -0.22542
 Alpha  occ. eigenvalues --   -0.21537  -0.20146  -0.19365  -0.12946  -0.12424
 Alpha  occ. eigenvalues --    0.00493   0.01301   0.03232
 Alpha virt. eigenvalues --    0.14542   0.15820   0.16622   0.18770   0.20127
 Alpha virt. eigenvalues --    0.22226   0.23253   0.24231   0.24506   0.26017
 Alpha virt. eigenvalues --    0.27027   0.27603   0.29221   0.29918   0.32765

 Mulliken charges:
               1
     1  C    0.875514
     2  C   -2.180283
     3  F    0.363136
     4  H    1.415168
     5  H    1.122547
     6  H    1.363955
     7  N    3.338197
     8  O   -2.647945
     9  O   -2.871871
    10  N   -1.998449
    11  H    0.513240
    12  H    0.306533
    13  F   -0.599741
 Sum of Mulliken charges =  -1.00000

 Dipole moment (field-independent basis, Debye):
    X=             -3.9605    Y=             -4.3331    Z=             -0.0346  Tot=              5.8705

 Test job not archived.
 1\1\GINC-SE322\SP\RHF\Aug-CC-pVDZ\C2H5F2N2O2(1-)\OHZDE\09-Apr-2025\0\\
 #t hf aug-cc-pvdz iop(5/13=1,5/36=2,99/5=2) pseudo=read geom=check gue
 ss=(read,tcheck) scf=(maxcycle=1)\\title\\-1,1\C,0,-0.391944,0.077197,
 0.144551\C,0,-0.467673,0.342175,-1.352369\F,0,0.567367,-0.87673,0.4016
 83\H,0,-1.171661,1.16368,-1.491033\H,0,-1.398222,-0.27021,0.464687\H,0
 ,0.523451,0.654462,-1.710302\N,0,0.018765,1.321082,0.868065\O,0,1.0788
 53,1.345248,1.491083\O,0,-0.759638,2.270591,0.770488\N,0,-0.95365,-0.8
 18893,-2.080517\H,0,-0.295825,-1.574289,-1.915644\H,0,-1.816273,-1.065

 Normal termination of Gaussian 16 at Wed Apr  9 02:42:51 2025.
