 Gaussian 16, Revision C.01,

 ----------------------------------------------------------------------
 #t hf aug-cc-pvdz symm=none int=(grid=ultrafine) guess=(read,tcheck) s
 table=(opt,rrhf)
 ----------------------------------------------------------------------
 -----
 title
 -----
 Symbolic Z-matrix:
 Charge = -1 Multiplicity = 1

 SCF Done:  E(RHF) =  -1055.70341270     A.U. after   17 cycles
 Normal termination of Gaussian 16 at Wed Apr  9 02:52:03 2025.
 Gaussian 16:  ES64L-G16RevC.01  3-Jul-2019

 ----------------------------------------------------------------------
 #t hf aug-cc-pvdz iop(5/13=1,5/36=2,99/5=2) pseudo=read geom=check gue
 ss=(read,tcheck) scf=(maxcycle=1)
 ----------------------------------------------------------------------
 -----
 title
 -----
 Structure from the checkpoint file:  "E2SN2_29_mol1.chk"
 Charge = -1 Multiplicity = 1

                         Standard orientation:
 ---------------------------------------------------------------------
 Center     Atomic      Atomic             Coordinates (Angstroms)
 Number     Number       Type             X           Y           Z
 ---------------------------------------------------------------------
      1          6           0       -0.022199    0.031407    0.095970
      2          6           0        1.343145   -0.175066   -0.393440
      3         17           0       -0.226689    0.203177    1.912809
      4          1           0        2.334668   -0.060954   -2.554349
      5          1           0        1.473177   -0.037645   -1.606038
      6          7           0       -0.709538    1.282010   -0.447867
      7          8           0       -1.935629    1.265795   -0.478784
      8          8           0        0.003382    2.218495   -0.793003
      9          7           0       -0.891503   -1.129589   -0.388951
     10          8           0       -1.352866   -1.919572    0.415307
     11          8           0       -1.029322   -1.155062   -1.605277
     12          7           0        1.705844   -1.558995   -0.222851
     13          1           0        2.279384   -1.630469    0.611649
     14          1           0        2.292052   -1.776912   -1.032736
     15          7           0        2.337538    0.721096    0.184162
     16          1           0        3.028548    0.781884   -0.574223
     17          1           0        1.939292    1.653147    0.245364
 ---------------------------------------------------------------------

 SCF Done:  E(RHF) =  -1058.57614408     A.U. after    2 cycles

 The electronic state is 1-A.
 Alpha  occ. eigenvalues --  -99.80375 -21.00910 -21.00577 -20.99785 -20.99111
 Alpha  occ. eigenvalues --  -15.90669 -15.89835 -15.60185 -15.60116 -11.49841
 Alpha  occ. eigenvalues --  -11.30566 -10.37646  -9.57828  -9.56886  -9.56849
 Alpha  occ. eigenvalues --   -1.91400  -1.87981  -1.60547  -1.59271  -1.32549
 Alpha  occ. eigenvalues --   -1.23464  -1.11428  -1.10034  -0.90421  -0.82160
 Alpha  occ. eigenvalues --   -0.68766  -0.64649  -0.63269  -0.59157  -0.57519
 Alpha  occ. eigenvalues --   -0.52466  -0.51023  -0.50387  -0.49241  -0.43701
 Alpha  occ. eigenvalues --   -0.43225  -0.42694  -0.42190  -0.38285  -0.29481
 Alpha  occ. eigenvalues --   -0.25607  -0.24731  -0.24112  -0.23048  -0.21088
 Alpha  occ. eigenvalues --   -0.20580  -0.19326  -0.11176
 Alpha virt. eigenvalues --    0.14148   0.14708   0.15057   0.16771   0.17456
 Alpha virt. eigenvalues --    0.18840   0.19978   0.20644   0.22687   0.23015
 Alpha virt. eigenvalues --    0.23786   0.24919   0.25739   0.25960   0.26710

 Mulliken charges:
               1
     1  C    1.901695
     2  C    2.375906
     3  Cl   0.171150
     4  H   -0.544162
     5  H    1.577087
     6  N    4.418119
     7  O   -2.982463
     8  O   -2.971442
     9  N    4.612263
    10  O   -3.050027
    11  O   -3.135721
    12  N   -2.772008
    13  H    0.438415
    14  H    0.533512
    15  N   -2.832544
    16  H    0.574523
    17  H    0.685697
 Sum of Mulliken charges =  -1.00000

 Dipole moment (field-independent basis, Debye):
    X=             -4.7888    Y=              0.6625    Z=              5.2497  Tot=              7.1366

 Test job not archived.
 1\1\GINC-SE123\SP\RHF\Aug-CC-pVDZ\C2H6Cl1N4O4(1-)\OHZDE\09-Apr-2025\0\
 \#t hf aug-cc-pvdz iop(5/13=1,5/36=2,99/5=2) pseudo=read geom=check gu
 ess=(read,tcheck) scf=(maxcycle=1)\\title\\-1,1\C,0,-0.00158912,0.0293
 74,-0.37665642\C,0,-0.17556409,0.00938025,1.07787173\Cl,0,1.72656383,0
 .02350155,-0.99768618\H,0,-2.04729042,-0.40082764,2.48997542\H,0,-1.31
 986467,-0.2347834,1.44820482\N,0,-0.63465748,-1.15217069,-1.10835147\O
 ,0,-0.94451991,-0.97020533,-2.28112228\O,0,-0.76884555,-2.20077259,-0.
 48641429\N,0,-0.71993283,1.25918179,-0.93370691\O,0,-0.07568167,2.1628

 Normal termination of Gaussian 16 at Wed Apr  9 02:52:13 2025.
