 Gaussian 16, Revision C.01,

 ----------------------------------------------------------------------
 #t hf aug-cc-pvdz symm=none int=(grid=ultrafine) guess=(read,tcheck) s
 table=(opt,rrhf)
 ----------------------------------------------------------------------
 -----
 title
 -----
 Symbolic Z-matrix:
 Charge = -1 Multiplicity = 1

 SCF Done:  E(RHF) =  -461.011409290     A.U. after   15 cycles
 Normal termination of Gaussian 16 at Wed Apr  9 02:39:27 2025.
 Gaussian 16:  ES64L-G16RevC.01  3-Jul-2019

 ----------------------------------------------------------------------
 #t hf aug-cc-pvdz iop(5/13=1,5/36=2,99/5=2) pseudo=read geom=check gue
 ss=(read,tcheck) scf=(maxcycle=1)
 ----------------------------------------------------------------------
 -----
 title
 -----
 Structure from the checkpoint file:  "E2SN2_177_mol1.chk"
 Charge = -1 Multiplicity = 1

                         Standard orientation:
 ---------------------------------------------------------------------
 Center     Atomic      Atomic             Coordinates (Angstroms)
 Number     Number       Type             X           Y           Z
 ---------------------------------------------------------------------
      1          6           0        0.634391   -0.357969    0.488405
      2          1           0       -0.386633   -1.803054   -0.729182
      3          9           0       -0.312840    0.618125    1.634984
      4          9           0        1.684931   -1.335435   -0.525607
      5          6           0       -0.625204   -1.095259    0.063060
      6          1           0        1.202644   -0.697830    1.334398
      7          1           0       -0.996005   -1.635183    0.936082
      8          6           0        1.054006    0.841938   -0.209633
      9          7           0        1.400574    1.808010   -0.779762
     10          6           0       -1.698536   -0.210438   -0.389697
     11          7           0       -2.594397    0.409451   -0.825739
 ---------------------------------------------------------------------

 SCF Done:  E(RHF) =  -462.885448526     A.U. after    2 cycles

 The electronic state is 1-A.
 Alpha  occ. eigenvalues --  -28.99128 -28.98089 -15.62855 -15.61817 -11.43647
 Alpha  occ. eigenvalues --  -11.34090 -11.30835 -11.29465  -1.21481  -1.16036
 Alpha  occ. eigenvalues --   -1.08196  -0.89889  -0.64425  -0.61745  -0.53063
 Alpha  occ. eigenvalues --   -0.50889  -0.45227  -0.38584  -0.37621  -0.34761
 Alpha  occ. eigenvalues --   -0.30548  -0.30036  -0.29256  -0.28327  -0.14695
 Alpha  occ. eigenvalues --   -0.06719  -0.04915  -0.04725  -0.03437   0.03227
 Alpha virt. eigenvalues --    0.14219   0.15669   0.16017   0.19183   0.20130
 Alpha virt. eigenvalues --    0.22302   0.22552   0.23292   0.25295   0.25787
 Alpha virt. eigenvalues --    0.26015   0.26397   0.26862   0.27150   0.29746

 Mulliken charges:
               1
     1  C    0.735835
     2  H    1.248431
     3  F   -0.322440
     4  F   -0.462140
     5  C   -3.836250
     6  H    1.384322
     7  H    1.412613
     8  C    1.441823
     9  N   -2.646479
    10  C    2.771116
    11  N   -2.726831
 Sum of Mulliken charges =  -1.00000

 Dipole moment (field-independent basis, Debye):
    X=             -0.3415    Y=             -3.3331    Z=              1.9350  Tot=              3.8691

 Test job not archived.
 1\1\GINC-SE131\SP\RHF\Aug-CC-pVDZ\C4H3F2N2(1-)\OHZDE\09-Apr-2025\0\\#t
  hf aug-cc-pvdz iop(5/13=1,5/36=2,99/5=2) pseudo=read geom=check guess
 =(read,tcheck) scf=(maxcycle=1)\\title\\-1,1\C,0,0.66740169,-0.0579786
 7,0.01984362\H,0,1.74054867,1.80152679,0.08209774\F,0,-1.11085349,-0.0
 2208363,0.05402163\F,0,2.41137901,-0.21274465,-0.12810301\C,0,0.706672
 7,1.46142293,0.05099302\H,0,0.58266315,-0.57961049,-0.91548563\H,0,0.2
 3219806,1.8174669,-0.86513175\C,0,0.6907378,-0.81859927,1.25435616\N,0
 ,0.71938348,-1.43629173,2.25239775\C,0,-0.02544062,2.04448215,1.175266

 Normal termination of Gaussian 16 at Wed Apr  9 02:39:31 2025.
