 Gaussian 16, Revision C.01,

 ----------------------------------------------------------------------
 #t hf aug-cc-pvdz symm=none int=(grid=ultrafine) guess=(read,tcheck) s
 table=(opt,rrhf)
 ----------------------------------------------------------------------
 -----
 title
 -----
 Symbolic Z-matrix:
 Charge = -1 Multiplicity = 1

 SCF Done:  E(RHF) =  -565.553283106     A.U. after   17 cycles
 Normal termination of Gaussian 16 at Wed Apr  9 03:01:23 2025.
 Gaussian 16:  ES64L-G16RevC.01  3-Jul-2019

 ----------------------------------------------------------------------
 #t hf aug-cc-pvdz iop(5/13=1,5/36=2,99/5=2) pseudo=read geom=check gue
 ss=(read,tcheck) scf=(maxcycle=1)
 ----------------------------------------------------------------------
 -----
 title
 -----
 Structure from the checkpoint file:  "E2SN2_64_mol1.chk"
 Charge = -1 Multiplicity = 1

                         Standard orientation:
 ---------------------------------------------------------------------
 Center     Atomic      Atomic             Coordinates (Angstroms)
 Number     Number       Type             X           Y           Z
 ---------------------------------------------------------------------
      1          6           0        0.651297   -0.078748    0.454308
      2          6           0       -0.717432   -0.584063    0.756530
      3          9           0        1.375855   -0.181509    1.648634
      4          1           0        0.427399   -2.251110   -0.184467
      5          1           0       -0.381505   -1.819601    0.378400
      6          1           0       -1.027477   -0.531375    1.793494
      7          6           0        0.730896    1.311016    0.006022
      8          7           0        0.845970    2.442826   -0.288365
      9          6           0        1.405268   -1.017064   -0.557353
     10          7           0        2.344364   -0.990172   -1.291478
     11          7           0       -1.722210   -0.161444   -0.146320
     12          8           0       -2.905573   -0.131256    0.230716
     13          8           0       -1.356697    0.057550   -1.318096
 ---------------------------------------------------------------------

 SCF Done:  E(RHF) =  -567.967529508     A.U. after    2 cycles

 The electronic state is 1-A.
 Alpha  occ. eigenvalues --  -29.16820 -20.95761 -20.95613 -15.86134 -15.65768
 Alpha  occ. eigenvalues --  -15.58578 -11.45308 -11.34328 -11.31870 -11.29413
 Alpha  occ. eigenvalues --   -1.84996  -1.54943  -1.26365  -1.15943  -1.10848
 Alpha  occ. eigenvalues --   -1.00244  -0.75981  -0.70232  -0.66862  -0.57068
 Alpha  occ. eigenvalues --   -0.54995  -0.53490  -0.46060  -0.44152  -0.40791
 Alpha  occ. eigenvalues --   -0.39178  -0.34112  -0.32801  -0.30324  -0.29478
 Alpha  occ. eigenvalues --   -0.26334  -0.23255  -0.18651  -0.18143  -0.17029
 Alpha  occ. eigenvalues --   -0.15605  -0.11862
 Alpha virt. eigenvalues --    0.13782   0.16152   0.16851   0.19275   0.21350
 Alpha virt. eigenvalues --    0.21807   0.22166   0.22579   0.23349   0.24410
 Alpha virt. eigenvalues --    0.25037   0.25795   0.26782   0.26823   0.27186

 Mulliken charges:
               1
     1  C    2.623623
     2  C   -1.498791
     3  F    0.070311
     4  H    0.469386
     5  H    0.514899
     6  H    1.420622
     7  C    0.911799
     8  N   -2.495671
     9  C    1.480614
    10  N   -2.773906
    11  N    3.910779
    12  O   -2.850878
    13  O   -2.782786
 Sum of Mulliken charges =  -1.00000

 Dipole moment (field-independent basis, Debye):
    X=             -1.8430    Y=              0.8200    Z=              5.0849  Tot=              5.4704

 Test job not archived.
 1\1\GINC-SE097\SP\RHF\Aug-CC-pVDZ\C4H3F1N3O2(1-)\OHZDE\09-Apr-2025\0\\
 #t hf aug-cc-pvdz iop(5/13=1,5/36=2,99/5=2) pseudo=read geom=check gue
 ss=(read,tcheck) scf=(maxcycle=1)\\title\\-1,1\C,0,-0.18650273,-0.0391
 1665,-0.33748304\C,0,0.43416304,0.07999085,1.01184535\F,0,0.52471409,-
 1.04446139,-1.00487434\H,0,-1.37517434,-1.20924532,1.21015289\H,0,-0.4
 3402352,-0.79445543,1.52563428\H,0,1.4627871,-0.25051197,1.09490172\C,
 0,-0.13768296,1.16381572,-1.16773182\N,0,-0.05664401,2.08498271,-1.892
 84125\C,0,-1.66148177,-0.57709178,-0.25154259\N,0,-2.64687752,-0.63203

 Normal termination of Gaussian 16 at Wed Apr  9 03:01:29 2025.
