 Gaussian 16, Revision C.01,

 ----------------------------------------------------------------------
 #t hf aug-cc-pvdz symm=none int=(grid=ultrafine) guess=(read,tcheck) s
 table=(opt,rrhf)
 ----------------------------------------------------------------------
 -----
 title
 -----
 Symbolic Z-matrix:
 Charge = -1 Multiplicity = 1

 SCF Done:  E(RHF) =  -1295.25172010     A.U. after   16 cycles
 Normal termination of Gaussian 16 at Wed Apr  9 02:33:19 2025.
 Gaussian 16:  ES64L-G16RevC.01  3-Jul-2019

 ----------------------------------------------------------------------
 #t hf aug-cc-pvdz iop(5/13=1,5/36=2,99/5=2) pseudo=read geom=check gue
 ss=(read,tcheck) scf=(maxcycle=1)
 ----------------------------------------------------------------------
 -----
 title
 -----
 Structure from the checkpoint file:  "E2SN2_106_mol1.chk"
 Charge = -1 Multiplicity = 1

                         Standard orientation:
 ---------------------------------------------------------------------
 Center     Atomic      Atomic             Coordinates (Angstroms)
 Number     Number       Type             X           Y           Z
 ---------------------------------------------------------------------
      1          6           0       -0.348633   -0.054003   -0.401457
      2          6           0        0.435325    1.092205   -0.277871
      3         17           0       -2.617961    0.576311   -0.459689
      4         17           0        3.158343   -0.094097   -0.265522
      5          1           0        1.734603    0.415924   -0.220564
      6          1           0        0.602332    1.574171   -1.240735
      7          6           0       -0.262800   -0.848271   -1.665467
      8          1           0       -0.270891   -0.161292   -2.512195
      9          1           0        0.665536   -1.430274   -1.678668
     10          1           0       -1.109896   -1.522396   -1.747811
     11          7           0        0.449992    2.025800    0.803820
     12          1           0       -0.362628    2.627500    0.684345
     13          1           0        0.309459    1.517183    1.665513
     14          7           0       -0.519301   -0.914122    0.798735
     15          8           0       -0.342060   -0.422185    1.915994
     16          8           0       -0.809591   -2.095288    0.612705
 ---------------------------------------------------------------------

 SCF Done:  E(RHF) =  -1297.47673092     A.U. after    2 cycles

 The electronic state is 1-A.
 Alpha  occ. eigenvalues --  -99.70521 -99.67134 -20.98364 -20.97787 -15.88207
 Alpha  occ. eigenvalues --  -15.61638 -11.43205 -11.31384 -11.27935 -10.27483
 Alpha  occ. eigenvalues --  -10.23993  -9.47534  -9.46968  -9.46915  -9.44105
 Alpha  occ. eigenvalues --   -9.43554  -9.43533  -1.87746  -1.57422  -1.24897
 Alpha  occ. eigenvalues --   -1.12652  -1.08897  -1.03118  -0.92514  -0.85494
 Alpha  occ. eigenvalues --   -0.65858  -0.59242  -0.56391  -0.54394  -0.52531
 Alpha  occ. eigenvalues --   -0.49110  -0.47107  -0.44861  -0.43115  -0.40881
 Alpha  occ. eigenvalues --   -0.35120  -0.34060  -0.33983  -0.31021  -0.30797
 Alpha  occ. eigenvalues --   -0.28378  -0.23222  -0.20045  -0.19556  -0.18185
 Alpha virt. eigenvalues --    0.13697   0.14590   0.14819   0.15642   0.15894
 Alpha virt. eigenvalues --    0.16652   0.17213   0.18932   0.20369   0.21950
 Alpha virt. eigenvalues --    0.23768   0.24860   0.25142   0.26015   0.26355

 Mulliken charges:
               1
     1  C    3.578681
     2  C   -0.173240
     3  Cl  -0.712828
     4  Cl  -1.037235
     5  H    1.111026
     6  H    1.275187
     7  C   -4.339482
     8  H    1.112969
     9  H    1.136361
    10  H    1.386213
    11  N   -3.144274
    12  H    0.493186
    13  H    0.657214
    14  N    3.191808
    15  O   -2.886022
    16  O   -2.649565
 Sum of Mulliken charges =  -1.00000

 Dipole moment (field-independent basis, Debye):
    X=             -0.3640    Y=             -0.9017    Z=             -0.0855  Tot=              0.9762

 Test job not archived.
 1\1\GINC-SE403\SP\RHF\Aug-CC-pVDZ\C3H7Cl2N2O2(1-)\OHZDE\09-Apr-2025\0\
 \#t hf aug-cc-pvdz iop(5/13=1,5/36=2,99/5=2) pseudo=read geom=check gu
 ess=(read,tcheck) scf=(maxcycle=1)\\title\\-1,1\C,0,-0.37838819,-0.064
 71908,-0.14941494\C,0,-0.22073767,-0.08011168,1.2357078\Cl,0,1.7492421
 7,0.00493362,-1.15880873\Cl,0,-3.05483909,-0.19119837,2.11764942\H,0,-
 1.64586802,-0.0743533,1.57882836\H,0,-0.01971709,-1.08382638,1.6091197
 1\C,0,-0.94891428,-1.27368306,-0.81938236\H,0,-0.48265986,-2.16283445,
 -0.39397441\H,0,-2.03128514,-1.31660339,-0.6540363\H,0,-0.74998374,-1.

 Normal termination of Gaussian 16 at Wed Apr  9 02:33:27 2025.
