 Gaussian 16, Revision C.01,

 ----------------------------------------------------------------------
 #t hf aug-cc-pvdz symm=none int=(grid=ultrafine) guess=(read,tcheck) s
 table=(opt,rrhf)
 ----------------------------------------------------------------------
 -----
 title
 -----
 Symbolic Z-matrix:
 Charge = -1 Multiplicity = 1

 SCF Done:  E(RHF) =  -932.860186938     A.U. after   16 cycles
 Normal termination of Gaussian 16 at Wed Apr  9 02:38:36 2025.
 Gaussian 16:  ES64L-G16RevC.01  3-Jul-2019

 ----------------------------------------------------------------------
 #t hf aug-cc-pvdz iop(5/13=1,5/36=2,99/5=2) pseudo=read geom=check gue
 ss=(read,tcheck) scf=(maxcycle=1)
 ----------------------------------------------------------------------
 -----
 title
 -----
 Structure from the checkpoint file:  "E2SN2_169_mol1.chk"
 Charge = -1 Multiplicity = 1

                         Standard orientation:
 ---------------------------------------------------------------------
 Center     Atomic      Atomic             Coordinates (Angstroms)
 Number     Number       Type             X           Y           Z
 ---------------------------------------------------------------------
      1          6           0       -0.046221    0.000094   -0.264399
      2          1           0        0.906513   -1.029840    1.312512
      3         17           0       -0.577096    2.007845   -0.156575
      4          9           0        0.372393   -1.877198   -0.609958
      5          6           0        1.024135   -0.079808    0.798605
      6          1           0        0.155292    0.016142   -1.316492
      7          1           0        0.956823    0.742733    1.511609
      8          7           0       -1.362817   -0.564750    0.092140
      9          8           0       -1.561898   -0.824715    1.275762
     10          8           0       -2.176333   -0.691266   -0.812519
     11          6           0        2.340820   -0.057001    0.170041
     12          7           0        3.424804   -0.009461   -0.276093
 ---------------------------------------------------------------------

 SCF Done:  E(RHF) =  -935.090027340     A.U. after    2 cycles

 The electronic state is 1-A.
 Alpha  occ. eigenvalues --  -99.72287 -28.95147 -20.96654 -20.96427 -15.87337
 Alpha  occ. eigenvalues --  -15.64361 -11.44103 -11.35314 -11.30863 -10.29350
 Alpha  occ. eigenvalues --   -9.49390  -9.48855  -9.48747  -1.86561  -1.56471
 Alpha  occ. eigenvalues --   -1.22294  -1.15561  -1.06615  -0.96464  -0.72989
 Alpha  occ. eigenvalues --   -0.62888  -0.61282  -0.56535  -0.52579  -0.51129
 Alpha  occ. eigenvalues --   -0.44758  -0.40672  -0.39244  -0.35963  -0.35438
 Alpha  occ. eigenvalues --   -0.32004  -0.31623  -0.30635  -0.23581  -0.18987
 Alpha  occ. eigenvalues --   -0.18549  -0.05044  -0.03054  -0.02426
 Alpha virt. eigenvalues --    0.14781   0.16297   0.16699   0.19076   0.19275
 Alpha virt. eigenvalues --    0.22135   0.22661   0.23369   0.24197   0.25511
 Alpha virt. eigenvalues --    0.26256   0.27165   0.27324   0.28547   0.28819

 Mulliken charges:
               1
     1  C   -1.826789
     2  H    1.286691
     3  Cl  -0.471835
     4  F   -0.370987
     5  C   -1.914254
     6  H    1.622580
     7  H    1.387066
     8  N    5.774315
     9  O   -3.112565
    10  O   -3.247443
    11  C    2.526781
    12  N   -2.653560
 Sum of Mulliken charges =  -1.00000

 Dipole moment (field-independent basis, Debye):
    X=             -0.2081    Y=             -4.0393    Z=              0.9273  Tot=              4.1496

 Test job not archived.
 1\1\GINC-SE229\SP\RHF\Aug-CC-pVDZ\C3H3Cl1F1N2O2(1-)\OHZDE\09-Apr-2025\
 0\\#t hf aug-cc-pvdz iop(5/13=1,5/36=2,99/5=2) pseudo=read geom=check
 guess=(read,tcheck) scf=(maxcycle=1)\\title\\-1,1\C,0,0.40170211,-0.04
 604263,0.02972318\H,0,1.27845022,1.77977708,0.62369985\Cl,0,-1.6153443
 9,-0.47908021,0.29149322\F,0,2.31179277,0.13620422,-0.34069787\C,0,0.3
 892568,1.4635179,0.08535833\H,0,0.4987497,-0.61070971,-0.87553771\H,0,
 -0.50406542,1.84880413,0.57831817\N,0,0.90326699,-0.73882705,1.2330841
 7\O,0,1.03512966,-0.06928402,2.2541135\O,0,1.10899128,-1.94075327,1.13

 Normal termination of Gaussian 16 at Wed Apr  9 02:38:44 2025.
