 Gaussian 16, Revision C.01,

 ----------------------------------------------------------------------
 #t hf aug-cc-pvdz symm=none int=(grid=ultrafine) guess=(read,tcheck) s
 table=(opt,rrhf)
 ----------------------------------------------------------------------
 -----
 title
 -----
 Symbolic Z-matrix:
 Charge = -1 Multiplicity = 1

 SCF Done:  E(RHF) =  -967.848821953     A.U. after   17 cycles
 Normal termination of Gaussian 16 at Wed Apr  9 02:51:52 2025.
 Gaussian 16:  ES64L-G16RevC.01  3-Jul-2019

 ----------------------------------------------------------------------
 #t hf aug-cc-pvdz iop(5/13=1,5/36=2,99/5=2) pseudo=read geom=check gue
 ss=(read,tcheck) scf=(maxcycle=1)
 ----------------------------------------------------------------------
 -----
 title
 -----
 Structure from the checkpoint file:  "E2SN2_309_mol1.chk"
 Charge = -1 Multiplicity = 1

                         Standard orientation:
 ---------------------------------------------------------------------
 Center     Atomic      Atomic             Coordinates (Angstroms)
 Number     Number       Type             X           Y           Z
 ---------------------------------------------------------------------
      1          6           0       -0.421410   -0.304102    0.333702
      2          1           0        0.447798   -0.510668   -1.638885
      3          9           0        0.870587    0.336930    1.634850
      4         17           0       -1.940496   -0.788609   -1.147054
      5          6           0        0.731911   -0.091679   -0.669341
      6          6           0       -1.171797    0.839427    0.824111
      7          7           0       -1.849507    1.710278    1.232102
      8          7           0       -0.444511   -1.567102    0.992511
      9          1           0       -1.398745   -1.874537    1.117894
     10          1           0        0.021344   -1.408681    1.878686
     11          6           0        1.947190   -0.797970   -0.245431
     12          7           0        2.938628   -1.403312   -0.076927
     13          6           0        1.026066    1.328356   -0.871547
     14          7           0        1.271244    2.449232   -1.119168
 ---------------------------------------------------------------------

 SCF Done:  E(RHF) =  -970.284222828     A.U. after    2 cycles

 The electronic state is 1-A.
 Alpha  occ. eigenvalues --  -99.71889 -28.98590 -15.66656 -15.65595 -15.65154
 Alpha  occ. eigenvalues --  -15.64606 -11.52491 -11.42550 -11.35727 -11.34590
 Alpha  occ. eigenvalues --  -11.33200 -10.28982  -9.49069  -9.48542  -9.48455
 Alpha  occ. eigenvalues --   -1.34250  -1.22261  -1.18011  -1.17183  -1.10447
 Alpha  occ. eigenvalues --   -1.07229  -0.89982  -0.70142  -0.67110  -0.63011
 Alpha  occ. eigenvalues --   -0.57833  -0.53076  -0.46126  -0.43121  -0.42307
 Alpha  occ. eigenvalues --   -0.40763  -0.37802  -0.36991  -0.35653  -0.34143
 Alpha  occ. eigenvalues --   -0.33595  -0.32664  -0.32196  -0.31127  -0.28689
 Alpha  occ. eigenvalues --   -0.28125  -0.08736  -0.06521  -0.05602
 Alpha virt. eigenvalues --    0.13621   0.14330   0.16557   0.18587   0.19072
 Alpha virt. eigenvalues --    0.19615   0.19962   0.21517   0.22389   0.22931
 Alpha virt. eigenvalues --    0.23307   0.23559   0.24319   0.24686   0.24827

 Mulliken charges:
               1
     1  C    5.042078
     2  H    1.549473
     3  F   -0.232149
     4  Cl  -0.620968
     5  C   -4.109818
     6  C    2.161638
     7  N   -3.090520
     8  N   -3.960033
     9  H    0.601203
    10  H    0.651279
    11  C    3.648968
    12  N   -3.085587
    13  C    3.323998
    14  N   -2.879562
 Sum of Mulliken charges =  -1.00000

 Dipole moment (field-independent basis, Debye):
    X=              2.9306    Y=             -1.3324    Z=              3.7556  Tot=              4.9465

 Test job not archived.
 1\1\GINC-SE073\SP\RHF\Aug-CC-pVDZ\C5H3Cl1F1N4(1-)\OHZDE\09-Apr-2025\0\
 \#t hf aug-cc-pvdz iop(5/13=1,5/36=2,99/5=2) pseudo=read geom=check gu
 ess=(read,tcheck) scf=(maxcycle=1)\\title\\-1,1\C,0,0.81187476,-0.0741
 4984,0.0089742\H,0,1.65099778,1.91464968,0.1817213\F,0,-1.12992623,-0.
 05124243,0.05426183\Cl,0,2.9675464,-0.1029335,-0.28641861\C,0,0.665364
 12,1.46170267,0.0415296\C,0,0.5676705,-0.7968403,-1.22768449\N,0,0.427
 40841,-1.44453497,-2.19976807\N,0,0.82468514,-0.72211186,1.27771896\H,
 0,1.46750458,-1.50142434,1.26174784\H,0,-0.13144039,-1.02350434,1.4274

 Normal termination of Gaussian 16 at Wed Apr  9 02:52:00 2025.
