 Gaussian 16, Revision C.01,

 ----------------------------------------------------------------------
 #t hf aug-cc-pvdz symm=none int=(grid=ultrafine) guess=(read,tcheck) s
 table=(opt,rrhf)
 ----------------------------------------------------------------------
 -----
 title
 -----
 Symbolic Z-matrix:
 Charge = -1 Multiplicity = 1

 SCF Done:  E(RHF) =  -627.831849281     A.U. after   16 cycles
 Normal termination of Gaussian 16 at Wed Apr  9 02:57:13 2025.
 Gaussian 16:  ES64L-G16RevC.01  3-Jul-2019

 ----------------------------------------------------------------------
 #t hf aug-cc-pvdz iop(5/13=1,5/36=2,99/5=2) pseudo=read geom=check gue
 ss=(read,tcheck) scf=(maxcycle=1)
 ----------------------------------------------------------------------
 -----
 title
 -----
 Structure from the checkpoint file:  "E2SN2_376_mol1.chk"
 Charge = -1 Multiplicity = 1

                         Standard orientation:
 ---------------------------------------------------------------------
 Center     Atomic      Atomic             Coordinates (Angstroms)
 Number     Number       Type             X           Y           Z
 ---------------------------------------------------------------------
      1          6           0       -0.111392    0.303758    0.124455
      2          1           0        1.052886    1.103947   -1.471578
      3          9           0        0.400400   -1.181409    0.914450
      4          9           0       -0.866444    1.620817   -0.742604
      5          6           0        0.998090    0.177007   -0.903699
      6          1           0        0.735071   -0.636488   -1.579638
      7          7           0        0.042722    1.069624    1.295656
      8          1           0       -0.019094    0.443325    2.083712
      9          1           0       -0.686262    1.766329    1.305395
     10          7           0       -1.409520   -0.446645   -0.143686
     11          8           0       -1.505265   -1.099613   -1.174909
     12          8           0       -2.287190   -0.335700    0.702474
     13          6           0        2.305424   -0.093509   -0.308944
     14          7           0        3.409471   -0.261953    0.051474
 ---------------------------------------------------------------------

 SCF Done:  E(RHF) =  -630.422062619     A.U. after    2 cycles

 The electronic state is 1-A.
 Alpha  occ. eigenvalues --  -29.00382 -28.99651 -20.95198 -20.94993 -15.85279
 Alpha  occ. eigenvalues --  -15.62467 -15.61955 -11.50784 -11.33728 -11.29426
 Alpha  occ. eigenvalues --   -1.85140  -1.55330  -1.29810  -1.17070  -1.05754
 Alpha  occ. eigenvalues --   -0.94935  -0.71769  -0.69580  -0.60096  -0.56817
 Alpha  occ. eigenvalues --   -0.52665  -0.52141  -0.47783  -0.42854  -0.39614
 Alpha  occ. eigenvalues --   -0.38113  -0.35343  -0.30840  -0.29853  -0.29368
 Alpha  occ. eigenvalues --   -0.21704  -0.18719  -0.16871  -0.16541  -0.07274
 Alpha  occ. eigenvalues --   -0.06233  -0.05835  -0.04506   0.00442
 Alpha virt. eigenvalues --    0.14327   0.15324   0.16230   0.16866   0.19581
 Alpha virt. eigenvalues --    0.21782   0.23177   0.23536   0.23996   0.25856
 Alpha virt. eigenvalues --    0.26893   0.27162   0.28169   0.28803   0.29305

 Mulliken charges:
               1
     1  C    4.679299
     2  H    1.270583
     3  F   -0.342196
     4  F   -0.497822
     5  C   -3.862020
     6  H    1.584256
     7  N   -3.445596
     8  H    0.371869
     9  H    0.374775
    10  N    5.720180
    11  O   -3.439201
    12  O   -3.419713
    13  C    2.829388
    14  N   -2.823801
 Sum of Mulliken charges =  -1.00000

 Dipole moment (field-independent basis, Debye):
    X=             -2.0151    Y=              0.3886    Z=              0.0709  Tot=              2.0535

 Test job not archived.
 1\1\GINC-SE116\SP\RHF\Aug-CC-pVDZ\C3H4F2N3O2(1-)\OHZDE\09-Apr-2025\0\\
 #t hf aug-cc-pvdz iop(5/13=1,5/36=2,99/5=2) pseudo=read geom=check gue
 ss=(read,tcheck) scf=(maxcycle=1)\\title\\-1,1\C,0,0.6932338,-0.058427
 22,-0.08275139\H,0,1.69276673,1.81795048,-0.23542486\F,0,-1.06287113,-
 0.11618095,-0.14987572\F,0,2.40562132,-0.11157388,0.26573448\C,0,0.675
 54411,1.45938806,-0.08914157\H,0,0.32005784,1.79289765,0.8856639\N,0,0
 .83899853,-0.80637631,-1.2665332\H,0,-0.00450122,-1.34346467,-1.397488
 5\H,0,1.65156487,-1.39410579,-1.16060729\N,0,0.5292887,-0.75928112,1.2

 Normal termination of Gaussian 16 at Wed Apr  9 02:57:20 2025.
