 Gaussian 16, Revision C.01,

 ----------------------------------------------------------------------
 #t hf aug-cc-pvdz symm=none int=(grid=ultrafine) guess=(read,tcheck) s
 table=(opt,rrhf)
 ----------------------------------------------------------------------
 -----
 title
 -----
 Symbolic Z-matrix:
 Charge = -1 Multiplicity = 1

 SCF Done:  E(RHF) =  -1295.32306122     A.U. after   15 cycles
 Normal termination of Gaussian 16 at Wed Apr  9 03:02:31 2025.
 Gaussian 16:  ES64L-G16RevC.01  3-Jul-2019

 ----------------------------------------------------------------------
 #t hf aug-cc-pvdz iop(5/13=1,5/36=2,99/5=2) pseudo=read geom=check gue
 ss=(read,tcheck) scf=(maxcycle=1)
 ----------------------------------------------------------------------
 -----
 title
 -----
 Structure from the checkpoint file:  "E2SN2_7_mol2.chk"
 Charge = -1 Multiplicity = 1

                         Standard orientation:
 ---------------------------------------------------------------------
 Center     Atomic      Atomic             Coordinates (Angstroms)
 Number     Number       Type             X           Y           Z
 ---------------------------------------------------------------------
      1          6           0       -0.183311    0.302628   -0.161742
      2          6           0       -0.013984   -0.591767    1.077226
      3         17           0       -0.669331    1.953485    0.263503
      4          1           0        0.878917   -0.180332    1.557409
      5          1           0        0.764923    0.352944   -0.701837
      6          7           0       -1.220089   -0.286048   -1.068338
      7          8           0       -0.814958   -0.811930   -2.103261
      8          8           0       -2.393069   -0.288510   -0.689918
      9          6           0        0.311841   -2.006608    0.622422
     10          1           0       -0.548093   -2.477971    0.133762
     11          1           0        0.569379   -2.599881    1.500991
     12          1           0        1.162610   -1.989036   -0.059718
     13          7           0       -1.111248   -0.601740    2.032600
     14          1           0       -1.253528    0.336801    2.387084
     15          1           0       -1.965748   -0.862498    1.552109
     16         17           0        3.121557    0.176662   -0.263599
 ---------------------------------------------------------------------

 SCF Done:  E(RHF) =  -1297.52084471     A.U. after    2 cycles

 The electronic state is 1-A.
 Alpha  occ. eigenvalues --  -99.79053 -99.60787 -20.99860 -20.99134 -15.88678
 Alpha  occ. eigenvalues --  -15.62687 -11.40023 -11.33106 -11.25598 -10.36481
 Alpha  occ. eigenvalues --  -10.17426  -9.56497  -9.55674  -9.55603  -9.37460
 Alpha  occ. eigenvalues --   -9.37096  -9.37038  -1.88766  -1.58767  -1.29930
 Alpha  occ. eigenvalues --   -1.21202  -1.05673  -0.96453  -0.96261  -0.81351
 Alpha  occ. eigenvalues --   -0.70382  -0.62344  -0.59596  -0.57491  -0.55117
 Alpha  occ. eigenvalues --   -0.49513  -0.48393  -0.45818  -0.43093  -0.40390
 Alpha  occ. eigenvalues --   -0.38330  -0.36974  -0.36256  -0.28392  -0.24694
 Alpha  occ. eigenvalues --   -0.24499  -0.24425  -0.23511  -0.21017  -0.20728
 Alpha virt. eigenvalues --    0.13158   0.13970   0.14731   0.14944   0.16530
 Alpha virt. eigenvalues --    0.17041   0.18283   0.18629   0.21156   0.22485
 Alpha virt. eigenvalues --    0.23475   0.24461   0.24975   0.25354   0.25834

 Mulliken charges:
               1
     1  C   -1.918241
     2  C    1.718596
     3  Cl  -0.119807
     4  H    1.716960
     5  H    1.820488
     6  N    4.697440
     7  O   -2.774579
     8  O   -3.042212
     9  C   -3.595103
    10  H    1.254232
    11  H    1.077586
    12  H    1.128561
    13  N   -3.121557
    14  H    0.502997
    15  H    0.655396
    16  Cl  -1.000756
 Sum of Mulliken charges =  -1.00000

 Dipole moment (field-independent basis, Debye):
    X=            -10.0469    Y=             -1.2222    Z=              1.4012  Tot=             10.2175

 Test job not archived.
 1\1\GINC-SE116\SP\RHF\Aug-CC-pVDZ\C3H7Cl2N2O2(1-)\OHZDE\09-Apr-2025\0\
 \#t hf aug-cc-pvdz iop(5/13=1,5/36=2,99/5=2) pseudo=read geom=check gu
 ess=(read,tcheck) scf=(maxcycle=1)\\title\\-1,1\C,0,-0.172087,0.060078
 ,-1.359917\C,0,-0.023516,0.209141,0.163028\Cl,0,0.159837,1.575189,-2.2
 18196\H,0,1.054558,0.343246,0.293025\H,0,0.52926,-0.6972,-1.717723\N,0
 ,-1.564499,-0.38387,-1.68773\O,0,-1.701935,-1.551339,-2.048114\O,0,-2.
 489926,0.407278,-1.496\C,0,-0.412934,-1.103405,0.826623\H,0,-1.487651,
 -1.295367,0.733926\H,0,-0.17096,-1.037419,1.888356\H,0,0.150383,-1.924

 Normal termination of Gaussian 16 at Wed Apr  9 03:02:39 2025.
