 Gaussian 16, Revision C.01,

 ----------------------------------------------------------------------
 #t hf aug-cc-pvdz symm=none int=(grid=ultrafine) guess=(read,tcheck) s
 table=(opt,rrhf)
 ----------------------------------------------------------------------
 -----
 title
 -----
 Symbolic Z-matrix:
 Charge = -1 Multiplicity = 1

 SCF Done:  E(RHF) =  -722.143477937     A.U. after   15 cycles
 Normal termination of Gaussian 16 at Wed Apr  9 03:01:41 2025.
 Gaussian 16:  ES64L-G16RevC.01  3-Jul-2019

 ----------------------------------------------------------------------
 #t hf aug-cc-pvdz iop(5/13=1,5/36=2,99/5=2) pseudo=read geom=check gue
 ss=(read,tcheck) scf=(maxcycle=1)
 ----------------------------------------------------------------------
 -----
 title
 -----
 Structure from the checkpoint file:  "E2SN2_85_mol1.chk"
 Charge = -1 Multiplicity = 1

                         Standard orientation:
 ---------------------------------------------------------------------
 Center     Atomic      Atomic             Coordinates (Angstroms)
 Number     Number       Type             X           Y           Z
 ---------------------------------------------------------------------
      1          6           0       -0.459696   -0.137922    0.429517
      2          6           0        0.569514   -1.123834   -0.115296
      3         17           0       -0.175184    1.595155    0.040043
      4          1           0        0.029500   -2.188275    2.221545
      5          1           0        0.499657   -1.906122    0.743229
      6          1           0        0.286033   -1.544499   -1.081880
      7          6           0       -1.792462   -0.499010   -0.038658
      8          7           0       -2.858959   -0.786772   -0.437756
      9          6           0        1.916776   -0.598477   -0.174769
     10          7           0        3.028649   -0.220602   -0.233009
     11          1           0       -0.429677   -0.271661    1.526978
 ---------------------------------------------------------------------

 SCF Done:  E(RHF) =  -723.609443171     A.U. after    2 cycles

 The electronic state is 1-A.
 Alpha  occ. eigenvalues --  -99.78857 -15.66183 -15.64122 -11.40226 -11.33959
 Alpha  occ. eigenvalues --  -11.33393 -11.29554 -10.36206  -9.56123  -9.55419
 Alpha  occ. eigenvalues --   -9.55250  -1.28726  -1.18018  -1.17622  -1.05057
 Alpha  occ. eigenvalues --   -0.87647  -0.63391  -0.59090  -0.55833  -0.50005
 Alpha  occ. eigenvalues --   -0.46025  -0.43124  -0.39703  -0.39037  -0.37532
 Alpha  occ. eigenvalues --   -0.33630  -0.32656  -0.30381  -0.29965  -0.12393
 Alpha virt. eigenvalues --    0.14062   0.15778   0.16866   0.18566   0.18882
 Alpha virt. eigenvalues --    0.19508   0.20676   0.21509   0.22376   0.23679
 Alpha virt. eigenvalues --    0.23942   0.24360   0.24851   0.25643   0.26382

 Mulliken charges:
               1
     1  C   -1.572028
     2  C   -2.463719
     3  Cl   0.005759
     4  H   -0.842006
     5  H    1.443218
     6  H    1.435402
     7  C    2.166515
     8  N   -2.417303
     9  C    2.066978
    10  N   -2.448173
    11  H    1.625357
 Sum of Mulliken charges =  -1.00000

 Dipole moment (field-independent basis, Debye):
    X=             -0.7948    Y=              5.6291    Z=             -6.0490  Tot=              8.3011

 Test job not archived.
 1\1\GINC-SE015\SP\RHF\Aug-CC-pVDZ\C4H4Cl1N2(1-)\OHZDE\09-Apr-2025\0\\#
 t hf aug-cc-pvdz iop(5/13=1,5/36=2,99/5=2) pseudo=read geom=check gues
 s=(read,tcheck) scf=(maxcycle=1)\\title\\-1,1\C,0,-0.21035022,-0.01168
 129,-0.3378203\C,0,-0.15699182,-0.03410235,1.18689839\Cl,0,1.3001698,0
 .49585696,-1.17264146\H,0,-2.60056891,0.82834202,0.77386314\H,0,-1.271
 97157,0.23562353,1.38180284\H,0,0.10772119,-1.01371009,1.58926502\C,0,
 -0.59265865,-1.32501948,-0.84261843\N,0,-0.88156779,-2.39206154,-1.239
 4229\C,0,0.68988703,0.98827283,1.76326428\N,0,1.35774345,1.80710931,2.

 Normal termination of Gaussian 16 at Wed Apr  9 03:01:45 2025.
