 Gaussian 16, Revision C.01,

 ----------------------------------------------------------------------
 #t hf aug-cc-pvdz symm=none int=(grid=ultrafine) guess=(read,tcheck) s
 table=(opt,rrhf)
 ----------------------------------------------------------------------
 -----
 title
 -----
 Symbolic Z-matrix:
 Charge = -1 Multiplicity = 1

 SCF Done:  E(RHF) =  -476.152362874     A.U. after   16 cycles
 Normal termination of Gaussian 16 at Wed Apr  9 02:44:13 2025.
 Gaussian 16:  ES64L-G16RevC.01  3-Jul-2019

 ----------------------------------------------------------------------
 #t hf aug-cc-pvdz iop(5/13=1,5/36=2,99/5=2) pseudo=read geom=check gue
 ss=(read,tcheck) scf=(maxcycle=1)
 ----------------------------------------------------------------------
 -----
 title
 -----
 Structure from the checkpoint file:  "E2SN2_230_mol1.chk"
 Charge = -1 Multiplicity = 1

                         Standard orientation:
 ---------------------------------------------------------------------
 Center     Atomic      Atomic             Coordinates (Angstroms)
 Number     Number       Type             X           Y           Z
 ---------------------------------------------------------------------
      1          6           0        0.065255    0.500911   -0.209035
      2          1           0       -1.382987   -0.042616   -1.715118
      3          9           0       -0.245909    0.607466    1.383592
      4          1           0        0.711642    0.120952   -1.867267
      5          6           0       -1.385123    0.336487   -0.696849
      6          1           0       -1.796892    1.352908   -0.715846
      7          7           0        0.883198   -0.705538   -0.158985
      8          8           0        0.288151   -1.803882   -0.226423
      9          8           0        2.062850   -0.609007    0.220264
     10          6           0        0.771763    1.827790   -0.379628
     11          1           0        0.512896    2.293897   -1.328616
     12          1           0        0.485451    2.480917    0.450174
     13          1           0        1.845791    1.655679   -0.349704
     14          7           0       -2.268935   -0.496550    0.113324
     15          1           0       -2.133172   -0.182242    1.067274
     16          1           0       -1.848771   -1.420093    0.088752
 ---------------------------------------------------------------------

 SCF Done:  E(RHF) =  -478.255031666     A.U. after    2 cycles

 The electronic state is 1-A.
 Alpha  occ. eigenvalues --  -29.02444 -20.89488 -20.89066 -15.81169 -15.57776
 Alpha  occ. eigenvalues --  -11.40192 -11.27917 -11.23981  -1.79225  -1.49217
 Alpha  occ. eigenvalues --   -1.21512  -1.09320  -0.88696  -0.82671  -0.67418
 Alpha  occ. eigenvalues --   -0.57838  -0.53877  -0.49756  -0.48229  -0.44311
 Alpha  occ. eigenvalues --   -0.40182  -0.39044  -0.38160  -0.36380  -0.35144
 Alpha  occ. eigenvalues --   -0.23258  -0.18589  -0.17856  -0.14554  -0.12207
 Alpha  occ. eigenvalues --   -0.07255  -0.07047  -0.05586
 Alpha virt. eigenvalues --    0.14216   0.14866   0.15585   0.15723   0.16011
 Alpha virt. eigenvalues --    0.16939   0.17611   0.19217   0.22027   0.24505
 Alpha virt. eigenvalues --    0.24841   0.26121   0.27172   0.27920   0.28789

 Mulliken charges:
               1
     1  C    2.757798
     2  H    1.225174
     3  F   -0.213367
     4  H   -0.705843
     5  C   -2.040655
     6  H    1.448138
     7  N    4.247126
     8  O   -3.065195
     9  O   -3.084746
    10  C   -4.033336
    11  H    1.127743
    12  H    1.109980
    13  H    1.329889
    14  N   -2.284264
    15  H    0.416725
    16  H    0.764832
 Sum of Mulliken charges =  -1.00000

 Dipole moment (field-independent basis, Debye):
    X=             -1.6337    Y=              1.1185    Z=              5.8030  Tot=              6.1315

 Test job not archived.
 1\1\GINC-SE322\SP\RHF\Aug-CC-pVDZ\C3H8F1N2O2(1-)\OHZDE\09-Apr-2025\0\\
 #t hf aug-cc-pvdz iop(5/13=1,5/36=2,99/5=2) pseudo=read geom=check gue
 ss=(read,tcheck) scf=(maxcycle=1)\\title\\-1,1\C,0,0.45614912,0.043707
 61,0.04232014\H,0,1.98163473,1.50648807,-0.3984534\F,0,-1.14195472,0.3
 4435333,0.0600109\H,0,2.1376773,-0.58883593,-0.24797441\C,0,0.9432175,
 1.49859783,-0.07872985\H,0,0.90093623,1.89961092,0.94128312\N,0,0.4810
 139,-0.76160621,-1.17337149\O,0,0.60777992,-0.15449578,-2.25980509\O,0
 ,0.10448554,-1.94442824,-1.11104406\C,0,0.55456515,-0.67589286,1.36947

 Normal termination of Gaussian 16 at Wed Apr  9 02:44:20 2025.
