 Gaussian 16, Revision C.01,

 ----------------------------------------------------------------------
 #t hf aug-cc-pvdz symm=none int=(grid=ultrafine) guess=(read,tcheck) s
 table=(opt,rrhf)
 ----------------------------------------------------------------------
 -----
 title
 -----
 Symbolic Z-matrix:
 Charge = -1 Multiplicity = 1

 SCF Done:  E(RHF) =  -990.210019382     A.U. after   16 cycles
 Normal termination of Gaussian 16 at Wed Apr  9 02:37:10 2025.
 Gaussian 16:  ES64L-G16RevC.01  3-Jul-2019

 ----------------------------------------------------------------------
 #t hf aug-cc-pvdz iop(5/13=1,5/36=2,99/5=2) pseudo=read geom=check gue
 ss=(read,tcheck) scf=(maxcycle=1)
 ----------------------------------------------------------------------
 -----
 title
 -----
 Structure from the checkpoint file:  "E2SN2_133_mol1.chk"
 Charge = -1 Multiplicity = 1

                         Standard orientation:
 ---------------------------------------------------------------------
 Center     Atomic      Atomic             Coordinates (Angstroms)
 Number     Number       Type             X           Y           Z
 ---------------------------------------------------------------------
      1          6           0        0.187157   -0.043187   -0.352304
      2          6           0       -0.826935   -0.444344    0.589943
      3         17           0        1.714140   -1.279062   -0.451329
      4          9           0       -2.816558    0.731033   -0.489088
      5          1           0       -1.967291    0.378347    0.101912
      6          7           0       -0.192070    0.124619   -1.725376
      7          1           0       -1.170152    0.404172   -1.725312
      8          1           0       -0.077392   -0.749622   -2.216470
      9          7           0        0.813512    1.282481    0.126450
     10          8           0        1.886860    1.314572    0.709570
     11          8           0        0.107746    2.257910   -0.112621
     12          7           0       -0.392207   -0.256126    1.962113
     13          1           0        0.199024   -1.034651    2.256282
     14          1           0       -1.201071   -0.236060    2.570297
     15          6           0       -1.422620   -1.806827    0.284011
     16          1           0       -0.703449   -2.616985    0.486240
     17          1           0       -2.307778   -1.966825    0.909108
     18          1           0       -1.750354   -1.884152   -0.755472
 ---------------------------------------------------------------------

 SCF Done:  E(RHF) =  -992.795319881     A.U. after    2 cycles

 The electronic state is 1-A.
 Alpha  occ. eigenvalues --  -99.72522 -29.01327 -20.94823 -20.94328 -15.84036
 Alpha  occ. eigenvalues --  -15.61509 -15.59068 -11.42894 -11.26423 -11.21644
 Alpha  occ. eigenvalues --  -10.29693  -9.49811  -9.49111  -9.49088  -1.84132
 Alpha  occ. eigenvalues --   -1.54217  -1.29413  -1.17770  -1.10976  -0.96845
 Alpha  occ. eigenvalues --   -0.94087  -0.76229  -0.66443  -0.61153  -0.56504
 Alpha  occ. eigenvalues --   -0.53256  -0.52371  -0.50440  -0.46848  -0.44237
 Alpha  occ. eigenvalues --   -0.42838  -0.40651  -0.39280  -0.37107  -0.35111
 Alpha  occ. eigenvalues --   -0.34429  -0.26579  -0.23974  -0.22168  -0.19185
 Alpha  occ. eigenvalues --   -0.16182  -0.15609  -0.07992  -0.07268  -0.03831
 Alpha virt. eigenvalues --    0.13452   0.14549   0.14626   0.15015   0.15989
 Alpha virt. eigenvalues --    0.16581   0.17941   0.18917   0.21097   0.22610
 Alpha virt. eigenvalues --    0.24256   0.24664   0.26210   0.26743   0.26872

 Mulliken charges:
               1
     1  C    3.378946
     2  C    1.718694
     3  Cl  -0.275083
     4  F    0.946490
     5  H    0.447032
     6  N   -3.482860
     7  H    0.517899
     8  H    0.609463
     9  N    3.888239
    10  O   -2.984769
    11  O   -2.812715
    12  N   -3.577953
    13  H    0.459634
    14  H    0.523489
    15  C   -3.810532
    16  H    1.157567
    17  H    1.062906
    18  H    1.233552
 Sum of Mulliken charges =  -1.00000

 Dipole moment (field-independent basis, Debye):
    X=             -2.5973    Y=              0.0185    Z=              0.0394  Tot=              2.5977

 Test job not archived.
 1\1\GINC-SE042\SP\RHF\Aug-CC-pVDZ\C3H8Cl1F1N3O2(1-)\OHZDE\09-Apr-2025\
 0\\#t hf aug-cc-pvdz iop(5/13=1,5/36=2,99/5=2) pseudo=read geom=check
 guess=(read,tcheck) scf=(maxcycle=1)\\title\\-1,1\C,0,-0.18050625,-0.0
 2188558,-0.28058972\C,0,-0.29349328,0.09237735,1.15165266\Cl,0,1.67196
 638,-0.18370679,-0.92170424\F,0,-2.65231214,-0.84236845,1.40979942\H,0
 ,-1.72819782,-0.2649727,1.32290998\N,0,-0.85104751,-1.11188297,-0.9283
 387\H,0,-1.66652589,-1.3306467,-0.36094947\H,0,-0.23289353,-1.90830498
 ,-0.97544873\N,0,-0.68273782,1.28660774,-0.92442969\O,0,0.08864836,2.1

 Normal termination of Gaussian 16 at Wed Apr  9 02:37:20 2025.
