 Gaussian 16, Revision C.01,

 ----------------------------------------------------------------------
 #t hf aug-cc-pvdz symm=none int=(grid=ultrafine) guess=(read,tcheck) s
 table=(opt,rrhf)
 ----------------------------------------------------------------------
 -----
 title
 -----
 Symbolic Z-matrix:
 Charge = -1 Multiplicity = 1

 SCF Done:  E(RHF) =  -740.493554510     A.U. after   16 cycles
 Normal termination of Gaussian 16 at Wed Apr  9 02:39:49 2025.
 Gaussian 16:  ES64L-G16RevC.01  3-Jul-2019

 ----------------------------------------------------------------------
 #t hf aug-cc-pvdz iop(5/13=1,5/36=2,99/5=2) pseudo=read geom=check gue
 ss=(read,tcheck) scf=(maxcycle=1)
 ----------------------------------------------------------------------
 -----
 title
 -----
 Structure from the checkpoint file:  "E2SN2_182_mol2.chk"
 Charge = -1 Multiplicity = 1

                         Standard orientation:
 ---------------------------------------------------------------------
 Center     Atomic      Atomic             Coordinates (Angstroms)
 Number     Number       Type             X           Y           Z
 ---------------------------------------------------------------------
      1          6           0       -0.273878    0.023313    0.345144
      2          6           0        1.039980    0.183865   -0.452467
      3         17           0       -1.064852   -1.553186   -0.032541
      4          1           0        0.803955    0.163227   -1.524959
      5          1           0        0.046030    0.003456    1.408622
      6          6           0       -1.231734    1.084310    0.077616
      7          7           0       -2.040629    1.909568   -0.138031
      8          7           0        2.017719   -0.852397   -0.162973
      9          1           0        2.153937   -0.806648    0.853968
     10          1           0        1.631512   -1.764220   -0.386387
     11          7           0        1.527227    1.495192   -0.068325
     12          1           0        1.713112    1.412215    0.940134
     13          1           0        2.430688    1.610909   -0.517478
     14          1           0        1.586830    0.169739    2.542839
 ---------------------------------------------------------------------

 SCF Done:  E(RHF) =  -742.082588247     A.U. after    2 cycles

 The electronic state is 1-A.
 Alpha  occ. eigenvalues --  -99.77584 -15.64300 -15.59358 -15.59170 -11.37416
 Alpha  occ. eigenvalues --  -11.32964 -11.29860 -10.34928  -9.54893  -9.54222
 Alpha  occ. eigenvalues --   -9.54019  -1.32405  -1.20993  -1.16114  -1.09959
 Alpha  occ. eigenvalues --   -0.95523  -0.76022  -0.62911  -0.56721  -0.53487
 Alpha  occ. eigenvalues --   -0.50449  -0.45778  -0.43786  -0.41017  -0.37946
 Alpha  occ. eigenvalues --   -0.37169  -0.36564  -0.31917  -0.31097  -0.24060
 Alpha  occ. eigenvalues --   -0.22991  -0.11727
 Alpha virt. eigenvalues --    0.13962   0.14653   0.15101   0.16599   0.17755
 Alpha virt. eigenvalues --    0.18916   0.19284   0.20870   0.21650   0.22512
 Alpha virt. eigenvalues --    0.22934   0.24393   0.24636   0.25818   0.26668

 Mulliken charges:
               1
     1  C   -2.097829
     2  C    1.406930
     3  Cl  -0.069203
     4  H    1.719825
     5  H    2.059177
     6  C    2.519271
     7  N   -2.544341
     8  N   -2.612026
     9  H    0.697219
    10  H    0.503450
    11  N   -2.575549
    12  H    0.712959
    13  H    0.482480
    14  H   -1.202362
 Sum of Mulliken charges =  -1.00000

 Dipole moment (field-independent basis, Debye):
    X=             -2.0567    Y=             -2.1023    Z=             -7.4021  Tot=              7.9650

 Test job not archived.
 1\1\GINC-SE273\SP\RHF\Aug-CC-pVDZ\C3H7Cl1N3(1-)\OHZDE\09-Apr-2025\0\\#
 t hf aug-cc-pvdz iop(5/13=1,5/36=2,99/5=2) pseudo=read geom=check gues
 s=(read,tcheck) scf=(maxcycle=1)\\title\\-1,1\C,0,-0.346218,-0.159068,
 0.097207\C,0,-0.530034,-0.243392,-1.434878\Cl,0,0.731967,1.217889,0.53
 8954\H,0,0.452092,-0.410688,-1.897279\H,0,-1.36268,0.058554,0.488573\C
 ,0,0.215568,-1.373086,0.667583\N,0,0.696132,-2.327557,1.157389\N,0,-1.
 12569,0.952389,-2.008394\H,0,-2.010507,1.072894,-1.501054\H,0,-0.54026
 5,1.758251,-1.812547\N,0,-1.380866,-1.403037,-1.624249\H,0,-2.262555,-

 Normal termination of Gaussian 16 at Wed Apr  9 02:39:55 2025.
