 Gaussian 16, Revision C.01,

 ----------------------------------------------------------------------
 #t hf aug-cc-pvdz symm=none int=(grid=ultrafine) guess=(read,tcheck) s
 table=(opt,rrhf)
 ----------------------------------------------------------------------
 -----
 title
 -----
 Symbolic Z-matrix:
 Charge = -1 Multiplicity = 1

 SCF Done:  E(RHF) =  -1083.64257659     A.U. after   16 cycles
 Normal termination of Gaussian 16 at Wed Apr  9 02:54:00 2025.
 Gaussian 16:  ES64L-G16RevC.01  3-Jul-2019

 ----------------------------------------------------------------------
 #t hf aug-cc-pvdz iop(5/13=1,5/36=2,99/5=2) pseudo=read geom=check gue
 ss=(read,tcheck) scf=(maxcycle=1)
 ----------------------------------------------------------------------
 -----
 title
 -----
 Structure from the checkpoint file:  "E2SN2_323_mol1.chk"
 Charge = -1 Multiplicity = 1

                         Standard orientation:
 ---------------------------------------------------------------------
 Center     Atomic      Atomic             Coordinates (Angstroms)
 Number     Number       Type             X           Y           Z
 ---------------------------------------------------------------------
      1          6           0       -1.163474   -0.069326    0.417269
      2          1           0        0.470233   -0.956332    1.377814
      3         17           0       -1.096045    1.694981   -0.935098
      4          9           0       -1.357901   -1.347982    1.870457
      5          6           0        0.315427   -0.359152    0.483958
      6          1           0       -1.508728    0.590264    1.187947
      7          6           0       -2.096270   -0.928249   -0.400374
      8          1           0       -2.071322   -0.676134   -1.456366
      9          1           0       -1.835947   -1.974352   -0.252507
     10          1           0       -3.102635   -0.783487   -0.008567
     11          7           0        1.177154    0.861053    0.650009
     12          8           0        2.101951    1.046929   -0.130485
     13          8           0        0.905690    1.540788    1.630335
     14          7           0        0.887469   -1.155021   -0.644387
     15          8           0        1.823935   -1.891700   -0.328148
     16          8           0        0.432901   -1.031600   -1.775482
 ---------------------------------------------------------------------

 SCF Done:  E(RHF) =  -1086.50942380     A.U. after    2 cycles

 The electronic state is 1-A.
 Alpha  occ. eigenvalues --  -99.67478 -28.96204 -20.99933 -20.99597 -20.99344
 Alpha  occ. eigenvalues --  -20.99133 -15.89790 -15.89501 -11.46056 -11.38157
 Alpha  occ. eigenvalues --  -11.26907 -10.24539  -9.44640  -9.44248  -9.44038
 Alpha  occ. eigenvalues --   -1.90647  -1.87288  -1.59280  -1.58792  -1.21476
 Alpha  occ. eigenvalues --   -1.07874  -1.01123  -0.89488  -0.82663  -0.70001
 Alpha  occ. eigenvalues --   -0.64003  -0.62908  -0.58628  -0.53117  -0.52480
 Alpha  occ. eigenvalues --   -0.50097  -0.49531  -0.46970  -0.43050  -0.41224
 Alpha  occ. eigenvalues --   -0.35904  -0.33067  -0.31000  -0.30497  -0.27407
 Alpha  occ. eigenvalues --   -0.23900  -0.22538  -0.20976  -0.20248  -0.19097
 Alpha  occ. eigenvalues --   -0.05986  -0.04084  -0.03234
 Alpha virt. eigenvalues --    0.14120   0.15481   0.15688   0.16457   0.16829
 Alpha virt. eigenvalues --    0.20484   0.21587   0.22286   0.23405   0.24195
 Alpha virt. eigenvalues --    0.25021   0.25466   0.25798   0.26428   0.27139

 Mulliken charges:
               1
     1  C    1.019955
     2  H    1.822006
     3  Cl  -0.808367
     4  F   -0.528211
     5  C   -0.937046
     6  H    1.447414
     7  C   -3.918634
     8  H    1.371034
     9  H    1.153207
    10  H    1.046085
    11  N    4.958812
    12  O   -2.961299
    13  O   -3.145218
    14  N    4.209450
    15  O   -2.786312
    16  O   -2.942876
 Sum of Mulliken charges =  -1.00000

 Dipole moment (field-independent basis, Debye):
    X=              1.4084    Y=             -3.5972    Z=              1.7926  Tot=              4.2587

 Test job not archived.
 1\1\GINC-SE129\SP\RHF\Aug-CC-pVDZ\C3H5Cl1F1N2O4(1-)\OHZDE\09-Apr-2025\
 0\\#t hf aug-cc-pvdz iop(5/13=1,5/36=2,99/5=2) pseudo=read geom=check
 guess=(read,tcheck) scf=(maxcycle=1)\\title\\-1,1\C,0,0.6077524,-0.085
 69449,-0.05235437\H,0,1.67213368,1.70655009,0.13033204\Cl,0,-1.5325024
 9,-0.40356886,0.46193046\F,0,2.54835925,0.0064679,-0.15270042\C,0,0.63
 179753,1.42158232,0.00359978\H,0,0.85529144,-0.55567496,0.87826197\C,0
 ,0.62184778,-0.82331605,-1.36845256\H,0,-0.35967792,-0.86118753,-1.831
 5685\H,0,1.3387209,-0.3469277,-2.0341181\H,0,0.97877824,-1.83416732,-1

 Normal termination of Gaussian 16 at Wed Apr  9 02:54:09 2025.
