 Gaussian 16, Revision C.01,

 ----------------------------------------------------------------------
 #t hf aug-cc-pvdz symm=none int=(grid=ultrafine) guess=(read,tcheck) s
 table=(opt,rrhf)
 ----------------------------------------------------------------------
 -----
 title
 -----
 Symbolic Z-matrix:
 Charge = -1 Multiplicity = 1

 SCF Done:  E(RHF) =  -724.472698322     A.U. after   15 cycles
 Normal termination of Gaussian 16 at Wed Apr  9 02:34:51 2025.
 Gaussian 16:  ES64L-G16RevC.01  3-Jul-2019

 ----------------------------------------------------------------------
 #t hf aug-cc-pvdz iop(5/13=1,5/36=2,99/5=2) pseudo=read geom=check gue
 ss=(read,tcheck) scf=(maxcycle=1)
 ----------------------------------------------------------------------
 -----
 title
 -----
 Structure from the checkpoint file:  "E2SN2_124_mol2.chk"
 Charge = -1 Multiplicity = 1

                         Standard orientation:
 ---------------------------------------------------------------------
 Center     Atomic      Atomic             Coordinates (Angstroms)
 Number     Number       Type             X           Y           Z
 ---------------------------------------------------------------------
      1          6           0        0.197041   -0.152682    0.243686
      2          6           0       -1.017638   -0.802256   -0.412082
      3         17           0        0.357668    1.592042   -0.419198
      4          1           0       -0.940543   -0.707645   -1.496986
      5          1           0       -0.963084   -1.873771   -0.193695
      6          7           0        0.113257   -0.173845    1.658143
      7          1           0       -0.779693    0.200458    1.951499
      8          1           0        0.867460    0.345650    2.088622
      9          6           0        1.452430   -0.794518   -0.169174
     10          7           0        2.452230   -1.324995   -0.483401
     11          6           0       -2.364487   -0.266530    0.042499
     12          1           0       -2.589773   -0.531287    1.081646
     13          1           0       -3.100530   -0.771478   -0.617400
     14          1           0       -2.437009    0.817117   -0.087293
     15          1           0       -3.699668   -1.955965   -2.052797
 ---------------------------------------------------------------------

 SCF Done:  E(RHF) =  -726.013701551     A.U. after    2 cycles

 The electronic state is 1-A.
 Alpha  occ. eigenvalues --  -99.78692 -15.68223 -15.68152 -11.44460 -11.35746
 Alpha  occ. eigenvalues --  -11.30520 -11.23797 -10.35998  -9.55977  -9.55323
 Alpha  occ. eigenvalues --   -9.55192  -1.36480  -1.19896  -1.17900  -1.05700
 Alpha  occ. eigenvalues --   -0.91900  -0.76325  -0.65425  -0.59757  -0.57307
 Alpha  occ. eigenvalues --   -0.50339  -0.47247  -0.45471  -0.42336  -0.41344
 Alpha  occ. eigenvalues --   -0.37826  -0.36900  -0.36576  -0.34502  -0.32170
 Alpha  occ. eigenvalues --   -0.30671  -0.08513
 Alpha virt. eigenvalues --    0.11524   0.13651   0.14326   0.15409   0.16448
 Alpha virt. eigenvalues --    0.16841   0.17371   0.19019   0.19100   0.20885
 Alpha virt. eigenvalues --    0.21217   0.22327   0.23293   0.23646   0.24647

 Mulliken charges:
               1
     1  C    2.339702
     2  C   -2.895061
     3  Cl  -0.053368
     4  H    1.455193
     5  H    1.428311
     6  N   -3.250436
     7  H    0.628032
     8  H    0.679290
     9  C    2.099605
    10  N   -2.572389
    11  C   -3.440291
    12  H    1.278877
    13  H    1.037047
    14  H    1.258033
    15  H   -0.992546
 Sum of Mulliken charges =  -1.00000

 Dipole moment (field-independent basis, Debye):
    X=             11.9435    Y=              7.9280    Z=             10.4812  Tot=             17.7583

 Test job not archived.
 1\1\GINC-SE116\SP\RHF\Aug-CC-pVDZ\C4H8Cl1N2(1-)\OHZDE\09-Apr-2025\0\\#
 t hf aug-cc-pvdz iop(5/13=1,5/36=2,99/5=2) pseudo=read geom=check gues
 s=(read,tcheck) scf=(maxcycle=1)\\title\\-1,1\C,0,-0.681969,0.101786,-
 1.574686\C,0,0.165797,-0.008953,-0.311179\Cl,0,-0.151734,-1.251594,-2.
 756419\H,0,1.223462,-0.02098,-0.58157\H,0,0.006711,0.910738,0.261248\N
 ,0,-2.069238,0.041346,-1.291863\H,0,-2.264317,-0.76884,-0.718223\H,0,-
 2.625644,0.012583,-2.136608\C,0,-0.400355,1.337352,-2.317975\N,0,-0.18
 9343,2.337161,-2.897286\C,0,-0.138696,-1.207163,0.571559\H,0,-1.121374

 Normal termination of Gaussian 16 at Wed Apr  9 02:34:56 2025.
