 Gaussian 16, Revision C.01,

 ----------------------------------------------------------------------
 #t hf aug-cc-pvdz symm=none int=(grid=ultrafine) guess=(read,tcheck) s
 table=(opt,rrhf)
 ----------------------------------------------------------------------
 -----
 title
 -----
 Symbolic Z-matrix:
 Charge = -1 Multiplicity = 1

 SCF Done:  E(RHF) =  -1386.98972482     A.U. after   17 cycles
 Normal termination of Gaussian 16 at Wed Apr  9 02:45:30 2025.
 Gaussian 16:  ES64L-G16RevC.01  3-Jul-2019

 ----------------------------------------------------------------------
 #t hf aug-cc-pvdz iop(5/13=1,5/36=2,99/5=2) pseudo=read geom=check gue
 ss=(read,tcheck) scf=(maxcycle=1)
 ----------------------------------------------------------------------
 -----
 title
 -----
 Structure from the checkpoint file:  "E2SN2_233_mol1.chk"
 Charge = -1 Multiplicity = 1

                         Standard orientation:
 ---------------------------------------------------------------------
 Center     Atomic      Atomic             Coordinates (Angstroms)
 Number     Number       Type             X           Y           Z
 ---------------------------------------------------------------------
      1          6           0        0.324866   -0.069159    0.327267
      2          1           0        0.116791    1.399578   -1.172939
      3         17           0       -1.693910   -1.419654    0.678258
      4         17           0        2.360492    0.824518   -0.177417
      5          6           0       -0.375119    1.182368   -0.220417
      6          7           0        0.604975   -1.138344   -0.679460
      7          8           0        0.206486   -0.925724   -1.819842
      8          8           0        1.241279   -2.114513   -0.312054
      9          6           0        0.605783   -0.288091    1.789703
     10          1           0        1.449323    0.308640    2.128616
     11          1           0       -0.277936   -0.024298    2.362226
     12          1           0        0.825110   -1.342625    1.939756
     13          7           0       -0.220419    2.257132    0.766686
     14          1           0       -0.767855    3.052006    0.457679
     15          1           0        0.758591    2.522777    0.757396
     16          6           0       -1.802970    1.090228   -0.553115
     17          7           0       -2.889328    1.314219   -0.943297
 ---------------------------------------------------------------------

 SCF Done:  E(RHF) =  -1389.61314739     A.U. after    2 cycles

 The electronic state is 1-A.
 Alpha  occ. eigenvalues --  -99.70969 -99.66090 -20.97444 -20.97212 -15.88714
 Alpha  occ. eigenvalues --  -15.64953 -15.64059 -11.49594 -11.39867 -11.32885
 Alpha  occ. eigenvalues --  -11.28322 -10.28043 -10.23147  -9.48150  -9.47710
 Alpha  occ. eigenvalues --   -9.47653  -9.43210  -9.42855  -9.42764  -1.87715
 Alpha  occ. eigenvalues --   -1.57492  -1.31060  -1.16019  -1.14945  -1.07123
 Alpha  occ. eigenvalues --   -1.02640  -0.94897  -0.91236  -0.70739  -0.62785
 Alpha  occ. eigenvalues --   -0.61790  -0.57416  -0.52737  -0.51858  -0.49733
 Alpha  occ. eigenvalues --   -0.49128  -0.45304  -0.42612  -0.40062  -0.35382
 Alpha  occ. eigenvalues --   -0.35075  -0.34537  -0.33728  -0.31962  -0.30203
 Alpha  occ. eigenvalues --   -0.29507  -0.28196  -0.27281  -0.23706  -0.19364
 Alpha  occ. eigenvalues --   -0.18925
 Alpha virt. eigenvalues --    0.12805   0.14162   0.14843   0.15559   0.15684
 Alpha virt. eigenvalues --    0.16367   0.16682   0.19062   0.20071   0.21296
 Alpha virt. eigenvalues --    0.22259   0.23356   0.23703   0.24528   0.25502

 Mulliken charges:
               1
     1  C    4.257087
     2  H    1.762326
     3  Cl  -0.747018
     4  Cl  -0.703757
     5  C   -0.872376
     6  N    4.551355
     7  O   -3.055787
     8  O   -3.281535
     9  C   -5.155011
    10  H    1.185644
    11  H    1.263379
    12  H    1.279658
    13  N   -2.936868
    14  H    0.720483
    15  H    0.551069
    16  C    3.044634
    17  N   -2.863283
 Sum of Mulliken charges =  -1.00000

 Dipole moment (field-independent basis, Debye):
    X=              2.6800    Y=              2.7132    Z=              0.7810  Tot=              3.8928

 Test job not archived.
 1\1\GINC-SE454\SP\RHF\Aug-CC-pVDZ\C4H6Cl2N3O2(1-)\OHZDE\09-Apr-2025\0\
 \#t hf aug-cc-pvdz iop(5/13=1,5/36=2,99/5=2) pseudo=read geom=check gu
 ess=(read,tcheck) scf=(maxcycle=1)\\title\\-1,1\C,0,0.62544507,-0.0793
 2762,0.04294019\H,0,1.53686864,1.65444667,-0.74092037\Cl,0,-1.69173076
 ,-0.40175265,-0.69815863\Cl,0,2.86462708,-0.11411016,0.46954227\C,0,0.
 66546896,1.44720699,-0.11309259\N,0,0.90542866,-0.85777662,-1.20234846
 \O,0,1.08943099,-0.2005908,-2.22152575\O,0,0.9751007,-2.07412172,-1.11
 055692\C,0,0.21099552,-0.77157301,1.3136064\H,0,0.99725503,-0.73466354

 Normal termination of Gaussian 16 at Wed Apr  9 02:45:41 2025.
