 Gaussian 16, Revision C.01,

 ----------------------------------------------------------------------
 #t hf aug-cc-pvdz symm=none int=(grid=ultrafine) guess=(read,tcheck) s
 table=(opt,rrhf)
 ----------------------------------------------------------------------
 -----
 title
 -----
 Symbolic Z-matrix:
 Charge = -1 Multiplicity = 1

 SCF Done:  E(RHF) =  -984.675546817     A.U. after   17 cycles
 Normal termination of Gaussian 16 at Wed Apr  9 02:35:23 2025.
 Gaussian 16:  ES64L-G16RevC.01  3-Jul-2019

 ----------------------------------------------------------------------
 #t hf aug-cc-pvdz iop(5/13=1,5/36=2,99/5=2) pseudo=read geom=check gue
 ss=(read,tcheck) scf=(maxcycle=1)
 ----------------------------------------------------------------------
 -----
 title
 -----
 Structure from the checkpoint file:  "E2SN2_127_mol2.chk"
 Charge = -1 Multiplicity = 1

                         Standard orientation:
 ---------------------------------------------------------------------
 Center     Atomic      Atomic             Coordinates (Angstroms)
 Number     Number       Type             X           Y           Z
 ---------------------------------------------------------------------
      1          6           0       -0.026755   -0.201189    0.022209
      2          6           0       -0.864857   -0.947878   -0.950242
      3         17           0       -0.324250   -0.654511    1.689392
      4          1           0       -0.811439   -2.033273   -0.765525
      5          1           0       -0.459602   -0.758105   -1.947568
      6          7           0        1.477662   -0.364864   -0.230645
      7          8           0        1.828972   -1.170843   -1.080512
      8          8           0        2.211259    0.334965    0.460090
      9          7           0       -0.231777    1.311564   -0.150751
     10          8           0       -0.960154    1.910761    0.629040
     11          8           0        0.280289    1.774303   -1.168642
     12          6           0       -2.337043   -0.573661   -0.872431
     13          1           0       -2.550607    0.420694   -1.278017
     14          1           0       -2.886416   -1.329529   -1.438359
     15          1           0       -2.701702   -0.620299    0.155320
     16          1           0       -1.310168   -3.636814   -0.692770
 ---------------------------------------------------------------------

 SCF Done:  E(RHF) =  -987.239497256     A.U. after    2 cycles

 The electronic state is 1-A.
 Alpha  occ. eigenvalues --  -99.81792 -21.02528 -21.01999 -21.01709 -21.00928
 Alpha  occ. eigenvalues --  -15.91616 -15.91250 -11.48989 -11.30741 -11.25728
 Alpha  occ. eigenvalues --  -10.39290  -9.59457  -9.58432  -9.58337  -1.92691
 Alpha  occ. eigenvalues --   -1.89377  -1.61874  -1.60879  -1.31964  -1.13813
 Alpha  occ. eigenvalues --   -1.03107  -0.91754  -0.82150  -0.70050  -0.66103
 Alpha  occ. eigenvalues --   -0.64982  -0.60162  -0.56629  -0.52680  -0.51850
 Alpha  occ. eigenvalues --   -0.49220  -0.48150  -0.44804  -0.43115  -0.39908
 Alpha  occ. eigenvalues --   -0.39120  -0.37797  -0.29106  -0.26230  -0.24295
 Alpha  occ. eigenvalues --   -0.23626  -0.22349  -0.21518  -0.09455
 Alpha virt. eigenvalues --    0.13717   0.14317   0.15610   0.15852   0.17053
 Alpha virt. eigenvalues --    0.18903   0.19874   0.20821   0.21836   0.22833
 Alpha virt. eigenvalues --    0.23240   0.23952   0.24257   0.25049   0.25577

 Mulliken charges:
               1
     1  C    1.242959
     2  C   -1.779018
     3  Cl   0.288621
     4  H    1.657273
     5  H    1.529786
     6  N    4.140177
     7  O   -2.710002
     8  O   -3.130412
     9  N    4.878626
    10  O   -3.047626
    11  O   -3.091874
    12  C   -3.680081
    13  H    1.273021
    14  H    1.100111
    15  H    1.270346
    16  H   -0.941906
 Sum of Mulliken charges =  -1.00000

 Dipole moment (field-independent basis, Debye):
    X=              3.6101    Y=             12.7153    Z=              1.5103  Tot=             13.3039

 Test job not archived.
 1\1\GINC-SE366\SP\RHF\Aug-CC-pVDZ\C3H6Cl1N2O4(1-)\OHZDE\09-Apr-2025\0\
 \#t hf aug-cc-pvdz iop(5/13=1,5/36=2,99/5=2) pseudo=read geom=check gu
 ess=(read,tcheck) scf=(maxcycle=1)\\title\\-1,1\C,0,-0.518733,0.101819
 ,-1.427743\C,0,0.019556,-0.031347,-0.050016\Cl,0,0.17416,1.44317,-2.31
 8911\H,0,1.121773,-0.01885,-0.054075\H,0,-0.302392,-1.001825,0.336542\
 N,0,-0.315843,-1.159802,-2.276946\O,0,0.364379,-2.060672,-1.806813\O,0
 ,-0.857825,-1.151717,-3.377505\N,0,-2.048707,0.236454,-1.390025\O,0,-2
 .556387,1.342724,-1.516809\O,0,-2.637293,-0.804943,-1.104545\C,0,-0.41

 Normal termination of Gaussian 16 at Wed Apr  9 02:35:30 2025.
