 Gaussian 16, Revision C.01,

 ----------------------------------------------------------------------
 #t hf aug-cc-pvdz symm=none int=(grid=ultrafine) guess=(read,tcheck) s
 table=(opt,rrhf)
 ----------------------------------------------------------------------
 -----
 title
 -----
 Symbolic Z-matrix:
 Charge = -1 Multiplicity = 1

 SCF Done:  E(RHF) =  -987.977089058     A.U. after   16 cycles
 Normal termination of Gaussian 16 at Wed Apr  9 02:42:06 2025.
 Gaussian 16:  ES64L-G16RevC.01  3-Jul-2019

 ----------------------------------------------------------------------
 #t hf aug-cc-pvdz iop(5/13=1,5/36=2,99/5=2) pseudo=read geom=check gue
 ss=(read,tcheck) scf=(maxcycle=1)
 ----------------------------------------------------------------------
 -----
 title
 -----
 Structure from the checkpoint file:  "E2SN2_203_mol2.chk"
 Charge = -1 Multiplicity = 1

                         Standard orientation:
 ---------------------------------------------------------------------
 Center     Atomic      Atomic             Coordinates (Angstroms)
 Number     Number       Type             X           Y           Z
 ---------------------------------------------------------------------
      1          6           0       -0.039207    0.821151   -0.951313
      2          6           0        0.293925   -0.082596    0.228096
      3          9           0        1.124733    1.473246   -1.358283
      4          1           0       -0.649420   -0.597056    0.503063
      5          1           0       -0.339532    0.190403   -1.792279
      6          7           0       -0.993610    1.789119   -0.520608
      7          1           0       -1.327497    2.297186   -1.331435
      8          1           0       -1.789650    1.272691   -0.136867
      9          6           0        0.839477    0.663882    1.352940
     10          7           0        1.262453    1.266643    2.266741
     11          7           0        1.266717   -1.151617   -0.195048
     12          8           0        1.038790   -1.698572   -1.269209
     13          8           0        2.186573   -1.437199    0.565949
     14         17           0       -2.890206   -0.769406    0.351307
 ---------------------------------------------------------------------

 SCF Done:  E(RHF) =  -990.435930123     A.U. after    2 cycles

 The electronic state is 1-A.
 Alpha  occ. eigenvalues --  -99.63681 -29.16020 -21.00486 -21.00183 -15.90242
 Alpha  occ. eigenvalues --  -15.66771 -15.63102 -11.43314 -11.38596 -11.33875
 Alpha  occ. eigenvalues --  -10.20393  -9.40436  -9.40122  -9.39942  -1.90007
 Alpha  occ. eigenvalues --   -1.59758  -1.31889  -1.20268  -1.11640  -0.99789
 Alpha  occ. eigenvalues --   -0.93667  -0.81514  -0.69073  -0.63561  -0.61483
 Alpha  occ. eigenvalues --   -0.56705  -0.52852  -0.50877  -0.49385  -0.46482
 Alpha  occ. eigenvalues --   -0.41462  -0.35180  -0.33949  -0.29339  -0.28184
 Alpha  occ. eigenvalues --   -0.27983  -0.27146  -0.26690  -0.24237  -0.22170
 Alpha  occ. eigenvalues --   -0.21410  -0.16594  -0.16168
 Alpha virt. eigenvalues --    0.13361   0.15299   0.17375   0.17648   0.19898
 Alpha virt. eigenvalues --    0.21165   0.21770   0.22019   0.22458   0.23940
 Alpha virt. eigenvalues --    0.24302   0.25063   0.25828   0.26911   0.27653

 Mulliken charges:
               1
     1  C    0.544662
     2  C   -1.668344
     3  F    0.307698
     4  H    1.649602
     5  H    1.825678
     6  N   -2.687753
     7  H    0.517896
     8  H    0.575583
     9  C    2.835736
    10  N   -2.660980
    11  N    4.602783
    12  O   -3.083093
    13  O   -2.834167
    14  Cl  -0.925299
 Sum of Mulliken charges =  -1.00000

 Dipole moment (field-independent basis, Debye):
    X=              7.9505    Y=              2.7632    Z=             -4.5901  Tot=              9.5872

 Test job not archived.
 1\1\GINC-SE109\SP\RHF\Aug-CC-pVDZ\C3H4Cl1F1N3O2(1-)\OHZDE\09-Apr-2025\
 0\\#t hf aug-cc-pvdz iop(5/13=1,5/36=2,99/5=2) pseudo=read geom=check
 guess=(read,tcheck) scf=(maxcycle=1)\\title\\-1,1\C,0,0.029238,0.00330
 8,0.003019\C,0,-0.509216,0.084311,-1.419039\F,0,1.422707,-0.032924,-0.
 047392\H,0,-1.613762,0.13496,-1.331934\H,0,-0.228331,0.931348,0.520379
 \N,0,-0.450566,-1.20067,0.597643\H,0,-0.218896,-1.18885,1.584174\H,0,-
 1.471383,-1.182742,0.525208\C,0,-0.091532,-1.051866,-2.228219\N,0,0.22
 9486,-1.976087,-2.876313\N,0,-0.063587,1.366678,-2.071058\O,0,-0.14504

 Normal termination of Gaussian 16 at Wed Apr  9 02:42:13 2025.
