 Gaussian 16, Revision C.01,

 ----------------------------------------------------------------------
 #t hf aug-cc-pvdz symm=none int=(grid=ultrafine) guess=(read,tcheck) s
 table=(opt,rrhf)
 ----------------------------------------------------------------------
 -----
 title
 -----
 Symbolic Z-matrix:
 Charge = -1 Multiplicity = 1

 SCF Done:  E(RHF) =  -935.213128319     A.U. after   16 cycles
 Normal termination of Gaussian 16 at Wed Apr  9 02:36:20 2025.
 Gaussian 16:  ES64L-G16RevC.01  3-Jul-2019

 ----------------------------------------------------------------------
 #t hf aug-cc-pvdz iop(5/13=1,5/36=2,99/5=2) pseudo=read geom=check gue
 ss=(read,tcheck) scf=(maxcycle=1)
 ----------------------------------------------------------------------
 -----
 title
 -----
 Structure from the checkpoint file:  "E2SN2_134_mol2.chk"
 Charge = -1 Multiplicity = 1

                         Standard orientation:
 ---------------------------------------------------------------------
 Center     Atomic      Atomic             Coordinates (Angstroms)
 Number     Number       Type             X           Y           Z
 ---------------------------------------------------------------------
      1          6           0       -0.083128    0.206884   -0.179722
      2          6           0       -0.486055   -0.188727    1.239132
      3         17           0       -0.235938   -1.214639   -1.260872
      4          1           0       -1.562930   -0.359917    1.145520
      5          1           0       -0.382379    0.730206    1.827946
      6          7           0       -0.801922    1.284068   -0.743613
      7          1           0       -0.567935    2.100314   -0.185691
      8          1           0       -1.833671    1.039769   -0.485983
      9          7           0        1.419043    0.582282   -0.114734
     10          8           0        1.644339    1.683800    0.387465
     11          8           0        2.287162   -0.211989   -0.458438
     12          6           0        0.300137   -1.324275    1.877340
     13          1           0        1.366299   -1.092422    1.965196
     14          1           0       -0.080936   -1.517895    2.884421
     15          1           0        0.205281   -2.244626    1.299043
     16          9           0       -3.032261    0.554579    0.215565
 ---------------------------------------------------------------------

 SCF Done:  E(RHF) =  -937.521645338     A.U. after    2 cycles

 The electronic state is 1-A.
 Alpha  occ. eigenvalues --  -99.75083 -28.90851 -20.97787 -20.97138 -15.86086
 Alpha  occ. eigenvalues --  -15.56750 -11.40421 -11.28693 -11.24031 -10.32584
 Alpha  occ. eigenvalues --   -9.52664  -9.51774  -9.51718  -1.86776  -1.56869
 Alpha  occ. eigenvalues --   -1.29861  -1.13449  -1.04504  -0.94347  -0.81072
 Alpha  occ. eigenvalues --   -0.66973  -0.61383  -0.57266  -0.52653  -0.50622
 Alpha  occ. eigenvalues --   -0.48604  -0.45538  -0.44132  -0.41670  -0.38678
 Alpha  occ. eigenvalues --   -0.38413  -0.35445  -0.34859  -0.27971  -0.24545
 Alpha  occ. eigenvalues --   -0.19992  -0.19554  -0.18591   0.00166   0.00727
 Alpha  occ. eigenvalues --    0.02693
 Alpha virt. eigenvalues --    0.12936   0.14693   0.15145   0.15580   0.16633
 Alpha virt. eigenvalues --    0.18907   0.19314   0.20796   0.22786   0.23100
 Alpha virt. eigenvalues --    0.23544   0.24728   0.25536   0.26145   0.26918

 Mulliken charges:
               1
     1  C    5.023241
     2  C   -2.670272
     3  Cl  -0.132569
     4  H    0.882896
     5  H    1.601612
     6  N   -4.148706
     7  H    0.399275
     8  H    0.156117
     9  N    4.095515
    10  O   -2.859925
    11  O   -2.897482
    12  C   -3.651226
    13  H    1.314310
    14  H    1.115904
    15  H    1.234372
    16  F   -0.463061
 Sum of Mulliken charges =  -1.00000

 Dipole moment (field-independent basis, Debye):
    X=              5.5490    Y=             -1.3628    Z=              1.8470  Tot=              6.0050

 Test job not archived.
 1\1\GINC-SE023\SP\RHF\Aug-CC-pVDZ\C3H7Cl1F1N2O2(1-)\OHZDE\09-Apr-2025\
 0\\#t hf aug-cc-pvdz iop(5/13=1,5/36=2,99/5=2) pseudo=read geom=check
 guess=(read,tcheck) scf=(maxcycle=1)\\title\\-1,1\C,0,0.034153,-0.0434
 06,-1.493319\C,0,0.108629,0.059756,0.028461\Cl,0,0.220295,1.588508,-2.
 211075\H,0,1.15537,0.328388,0.201374\H,0,0.004558,-0.971337,0.3861\N,0
 ,0.970464,-0.912564,-2.095687\H,0,0.733101,-1.84686,-1.774698\H,0,1.89
 7444,-0.65351,-1.581721\N,0,-1.39719,-0.536552,-1.824572\O,0,-1.581476
 ,-1.735377,-1.612062\O,0,-2.271954,0.245793,-2.178626\C,0,-0.914496,0.

 Normal termination of Gaussian 16 at Wed Apr  9 02:36:28 2025.
