 Gaussian 16, Revision C.01,

 ----------------------------------------------------------------------
 #t hf aug-cc-pvdz symm=none int=(grid=ultrafine) guess=(read,tcheck) s
 table=(opt,rrhf)
 ----------------------------------------------------------------------
 -----
 title
 -----
 Symbolic Z-matrix:
 Charge = -1 Multiplicity = 1

 SCF Done:  E(RHF) =  -891.283369034     A.U. after   18 cycles
 Normal termination of Gaussian 16 at Wed Apr  9 03:00:54 2025.
 Gaussian 16:  ES64L-G16RevC.01  3-Jul-2019

 ----------------------------------------------------------------------
 #t hf aug-cc-pvdz iop(5/13=1,5/36=2,99/5=2) pseudo=read geom=check gue
 ss=(read,tcheck) scf=(maxcycle=1)
 ----------------------------------------------------------------------
 -----
 title
 -----
 Structure from the checkpoint file:  "E2SN2_49_mol2.chk"
 Charge = -1 Multiplicity = 1

                         Standard orientation:
 ---------------------------------------------------------------------
 Center     Atomic      Atomic             Coordinates (Angstroms)
 Number     Number       Type             X           Y           Z
 ---------------------------------------------------------------------
      1          6           0       -0.116385    0.193984    0.282471
      2          6           0        1.218350   -0.209186   -0.320201
      3         17           0       -0.718589    1.782994   -0.498240
      4          1           0        1.116804   -0.177092   -1.410385
      5          7           0       -1.193529   -0.802178   -0.142538
      6          8           0       -1.234743   -1.098505   -1.323910
      7          8           0       -1.972334   -1.189356    0.725726
      8          7           0       -0.098191    0.262787    1.679883
      9          1           0        0.527179    0.996185    1.982113
     10          1           0       -1.024622    0.386355    2.064278
     11          7           0        1.435768   -1.597415    0.035989
     12          1           0        2.230013   -1.888507   -0.595668
     13          1           0        1.793348   -1.626978    0.987006
     14          6           0        2.352740    0.729073    0.087247
     15          1           0        3.235267    0.355001   -0.438693
     16          1           0        2.168671    1.774881   -0.179702
     17          1           0        2.550257    0.655488    1.163349
     18          1           0        3.539144   -1.808924   -1.627188
 ---------------------------------------------------------------------

 SCF Done:  E(RHF) =  -893.529163562     A.U. after    2 cycles

 The electronic state is 1-A.
 Alpha  occ. eigenvalues --  -99.78701 -20.99220 -20.98965 -15.88815 -15.67279
 Alpha  occ. eigenvalues --  -15.56946 -11.45142 -11.31986 -11.25524 -10.36010
 Alpha  occ. eigenvalues --   -9.56124  -9.55348  -9.55241  -1.88903  -1.58990
 Alpha  occ. eigenvalues --   -1.35581  -1.19936  -1.18259  -1.00429  -0.96247
 Alpha  occ. eigenvalues --   -0.80098  -0.68555  -0.65250  -0.61809  -0.56791
 Alpha  occ. eigenvalues --   -0.53617  -0.51717  -0.48614  -0.46979  -0.43864
 Alpha  occ. eigenvalues --   -0.43376  -0.41809  -0.40366  -0.35862  -0.34218
 Alpha  occ. eigenvalues --   -0.30402  -0.25286  -0.22403  -0.20707  -0.20221
 Alpha  occ. eigenvalues --   -0.09756
 Alpha virt. eigenvalues --    0.11744   0.13408   0.14030   0.15192   0.15559
 Alpha virt. eigenvalues --    0.16803   0.17381   0.18486   0.19368   0.20803
 Alpha virt. eigenvalues --    0.22344   0.23224   0.23754   0.24095   0.24492

 Mulliken charges:
               1
     1  C    2.702007
     2  C    0.898307
     3  Cl  -0.104994
     4  H    2.054057
     5  N    4.468251
     6  O   -3.291814
     7  O   -2.825944
     8  N   -3.483416
     9  H    0.612374
    10  H    0.701779
    11  N   -2.934897
    12  H    0.681407
    13  H    0.522908
    14  C   -3.657186
    15  H    1.123841
    16  H    1.201727
    17  H    1.327089
    18  H   -0.995498
 Sum of Mulliken charges =  -1.00000

 Dipole moment (field-independent basis, Debye):
    X=            -10.3652    Y=              6.7456    Z=              7.8680  Tot=             14.6576

 Test job not archived.
 1\1\GINC-SE188\SP\RHF\Aug-CC-pVDZ\C3H9Cl1N3O2(1-)\OHZDE\09-Apr-2025\0\
 \#t hf aug-cc-pvdz iop(5/13=1,5/36=2,99/5=2) pseudo=read geom=check gu
 ess=(read,tcheck) scf=(maxcycle=1)\\title\\-1,1\C,0,-0.732316,0.08552,
 -1.489189\C,0,0.12702,0.086337,-0.236664\Cl,0,-0.179267,1.445872,-2.64
 7072\H,0,1.17635,0.10064,-0.550583\N,0,-0.444892,-1.171351,-2.308258\O
 ,0,0.726354,-1.453595,-2.491746\O,0,-1.412483,-1.774316,-2.767091\N,0,
 -2.104823,0.140656,-1.222716\H,0,-2.336294,1.018343,-0.779557\H,0,-2.6
 57763,-0.009303,-2.055227\N,0,-0.092222,-1.186362,0.421738\H,0,0.69041

 Normal termination of Gaussian 16 at Wed Apr  9 03:01:03 2025.
