 Gaussian 16, Revision C.01,

 ----------------------------------------------------------------------
 #t hf aug-cc-pvdz symm=none int=(grid=ultrafine) guess=(read,tcheck) s
 table=(opt,rrhf)
 ----------------------------------------------------------------------
 -----
 title
 -----
 Symbolic Z-matrix:
 Charge = -1 Multiplicity = 1

 SCF Done:  E(RHF) =  -836.217353794     A.U. after   17 cycles
 Normal termination of Gaussian 16 at Wed Apr  9 02:35:05 2025.
 Gaussian 16:  ES64L-G16RevC.01  3-Jul-2019

 ----------------------------------------------------------------------
 #t hf aug-cc-pvdz iop(5/13=1,5/36=2,99/5=2) pseudo=read geom=check gue
 ss=(read,tcheck) scf=(maxcycle=1)
 ----------------------------------------------------------------------
 -----
 title
 -----
 Structure from the checkpoint file:  "E2SN2_129_mol1.chk"
 Charge = -1 Multiplicity = 1

                         Standard orientation:
 ---------------------------------------------------------------------
 Center     Atomic      Atomic             Coordinates (Angstroms)
 Number     Number       Type             X           Y           Z
 ---------------------------------------------------------------------
      1          6           0        0.130753   -0.133774    0.478780
      2          6           0       -0.240650    1.211691    0.876480
      3         17           0        1.897641   -0.266188   -0.420881
      4          1           0       -2.000863    0.447621    2.482325
      5          1           0       -1.249078    0.926446    1.609247
      6          1           0        0.443034    1.531135    1.669552
      7          7           0        0.166536   -1.088744    1.524382
      8          1           0       -0.695910   -0.906523    2.073754
      9          1           0        0.952111   -0.846485    2.117053
     10          7           0       -0.842984   -0.630986   -0.584697
     11          8           0       -0.805270   -0.102239   -1.693579
     12          8           0       -1.665812   -1.471713   -0.230705
     13          6           0       -0.482498    2.296714   -0.148558
     14          1           0       -1.365622    2.090442   -0.756438
     15          1           0       -0.650860    3.247744    0.367311
     16          1           0        0.365459    2.416747   -0.831550
 ---------------------------------------------------------------------

 SCF Done:  E(RHF) =  -838.225066769     A.U. after    2 cycles

 The electronic state is 1-A.
 Alpha  occ. eigenvalues --  -99.73675 -20.96734 -20.96008 -15.85610 -15.61370
 Alpha  occ. eigenvalues --  -11.42798 -11.27171 -11.22403 -10.30757  -9.50858
 Alpha  occ. eigenvalues --   -9.50113  -9.50093  -1.85755  -1.55807  -1.29191
 Alpha  occ. eigenvalues --   -1.11752  -1.03824  -0.94726  -0.79911  -0.65379
 Alpha  occ. eigenvalues --   -0.60376  -0.55391  -0.53263  -0.48188  -0.46267
 Alpha  occ. eigenvalues --   -0.44876  -0.41108  -0.40722  -0.37776  -0.37014
 Alpha  occ. eigenvalues --   -0.35627  -0.34509  -0.25455  -0.21705  -0.18185
 Alpha  occ. eigenvalues --   -0.17165  -0.10594
 Alpha virt. eigenvalues --    0.13483   0.14467   0.15078   0.15498   0.16820
 Alpha virt. eigenvalues --    0.17481   0.19283   0.20101   0.21389   0.22541
 Alpha virt. eigenvalues --    0.23398   0.24041   0.25565   0.26006   0.26212

 Mulliken charges:
               1
     1  C    3.172131
     2  C   -2.164667
     3  Cl  -0.218574
     4  H   -0.390546
     5  H    1.164583
     6  H    1.261153
     7  N   -3.419322
     8  H    0.644653
     9  H    0.547300
    10  N    4.267347
    11  O   -3.159118
    12  O   -2.666619
    13  C   -3.765719
    14  H    1.348373
    15  H    1.109735
    16  H    1.269290
 Sum of Mulliken charges =  -1.00000

 Dipole moment (field-independent basis, Debye):
    X=              3.4558    Y=              0.3252    Z=             -3.9223  Tot=              5.2376

 Test job not archived.
 1\1\GINC-SE460\SP\RHF\Aug-CC-pVDZ\C3H8Cl1N2O2(1-)\OHZDE\09-Apr-2025\0\
 \#t hf aug-cc-pvdz iop(5/13=1,5/36=2,99/5=2) pseudo=read geom=check gu
 ess=(read,tcheck) scf=(maxcycle=1)\\title\\-1,1\C,0,-0.18359916,-0.062
 711,-0.29740963\C,0,-0.17191309,0.05278342,1.14927803\Cl,0,1.61700281,
 -0.21737211,-1.12368398\H,0,-2.58305966,-0.56682997,1.40095767\H,0,-1.
 42071553,-0.11453189,1.36776678\H,0,0.18700858,-0.89565028,1.56168761\
 N,0,-0.93130218,-1.14900839,-0.81454534\H,0,-1.81326436,-1.14329223,-0
 .26596911\H,0,-0.43228505,-1.9948986,-0.56448753\N,0,-0.73737917,1.224

 Normal termination of Gaussian 16 at Wed Apr  9 02:35:12 2025.
