 Gaussian 16, Revision C.01,

 ----------------------------------------------------------------------
 #t hf aug-cc-pvdz symm=none int=(grid=ultrafine) guess=(read,tcheck) s
 table=(opt,rrhf)
 ----------------------------------------------------------------------
 -----
 title
 -----
 Symbolic Z-matrix:
 Charge = -1 Multiplicity = 1

 SCF Done:  E(RHF) =  -1236.21565967     A.U. after   16 cycles
 Normal termination of Gaussian 16 at Wed Apr  9 03:01:53 2025.
 Gaussian 16:  ES64L-G16RevC.01  3-Jul-2019

 ----------------------------------------------------------------------
 #t hf aug-cc-pvdz iop(5/13=1,5/36=2,99/5=2) pseudo=read geom=check gue
 ss=(read,tcheck) scf=(maxcycle=1)
 ----------------------------------------------------------------------
 -----
 title
 -----
 Structure from the checkpoint file:  "E2SN2_80_mol1.chk"
 Charge = -1 Multiplicity = 1

                         Standard orientation:
 ---------------------------------------------------------------------
 Center     Atomic      Atomic             Coordinates (Angstroms)
 Number     Number       Type             X           Y           Z
 ---------------------------------------------------------------------
      1          6           0        0.427053   -0.495893    0.037531
      2          6           0       -0.408761    0.408460   -0.652591
      3         17           0        2.646766   -0.260980   -0.778021
      4         17           0       -3.183325   -0.535333   -0.102124
      5          1           0       -1.802565   -0.049219   -0.227930
      6          1           0       -0.567622    0.172071   -1.704094
      7          7           0        0.249987   -1.847704   -0.158383
      8          1           0        0.011366   -2.068799   -1.115473
      9          1           0        1.047884   -2.384555    0.150370
     10          6           0        0.822718   -0.148334    1.384600
     11          7           0        1.067233    0.100426    2.508462
     12          6           0       -0.307312    1.802623   -0.370981
     13          7           0       -0.284326    2.956805   -0.140330
 ---------------------------------------------------------------------

 SCF Done:  E(RHF) =  -1238.17823757     A.U. after    2 cycles

 The electronic state is 1-A.
 Alpha  occ. eigenvalues --  -99.72418 -99.67831 -15.69418 -15.67688 -15.63566
 Alpha  occ. eigenvalues --  -11.47361 -11.35354 -11.34071 -11.29937 -10.29408
 Alpha  occ. eigenvalues --  -10.24726  -9.49444  -9.48853  -9.48827  -9.44773
 Alpha  occ. eigenvalues --   -9.44264  -9.44227  -1.34986  -1.19265  -1.18109
 Alpha  occ. eigenvalues --   -1.11545  -1.05467  -1.02798  -0.86041  -0.68460
 Alpha  occ. eigenvalues --   -0.59110  -0.56227  -0.53706  -0.51519  -0.46718
 Alpha  occ. eigenvalues --   -0.41930  -0.39233  -0.36630  -0.35934  -0.35678
 Alpha  occ. eigenvalues --   -0.35393  -0.34220  -0.32091  -0.30847  -0.29840
 Alpha  occ. eigenvalues --   -0.28607  -0.20676
 Alpha virt. eigenvalues --    0.12566   0.14242   0.15410   0.15943   0.18051
 Alpha virt. eigenvalues --    0.19638   0.19673   0.20684   0.21691   0.22409
 Alpha virt. eigenvalues --    0.22825   0.23465   0.24416   0.24974   0.25681

 Mulliken charges:
               1
     1  C    4.550042
     2  C   -2.158650
     3  Cl  -0.659934
     4  Cl  -0.972075
     5  H    1.402573
     6  H    1.225421
     7  N   -3.798649
     8  H    0.645189
     9  H    0.754418
    10  C    1.383162
    11  N   -2.569759
    12  C    1.757067
    13  N   -2.558805
 Sum of Mulliken charges =  -1.00000

 Dipole moment (field-independent basis, Debye):
    X=             -0.8467    Y=             -4.4152    Z=             -1.0329  Tot=              4.6128

 Test job not archived.
 1\1\GINC-SE177\SP\RHF\Aug-CC-pVDZ\C4H4Cl2N3(1-)\OHZDE\09-Apr-2025\0\\#
 t hf aug-cc-pvdz iop(5/13=1,5/36=2,99/5=2) pseudo=read geom=check gues
 s=(read,tcheck) scf=(maxcycle=1)\\title\\-1,1\C,0,-0.5339145,0.0562617
 2,-0.18960698\C,0,-0.10836848,-0.05989183,1.15133517\Cl,0,1.38068261,0
 .16910725,-1.59282416\Cl,0,-2.51850271,0.59099133,2.78215481\H,0,-1.40
 780479,0.15672881,1.92401672\H,0,0.37120485,0.83017718,1.55699725\N,0,
 -1.17959386,1.20668043,-0.58554014\H,0,-0.79958449,2.03197535,-0.14245
 282\H,0,-1.19434938,1.30801579,-1.5903734\C,0,-1.0165876,-1.13906868,-

 Normal termination of Gaussian 16 at Wed Apr  9 03:01:59 2025.
