 Gaussian 16, Revision C.01,

 ----------------------------------------------------------------------
 #t hf aug-cc-pvdz symm=none int=(grid=ultrafine) guess=(read,tcheck) s
 table=(opt,rrhf)
 ----------------------------------------------------------------------
 -----
 title
 -----
 Symbolic Z-matrix:
 Charge = -1 Multiplicity = 1

 SCF Done:  E(RHF) =  -419.478281530     A.U. after   15 cycles
 Normal termination of Gaussian 16 at Wed Apr  9 02:52:06 2025.
 Gaussian 16:  ES64L-G16RevC.01  3-Jul-2019

 ----------------------------------------------------------------------
 #t hf aug-cc-pvdz iop(5/13=1,5/36=2,99/5=2) pseudo=read geom=check gue
 ss=(read,tcheck) scf=(maxcycle=1)
 ----------------------------------------------------------------------
 -----
 title
 -----
 Structure from the checkpoint file:  "E2SN2_317_mol2.chk"
 Charge = -1 Multiplicity = 1

                         Standard orientation:
 ---------------------------------------------------------------------
 Center     Atomic      Atomic             Coordinates (Angstroms)
 Number     Number       Type             X           Y           Z
 ---------------------------------------------------------------------
      1          6           0        0.439635    0.284604    0.372466
      2          6           0       -1.083027    0.101020    0.195483
      3          9           0        0.808121   -0.346191    1.607104
      4          1           0       -1.515561    0.748154    0.967635
      5          6           0        1.160789   -0.528265   -0.647044
      6          7           0        1.712696   -1.148188   -1.479720
      7          7           0        0.806057    1.628580    0.386205
      8          1           0        0.116226    2.305488   -0.057014
      9          1           0        1.739009    1.799110    0.037311
     10          6           0       -1.505169   -1.341783    0.440340
     11          1           0       -1.176611   -1.704930    1.414901
     12          1           0       -1.088830   -1.997192   -0.332377
     13          1           0       -2.593291   -1.397782    0.373451
     14          7           0       -1.583331    0.562214   -1.084970
     15          1           0       -1.056402    0.124954   -1.835121
     16          1           0       -1.442926    1.584230   -1.147249
     17          1           0       -0.876027    3.261994   -0.803558
 ---------------------------------------------------------------------

 SCF Done:  E(RHF) =  -421.368441670     A.U. after    2 cycles

 The electronic state is 1-A.
 Alpha  occ. eigenvalues --  -29.12772 -15.65817 -15.59286 -15.58200 -11.43272
 Alpha  occ. eigenvalues --  -11.33977 -11.30922 -11.25703  -1.32472  -1.18760
 Alpha  occ. eigenvalues --   -1.16874  -1.00157  -0.91780  -0.76593  -0.66084
 Alpha  occ. eigenvalues --   -0.57895  -0.55064  -0.53436  -0.47179  -0.45451
 Alpha  occ. eigenvalues --   -0.42485  -0.39021  -0.36423  -0.35399  -0.34227
 Alpha  occ. eigenvalues --   -0.32837  -0.27218  -0.24655  -0.20039  -0.14334
 Alpha  occ. eigenvalues --   -0.11986  -0.10701
 Alpha virt. eigenvalues --    0.13310   0.14413   0.14912   0.15548   0.16185
 Alpha virt. eigenvalues --    0.16507   0.18143   0.20135   0.20681   0.21564
 Alpha virt. eigenvalues --    0.22455   0.23168   0.23265   0.23729   0.24991

 Mulliken charges:
               1
     1  C    4.339263
     2  C   -0.055462
     3  F   -0.005078
     4  H    1.840238
     5  C    1.188181
     6  N   -2.458971
     7  N   -3.798606
     8  H    0.663747
     9  H    0.561625
    10  C   -3.928818
    11  H    1.106010
    12  H    1.281250
    13  H    1.048928
    14  N   -3.043553
    15  H    0.517767
    16  H    0.732191
    17  H   -0.988713
 Sum of Mulliken charges =  -1.00000

 Dipole moment (field-independent basis, Debye):
    X=              2.3087    Y=             -9.6697    Z=              5.2311  Tot=             11.2338

 Test job not archived.
 1\1\GINC-SE362\SP\RHF\Aug-CC-pVDZ\C4H9F1N3(1-)\OHZDE\09-Apr-2025\0\\#t
  hf aug-cc-pvdz iop(5/13=1,5/36=2,99/5=2) pseudo=read geom=check guess
 =(read,tcheck) scf=(maxcycle=1)\\title\\-1,1\C,0,-0.092623,0.228887,0.
 014406\C,0,-0.475983,0.1369,-1.478276\F,0,1.339287,0.275384,0.088482\H
 ,0,-0.158869,-0.871961,-1.767627\C,0,-0.498956,1.557981,0.551641\N,0,-
 0.857074,2.597701,0.967562\N,0,-0.5814,-0.85042,0.747155\H,0,-1.399973
 ,-1.375001,0.316728\H,0,-0.774437,-0.630905,1.7145\C,0,0.271783,1.1684
 24,-2.312928\H,0,1.352024,1.097744,-2.179962\H,0,-0.045545,2.181116,-2

 Normal termination of Gaussian 16 at Wed Apr  9 02:52:12 2025.
