 Gaussian 16, Revision C.01,

 ----------------------------------------------------------------------
 #t hf aug-cc-pvdz symm=none int=(grid=ultrafine) guess=(read,tcheck) s
 table=(opt,rrhf)
 ----------------------------------------------------------------------
 -----
 title
 -----
 Symbolic Z-matrix:
 Charge = -1 Multiplicity = 1

 SCF Done:  E(RHF) =  -463.344055957     A.U. after   15 cycles
 Normal termination of Gaussian 16 at Wed Apr  9 02:50:03 2025.
 Gaussian 16:  ES64L-G16RevC.01  3-Jul-2019

 ----------------------------------------------------------------------
 #t hf aug-cc-pvdz iop(5/13=1,5/36=2,99/5=2) pseudo=read geom=check gue
 ss=(read,tcheck) scf=(maxcycle=1)
 ----------------------------------------------------------------------
 -----
 title
 -----
 Structure from the checkpoint file:  "E2SN2_298_mol1.chk"
 Charge = -1 Multiplicity = 1

                         Standard orientation:
 ---------------------------------------------------------------------
 Center     Atomic      Atomic             Coordinates (Angstroms)
 Number     Number       Type             X           Y           Z
 ---------------------------------------------------------------------
      1          6           0       -0.245214   -0.364558    0.015204
      2          1           0        1.335570   -1.363179   -0.945142
      3          9           0       -0.203202   -0.194642    1.816656
      4          9           0       -0.389835   -0.284876   -1.790954
      5          6           0        1.214222   -0.757692   -0.047181
      6          1           0        1.403632   -1.373566    0.832048
      7          6           0       -0.658042    1.040992   -0.002179
      8          7           0       -1.021019    2.158876   -0.014365
      9          7           0       -1.225957   -1.412458    0.090812
     10          1           0       -1.817496   -1.304811   -0.720957
     11          1           0       -1.737037   -1.260526    0.948860
     12          6           0        2.147267    0.442158   -0.073138
     13          1           0        1.940456    1.057079   -0.951536
     14          1           0        1.996622    1.045335    0.824025
     15          1           0        3.195018    0.125007   -0.109981
 ---------------------------------------------------------------------

 SCF Done:  E(RHF) =  -465.309333558     A.U. after    2 cycles

 The electronic state is 1-A.
 Alpha  occ. eigenvalues --  -28.96377 -28.96247 -15.59716 -15.59597 -11.45428
 Alpha  occ. eigenvalues --  -11.29122 -11.27034 -11.22335  -1.26514  -1.12772
 Alpha  occ. eigenvalues --   -1.04518  -0.87214  -0.75933  -0.63876  -0.54544
 Alpha  occ. eigenvalues --   -0.49262  -0.48812  -0.40875  -0.38455  -0.37162
 Alpha  occ. eigenvalues --   -0.35723  -0.35442  -0.32205  -0.27472  -0.25240
 Alpha  occ. eigenvalues --   -0.23537  -0.12485  -0.04245  -0.02946  -0.02622
 Alpha  occ. eigenvalues --   -0.02174   0.03171
 Alpha virt. eigenvalues --    0.13348   0.14781   0.15734   0.16265   0.17115
 Alpha virt. eigenvalues --    0.17239   0.17964   0.20065   0.23276   0.24310
 Alpha virt. eigenvalues --    0.25029   0.25522   0.26170   0.26973   0.27557

 Mulliken charges:
               1
     1  C    5.161137
     2  H    1.212955
     3  F   -0.491509
     4  F   -0.519985
     5  C   -4.598869
     6  H    1.263552
     7  C    3.573809
     8  N   -3.455121
     9  N   -4.077291
    10  H    0.482301
    11  H    0.484721
    12  C   -3.796328
    13  H    1.361737
    14  H    1.343182
    15  H    1.055707
 Sum of Mulliken charges =  -1.00000

 Dipole moment (field-independent basis, Debye):
    X=              1.7697    Y=             -2.4884    Z=              0.0575  Tot=              3.0540

 Test job not archived.
 1\1\GINC-SE457\SP\RHF\Aug-CC-pVDZ\C4H7F2N2(1-)\OHZDE\09-Apr-2025\0\\#t
  hf aug-cc-pvdz iop(5/13=1,5/36=2,99/5=2) pseudo=read geom=check guess
 =(read,tcheck) scf=(maxcycle=1)\\title\\-1,1\C,0,0.61237849,-0.0342266
 4,0.04630046\H,0,1.55571826,1.81794266,0.35929362\F,0,-1.17248668,-0.1
 6096027,0.31844372\F,0,2.36036575,-0.07292272,-0.4358983\C,0,0.5703067
 5,1.47792555,0.0414464\H,0,-0.16954453,1.76638925,0.78819158\C,0,0.374
 5778,-0.80790108,-1.17483836\N,0,0.18833699,-1.45662328,-2.13714762\N,
 0,0.89553872,-0.69959632,1.288384\H,0,1.73344537,-1.24219412,1.1335455

 Normal termination of Gaussian 16 at Wed Apr  9 02:50:08 2025.
