 Gaussian 16, Revision C.01,

 ----------------------------------------------------------------------
 #t hf aug-cc-pvdz symm=none int=(grid=ultrafine) guess=(read,tcheck) s
 table=(opt,rrhf)
 ----------------------------------------------------------------------
 -----
 title
 -----
 Symbolic Z-matrix:
 Charge = -1 Multiplicity = 1

 SCF Done:  E(RHF) =  -825.785247632     A.U. after   14 cycles
 Normal termination of Gaussian 16 at Wed Apr  9 02:33:49 2025.
 Gaussian 16:  ES64L-G16RevC.01  3-Jul-2019

 ----------------------------------------------------------------------
 #t hf aug-cc-pvdz iop(5/13=1,5/36=2,99/5=2) pseudo=read geom=check gue
 ss=(read,tcheck) scf=(maxcycle=1)
 ----------------------------------------------------------------------
 -----
 title
 -----
 Structure from the checkpoint file:  "E2SN2_111_mol2.chk"
 Charge = -1 Multiplicity = 1

                         Standard orientation:
 ---------------------------------------------------------------------
 Center     Atomic      Atomic             Coordinates (Angstroms)
 Number     Number       Type             X           Y           Z
 ---------------------------------------------------------------------
      1          6           0       -0.869705    0.328046    0.035651
      2          6           0        0.623183    0.006573   -0.138009
      3         17           0       -1.831989   -1.150909   -0.408932
      4          1           0        0.759114   -0.387023   -1.150069
      5          6           0       -1.229314    0.664207    1.473004
      6          1           0       -2.294340    0.895699    1.559301
      7          1           0       -0.659046    1.540093    1.798248
      8          1           0       -1.004146   -0.178342    2.127843
      9          6           0       -1.304073    1.428223   -0.918162
     10          1           0       -2.384494    1.589418   -0.855089
     11          1           0       -0.764527    2.343327   -0.676289
     12          1           0       -1.048046    1.152787   -1.943633
     13          7           0        1.090626   -1.044344    0.758234
     14          1           0        2.075576   -1.128027    0.431323
     15          1           0        1.163318   -0.629749    1.685830
     16          7           0        1.408603    1.247626   -0.097165
     17          1           0        1.466213    1.521601    0.883186
     18          1           0        2.354980    0.852519   -0.312467
     19          9           0        3.407118   -0.443568   -0.437637
 ---------------------------------------------------------------------

 SCF Done:  E(RHF) =  -827.727648099     A.U. after    2 cycles

 The electronic state is 1-A.
 Alpha  occ. eigenvalues --  -99.73693 -28.89183 -15.54766 -15.54701 -11.33680
 Alpha  occ. eigenvalues --  -11.29580 -11.27967 -11.24304 -10.31101  -9.51121
 Alpha  occ. eigenvalues --   -9.50386  -9.50367  -1.29087  -1.17728  -1.06035
 Alpha  occ. eigenvalues --   -1.02857  -0.90584  -0.80350  -0.65797  -0.58018
 Alpha  occ. eigenvalues --   -0.52069  -0.49211  -0.47217  -0.45363  -0.44281
 Alpha  occ. eigenvalues --   -0.41974  -0.39154  -0.36653  -0.36151  -0.35353
 Alpha  occ. eigenvalues --   -0.31760  -0.30032  -0.29122  -0.22022  -0.16447
 Alpha  occ. eigenvalues --    0.01631   0.02203   0.04063
 Alpha virt. eigenvalues --    0.12500   0.13797   0.14074   0.14907   0.15013
 Alpha virt. eigenvalues --    0.15522   0.16595   0.17214   0.18003   0.19201
 Alpha virt. eigenvalues --    0.20524   0.21462   0.22318   0.23433   0.24157

 Mulliken charges:
               1
     1  C    1.020102
     2  C    2.920766
     3  Cl  -0.312627
     4  H    1.658781
     5  C   -3.984589
     6  H    1.203512
     7  H    1.330033
     8  H    1.302404
     9  C   -4.248881
    10  H    1.135480
    11  H    1.391249
    12  H    1.178787
    13  N   -3.227504
    14  H    0.359922
    15  H    0.391612
    16  N   -3.127843
    17  H    0.399085
    18  H    0.370344
    19  F   -0.760633
 Sum of Mulliken charges =  -1.00000

 Dipole moment (field-independent basis, Debye):
    X=             -7.3207    Y=              2.9908    Z=              2.0685  Tot=              8.1741

 Test job not archived.
 1\1\GINC-SE036\SP\RHF\Aug-CC-pVDZ\C4H11Cl1F1N2(1-)\OHZDE\09-Apr-2025\0
 \\#t hf aug-cc-pvdz iop(5/13=1,5/36=2,99/5=2) pseudo=read geom=check g
 uess=(read,tcheck) scf=(maxcycle=1)\\title\\-1,1\C,0,-0.452022,-0.0116
 06,-1.598607\C,0,0.222204,-0.045361,-0.217847\Cl,0,0.007181,-1.524086,
 -2.499989\H,0,1.290384,-0.22157,-0.377852\C,0,-1.968482,-0.004905,-1.5
 0581\H,0,-2.415039,0.028059,-2.503215\H,0,-2.297867,0.879698,-0.951601
 \H,0,-2.321884,-0.903003,-0.997941\C,0,0.05969,1.155777,-2.425765\H,0,
 -0.354131,1.12224,-3.438138\H,0,-0.210098,2.088403,-1.931344\H,0,1.149

 Normal termination of Gaussian 16 at Wed Apr  9 02:33:58 2025.
