 Gaussian 16, Revision C.01,

 ----------------------------------------------------------------------
 #t hf aug-cc-pvdz symm=none int=(grid=ultrafine) guess=(read,tcheck) s
 table=(opt,rrhf)
 ----------------------------------------------------------------------
 -----
 title
 -----
 Symbolic Z-matrix:
 Charge = -1 Multiplicity = 1

 SCF Done:  E(RHF) =  -987.885243021     A.U. after   17 cycles
 Normal termination of Gaussian 16 at Wed Apr  9 02:47:35 2025.
 Gaussian 16:  ES64L-G16RevC.01  3-Jul-2019

 ----------------------------------------------------------------------
 #t hf aug-cc-pvdz iop(5/13=1,5/36=2,99/5=2) pseudo=read geom=check gue
 ss=(read,tcheck) scf=(maxcycle=1)
 ----------------------------------------------------------------------
 -----
 title
 -----
 Structure from the checkpoint file:  "E2SN2_25_mol2.chk"
 Charge = -1 Multiplicity = 1

                         Standard orientation:
 ---------------------------------------------------------------------
 Center     Atomic      Atomic             Coordinates (Angstroms)
 Number     Number       Type             X           Y           Z
 ---------------------------------------------------------------------
      1          6           0        0.313580   -0.227774   -0.103561
      2          6           0       -0.994008    0.309374   -0.650033
      3         17           0        1.252085   -1.127571   -1.344414
      4          1           0       -1.681670   -0.516014   -0.878453
      5          1           0       -0.757203    0.845728   -1.576475
      6          7           0        1.205944    0.951920    0.304729
      7          8           0        1.814314    0.871607    1.364987
      8          8           0        1.261743    1.880857   -0.489195
      9          6           0        0.136649   -1.089068    1.059305
     10          7           0       -0.005255   -1.849902    1.942757
     11          7           0       -1.601836    1.079164    0.409839
     12          1           0       -2.613790    0.726394    0.331839
     13          1           0       -1.556122    2.065131    0.182796
     14          9           0       -3.690489   -0.132858   -0.294062
 ---------------------------------------------------------------------

 SCF Done:  E(RHF) =  -990.368423662     A.U. after    2 cycles

 The electronic state is 1-A.
 Alpha  occ. eigenvalues --  -99.82218 -28.89918 -21.01352 -21.00891 -15.90829
 Alpha  occ. eigenvalues --  -15.67587 -15.56441 -11.46464 -11.35876 -11.30316
 Alpha  occ. eigenvalues --  -10.39567  -9.59604  -9.58738  -9.58721  -1.90694
 Alpha  occ. eigenvalues --   -1.60755  -1.32736  -1.19978  -1.18673  -1.06090
 Alpha  occ. eigenvalues --   -0.87503  -0.79670  -0.65701  -0.63479  -0.58985
 Alpha  occ. eigenvalues --   -0.54110  -0.52435  -0.50246  -0.47300  -0.44755
 Alpha  occ. eigenvalues --   -0.41498  -0.39303  -0.38487  -0.34916  -0.33108
 Alpha  occ. eigenvalues --   -0.28369  -0.26426  -0.22787  -0.22454  -0.22063
 Alpha  occ. eigenvalues --    0.01269   0.01598   0.02999
 Alpha virt. eigenvalues --    0.13793   0.14837   0.15591   0.17164   0.18117
 Alpha virt. eigenvalues --    0.19527   0.20530   0.21811   0.22912   0.23647
 Alpha virt. eigenvalues --    0.24249   0.24818   0.24971   0.25482   0.26459

 Mulliken charges:
               1
     1  C   -1.726159
     2  C    0.098028
     3  Cl  -0.052773
     4  H    1.234121
     5  H    1.410178
     6  N    5.073751
     7  O   -2.915882
     8  O   -3.183428
     9  C    4.314180
    10  N   -2.883555
    11  N   -2.366978
    12  H    0.259309
    13  H    0.452345
    14  F   -0.713137
 Sum of Mulliken charges =  -1.00000

 Dipole moment (field-independent basis, Debye):
    X=              8.2962    Y=              1.7879    Z=             -1.2701  Tot=              8.5812

 Test job not archived.
 1\1\GINC-SE040\SP\RHF\Aug-CC-pVDZ\C3H4Cl1F1N3O2(1-)\OHZDE\09-Apr-2025\
 0\\#t hf aug-cc-pvdz iop(5/13=1,5/36=2,99/5=2) pseudo=read geom=check
 guess=(read,tcheck) scf=(maxcycle=1)\\title\\-1,1\C,0,-0.571261,0.0188
 94,-1.535037\C,0,0.034383,-0.105618,-0.151333\Cl,0,-0.451853,-1.510725
 ,-2.471065\H,0,1.123764,-0.22777,-0.219511\H,0,-0.398968,-1.001864,0.3
 0801\N,0,-2.074403,0.295816,-1.398768\O,0,-2.570536,1.144191,-2.130084
 \O,0,-2.671951,-0.385472,-0.577101\C,0,0.020242,1.092917,-2.323699\N,0
 ,0.549644,1.899963,-2.992955\N,0,-0.204554,1.149934,0.520871\H,0,0.762

 Normal termination of Gaussian 16 at Wed Apr  9 02:47:42 2025.
