 Gaussian 16, Revision C.01,

 ----------------------------------------------------------------------
 #t hf aug-cc-pvdz symm=none int=(grid=ultrafine) guess=(read,tcheck) s
 table=(opt,rrhf)
 ----------------------------------------------------------------------
 -----
 title
 -----
 Symbolic Z-matrix:
 Charge = -1 Multiplicity = 1

 SCF Done:  E(RHF) =  -685.448636747     A.U. after   15 cycles
 Normal termination of Gaussian 16 at Wed Apr  9 02:34:24 2025.
 Gaussian 16:  ES64L-G16RevC.01  3-Jul-2019

 ----------------------------------------------------------------------
 #t hf aug-cc-pvdz iop(5/13=1,5/36=2,99/5=2) pseudo=read geom=check gue
 ss=(read,tcheck) scf=(maxcycle=1)
 ----------------------------------------------------------------------
 -----
 title
 -----
 Structure from the checkpoint file:  "E2SN2_123_mol1.chk"
 Charge = -1 Multiplicity = 1

                         Standard orientation:
 ---------------------------------------------------------------------
 Center     Atomic      Atomic             Coordinates (Angstroms)
 Number     Number       Type             X           Y           Z
 ---------------------------------------------------------------------
      1          6           0        0.534019    0.646210    0.265483
      2          6           0       -0.744305    0.261517    0.954655
      3         17           0        1.659208   -0.783056   -0.012946
      4          1           0       -1.235885    2.721099    1.167532
      5          1           0       -1.152544    1.449500    1.147850
      6          1           0        1.090252    1.300284    0.940433
      7          7           0        0.349057    1.354813   -0.972901
      8          1           0       -0.156994    2.199148   -0.686309
      9          1           0       -0.282056    0.814499   -1.558127
     10          6           0       -1.659342   -0.470284    0.127794
     11          7           0       -2.443616   -1.008640   -0.570279
     12          1           0       -0.589626   -0.220449    1.923379
 ---------------------------------------------------------------------

 SCF Done:  E(RHF) =  -686.797937188     A.U. after    2 cycles

 The electronic state is 1-A.
 Alpha  occ. eigenvalues --  -99.74237 -15.61504 -15.60555 -11.34739 -11.31032
 Alpha  occ. eigenvalues --  -11.25314 -10.31574  -9.51512  -9.50762  -9.50721
 Alpha  occ. eigenvalues --   -1.28241  -1.15443  -1.12588  -0.97047  -0.76818
 Alpha  occ. eigenvalues --   -0.58987  -0.53323  -0.51346  -0.46700  -0.44059
 Alpha  occ. eigenvalues --   -0.39275  -0.37606  -0.35190  -0.33998  -0.29207
 Alpha  occ. eigenvalues --   -0.29103  -0.24042  -0.11152
 Alpha virt. eigenvalues --    0.14577   0.15776   0.16599   0.17697   0.18265
 Alpha virt. eigenvalues --    0.19650   0.20220   0.21035   0.22478   0.24000
 Alpha virt. eigenvalues --    0.24722   0.25994   0.26369   0.26654   0.28228

 Mulliken charges:
               1
     1  C   -1.011914
     2  C   -2.012405
     3  Cl  -0.160918
     4  H   -0.541141
     5  H    1.388062
     6  H    1.688938
     7  N   -2.267490
     8  H    0.614638
     9  H    0.604488
    10  C    1.930310
    11  N   -2.485152
    12  H    1.252584
 Sum of Mulliken charges =  -1.00000

 Dipole moment (field-independent basis, Debye):
    X=              4.0462    Y=             -4.6907    Z=             -1.3090  Tot=              6.3315

 Test job not archived.
 1\1\GINC-SE229\SP\RHF\Aug-CC-pVDZ\C3H6Cl1N2(1-)\OHZDE\09-Apr-2025\0\\#
 t hf aug-cc-pvdz iop(5/13=1,5/36=2,99/5=2) pseudo=read geom=check gues
 s=(read,tcheck) scf=(maxcycle=1)\\title\\-1,1\C,0,-0.0907544,-0.099033
 51,-0.37881789\C,0,0.01318913,-0.01423971,1.11753235\Cl,0,1.54674816,-
 0.05328705,-1.21719041\H,0,-2.49125949,0.23511093,1.16304312\H,0,-1.23
 274229,0.12117744,1.32872752\H,0,-0.59778891,0.80335386,-0.72721294\N,
 0,-0.83908826,-1.23086931,-0.85721899\H,0,-1.76999895,-1.08369528,-0.4
 5365057\H,0,-0.45826742,-2.06941446,-0.42762735\C,0,0.5152931,-1.20503

 Normal termination of Gaussian 16 at Wed Apr  9 02:34:29 2025.
