 Gaussian 16, Revision C.01,

 ----------------------------------------------------------------------
 #t hf aug-cc-pvdz symm=none int=(grid=ultrafine) guess=(read,tcheck) s
 table=(opt,rrhf)
 ----------------------------------------------------------------------
 -----
 title
 -----
 Symbolic Z-matrix:
 Charge = -1 Multiplicity = 1

 SCF Done:  E(RHF) =  -463.392175122     A.U. after   14 cycles
 Normal termination of Gaussian 16 at Wed Apr  9 02:47:00 2025.
 Gaussian 16:  ES64L-G16RevC.01  3-Jul-2019

 ----------------------------------------------------------------------
 #t hf aug-cc-pvdz iop(5/13=1,5/36=2,99/5=2) pseudo=read geom=check gue
 ss=(read,tcheck) scf=(maxcycle=1)
 ----------------------------------------------------------------------
 -----
 title
 -----
 Structure from the checkpoint file:  "E2SN2_258_mol2.chk"
 Charge = -1 Multiplicity = 1

                         Standard orientation:
 ---------------------------------------------------------------------
 Center     Atomic      Atomic             Coordinates (Angstroms)
 Number     Number       Type             X           Y           Z
 ---------------------------------------------------------------------
      1          6           0        0.464434   -0.445827    0.128610
      2          6           0       -0.418234    0.275124   -0.895850
      3          9           0        0.664482   -1.776194   -0.295259
      4          1           0        0.075309    0.221262   -1.877467
      5          1           0       -0.130275   -0.440588    1.066233
      6          6           0        1.795162    0.155331    0.270830
      7          7           0        2.856272    0.651313    0.366852
      8          6           0       -0.615424    1.717474   -0.449362
      9          1           0       -1.085235    1.660979    0.536142
     10          1           0        0.324442    2.274864   -0.397626
     11          1           0       -1.290310    2.216263   -1.148703
     12          7           0       -1.727592   -0.366518   -0.962496
     13          1           0       -2.036680   -0.340493    0.030288
     14          1           0       -1.575659   -1.344789   -1.189350
     15          9           0       -1.724257   -0.051991    1.720217
 ---------------------------------------------------------------------

 SCF Done:  E(RHF) =  -465.331604814     A.U. after    2 cycles

 The electronic state is 1-A.
 Alpha  occ. eigenvalues --  -29.13023 -28.90147 -15.64579 -15.56295 -11.37020
 Alpha  occ. eigenvalues --  -11.31964 -11.28963 -11.22858  -1.25515  -1.17178
 Alpha  occ. eigenvalues --   -1.03758  -0.92732  -0.72555  -0.62819  -0.60767
 Alpha  occ. eigenvalues --   -0.51310  -0.48823  -0.43167  -0.41290  -0.39070
 Alpha  occ. eigenvalues --   -0.37440  -0.33453  -0.32629  -0.32005  -0.27609
 Alpha  occ. eigenvalues --   -0.23364  -0.21203  -0.13540  -0.12016   0.00917
 Alpha  occ. eigenvalues --    0.01293   0.03317
 Alpha virt. eigenvalues --    0.14080   0.14679   0.15526   0.16023   0.17975
 Alpha virt. eigenvalues --    0.18531   0.19186   0.20757   0.21923   0.24320
 Alpha virt. eigenvalues --    0.24971   0.25419   0.25646   0.26049   0.27132

 Mulliken charges:
               1
     1  C    0.449222
     2  C    1.269462
     3  F    0.033052
     4  H    1.788261
     5  H    1.088558
     6  C    0.749366
     7  N   -2.355857
     8  C   -4.074000
     9  H    0.990919
    10  H    1.260889
    11  H    1.047775
    12  N   -3.158605
    13  H    0.254544
    14  H    0.530009
    15  F   -0.873595
 Sum of Mulliken charges =  -1.00000

 Dipole moment (field-independent basis, Debye):
    X=              1.5275    Y=             -2.4911    Z=             -3.4472  Tot=              4.5191

 Test job not archived.
 1\1\GINC-SE208\SP\RHF\Aug-CC-pVDZ\C4H7F2N2(1-)\OHZDE\09-Apr-2025\0\\#t
  hf aug-cc-pvdz iop(5/13=1,5/36=2,99/5=2) pseudo=read geom=check guess
 =(read,tcheck) scf=(maxcycle=1)\\title\\-1,1\C,0,-0.248567,0.105152,0.
 068765\C,0,-0.304146,0.397339,-1.434541\F,0,0.589841,-1.007743,0.28808
 \H,0,0.72141,0.572588,-1.791724\H,0,-1.292012,-0.156465,0.343761\C,0,0
 .308147,1.21278,0.853421\N,0,0.759257,2.11129,1.461987\C,0,-1.191382,1
 .612472,-1.668791\H,0,-2.170559,1.347374,-1.261278\H,0,-0.804673,2.515
 669,-1.187751\H,0,-1.277215,1.787192,-2.743707\N,0,-0.888405,-0.738942

 Normal termination of Gaussian 16 at Wed Apr  9 02:47:06 2025.
