 Gaussian 16, Revision C.01,

 ----------------------------------------------------------------------
 #t hf aug-cc-pvdz symm=none int=(grid=ultrafine) guess=(read,tcheck) s
 table=(opt,rrhf)
 ----------------------------------------------------------------------
 -----
 title
 -----
 Symbolic Z-matrix:
 Charge = -1 Multiplicity = 1

 SCF Done:  E(RHF) =  -1000.71536302     A.U. after   18 cycles
 Normal termination of Gaussian 16 at Wed Apr  9 02:41:31 2025.
 Gaussian 16:  ES64L-G16RevC.01  3-Jul-2019

 ----------------------------------------------------------------------
 #t hf aug-cc-pvdz iop(5/13=1,5/36=2,99/5=2) pseudo=read geom=check gue
 ss=(read,tcheck) scf=(maxcycle=1)
 ----------------------------------------------------------------------
 -----
 title
 -----
 Structure from the checkpoint file:  "E2SN2_1_mol2.chk"
 Charge = -1 Multiplicity = 1

                         Standard orientation:
 ---------------------------------------------------------------------
 Center     Atomic      Atomic             Coordinates (Angstroms)
 Number     Number       Type             X           Y           Z
 ---------------------------------------------------------------------
      1          6           0        0.605694   -0.198592   -0.483510
      2          6           0       -0.560125   -0.703843    0.357717
      3         17           0        2.014657   -1.226258   -0.303174
      4          1           0       -0.654118   -1.793321    0.286975
      5          1           0        0.349452   -0.140496   -1.539529
      6          7           0        0.914686    1.225664   -0.068480
      7          8           0        2.009016    1.533358    0.376517
      8          8           0       -0.037089    1.987409   -0.233846
      9          7           0       -1.840490   -0.200325   -0.323598
     10          8           0       -1.956089   -0.437100   -1.526388
     11          8           0       -2.682471    0.364992    0.363428
     12          7           0       -0.458173   -0.411722    1.722121
     13          1           0       -1.012285    0.400409    1.963734
     14          1           0       -0.855243   -1.292433    2.161501
     15          1           0       -1.329478   -2.797744    1.888046
 ---------------------------------------------------------------------

 SCF Done:  E(RHF) =  -1003.31638474     A.U. after    2 cycles

 The electronic state is 1-A.
 Alpha  occ. eigenvalues --  -99.80688 -21.01424 -21.00252 -20.98581 -20.97713
 Alpha  occ. eigenvalues --  -15.90440 -15.87010 -15.59974 -11.44877 -11.35404
 Alpha  occ. eigenvalues --  -10.38150  -9.58213  -9.57257  -9.57142  -1.90539
 Alpha  occ. eigenvalues --   -1.87176  -1.60491  -1.57509  -1.31560  -1.22733
 Alpha  occ. eigenvalues --   -1.06407  -0.97484  -0.79858  -0.71572  -0.66121
 Alpha  occ. eigenvalues --   -0.63082  -0.60765  -0.56813  -0.53646  -0.51508
 Alpha  occ. eigenvalues --   -0.50136  -0.47815  -0.45712  -0.42481  -0.41249
 Alpha  occ. eigenvalues --   -0.37930  -0.30111  -0.26623  -0.23185  -0.22664
 Alpha  occ. eigenvalues --   -0.22568  -0.19872  -0.18802  -0.12142
 Alpha virt. eigenvalues --    0.13305   0.15567   0.16041   0.17700   0.19788
 Alpha virt. eigenvalues --    0.20304   0.20713   0.21850   0.22670   0.23493
 Alpha virt. eigenvalues --    0.24075   0.24452   0.25107   0.25929   0.26236

 Mulliken charges:
               1
     1  C   -2.099781
     2  C    1.978408
     3  Cl   0.132106
     4  H    2.267274
     5  H    2.080422
     6  N    4.897523
     7  O   -2.971241
     8  O   -2.970772
     9  N    4.270474
    10  O   -3.048925
    11  O   -2.834932
    12  N   -2.749935
    13  H    0.485373
    14  H    0.588155
    15  H   -1.024150
 Sum of Mulliken charges =  -1.00000

 Dipole moment (field-independent basis, Debye):
    X=              4.0477    Y=              8.8843    Z=             -5.6493  Tot=             11.2795

 Test job not archived.
 1\1\GINC-SE453\SP\RHF\Aug-CC-pVDZ\C2H5Cl1N3O4(1-)\OHZDE\09-Apr-2025\0\
 \#t hf aug-cc-pvdz iop(5/13=1,5/36=2,99/5=2) pseudo=read geom=check gu
 ess=(read,tcheck) scf=(maxcycle=1)\\title\\-1,1\C,0,-0.319972,-0.14787
 1,-1.578375\C,0,0.197519,-0.065726,-0.147455\Cl,0,0.988866,-0.021509,-
 2.738018\H,0,1.109375,-0.660645,-0.023394\H,0,-0.860448,-1.0743,-1.762
 298\N,0,-1.337543,0.955912,-1.784388\O,0,-1.173909,1.819307,-2.631754\
 O,0,-2.299065,0.866034,-1.022237\N,0,-0.822156,-0.807124,0.728699\O,0,
 -1.129135,-1.946133,0.375781\O,0,-1.237877,-0.250045,1.737341\N,0,0.51

 Normal termination of Gaussian 16 at Wed Apr  9 02:41:38 2025.
