 Gaussian 16, Revision C.01,

 ----------------------------------------------------------------------
 #t hf aug-cc-pvdz symm=none int=(grid=ultrafine) guess=(read,tcheck) s
 table=(opt,rrhf)
 ----------------------------------------------------------------------
 -----
 title
 -----
 Symbolic Z-matrix:
 Charge = -1 Multiplicity = 1

 SCF Done:  E(RHF) =  -833.907442238     A.U. after   16 cycles
 Normal termination of Gaussian 16 at Wed Apr  9 02:57:44 2025.
 Gaussian 16:  ES64L-G16RevC.01  3-Jul-2019

 ----------------------------------------------------------------------
 #t hf aug-cc-pvdz iop(5/13=1,5/36=2,99/5=2) pseudo=read geom=check gue
 ss=(read,tcheck) scf=(maxcycle=1)
 ----------------------------------------------------------------------
 -----
 title
 -----
 Structure from the checkpoint file:  "E2SN2_3_mol1.chk"
 Charge = -1 Multiplicity = 1

                         Standard orientation:
 ---------------------------------------------------------------------
 Center     Atomic      Atomic             Coordinates (Angstroms)
 Number     Number       Type             X           Y           Z
 ---------------------------------------------------------------------
      1          6           0        0.289848    0.179445    0.659288
      2          6           0       -0.870307   -0.757503    0.850623
      3         17           0       -0.197336    1.750384    0.038744
      4          1           0       -0.687112    0.144079    3.231304
      5          1           0       -1.224091   -0.378176    1.900600
      6          1           0        0.688432    0.323368    1.682918
      7          1           0       -0.478327   -1.754697    1.065002
      8          7           0        1.379077   -0.426656   -0.188381
      9          8           0        1.875510   -1.447057    0.290394
     10          8           0        1.713442    0.086782   -1.251606
     11          6           0       -1.842832   -0.798182   -0.216859
     12          7           0       -2.681370   -0.852123   -1.041202
 ---------------------------------------------------------------------

 SCF Done:  E(RHF) =  -835.817099527     A.U. after    2 cycles

 The electronic state is 1-A.
 Alpha  occ. eigenvalues --  -99.78526 -20.99753 -20.98892 -15.88851 -15.64304
 Alpha  occ. eigenvalues --  -11.40837 -11.34034 -11.29506 -10.36009  -9.55988
 Alpha  occ. eigenvalues --   -9.55101  -9.55033  -1.88676  -1.58594  -1.27808
 Alpha  occ. eigenvalues --   -1.18155  -1.07391  -0.94880  -0.74549  -0.62625
 Alpha  occ. eigenvalues --   -0.60898  -0.59389  -0.52181  -0.49092  -0.46504
 Alpha  occ. eigenvalues --   -0.45086  -0.40373  -0.39685  -0.36868  -0.31790
 Alpha  occ. eigenvalues --   -0.31077  -0.25362  -0.21195  -0.20722  -0.12584
 Alpha virt. eigenvalues --    0.14849   0.16635   0.17204   0.18108   0.20170
 Alpha virt. eigenvalues --    0.20406   0.22550   0.22927   0.23035   0.23948
 Alpha virt. eigenvalues --    0.24520   0.25277   0.25938   0.26726   0.27226

 Mulliken charges:
               1
     1  C   -1.530413
     2  C   -1.345565
     3  Cl   0.093926
     4  H   -0.928789
     5  H    1.292978
     6  H    1.780803
     7  H    1.605374
     8  N    4.552843
     9  O   -2.858968
    10  O   -2.813487
    11  C    1.563523
    12  N   -2.412227
 Sum of Mulliken charges =  -1.00000

 Dipole moment (field-independent basis, Debye):
    X=              4.0319    Y=             -0.6125    Z=             -7.2444  Tot=              8.3134

 Test job not archived.
 1\1\GINC-SE208\SP\RHF\Aug-CC-pVDZ\C3H4Cl1N2O2(1-)\OHZDE\09-Apr-2025\0\
 \#t hf aug-cc-pvdz iop(5/13=1,5/36=2,99/5=2) pseudo=read geom=check gu
 ess=(read,tcheck) scf=(maxcycle=1)\\title\\-1,1\C,0,-0.76146881,-0.005
 3317,-0.18295646\C,0,-0.31856115,-0.0428381,1.25331173\Cl,0,-0.3289702
 ,-1.46115049,-1.06828534\H,0,-2.72478559,-0.83830643,1.55557945\H,0,-1
 .2148042,-0.65595968,1.69187103\H,0,-1.86653836,0.04273828,-0.12040852
 \H,0,-0.46096952,0.95055584,1.68562161\N,0,-0.27689417,1.23037004,-0.8
 9748411\O,0,-0.69332457,2.28340001,-0.41312754\O,0,0.46166195,1.148313

 Normal termination of Gaussian 16 at Wed Apr  9 02:57:50 2025.
