 Gaussian 16, Revision C.01,

 ----------------------------------------------------------------------
 #t hf aug-cc-pvdz symm=none int=(grid=ultrafine) guess=(read,tcheck) s
 table=(opt,rrhf)
 ----------------------------------------------------------------------
 -----
 title
 -----
 Symbolic Z-matrix:
 Charge = -1 Multiplicity = 1

 SCF Done:  E(RHF) =  -777.177356351     A.U. after   16 cycles
 Normal termination of Gaussian 16 at Wed Apr  9 03:01:36 2025.
 Gaussian 16:  ES64L-G16RevC.01  3-Jul-2019

 ----------------------------------------------------------------------
 #t hf aug-cc-pvdz iop(5/13=1,5/36=2,99/5=2) pseudo=read geom=check gue
 ss=(read,tcheck) scf=(maxcycle=1)
 ----------------------------------------------------------------------
 -----
 title
 -----
 Structure from the checkpoint file:  "E2SN2_79_mol2.chk"
 Charge = -1 Multiplicity = 1

                         Standard orientation:
 ---------------------------------------------------------------------
 Center     Atomic      Atomic             Coordinates (Angstroms)
 Number     Number       Type             X           Y           Z
 ---------------------------------------------------------------------
      1          6           0       -0.336571   -0.192976    0.203335
      2          6           0        0.687677   -0.836712   -0.701832
      3         17           0       -0.443297    1.686684   -0.244321
      4          1           0        0.608124   -1.924615   -0.624284
      5          1           0        0.478463   -0.584954   -1.742788
      6          6           0       -1.695716   -0.652792   -0.099406
      7          7           0       -2.804389   -0.976167   -0.312992
      8          7           0       -0.051563   -0.379216    1.560162
      9          1           0       -0.697144    0.099451    2.171485
     10          1           0        0.909204   -0.155652    1.783839
     11          6           0        2.021826   -0.403733   -0.336788
     12          7           0        3.098618   -0.090314    0.017888
     13          1           0        0.475451   -3.470693   -0.682064
 ---------------------------------------------------------------------

 SCF Done:  E(RHF) =  -778.897035272     A.U. after    2 cycles

 The electronic state is 1-A.
 Alpha  occ. eigenvalues --  -99.77818 -15.67930 -15.67491 -15.65437 -11.45640
 Alpha  occ. eigenvalues --  -11.35652 -11.34902 -11.31153 -10.35026  -9.55015
 Alpha  occ. eigenvalues --   -9.54377  -9.54271  -1.36588  -1.19352  -1.19079
 Alpha  occ. eigenvalues --   -1.16744  -1.04017  -0.88137  -0.66183  -0.60704
 Alpha  occ. eigenvalues --   -0.59581  -0.55378  -0.49162  -0.46861  -0.44239
 Alpha  occ. eigenvalues --   -0.41498  -0.40170  -0.38925  -0.34980  -0.33461
 Alpha  occ. eigenvalues --   -0.32046  -0.31674  -0.29751  -0.10164
 Alpha virt. eigenvalues --    0.12518   0.14719   0.15607   0.15748   0.18146
 Alpha virt. eigenvalues --    0.19005   0.19791   0.21000   0.21710   0.22165
 Alpha virt. eigenvalues --    0.23103   0.23738   0.24234   0.24931   0.25457

 Mulliken charges:
               1
     1  C    2.831769
     2  C   -4.004124
     3  Cl  -0.113802
     4  H    2.021316
     5  H    1.434607
     6  C    2.177730
     7  N   -2.586211
     8  N   -3.367532
     9  H    0.697099
    10  H    0.630111
    11  C    2.683370
    12  N   -2.664030
    13  H   -0.740301
 Sum of Mulliken charges =  -1.00000

 Dipole moment (field-independent basis, Debye):
    X=             -1.8271    Y=             10.8067    Z=              3.7579  Tot=             11.5864

 Test job not archived.
 1\1\GINC-SE051\SP\RHF\Aug-CC-pVDZ\C4H5Cl1N3(1-)\OHZDE\09-Apr-2025\0\\#
 t hf aug-cc-pvdz iop(5/13=1,5/36=2,99/5=2) pseudo=read geom=check gues
 s=(read,tcheck) scf=(maxcycle=1)\\title\\-1,1\C,0,-0.493081,0.017589,-
 1.426923\C,0,0.015171,-0.019773,-0.004569\Cl,0,-2.387267,0.411268,-1.3
 82407\H,0,1.10872,-0.018514,-0.009564\H,0,-0.292496,0.882229,0.526916\
 C,0,0.037075,1.169062,-2.164082\N,0,0.420361,2.083816,-2.7931\N,0,-0.2
 3414,-1.166987,-2.124507\H,0,-0.624267,-1.173451,-3.055835\H,0,-0.5072
 42,-1.987687,-1.600148\C,0,-0.482281,-1.19955,0.674659\N,0,-0.843784,-

 Normal termination of Gaussian 16 at Wed Apr  9 03:01:41 2025.
