 Gaussian 16, Revision C.01,

 ----------------------------------------------------------------------
 #t hf aug-cc-pvdz symm=none int=(grid=ultrafine) guess=(read,tcheck) s
 table=(opt,rrhf)
 ----------------------------------------------------------------------
 -----
 title
 -----
 Symbolic Z-matrix:
 Charge = -1 Multiplicity = 1

 SCF Done:  E(RHF) =  -456.133603069     A.U. after   17 cycles
 Normal termination of Gaussian 16 at Wed Apr  9 02:57:18 2025.
 Gaussian 16:  ES64L-G16RevC.01  3-Jul-2019

 ----------------------------------------------------------------------
 #t hf aug-cc-pvdz iop(5/13=1,5/36=2,99/5=2) pseudo=read geom=check gue
 ss=(read,tcheck) scf=(maxcycle=1)
 ----------------------------------------------------------------------
 -----
 title
 -----
 Structure from the checkpoint file:  "E2SN2_391_mol1.chk"
 Charge = -1 Multiplicity = 1

                         Standard orientation:
 ---------------------------------------------------------------------
 Center     Atomic      Atomic             Coordinates (Angstroms)
 Number     Number       Type             X           Y           Z
 ---------------------------------------------------------------------
      1          6           0       -0.520634   -0.404450    0.285501
      2          1           0        0.804383    0.496569    1.701466
      3          9           0       -0.081230   -0.718088   -1.265472
      4          1           0       -1.229752    0.107366    1.911878
      5          6           0        0.664079    0.516550    0.622626
      6          7           0       -0.428556   -1.768850    0.747373
      7          1           0       -0.679501   -2.357609   -0.037920
      8          1           0       -1.067228   -1.891190    1.517704
      9          6           0       -1.805791    0.188084   -0.015413
     10          7           0       -2.825530    0.603237   -0.446062
     11          6           0        0.399277    1.946792    0.162843
     12          1           0        0.207817    1.957500   -0.911033
     13          1           0       -0.480377    2.324892    0.688101
     14          1           0        1.254017    2.591323    0.383093
     15          6           0        1.909151    0.009641    0.027239
     16          7           0        2.974831   -0.306639   -0.352855
 ---------------------------------------------------------------------

 SCF Done:  E(RHF) =  -458.180670861     A.U. after    2 cycles

 The electronic state is 1-A.
 Alpha  occ. eigenvalues --  -29.03387 -15.62335 -15.61675 -15.60121 -11.46526
 Alpha  occ. eigenvalues --  -11.34969 -11.31144 -11.30133 -11.26593  -1.29159
 Alpha  occ. eigenvalues --   -1.17273  -1.13224  -1.07126  -0.89670  -0.82072
 Alpha  occ. eigenvalues --   -0.65429  -0.58943  -0.54263  -0.53313  -0.44868
 Alpha  occ. eigenvalues --   -0.43722  -0.40535  -0.39976  -0.37802  -0.35952
 Alpha  occ. eigenvalues --   -0.33416  -0.30568  -0.28591  -0.27115  -0.24860
 Alpha  occ. eigenvalues --   -0.19053  -0.08890  -0.08456  -0.07298
 Alpha virt. eigenvalues --    0.13369   0.14635   0.15328   0.15725   0.16098
 Alpha virt. eigenvalues --    0.17169   0.18630   0.19407   0.20033   0.22599
 Alpha virt. eigenvalues --    0.24114   0.24302   0.24873   0.25561   0.25945

 Mulliken charges:
               1
     1  C    3.016875
     2  H    1.816274
     3  F    0.008259
     4  H   -0.688348
     5  C   -2.861222
     6  N   -3.508481
     7  H    0.421378
     8  H    0.652355
     9  C    3.102966
    10  N   -2.990500
    11  C   -3.632364
    12  H    1.286488
    13  H    1.354229
    14  H    1.179416
    15  C    2.653814
    16  N   -2.811138
 Sum of Mulliken charges =  -1.00000

 Dipole moment (field-independent basis, Debye):
    X=              2.7023    Y=             -0.7539    Z=             -4.2442  Tot=              5.0877

 Test job not archived.
 1\1\GINC-SE461\SP\RHF\Aug-CC-pVDZ\C5H7F1N3(1-)\OHZDE\09-Apr-2025\0\\#t
  hf aug-cc-pvdz iop(5/13=1,5/36=2,99/5=2) pseudo=read geom=check guess
 =(read,tcheck) scf=(maxcycle=1)\\title\\-1,1\C,0,0.44112461,-0.0857641
 9,-0.05183482\H,0,1.58629954,1.68932694,-0.38363223\F,0,-1.17692859,-0
 .16087605,-0.32243808\H,0,2.19507131,-0.08153502,0.52571154\C,0,0.5604
 1291,1.44632429,-0.11439669\N,0,0.82651486,-0.81158877,-1.23844526\H,0
 ,0.08921184,-1.48234603,-1.41945529\H,0,1.70655756,-1.27083282,-1.0626
 6412\C,0,0.43057605,-0.73595313,1.24061111\N,0,0.23259258,-1.31290954,

 Normal termination of Gaussian 16 at Wed Apr  9 02:57:25 2025.
