 Gaussian 16, Revision C.01,

 ----------------------------------------------------------------------
 #t hf aug-cc-pvdz symm=none int=(grid=ultrafine) guess=(read,tcheck) s
 table=(opt,rrhf)
 ----------------------------------------------------------------------
 -----
 title
 -----
 Symbolic Z-matrix:
 Charge = -1 Multiplicity = 1

 SCF Done:  E(RHF) =  -891.256062530     A.U. after   17 cycles
 Normal termination of Gaussian 16 at Wed Apr  9 03:00:55 2025.
 Gaussian 16:  ES64L-G16RevC.01  3-Jul-2019

 ----------------------------------------------------------------------
 #t hf aug-cc-pvdz iop(5/13=1,5/36=2,99/5=2) pseudo=read geom=check gue
 ss=(read,tcheck) scf=(maxcycle=1)
 ----------------------------------------------------------------------
 -----
 title
 -----
 Structure from the checkpoint file:  "E2SN2_49_mol1.chk"
 Charge = -1 Multiplicity = 1

                         Standard orientation:
 ---------------------------------------------------------------------
 Center     Atomic      Atomic             Coordinates (Angstroms)
 Number     Number       Type             X           Y           Z
 ---------------------------------------------------------------------
      1          6           0       -0.003756    0.122475    0.395123
      2          6           0        0.985215   -0.814521   -0.129474
      3         17           0        0.132750    1.929519   -0.386730
      4          1           0        1.074851   -2.259843    1.816774
      5          1           0        0.851491   -1.741717    0.750647
      6          7           0       -1.402341   -0.358702    0.009414
      7          8           0       -1.829208   -0.124863   -1.117443
      8          8           0       -1.972850   -1.047242    0.852775
      9          7           0        0.016078    0.327681    1.798442
     10          1           0        0.761688    0.976157    2.011521
     11          1           0        0.274648   -0.588632    2.204191
     12          7           0        2.349160   -0.441230    0.196855
     13          1           0        2.544937   -0.807336    1.131085
     14          1           0        2.457109    0.567714    0.202706
     15          6           0        0.846224   -1.302352   -1.551428
     16          1           0       -0.101567   -1.814987   -1.732801
     17          1           0        0.928276   -0.479450   -2.272565
     18          1           0        1.661913   -2.004750   -1.738099
 ---------------------------------------------------------------------

 SCF Done:  E(RHF) =  -893.520507928     A.U. after    2 cycles

 The electronic state is 1-A.
 Alpha  occ. eigenvalues --  -99.74311 -20.97001 -20.96659 -15.86094 -15.61708
 Alpha  occ. eigenvalues --  -15.59366 -11.44107 -11.28461 -11.23197 -10.31425
 Alpha  occ. eigenvalues --   -9.51548  -9.50822  -9.50794  -1.86253  -1.56254
 Alpha  occ. eigenvalues --   -1.31413  -1.17930  -1.12534  -1.00656  -0.92484
 Alpha  occ. eigenvalues --   -0.77503  -0.66122  -0.61048  -0.57212  -0.54212
 Alpha  occ. eigenvalues --   -0.52269  -0.49287  -0.45489  -0.44137  -0.41303
 Alpha  occ. eigenvalues --   -0.40620  -0.37420  -0.36868  -0.35952  -0.34555
 Alpha  occ. eigenvalues --   -0.26498  -0.24789  -0.20147  -0.18766  -0.17428
 Alpha  occ. eigenvalues --   -0.11209
 Alpha virt. eigenvalues --    0.13946   0.14427   0.15151   0.15488   0.16318
 Alpha virt. eigenvalues --    0.16536   0.18331   0.18926   0.19473   0.21432
 Alpha virt. eigenvalues --    0.22038   0.23208   0.24729   0.25546   0.26472

 Mulliken charges:
               1
     1  C    3.948585
     2  C    1.288825
     3  Cl  -0.258011
     4  H   -0.327722
     5  H    1.264345
     6  N    3.686403
     7  O   -3.049488
     8  O   -2.640004
     9  N   -3.443833
    10  H    0.571753
    11  H    0.661736
    12  N   -2.773467
    13  H    0.458386
    14  H    0.585562
    15  C   -4.579015
    16  H    1.266602
    17  H    1.189067
    18  H    1.150276
 Sum of Mulliken charges =  -1.00000

 Dipole moment (field-independent basis, Debye):
    X=             -1.2828    Y=              3.4370    Z=             -2.6010  Tot=              4.4971

 Test job not archived.
 1\1\GINC-SE159\SP\RHF\Aug-CC-pVDZ\C3H9Cl1N3O2(1-)\OHZDE\09-Apr-2025\0\
 \#t hf aug-cc-pvdz iop(5/13=1,5/36=2,99/5=2) pseudo=read geom=check gu
 ess=(read,tcheck) scf=(maxcycle=1)\\title\\-1,1\C,0,-0.23846431,0.1019
 1075,-0.30441143\C,0,-0.01951276,-0.11660071,1.12231251\Cl,0,1.4118487
 3,0.53671183,-1.29574846\H,0,-2.24291259,0.51780192,1.85641022\H,0,-1.
 24350587,-0.06261331,1.51104517\N,0,-0.73703281,-1.19649077,-0.9383880
 8\O,0,0.07197221,-2.07180005,-1.23172932\O,0,-1.9584803,-1.30624234,-1
 .02111301\N,0,-1.15210742,1.13252811,-0.64336512\H,0,-0.6700061,2.0179

 Normal termination of Gaussian 16 at Wed Apr  9 03:01:04 2025.
