 Gaussian 16, Revision C.01,

 ----------------------------------------------------------------------
 #t hf aug-cc-pvdz symm=none int=(grid=ultrafine) guess=(read,tcheck) s
 table=(opt,rrhf)
 ----------------------------------------------------------------------
 -----
 title
 -----
 Symbolic Z-matrix:
 Charge = -1 Multiplicity = 1

 SCF Done:  E(RHF) =  -403.421664893     A.U. after   16 cycles
 Normal termination of Gaussian 16 at Wed Apr  9 02:58:23 2025.
 Gaussian 16:  ES64L-G16RevC.01  3-Jul-2019

 ----------------------------------------------------------------------
 #t hf aug-cc-pvdz iop(5/13=1,5/36=2,99/5=2) pseudo=read geom=check gue
 ss=(read,tcheck) scf=(maxcycle=1)
 ----------------------------------------------------------------------
 -----
 title
 -----
 Structure from the checkpoint file:  "E2SN2_404_mol1.chk"
 Charge = -1 Multiplicity = 1

                         Standard orientation:
 ---------------------------------------------------------------------
 Center     Atomic      Atomic             Coordinates (Angstroms)
 Number     Number       Type             X           Y           Z
 ---------------------------------------------------------------------
      1          6           0       -0.842738   -0.130155   -0.203809
      2          1           0        0.570253    0.480576   -1.688054
      3          9           0       -0.329923   -0.527250    1.343305
      4          1           0       -1.453761    0.439775   -1.892619
      5          6           0        0.512576    0.495301   -0.600073
      6          7           0       -1.897555    0.713087    0.329517
      7          1           0       -2.212803    0.282464    1.191844
      8          1           0       -2.625635    0.765098   -0.363800
      9          6           0       -1.088497   -1.549955   -0.700817
     10          1           0       -0.565786   -1.722805   -1.641809
     11          1           0       -0.743166   -2.263410    0.055703
     12          1           0       -2.151991   -1.700119   -0.887492
     13          6           0        1.655439   -0.291258   -0.103689
     14          7           0        2.636339   -0.877013    0.174174
     15          6           0        0.614372    1.937356   -0.120484
     16          1           0       -0.192787    2.503390   -0.586012
     17          1           0        0.483980    1.969647    0.960890
     18          1           0        1.582600    2.370382   -0.390996
 ---------------------------------------------------------------------

 SCF Done:  E(RHF) =  -405.286006133     A.U. after    2 cycles

 The electronic state is 1-A.
 Alpha  occ. eigenvalues --  -28.99617 -15.60787 -15.58212 -11.41261 -11.33058
 Alpha  occ. eigenvalues --  -11.29085 -11.24473 -11.22965  -1.24756  -1.15464
 Alpha  occ. eigenvalues --   -1.04725  -0.94651  -0.81345  -0.70847  -0.61329
 Alpha  occ. eigenvalues --   -0.52059  -0.49738  -0.47156  -0.44344  -0.42271
 Alpha  occ. eigenvalues --   -0.39866  -0.37765  -0.36028  -0.33750  -0.32681
 Alpha  occ. eigenvalues --   -0.27818  -0.27551  -0.20990  -0.17172  -0.06519
 Alpha  occ. eigenvalues --   -0.05180  -0.04362
 Alpha virt. eigenvalues --    0.14002   0.14433   0.14734   0.15507   0.15861
 Alpha virt. eigenvalues --    0.16157   0.16878   0.17312   0.18156   0.19455
 Alpha virt. eigenvalues --    0.20739   0.21995   0.24638   0.24871   0.25533

 Mulliken charges:
               1
     1  C    4.894848
     2  H    1.910459
     3  F   -0.185600
     4  H   -0.940743
     5  C   -2.636776
     6  N   -3.307714
     7  H    0.446321
     8  H    0.546886
     9  C   -4.766024
    10  H    1.275277
    11  H    1.245300
    12  H    1.116368
    13  C    2.296593
    14  N   -2.758319
    15  C   -4.040267
    16  H    1.414224
    17  H    1.377574
    18  H    1.111593
 Sum of Mulliken charges =  -1.00000

 Dipole moment (field-independent basis, Debye):
    X=              0.4975    Y=             -0.2994    Z=              5.4370  Tot=              5.4679

 Test job not archived.
 1\1\GINC-SE435\SP\RHF\Aug-CC-pVDZ\C5H10F1N2(1-)\OHZDE\09-Apr-2025\0\\#
 t hf aug-cc-pvdz iop(5/13=1,5/36=2,99/5=2) pseudo=read geom=check gues
 s=(read,tcheck) scf=(maxcycle=1)\\title\\-1,1\C,0,0.38782064,-0.089107
 16,0.04914969\H,0,1.70784822,1.58229522,0.24008562\F,0,-1.24629507,0.0
 7707662,0.39013936\H,0,2.19149173,-0.26319894,-0.46729053\C,0,0.645015
 28,1.43369972,0.05153801\N,0,0.08930764,-0.76797129,-1.19911564\H,0,-0
 .75604584,-1.30726916,-1.04758758\H,0,0.88029218,-1.34742857,-1.427297
 92\C,0,0.78071668,-0.83000735,1.3219206\H,0,1.61834385,-0.33315807,1.8

 Normal termination of Gaussian 16 at Wed Apr  9 02:58:30 2025.
