 Gaussian 16, Revision C.01,

 ----------------------------------------------------------------------
 #t hf aug-cc-pvdz symm=none int=(grid=ultrafine) guess=(read,tcheck) s
 table=(opt,rrhf)
 ----------------------------------------------------------------------
 -----
 title
 -----
 Symbolic Z-matrix:
 Charge = -1 Multiplicity = 1

 SCF Done:  E(RHF) =  -515.196207786     A.U. after   17 cycles
 Normal termination of Gaussian 16 at Wed Apr  9 02:33:35 2025.
 Gaussian 16:  ES64L-G16RevC.01  3-Jul-2019

 ----------------------------------------------------------------------
 #t hf aug-cc-pvdz iop(5/13=1,5/36=2,99/5=2) pseudo=read geom=check gue
 ss=(read,tcheck) scf=(maxcycle=1)
 ----------------------------------------------------------------------
 -----
 title
 -----
 Structure from the checkpoint file:  "E2SN2_100_mol1.chk"
 Charge = -1 Multiplicity = 1

                         Standard orientation:
 ---------------------------------------------------------------------
 Center     Atomic      Atomic             Coordinates (Angstroms)
 Number     Number       Type             X           Y           Z
 ---------------------------------------------------------------------
      1          6           0        0.015037   -0.422359    0.265652
      2          6           0       -1.063410    0.349968   -0.357573
      3          9           0        0.095739   -0.325953    1.699938
      4          1           0       -1.367781   -0.537240   -2.586408
      5          1           0       -1.054878   -0.042273   -1.708045
      6          6           0       -0.008702   -1.896191   -0.060094
      7          1           0       -0.838542   -2.356598    0.476053
      8          1           0       -0.162489   -2.026572   -1.133898
      9          1           0        0.921174   -2.375390    0.254346
     10          7           0        1.352214    0.150324   -0.188271
     11          8           0        1.861013    1.047232    0.481941
     12          8           0        1.823879   -0.292086   -1.236279
     13          6           0       -1.021126    1.851791   -0.191079
     14          1           0       -0.086973    2.292489   -0.554120
     15          1           0       -1.841111    2.269054   -0.783859
     16          1           0       -1.162064    2.181980    0.849587
     17          7           0       -2.383818   -0.191577   -0.090067
     18          1           0       -2.622985   -0.827542   -0.858806
     19          1           0       -2.434704   -0.695983    0.787350
 ---------------------------------------------------------------------

 SCF Done:  E(RHF) =  -517.498621219     A.U. after    2 cycles

 The electronic state is 1-A.
 Alpha  occ. eigenvalues --  -29.11512 -20.95998 -20.95841 -15.84801 -15.57610
 Alpha  occ. eigenvalues --  -11.42650 -11.28429 -11.24995 -11.20864  -1.85299
 Alpha  occ. eigenvalues --   -1.55286  -1.24158  -1.10994  -0.93649  -0.88696
 Alpha  occ. eigenvalues --   -0.76653  -0.70718  -0.59372  -0.56079  -0.52536
 Alpha  occ. eigenvalues --   -0.51189  -0.46939  -0.42995  -0.42634  -0.42220
 Alpha  occ. eigenvalues --   -0.40855  -0.35493  -0.34845  -0.32921  -0.25987
 Alpha  occ. eigenvalues --   -0.21924  -0.20594  -0.19132  -0.17704  -0.11819
 Alpha  occ. eigenvalues --   -0.10877  -0.05488
 Alpha virt. eigenvalues --    0.13504   0.14432   0.14772   0.15489   0.15626
 Alpha virt. eigenvalues --    0.16690   0.17221   0.18156   0.19281   0.21381
 Alpha virt. eigenvalues --    0.22227   0.23025   0.24040   0.25127   0.25588

 Mulliken charges:
               1
     1  C    4.044218
     2  C   -0.460508
     3  F   -0.038951
     4  H    0.045754
     5  H    0.796989
     6  C   -4.192258
     7  H    1.160516
     8  H    1.313689
     9  H    1.128274
    10  N    3.424214
    11  O   -2.861246
    12  O   -2.824959
    13  C   -4.644241
    14  H    1.326063
    15  H    1.158414
    16  H    1.212125
    17  N   -2.585412
    18  H    0.449798
    19  H    0.547521
 Sum of Mulliken charges =  -1.00000

 Dipole moment (field-independent basis, Debye):
    X=              3.3270    Y=             -0.1193    Z=              8.6744  Tot=              9.2913

 Test job not archived.
 1\1\GINC-SE208\SP\RHF\Aug-CC-pVDZ\C4H10F1N2O2(1-)\OHZDE\09-Apr-2025\0\
 \#t hf aug-cc-pvdz iop(5/13=1,5/36=2,99/5=2) pseudo=read geom=check gu
 ess=(read,tcheck) scf=(maxcycle=1)\\title\\-1,1\C,0,-0.01087079,-0.055
 31585,-0.34423722\C,0,-0.09487443,0.03429296,1.1161942\F,0,1.32159464,
 -0.03714928,-0.88938737\H,0,-2.3110465,-0.70460799,1.74076578\H,0,-1.4
 5145669,-0.18603604,1.41425218\C,0,-0.69356,-1.26661843,-0.9320578\H,0
 ,-0.09428863,-2.1477951,-0.70300561\H,0,-1.68128062,-1.38019535,-0.479
 05364\H,0,-0.77860514,-1.17246624,-2.01698931\N,0,-0.64110536,1.193816

 Normal termination of Gaussian 16 at Wed Apr  9 02:33:44 2025.
