 Gaussian 16, Revision C.01,

 ----------------------------------------------------------------------
 #t hf aug-cc-pvdz symm=none int=(grid=ultrafine) guess=(read,tcheck) s
 table=(opt,rrhf)
 ----------------------------------------------------------------------
 -----
 title
 -----
 Symbolic Z-matrix:
 Charge = -1 Multiplicity = 1

 SCF Done:  E(RHF) =  -878.553195588     A.U. after   15 cycles
 Normal termination of Gaussian 16 at Wed Apr  9 02:52:49 2025.
 Gaussian 16:  ES64L-G16RevC.01  3-Jul-2019

 ----------------------------------------------------------------------
 #t hf aug-cc-pvdz iop(5/13=1,5/36=2,99/5=2) pseudo=read geom=check gue
 ss=(read,tcheck) scf=(maxcycle=1)
 ----------------------------------------------------------------------
 -----
 title
 -----
 Structure from the checkpoint file:  "E2SN2_319_mol2.chk"
 Charge = -1 Multiplicity = 1

                         Standard orientation:
 ---------------------------------------------------------------------
 Center     Atomic      Atomic             Coordinates (Angstroms)
 Number     Number       Type             X           Y           Z
 ---------------------------------------------------------------------
      1          6           0        1.009114   -0.135418   -0.404378
      2          6           0        0.460435    1.132281    0.284492
      3          9           0        1.610575    0.348019   -1.626376
      4          1           0        1.312074    1.824481    0.311542
      5          6           0        2.166583   -0.685755    0.338253
      6          7           0        3.070971   -1.122821    0.947790
      7          7           0        0.051181   -1.097799   -0.662295
      8          1           0        0.318756   -2.063285   -0.603355
      9          1           0       -0.929753   -0.909922   -0.444999
     10          6           0       -0.011430    0.845226    1.701618
     11          1           0        0.774289    0.381055    2.302854
     12          1           0       -0.887703    0.194920    1.680897
     13          1           0       -0.301773    1.787999    2.170072
     14          7           0       -0.610053    1.758110   -0.471158
     15          1           0       -1.468272    1.217674   -0.368199
     16          1           0       -0.364704    1.765759   -1.454299
     17         17           0       -3.075352   -0.648899    0.048389
 ---------------------------------------------------------------------

 SCF Done:  E(RHF) =  -880.658676458     A.U. after    2 cycles

 The electronic state is 1-A.
 Alpha  occ. eigenvalues --  -99.62213 -29.13420 -15.67267 -15.62350 -15.60277
 Alpha  occ. eigenvalues --  -11.45337 -11.35164 -11.32421 -11.25952 -10.18918
 Alpha  occ. eigenvalues --   -9.38968  -9.38637  -9.38539  -1.34372  -1.20733
 Alpha  occ. eigenvalues --   -1.18609  -1.01043  -0.98207  -0.94514  -0.76264
 Alpha  occ. eigenvalues --   -0.67533  -0.62850  -0.56704  -0.53950  -0.49003
 Alpha  occ. eigenvalues --   -0.46763  -0.43409  -0.40686  -0.37634  -0.36852
 Alpha  occ. eigenvalues --   -0.35518  -0.34772  -0.29163  -0.27034  -0.26259
 Alpha  occ. eigenvalues --   -0.25954  -0.24614  -0.18897  -0.14504  -0.13588
 Alpha virt. eigenvalues --    0.13189   0.14115   0.14936   0.15225   0.15563
 Alpha virt. eigenvalues --    0.17232   0.17578   0.19545   0.19607   0.20550
 Alpha virt. eigenvalues --    0.22578   0.22859   0.23857   0.23956   0.24765

 Mulliken charges:
               1
     1  C    4.220915
     2  C   -0.052835
     3  F    0.086230
     4  H    1.698880
     5  C    1.307277
     6  N   -2.461495
     7  N   -4.032966
     8  H    0.672136
     9  H    0.537958
    10  C   -3.724934
    11  H    1.265642
    12  H    1.159976
    13  H    1.082068
    14  N   -2.956492
    15  H    0.590062
    16  H    0.582654
    17  Cl  -0.975078
 Sum of Mulliken charges =  -1.00000

 Dipole moment (field-independent basis, Debye):
    X=              7.9652    Y=              2.8819    Z=             -2.4969  Tot=              8.8309

 Test job not archived.
 1\1\GINC-SE073\SP\RHF\Aug-CC-pVDZ\C4H8Cl1F1N3(1-)\OHZDE\09-Apr-2025\0\
 \#t hf aug-cc-pvdz iop(5/13=1,5/36=2,99/5=2) pseudo=read geom=check gu
 ess=(read,tcheck) scf=(maxcycle=1)\\title\\-1,1\C,0,-0.032707,0.04614,
 -0.003539\C,0,-0.374463,0.061004,-1.508741\F,0,1.216448,-0.67626,0.077
 055\H,0,0.531089,0.446026,-1.995462\C,0,0.337186,1.399552,0.471393\N,0
 ,0.609345,2.481773,0.839098\N,0,-1.002436,-0.53682,0.79026\H,0,-1.1498
 18,-0.165902,1.711092\H,0,-1.828897,-0.955522,0.358521\C,0,-1.5486,0.9
 79048,-1.811893\H,0,-1.376527,1.991704,-1.438781\H,0,-2.462544,0.57762

 Normal termination of Gaussian 16 at Wed Apr  9 02:52:57 2025.
