 Gaussian 16, Revision C.01,

 ----------------------------------------------------------------------
 #t hf aug-cc-pvdz symm=none int=(grid=ultrafine) guess=(read,tcheck) s
 table=(opt,rrhf)
 ----------------------------------------------------------------------
 -----
 title
 -----
 Symbolic Z-matrix:
 Charge = -1 Multiplicity = 1

 SCF Done:  E(RHF) =  -852.247665954     A.U. after   16 cycles
 Normal termination of Gaussian 16 at Wed Apr  9 03:00:04 2025.
 Gaussian 16:  ES64L-G16RevC.01  3-Jul-2019

 ----------------------------------------------------------------------
 #t hf aug-cc-pvdz iop(5/13=1,5/36=2,99/5=2) pseudo=read geom=check gue
 ss=(read,tcheck) scf=(maxcycle=1)
 ----------------------------------------------------------------------
 -----
 title
 -----
 Structure from the checkpoint file:  "E2SN2_46_mol2.chk"
 Charge = -1 Multiplicity = 1

                         Standard orientation:
 ---------------------------------------------------------------------
 Center     Atomic      Atomic             Coordinates (Angstroms)
 Number     Number       Type             X           Y           Z
 ---------------------------------------------------------------------
      1          6           0        0.052254   -0.041342    0.250071
      2          6           0        1.146978   -0.879287   -0.422241
      3         17           0        0.090850    1.674515   -0.410720
      4          1           0        1.215899   -0.614336   -1.480062
      5          1           0        0.808529   -1.918627   -0.346239
      6          7           0       -1.347755   -0.499568   -0.145085
      7          8           0       -1.473270   -1.110347   -1.201950
      8          8           0       -2.264196   -0.203692    0.616227
      9          7           0        0.173661   -0.118679    1.635370
     10          1           0       -0.369150    0.583309    2.117084
     11          1           0        1.179618   -0.046173    1.805747
     12          7           0        2.401699   -0.635352    0.263258
     13          1           0        3.072244   -0.231406   -0.481817
     14          1           0        2.808865   -1.528976    0.516061
     15          1           0        3.850631    0.100736   -1.704531
 ---------------------------------------------------------------------

 SCF Done:  E(RHF) =  -854.282376125     A.U. after    2 cycles

 The electronic state is 1-A.
 Alpha  occ. eigenvalues --  -99.77552 -20.99803 -20.99450 -15.88790 -15.64843
 Alpha  occ. eigenvalues --  -15.57030 -11.42913 -11.29147 -10.34910  -9.54985
 Alpha  occ. eigenvalues --   -9.54164  -9.54080  -1.89096  -1.59082  -1.34597
 Alpha  occ. eigenvalues --   -1.17735  -1.16526  -1.00532  -0.85236  -0.69033
 Alpha  occ. eigenvalues --   -0.64098  -0.62078  -0.56506  -0.54123  -0.50724
 Alpha  occ. eigenvalues --   -0.47594  -0.44441  -0.43779  -0.40461  -0.37854
 Alpha  occ. eigenvalues --   -0.35953  -0.30063  -0.25458  -0.22737  -0.21469
 Alpha  occ. eigenvalues --   -0.20756  -0.09928
 Alpha virt. eigenvalues --    0.12934   0.14242   0.15180   0.16862   0.17457
 Alpha virt. eigenvalues --    0.18239   0.19593   0.20441   0.21864   0.22835
 Alpha virt. eigenvalues --    0.24140   0.24600   0.25289   0.25972   0.26044

 Mulliken charges:
               1
     1  C    2.776227
     2  C   -1.207443
     3  Cl   0.020192
     4  H    1.537441
     5  H    1.300528
     6  N    4.110938
     7  O   -2.834903
     8  O   -2.895882
     9  N   -3.274580
    10  H    0.701537
    11  H    0.622410
    12  N   -2.062236
    13  H    0.682915
    14  H    0.455192
    15  H   -0.932337
 Sum of Mulliken charges =  -1.00000

 Dipole moment (field-independent basis, Debye):
    X=            -11.8023    Y=             -1.7642    Z=              7.0926  Tot=             13.8821

 Test job not archived.
 1\1\GINC-SE116\SP\RHF\Aug-CC-pVDZ\C2H7Cl1N3O2(1-)\OHZDE\09-Apr-2025\0\
 \#t hf aug-cc-pvdz iop(5/13=1,5/36=2,99/5=2) pseudo=read geom=check gu
 ess=(read,tcheck) scf=(maxcycle=1)\\title\\-1,1\C,0,-0.617022,-0.01338
 1,-1.493911\C,0,0.093842,-0.181961,-0.145271\Cl,0,0.419452,1.008788,-2
 .617828\H,0,1.165757,-0.317174,-0.308517\H,0,-0.310567,-1.104596,0.285
 716\N,0,-0.713102,-1.327376,-2.262241\O,0,0.100367,-2.206812,-1.996479
 \O,0,-1.590508,-1.407687,-3.117057\N,0,-1.9027,0.485011,-1.297921\H,0,
 -2.326209,0.825015,-2.149107\H,0,-1.788181,1.206097,-0.581573\N,0,-0.1

 Normal termination of Gaussian 16 at Wed Apr  9 03:00:09 2025.
