 Gaussian 16, Revision C.01,

 ----------------------------------------------------------------------
 #t hf aug-cc-pvdz symm=none int=(grid=ultrafine) guess=(read,tcheck) s
 table=(opt,rrhf)
 ----------------------------------------------------------------------
 -----
 title
 -----
 Symbolic Z-matrix:
 Charge = -1 Multiplicity = 1

 SCF Done:  E(RHF) =  -836.225142808     A.U. after   17 cycles
 Normal termination of Gaussian 16 at Wed Apr  9 02:33:02 2025.
 Gaussian 16:  ES64L-G16RevC.01  3-Jul-2019

 ----------------------------------------------------------------------
 #t hf aug-cc-pvdz iop(5/13=1,5/36=2,99/5=2) pseudo=read geom=check gue
 ss=(read,tcheck) scf=(maxcycle=1)
 ----------------------------------------------------------------------
 -----
 title
 -----
 Structure from the checkpoint file:  "E2SN2_104_mol1.chk"
 Charge = -1 Multiplicity = 1

                         Standard orientation:
 ---------------------------------------------------------------------
 Center     Atomic      Atomic             Coordinates (Angstroms)
 Number     Number       Type             X           Y           Z
 ---------------------------------------------------------------------
      1          6           0       -0.124650   -0.042688    0.201579
      2          6           0       -1.084651   -0.727776   -0.659004
      3         17           0       -0.005244    1.869002   -0.055165
      4          1           0       -1.523773   -3.055349   -0.032429
      5          1           0       -1.029992   -1.956102   -0.374527
      6          1           0       -0.838580   -0.623619   -1.718119
      7          6           0       -0.373154   -0.247388    1.666539
      8          1           0       -1.356291    0.167058    1.881440
      9          1           0       -0.400934   -1.325071    1.859177
     10          1           0        0.391279    0.227777    2.279024
     11          7           0       -2.461341   -0.470407   -0.286589
     12          1           0       -2.882809   -1.397372   -0.157103
     13          1           0       -2.949278    0.007565   -1.031840
     14          7           0        1.264906   -0.497271   -0.197813
     15          8           0        1.573141   -0.406802   -1.383134
     16          8           0        1.995522   -0.960330    0.679174
 ---------------------------------------------------------------------

 SCF Done:  E(RHF) =  -838.223476894     A.U. after    2 cycles

 The electronic state is 1-A.
 Alpha  occ. eigenvalues --  -99.74867 -20.97351 -20.96970 -15.86536 -15.58993
 Alpha  occ. eigenvalues --  -11.39977 -11.28296 -11.23862 -10.32020  -9.52091
 Alpha  occ. eigenvalues --   -9.51379  -9.51327  -1.86592  -1.56387  -1.25073
 Alpha  occ. eigenvalues --   -1.15710  -1.05624  -0.90997  -0.81541  -0.64974
 Alpha  occ. eigenvalues --   -0.58979  -0.56872  -0.54154  -0.50206  -0.48218
 Alpha  occ. eigenvalues --   -0.43404  -0.42164  -0.41446  -0.38271  -0.37060
 Alpha  occ. eigenvalues --   -0.35172  -0.33952  -0.24373  -0.21254  -0.18706
 Alpha  occ. eigenvalues --   -0.18633  -0.10495
 Alpha virt. eigenvalues --    0.13861   0.14343   0.15503   0.16050   0.16751
 Alpha virt. eigenvalues --    0.17133   0.18364   0.20196   0.21173   0.22428
 Alpha virt. eigenvalues --    0.23130   0.24651   0.25614   0.26191   0.26358

 Mulliken charges:
               1
     1  C    1.650182
     2  C   -1.642173
     3  Cl  -0.270947
     4  H   -0.503780
     5  H    1.309535
     6  H    1.469305
     7  C   -3.686575
     8  H    1.240260
     9  H    1.272346
    10  H    1.203356
    11  N   -2.349434
    12  H    0.518205
    13  H    0.580304
    14  N    3.973125
    15  O   -3.086336
    16  O   -2.677375
 Sum of Mulliken charges =  -1.00000

 Dipole moment (field-independent basis, Debye):
    X=              2.6320    Y=              6.1786    Z=              0.1907  Tot=              6.7186

 Test job not archived.
 1\1\GINC-SE333\SP\RHF\Aug-CC-pVDZ\C3H8Cl1N2O2(1-)\OHZDE\09-Apr-2025\0\
 \#t hf aug-cc-pvdz iop(5/13=1,5/36=2,99/5=2) pseudo=read geom=check gu
 ess=(read,tcheck) scf=(maxcycle=1)\\title\\-1,1\C,0,-0.16379096,-0.067
 29469,-0.48017231\C,0,-0.17166734,-0.02138115,0.9790675\Cl,0,1.5880034
 ,-0.04738305,-1.29598825\H,0,-2.35587129,-0.47198203,1.9935777\H,0,-1.
 37921395,-0.02964148,1.34575825\H,0,0.28408022,0.89253242,1.36659785\C
 ,0,-0.87100436,-1.26060281,-1.05081113\H,0,-0.34139492,-2.14221139,-0.
 69474231\H,0,-1.88802995,-1.27901512,-0.64510012\H,0,-0.89714654,-1.23

 Normal termination of Gaussian 16 at Wed Apr  9 02:33:09 2025.
