 Gaussian 16, Revision C.01,

 ----------------------------------------------------------------------
 #t hf aug-cc-pvdz symm=none int=(grid=ultrafine) guess=(read,tcheck) s
 table=(opt,rrhf)
 ----------------------------------------------------------------------
 -----
 title
 -----
 Symbolic Z-matrix:
 Charge = -1 Multiplicity = 1

 SCF Done:  E(RHF) =  -876.157682753     A.U. after   16 cycles
 Normal termination of Gaussian 16 at Wed Apr  9 02:57:14 2025.
 Gaussian 16:  ES64L-G16RevC.01  3-Jul-2019

 ----------------------------------------------------------------------
 #t hf aug-cc-pvdz iop(5/13=1,5/36=2,99/5=2) pseudo=read geom=check gue
 ss=(read,tcheck) scf=(maxcycle=1)
 ----------------------------------------------------------------------
 -----
 title
 -----
 Structure from the checkpoint file:  "E2SN2_385_mol2.chk"
 Charge = -1 Multiplicity = 1

                         Standard orientation:
 ---------------------------------------------------------------------
 Center     Atomic      Atomic             Coordinates (Angstroms)
 Number     Number       Type             X           Y           Z
 ---------------------------------------------------------------------
      1          6           0       -0.320023   -0.202233    0.142629
      2          6           0        0.594371    0.531990   -0.838712
      3         17           0        0.160050   -1.975972    0.246482
      4          1           0        0.457309    0.152637   -1.854071
      5          1           0        0.235168    1.585076   -0.734846
      6          7           0       -0.225194    0.417287    1.411809
      7          1           0       -0.940246    0.045752    2.027828
      8          1           0       -0.430225    1.443888    1.176305
      9          6           0       -1.685085   -0.237775   -0.431689
     10          7           0       -2.788014   -0.278224   -0.836305
     11          6           0        1.997848    0.428574   -0.466257
     12          7           0        3.147127    0.368377   -0.233172
     13          9           0       -0.722549    2.632084    0.262493
 ---------------------------------------------------------------------

 SCF Done:  E(RHF) =  -878.193151299     A.U. after    2 cycles

 The electronic state is 1-A.
 Alpha  occ. eigenvalues --  -99.77346 -28.93109 -15.65378 -15.63892 -15.59813
 Alpha  occ. eigenvalues --  -11.42364 -11.34436 -11.33045 -11.29761 -10.34705
 Alpha  occ. eigenvalues --   -9.54686  -9.53962  -9.53837  -1.33586  -1.17743
 Alpha  occ. eigenvalues --   -1.16901  -1.15397  -1.01555  -0.84766  -0.64696
 Alpha  occ. eigenvalues --   -0.62144  -0.55973  -0.52277  -0.47700  -0.44930
 Alpha  occ. eigenvalues --   -0.42766  -0.40511  -0.39243  -0.37962  -0.33999
 Alpha  occ. eigenvalues --   -0.32472  -0.31813  -0.29758  -0.27163  -0.24631
 Alpha  occ. eigenvalues --   -0.02151  -0.01382   0.00106
 Alpha virt. eigenvalues --    0.13963   0.15202   0.16436   0.18000   0.18750
 Alpha virt. eigenvalues --    0.19211   0.20545   0.21151   0.21692   0.23330
 Alpha virt. eigenvalues --    0.23906   0.24211   0.25385   0.25806   0.26057

 Mulliken charges:
               1
     1  C    2.440154
     2  C   -2.476871
     3  Cl  -0.141031
     4  H    1.326338
     5  H    1.283402
     6  N   -3.402653
     7  H    0.590042
     8  H    0.166168
     9  C    2.988018
    10  N   -2.877730
    11  C    2.197436
    12  N   -2.619970
    13  F   -0.473302
 Sum of Mulliken charges =  -1.00000

 Dipole moment (field-independent basis, Debye):
    X=             -0.6711    Y=             -2.6146    Z=             -0.3770  Tot=              2.7255

 Test job not archived.
 1\1\GINC-SE080\SP\RHF\Aug-CC-pVDZ\C4H4Cl1F1N3(1-)\OHZDE\09-Apr-2025\0\
 \#t hf aug-cc-pvdz iop(5/13=1,5/36=2,99/5=2) pseudo=read geom=check gu
 ess=(read,tcheck) scf=(maxcycle=1)\\title\\-1,1\C,0,0.002361,-0.025043
 ,0.003892\C,0,-0.527458,-0.066077,-1.429928\Cl,0,1.839909,0.078619,-0.
 004868\H,0,-0.205375,-0.97916,-1.936081\H,0,-1.632048,-0.050079,-1.261
 317\N,0,-0.558897,1.090531,0.670301\H,0,-0.344718,1.040519,1.660474\H,
 0,-1.609278,0.944684,0.50648\C,0,-0.275557,-1.333857,0.639712\N,0,-0.4
 87652,-2.348389,1.194277\C,0,-0.108996,1.093008,-2.204896\N,0,0.208568

 Normal termination of Gaussian 16 at Wed Apr  9 02:57:20 2025.
