 Gaussian 16, Revision C.01,

 ----------------------------------------------------------------------
 #t hf aug-cc-pvdz symm=none int=(grid=ultrafine) guess=(read,tcheck) s
 table=(opt,rrhf)
 ----------------------------------------------------------------------
 -----
 title
 -----
 Symbolic Z-matrix:
 Charge = -1 Multiplicity = 1

 SCF Done:  E(RHF) =  -726.798128500     A.U. after   15 cycles
 Normal termination of Gaussian 16 at Wed Apr  9 02:38:13 2025.
 Gaussian 16:  ES64L-G16RevC.01  3-Jul-2019

 ----------------------------------------------------------------------
 #t hf aug-cc-pvdz iop(5/13=1,5/36=2,99/5=2) pseudo=read geom=check gue
 ss=(read,tcheck) scf=(maxcycle=1)
 ----------------------------------------------------------------------
 -----
 title
 -----
 Structure from the checkpoint file:  "E2SN2_160_mol1.chk"
 Charge = -1 Multiplicity = 1

                         Standard orientation:
 ---------------------------------------------------------------------
 Center     Atomic      Atomic             Coordinates (Angstroms)
 Number     Number       Type             X           Y           Z
 ---------------------------------------------------------------------
      1          6           0       -0.248841    0.523402    0.120512
      2          6           0        1.099171    0.028439   -0.061862
      3         17           0       -1.610305   -1.015174   -0.145550
      4          1           0        2.275948    2.047239    0.765681
      5          1           0        1.726166    1.112197    0.288758
      6          7           0       -0.550596    0.995412    1.449385
      7          1           0        0.190435    1.685176    1.638116
      8          1           0       -0.409467    0.234630    2.103552
      9          6           0       -0.672364    1.549550   -0.892772
     10          1           0       -1.700690    1.854423   -0.698057
     11          1           0       -0.001867    2.412447   -0.762296
     12          1           0       -0.556383    1.170482   -1.904422
     13          7           0        1.436648   -0.261097   -1.444990
     14          1           0        1.231551   -1.237676   -1.646508
     15          1           0        2.436857   -0.126322   -1.561955
     16          6           0        1.606979   -0.985817    0.940596
     17          1           0        1.043154   -1.926824    0.886136
     18          1           0        2.661755   -1.195258    0.729517
     19          1           0        1.565689   -0.606218    1.966210
 ---------------------------------------------------------------------

 SCF Done:  E(RHF) =  -728.440062028     A.U. after    2 cycles

 The electronic state is 1-A.
 Alpha  occ. eigenvalues --  -99.68715 -15.59667 -15.58935 -11.36668 -11.27534
 Alpha  occ. eigenvalues --  -11.24594 -11.21629 -10.25772  -9.45875  -9.45291
 Alpha  occ. eigenvalues --   -9.45213  -1.28526  -1.16527  -1.06956  -0.95510
 Alpha  occ. eigenvalues --   -0.93286  -0.78286  -0.62894  -0.56029  -0.51300
 Alpha  occ. eigenvalues --   -0.49137  -0.47128  -0.43454  -0.42822  -0.39467
 Alpha  occ. eigenvalues --   -0.35994  -0.35044  -0.34188  -0.33633  -0.31083
 Alpha  occ. eigenvalues --   -0.30575  -0.23990  -0.19838  -0.09059
 Alpha virt. eigenvalues --    0.13571   0.14528   0.14876   0.15274   0.15477
 Alpha virt. eigenvalues --    0.15817   0.16256   0.17013   0.17906   0.18643
 Alpha virt. eigenvalues --    0.19487   0.20608   0.22254   0.23629   0.25770

 Mulliken charges:
               1
     1  C    3.387957
     2  C    1.978306
     3  Cl  -0.566741
     4  H    0.035609
     5  H    0.809038
     6  N   -3.454549
     7  H    0.621671
     8  H    0.562669
     9  C   -4.555549
    10  H    1.122379
    11  H    1.303820
    12  H    1.275574
    13  N   -3.588537
    14  H    0.564963
    15  H    0.464980
    16  C   -4.646640
    17  H    1.213638
    18  H    1.222315
    19  H    1.249100
 Sum of Mulliken charges =  -1.00000

 Dipole moment (field-independent basis, Debye):
    X=             -1.9374    Y=             -3.8110    Z=             -1.4004  Tot=              4.4988

 Test job not archived.
 1\1\GINC-SE112\SP\RHF\Aug-CC-pVDZ\C4H12Cl1N2(1-)\OHZDE\09-Apr-2025\0\\
 #t hf aug-cc-pvdz iop(5/13=1,5/36=2,99/5=2) pseudo=read geom=check gue
 ss=(read,tcheck) scf=(maxcycle=1)\\title\\-1,1\C,0,-0.23313667,0.03527
 156,-0.34175136\C,0,-0.22837303,0.06584034,1.10546199\Cl,0,1.71107223,
 -0.01029698,-1.05559\H,0,-2.6558078,-0.32387401,1.42306002\H,0,-1.5112
 4797,-0.05199146,1.28134873\N,0,-0.81899345,-1.14648463,-0.92482571\H,
 0,-1.75118531,-1.19733148,-0.49013794\H,0,-0.30509074,-1.95713261,-0.6
 0017989\C,0,-0.81680855,1.26269467,-0.98351106\H,0,-0.76512318,1.16902

 Normal termination of Gaussian 16 at Wed Apr  9 02:38:21 2025.
