 Gaussian 16, Revision C.01,

 ----------------------------------------------------------------------
 #t hf aug-cc-pvdz symm=none int=(grid=ultrafine) guess=(read,tcheck) s
 table=(opt,rrhf)
 ----------------------------------------------------------------------
 -----
 title
 -----
 Symbolic Z-matrix:
 Charge = -1 Multiplicity = 1

 SCF Done:  E(RHF) =  -935.186844072     A.U. after   15 cycles
 Normal termination of Gaussian 16 at Wed Apr  9 02:35:20 2025.
 Gaussian 16:  ES64L-G16RevC.01  3-Jul-2019

 ----------------------------------------------------------------------
 #t hf aug-cc-pvdz iop(5/13=1,5/36=2,99/5=2) pseudo=read geom=check gue
 ss=(read,tcheck) scf=(maxcycle=1)
 ----------------------------------------------------------------------
 -----
 title
 -----
 Structure from the checkpoint file:  "E2SN2_128_mol2.chk"
 Charge = -1 Multiplicity = 1

                         Standard orientation:
 ---------------------------------------------------------------------
 Center     Atomic      Atomic             Coordinates (Angstroms)
 Number     Number       Type             X           Y           Z
 ---------------------------------------------------------------------
      1          6           0        0.468833    0.205223    0.383912
      2          6           0       -1.031703    0.186694    0.189259
      3         17           0        1.140570    1.784694   -0.144004
      4          1           0       -1.350532    0.466843   -0.817157
      5          1           0       -1.472616    0.959704    0.823680
      6          7           0        0.964802   -0.055913    1.707045
      7          1           0        0.421613    0.522646    2.338361
      8          1           0        0.773893   -1.027258    1.922593
      9          7           0        1.066345   -0.862216   -0.537614
     10          8           0        1.479158   -1.891841   -0.006701
     11          8           0        1.009416   -0.660898   -1.742488
     12          6           0       -1.699244   -1.142293    0.517431
     13          1           0       -1.582183   -1.435570    1.567304
     14          1           0       -2.747624   -0.887489    0.263997
     15          1           0       -1.338768   -1.955554   -0.121651
     16          9           0       -3.627489    0.485329   -0.473907
 ---------------------------------------------------------------------

 SCF Done:  E(RHF) =  -937.493241713     A.U. after    2 cycles

 The electronic state is 1-A.
 Alpha  occ. eigenvalues --  -99.78456 -28.86255 -20.99447 -20.99253 -15.88506
 Alpha  occ. eigenvalues --  -15.65733 -11.43895 -11.27812 -11.21192 -10.35898
 Alpha  occ. eigenvalues --   -9.56013  -9.55045  -9.54998  -1.88928  -1.59012
 Alpha  occ. eigenvalues --   -1.33864  -1.17716  -1.05519  -0.96434  -0.80255
 Alpha  occ. eigenvalues --   -0.68603  -0.64094  -0.59362  -0.56653  -0.51512
 Alpha  occ. eigenvalues --   -0.49916  -0.47812  -0.45500  -0.42385  -0.40897
 Alpha  occ. eigenvalues --   -0.37530  -0.35457  -0.33418  -0.28284  -0.24711
 Alpha  occ. eigenvalues --   -0.23664  -0.21172  -0.20604   0.04414   0.04993
 Alpha  occ. eigenvalues --    0.06381
 Alpha virt. eigenvalues --    0.12903   0.14315   0.15386   0.15613   0.16619
 Alpha virt. eigenvalues --    0.17681   0.19188   0.19668   0.20862   0.22871
 Alpha virt. eigenvalues --    0.23809   0.24694   0.25324   0.25665   0.25996

 Mulliken charges:
               1
     1  C    2.375509
     2  C   -0.624289
     3  Cl  -0.090919
     4  H    1.261231
     5  H    1.265222
     6  N   -3.297500
     7  H    0.594610
     8  H    0.552284
     9  N    4.250748
    10  O   -2.713557
    11  O   -3.131027
    12  C   -3.536276
    13  H    1.092932
    14  H    0.786132
    15  H    1.186701
    16  F   -0.971802
 Sum of Mulliken charges =  -1.00000

 Dipole moment (field-independent basis, Debye):
    X=              9.3822    Y=             -1.5670    Z=              2.6081  Tot=              9.8633

 Test job not archived.
 1\1\GINC-SE069\SP\RHF\Aug-CC-pVDZ\C3H7Cl1F1N2O2(1-)\OHZDE\09-Apr-2025\
 0\\#t hf aug-cc-pvdz iop(5/13=1,5/36=2,99/5=2) pseudo=read geom=check
 guess=(read,tcheck) scf=(maxcycle=1)\\title\\-1,1\C,0,-0.634859,0.0193
 6,-1.535927\C,0,0.139339,0.031766,-0.23581\Cl,0,-0.062773,-1.323013,-2
 .582544\H,0,1.223698,0.03018,-0.366847\H,0,-0.057565,-0.904054,0.29325
 3\N,0,-2.065894,-0.078367,-1.449639\H,0,-2.265197,-0.830762,-0.79962\H
 ,0,-2.411249,0.786328,-1.050328\N,0,-0.318238,1.323817,-2.273355\O,0,-
 1.200062,2.180675,-2.297685\O,0,0.816555,1.463474,-2.70721\C,0,-0.1982

 Normal termination of Gaussian 16 at Wed Apr  9 02:35:28 2025.
