 Gaussian 16, Revision C.01,

 ----------------------------------------------------------------------
 #t hf aug-cc-pvdz symm=none int=(grid=ultrafine) guess=(read,tcheck) s
 table=(opt,rrhf)
 ----------------------------------------------------------------------
 -----
 title
 -----
 Symbolic Z-matrix:
 Charge = -1 Multiplicity = 1

 SCF Done:  E(RHF) =  -585.601135526     A.U. after   17 cycles
 Normal termination of Gaussian 16 at Wed Apr  9 02:41:51 2025.
 Gaussian 16:  ES64L-G16RevC.01  3-Jul-2019

 ----------------------------------------------------------------------
 #t hf aug-cc-pvdz iop(5/13=1,5/36=2,99/5=2) pseudo=read geom=check gue
 ss=(read,tcheck) scf=(maxcycle=1)
 ----------------------------------------------------------------------
 -----
 title
 -----
 Structure from the checkpoint file:  "E2SN2_210_mol1.chk"
 Charge = -1 Multiplicity = 1

                         Standard orientation:
 ---------------------------------------------------------------------
 Center     Atomic      Atomic             Coordinates (Angstroms)
 Number     Number       Type             X           Y           Z
 ---------------------------------------------------------------------
      1          6           0        0.549637   -0.629016    0.382070
      2          1           0       -0.946237   -0.412391    1.904618
      3          9           0        0.086194   -0.867138   -1.073412
      4          1           0        1.219231   -0.283403    2.108282
      5          6           0       -0.601921    0.107744    1.018761
      6          1           0        0.778650   -1.633130    0.693087
      7          1           0       -0.339491    1.140029    1.217920
      8          7           0        1.762593    0.149533    0.075718
      9          8           0        1.643752    1.364890   -0.099470
     10          8           0        2.792308   -0.490940   -0.146910
     11          7           0       -1.808495    0.162520    0.090427
     12          8           0       -1.977173    1.176227   -0.583309
     13          8           0       -2.565498   -0.808127    0.100789
 ---------------------------------------------------------------------

 SCF Done:  E(RHF) =  -588.048910038     A.U. after    2 cycles

 The electronic state is 1-A.
 Alpha  occ. eigenvalues --  -29.07747 -20.96681 -20.96347 -20.94203 -20.94024
 Alpha  occ. eigenvalues --  -15.85352 -15.84978 -11.43679 -11.32686  -1.85595
 Alpha  occ. eigenvalues --   -1.83675  -1.55669  -1.53701  -1.17096  -1.00723
 Alpha  occ. eigenvalues --   -0.76990  -0.73676  -0.61820  -0.58764  -0.57578
 Alpha  occ. eigenvalues --   -0.53541  -0.50901  -0.47356  -0.43596  -0.42184
 Alpha  occ. eigenvalues --   -0.41012  -0.25726  -0.23641  -0.21025  -0.19488
 Alpha  occ. eigenvalues --   -0.18270  -0.17389  -0.15931  -0.10568  -0.10238
 Alpha  occ. eigenvalues --   -0.08674
 Alpha virt. eigenvalues --    0.14840   0.15530   0.16249   0.18787   0.22230
 Alpha virt. eigenvalues --    0.23435   0.23813   0.24650   0.25244   0.26670
 Alpha virt. eigenvalues --    0.27614   0.28018   0.28376   0.29364   0.30244

 Mulliken charges:
               1
     1  C   -0.705324
     2  H    1.579272
     3  F   -0.065019
     4  H   -0.883562
     5  C   -2.684160
     6  H    1.686744
     7  H    1.701860
     8  N    5.322894
     9  O   -3.000305
    10  O   -3.169239
    11  N    4.968643
    12  O   -2.858643
    13  O   -2.893160
 Sum of Mulliken charges =  -1.00000

 Dipole moment (field-independent basis, Debye):
    X=             -3.6799    Y=             -0.3958    Z=             -5.8982  Tot=              6.9633

 Test job not archived.
 1\1\GINC-SE362\SP\RHF\Aug-CC-pVDZ\C2H4F1N2O4(1-)\OHZDE\09-Apr-2025\0\\
 #t hf aug-cc-pvdz iop(5/13=1,5/36=2,99/5=2) pseudo=read geom=check gue
 ss=(read,tcheck) scf=(maxcycle=1)\\title\\-1,1\C,0,0.51928765,-0.13593
 49,0.07215553\H,0,1.81833622,1.26869023,1.04283374\F,0,-0.99371532,-0.
 07239567,0.38311648\H,0,2.33266768,-0.26049238,-0.42155404\C,0,1.00611
 544,1.26867807,0.32580212\H,0,0.83064202,-0.93468486,0.72213915\H,0,1.
 27046222,1.76126892,-0.60243308\N,0,0.41185876,-0.57008685,-1.33184735
 \O,0,0.2567199,0.29544549,-2.19711807\O,0,0.32006974,-1.78305419,-1.53

 Normal termination of Gaussian 16 at Wed Apr  9 02:41:56 2025.
