 Gaussian 16, Revision C.01,

 ----------------------------------------------------------------------
 #t hf aug-cc-pvdz symm=none int=(grid=ultrafine) guess=(read,tcheck) s
 table=(opt,rrhf)
 ----------------------------------------------------------------------
 -----
 title
 -----
 Symbolic Z-matrix:
 Charge = -1 Multiplicity = 1

 SCF Done:  E(RHF) =  -1042.95404832     A.U. after   16 cycles
 Normal termination of Gaussian 16 at Wed Apr  9 02:38:02 2025.
 Gaussian 16:  ES64L-G16RevC.01  3-Jul-2019

 ----------------------------------------------------------------------
 #t hf aug-cc-pvdz iop(5/13=1,5/36=2,99/5=2) pseudo=read geom=check gue
 ss=(read,tcheck) scf=(maxcycle=1)
 ----------------------------------------------------------------------
 -----
 title
 -----
 Structure from the checkpoint file:  "E2SN2_143_mol2.chk"
 Charge = -1 Multiplicity = 1

                         Standard orientation:
 ---------------------------------------------------------------------
 Center     Atomic      Atomic             Coordinates (Angstroms)
 Number     Number       Type             X           Y           Z
 ---------------------------------------------------------------------
      1          6           0       -0.839251   -0.616754    0.146234
      2          6           0        0.667758   -0.239054    0.178884
      3         17           0       -1.537523    0.005578   -1.483873
      4          1           0        1.048767   -0.401526    1.188723
      5          7           0       -0.889607   -2.014033    0.261325
      6          1           0       -0.128313   -2.382817   -0.310094
      7          1           0       -1.795767   -2.397336    0.032152
      8          6           0       -1.688378    0.009709    1.162221
      9          7           0       -2.422186    0.426191    1.980212
     10          7           0        0.766507    1.274296   -0.018628
     11          8           0        1.306759    1.695651   -1.035396
     12          8           0        0.287355    1.974307    0.872744
     13          7           0        1.420474   -1.014740   -0.705603
     14          1           0        2.407672   -1.055124   -0.151121
     15          1           0        1.455040   -0.570888   -1.615600
     16          9           0        3.270054   -0.919134    0.870867
 ---------------------------------------------------------------------

 SCF Done:  E(RHF) =  -1045.69594329     A.U. after    2 cycles

 The electronic state is 1-A.
 Alpha  occ. eigenvalues --  -99.78368 -28.93080 -20.97861 -20.97288 -15.86363
 Alpha  occ. eigenvalues --  -15.67217 -15.66290 -15.57086 -11.46007 -11.37730
 Alpha  occ. eigenvalues --  -11.34097 -10.35677  -9.55682  -9.55068  -9.54953
 Alpha  occ. eigenvalues --   -1.86724  -1.56973  -1.37136  -1.21725  -1.18791
 Alpha  occ. eigenvalues --   -1.17634  -1.00232  -0.89398  -0.74708  -0.67971
 Alpha  occ. eigenvalues --   -0.62297  -0.57898  -0.56035  -0.53567  -0.52406
 Alpha  occ. eigenvalues --   -0.50125  -0.45665  -0.44572  -0.42006  -0.39689
 Alpha  occ. eigenvalues --   -0.38353  -0.33918  -0.33308  -0.31107  -0.29565
 Alpha  occ. eigenvalues --   -0.26066  -0.21581  -0.19483  -0.18025  -0.01626
 Alpha  occ. eigenvalues --   -0.01394   0.00225
 Alpha virt. eigenvalues --    0.12390   0.14783   0.15462   0.16728   0.17566
 Alpha virt. eigenvalues --    0.18674   0.19308   0.19898   0.21100   0.22734
 Alpha virt. eigenvalues --    0.23583   0.24103   0.24798   0.26099   0.26466

 Mulliken charges:
               1
     1  C    2.021656
     2  C    1.606376
     3  Cl  -0.096078
     4  H    1.706127
     5  N   -3.333971
     6  H    0.641591
     7  H    0.666592
     8  C    2.901557
     9  N   -2.710001
    10  N    4.473065
    11  O   -2.824852
    12  O   -3.024046
    13  N   -2.740007
    14  H   -0.265586
    15  H    0.369311
    16  F   -0.391736
 Sum of Mulliken charges =  -1.00000

 Dipole moment (field-independent basis, Debye):
    X=             -4.7979    Y=             -0.6284    Z=             -2.2101  Tot=              5.3197

 Test job not archived.
 1\1\GINC-SE029\SP\RHF\Aug-CC-pVDZ\C3H5Cl1F1N4O2(1-)\OHZDE\09-Apr-2025\
 0\\#t hf aug-cc-pvdz iop(5/13=1,5/36=2,99/5=2) pseudo=read geom=check
 guess=(read,tcheck) scf=(maxcycle=1)\\title\\-1,1\C,0,-0.685641,-0.093
 668,-1.488083\C,0,0.061158,-0.044868,-0.126206\Cl,0,-2.525566,-0.18160
 8,-1.11516\H,0,1.126746,-0.200368,-0.304197\N,0,-0.324168,1.078574,-2.
 168786\H,0,-0.312132,1.828047,-1.475796\H,0,-0.912477,1.269469,-2.9675
 47\C,0,-0.433315,-1.268465,-2.325869\N,0,-0.238296,-2.150019,-3.078113
 \N,0,-0.366729,-1.274178,0.676726\O,0,-1.003751,-1.102893,1.710213\O,0

 Normal termination of Gaussian 16 at Wed Apr  9 02:38:11 2025.
