 Gaussian 16, Revision C.01,

 ----------------------------------------------------------------------
 #t hf aug-cc-pvdz symm=none int=(grid=ultrafine) guess=(read,tcheck) s
 table=(opt,rrhf)
 ----------------------------------------------------------------------
 -----
 title
 -----
 Symbolic Z-matrix:
 Charge = -1 Multiplicity = 1

 SCF Done:  E(RHF) =  -531.201317022     A.U. after   17 cycles
 Normal termination of Gaussian 16 at Wed Apr  9 02:35:32 2025.
 Gaussian 16:  ES64L-G16RevC.01  3-Jul-2019

 ----------------------------------------------------------------------
 #t hf aug-cc-pvdz iop(5/13=1,5/36=2,99/5=2) pseudo=read geom=check gue
 ss=(read,tcheck) scf=(maxcycle=1)
 ----------------------------------------------------------------------
 -----
 title
 -----
 Structure from the checkpoint file:  "E2SN2_126_mol1.chk"
 Charge = -1 Multiplicity = 1

                         Standard orientation:
 ---------------------------------------------------------------------
 Center     Atomic      Atomic             Coordinates (Angstroms)
 Number     Number       Type             X           Y           Z
 ---------------------------------------------------------------------
      1          6           0        0.016021   -0.473866   -0.179757
      2          6           0        1.040187    0.444999    0.319597
      3          9           0       -0.023288   -0.626058   -1.600405
      4          1           0        1.529210   -0.497172    2.500486
      5          1           0        1.167103    0.030664    1.739916
      6          7           0        0.054568   -1.815858    0.329168
      7          1           0        0.472999   -1.767965    1.258381
      8          1           0        0.679962   -2.340605   -0.267423
      9          7           0       -1.368248    0.093359    0.159109
     10          8           0       -2.000103    0.685648   -0.712369
     11          8           0       -1.732767   -0.045596    1.322532
     12          6           0        0.825115    1.916442    0.056321
     13          1           0       -0.105836    2.286578    0.500758
     14          1           0        1.651958    2.465033    0.517494
     15          1           0        0.809323    2.183184   -1.013860
     16          7           0        2.378484    0.001412   -0.021591
     17          1           0        2.406594   -0.520979   -0.891192
     18          1           0        2.719662   -0.602460    0.734008
 ---------------------------------------------------------------------

 SCF Done:  E(RHF) =  -533.560643466     A.U. after    2 cycles

 The electronic state is 1-A.
 Alpha  occ. eigenvalues --  -29.11769 -20.95509 -20.95320 -15.84121 -15.61018
 Alpha  occ. eigenvalues --  -15.57766 -11.44622 -11.25150 -11.20084  -1.84822
 Alpha  occ. eigenvalues --   -1.54906  -1.30037  -1.16159  -1.01649  -0.91048
 Alpha  occ. eigenvalues --   -0.77672  -0.71890  -0.60473  -0.56006  -0.53380
 Alpha  occ. eigenvalues --   -0.51681  -0.48893  -0.43985  -0.43435  -0.41387
 Alpha  occ. eigenvalues --   -0.38901  -0.36382  -0.33733  -0.27023  -0.25587
 Alpha  occ. eigenvalues --   -0.21206  -0.20989  -0.18675  -0.17244  -0.12436
 Alpha  occ. eigenvalues --   -0.10939  -0.05755
 Alpha virt. eigenvalues --    0.13770   0.14673   0.15014   0.15652   0.16532
 Alpha virt. eigenvalues --    0.17035   0.18370   0.18918   0.21049   0.22054
 Alpha virt. eigenvalues --    0.23276   0.24059   0.25731   0.26516   0.27210

 Mulliken charges:
               1
     1  C    4.419451
     2  C    0.887257
     3  F    0.311576
     4  H   -0.029756
     5  H    0.566750
     6  N   -3.561709
     7  H    0.695624
     8  H    0.434445
     9  N    3.498869
    10  O   -2.791359
    11  O   -2.951875
    12  C   -4.222153
    13  H    1.192634
    14  H    1.128636
    15  H    1.186547
    16  N   -2.761610
    17  H    0.537351
    18  H    0.459322
 Sum of Mulliken charges =  -1.00000

 Dipole moment (field-independent basis, Debye):
    X=             -2.3103    Y=             -0.6319    Z=             -7.2778  Tot=              7.6617

 Test job not archived.
 1\1\GINC-SE336\SP\RHF\Aug-CC-pVDZ\C3H9F1N3O2(1-)\OHZDE\09-Apr-2025\0\\
 #t hf aug-cc-pvdz iop(5/13=1,5/36=2,99/5=2) pseudo=read geom=check gue
 ss=(read,tcheck) scf=(maxcycle=1)\\title\\-1,1\C,0,-0.03342077,-0.0293
 3499,-0.33220612\C,0,-0.08838453,0.06135573,1.12770458\F,0,1.27849971,
 -0.16142756,-0.88389872\H,0,-2.25434519,-0.9212947,1.60322337\H,0,-1.4
 9962302,-0.30342948,1.41129882\N,0,-0.79149812,-1.08720284,-0.93856235
 \H,0,-1.57327449,-1.28642898,-0.31410306\H,0,-0.19493778,-1.90329723,-
 0.96101112\N,0,-0.54412379,1.28707381,-0.93139315\O,0,0.2698648,2.1207

 Normal termination of Gaussian 16 at Wed Apr  9 02:35:40 2025.
