 Gaussian 16, Revision C.01,

 ----------------------------------------------------------------------
 #t hf aug-cc-pvdz symm=none int=(grid=ultrafine) guess=(read,tcheck) s
 table=(opt,rrhf)
 ----------------------------------------------------------------------
 -----
 title
 -----
 Symbolic Z-matrix:
 Charge = -1 Multiplicity = 1

 SCF Done:  E(RHF) =  -836.265748416     A.U. after   16 cycles
 Normal termination of Gaussian 16 at Wed Apr  9 02:56:21 2025.
 Gaussian 16:  ES64L-G16RevC.01  3-Jul-2019

 ----------------------------------------------------------------------
 #t hf aug-cc-pvdz iop(5/13=1,5/36=2,99/5=2) pseudo=read geom=check gue
 ss=(read,tcheck) scf=(maxcycle=1)
 ----------------------------------------------------------------------
 -----
 title
 -----
 Structure from the checkpoint file:  "E2SN2_367_mol2.chk"
 Charge = -1 Multiplicity = 1

                         Standard orientation:
 ---------------------------------------------------------------------
 Center     Atomic      Atomic             Coordinates (Angstroms)
 Number     Number       Type             X           Y           Z
 ---------------------------------------------------------------------
      1          6           0       -0.914208    0.126210   -0.576775
      2          6           0        0.353356    0.761890   -0.044325
      3         17           0       -1.348659   -1.375663    0.462481
      4          1           0        0.478584    1.660615   -0.703539
      5          1           0       -0.709800   -0.346085   -1.538738
      6          7           0       -1.940690    1.092192   -0.542946
      7          1           0       -1.505477    2.012089   -0.850833
      8          1           0       -2.670842    0.845638   -1.200543
      9          7           0        1.516130   -0.134351   -0.282143
     10          8           0        2.355214   -0.269637    0.611857
     11          8           0        1.610480   -0.660855   -1.393603
     12          6           0        0.277053    1.232508    1.386519
     13          1           0        0.187116    0.397047    2.080907
     14          1           0       -0.600310    1.873685    1.468723
     15          1           0        1.164171    1.814429    1.638178
     16          1           0       -0.467066    3.144251   -1.319252
 ---------------------------------------------------------------------

 SCF Done:  E(RHF) =  -838.244776000     A.U. after    2 cycles

 The electronic state is 1-A.
 Alpha  occ. eigenvalues --  -99.74363 -20.97188 -20.96758 -15.86339 -15.59422
 Alpha  occ. eigenvalues --  -11.37937 -11.32616 -11.25664 -10.31658  -9.51640
 Alpha  occ. eigenvalues --   -9.51021  -9.50928  -1.86439  -1.56092  -1.28550
 Alpha  occ. eigenvalues --   -1.12847  -1.09773  -0.90213  -0.82020  -0.68324
 Alpha  occ. eigenvalues --   -0.60458  -0.58371  -0.54327  -0.49495  -0.48641
 Alpha  occ. eigenvalues --   -0.46197  -0.43893  -0.42350  -0.38935  -0.37528
 Alpha  occ. eigenvalues --   -0.34896  -0.33397  -0.24612  -0.23047  -0.19169
 Alpha  occ. eigenvalues --   -0.18403  -0.12118
 Alpha virt. eigenvalues --    0.13987   0.14672   0.15295   0.15824   0.16747
 Alpha virt. eigenvalues --    0.17686   0.19120   0.20441   0.20643   0.22577
 Alpha virt. eigenvalues --    0.24168   0.24428   0.24896   0.26080   0.26476

 Mulliken charges:
               1
     1  C   -0.968273
     2  C    0.671075
     3  Cl  -0.054409
     4  H    1.786640
     5  H    1.930015
     6  N   -2.711183
     7  H    0.802056
     8  H    0.538230
     9  N    3.662759
    10  O   -2.703412
    11  O   -2.980124
    12  C   -3.554700
    13  H    1.174267
    14  H    1.252970
    15  H    1.203020
    16  H   -1.048931
 Sum of Mulliken charges =  -1.00000

 Dipole moment (field-independent basis, Debye):
    X=              0.7872    Y=             -7.0971    Z=              2.8069  Tot=              7.6725

 Test job not archived.
 1\1\GINC-SE220\SP\RHF\Aug-CC-pVDZ\C3H8Cl1N2O2(1-)\OHZDE\09-Apr-2025\0\
 \#t hf aug-cc-pvdz iop(5/13=1,5/36=2,99/5=2) pseudo=read geom=check gu
 ess=(read,tcheck) scf=(maxcycle=1)\\title\\-1,1\C,0,0.053539,-0.026068
 ,0.019775\C,0,-0.554125,-0.272656,-1.3456\Cl,0,1.904133,0.237511,-0.15
 4157\H,0,-1.648979,-0.363071,-1.11961\H,0,0.034724,-0.949632,0.6002\N,
 0,-0.577464,1.099854,0.587284\H,0,-1.610767,1.024282,0.348558\H,0,-0.4
 77954,1.081914,1.595312\N,0,-0.097161,-1.582392,-1.881906\O,0,0.216961
 ,-1.660574,-3.072206\O,0,-0.106569,-2.546536,-1.112628\C,0,-0.367462,0

 Normal termination of Gaussian 16 at Wed Apr  9 02:56:29 2025.
