 Gaussian 16, Revision C.01,

 ----------------------------------------------------------------------
 #t hf aug-cc-pvdz symm=none int=(grid=ultrafine) guess=(read,tcheck) s
 table=(opt,rrhf)
 ----------------------------------------------------------------------
 -----
 title
 -----
 Symbolic Z-matrix:
 Charge = -1 Multiplicity = 1

 SCF Done:  E(RHF) =  -779.540294891     A.U. after   17 cycles
 Normal termination of Gaussian 16 at Wed Apr  9 02:33:49 2025.
 Gaussian 16:  ES64L-G16RevC.01  3-Jul-2019

 ----------------------------------------------------------------------
 #t hf aug-cc-pvdz iop(5/13=1,5/36=2,99/5=2) pseudo=read geom=check gue
 ss=(read,tcheck) scf=(maxcycle=1)
 ----------------------------------------------------------------------
 -----
 title
 -----
 Structure from the checkpoint file:  "E2SN2_114_mol2.chk"
 Charge = -1 Multiplicity = 1

                         Standard orientation:
 ---------------------------------------------------------------------
 Center     Atomic      Atomic             Coordinates (Angstroms)
 Number     Number       Type             X           Y           Z
 ---------------------------------------------------------------------
      1          6           0       -0.577066    0.383743    0.252916
      2          6           0        0.790114    0.392041   -0.455504
      3         17           0       -1.459795   -1.195016   -0.561628
      4          1           0        0.567733    0.397211   -1.535541
      5          6           0       -0.534248    0.026090    1.721725
      6          1           0       -0.133006   -0.974233    1.884685
      7          1           0       -1.540792    0.073315    2.145055
      8          1           0        0.101016    0.768983    2.210072
      9          7           0       -1.217959    1.555537   -0.023157
     10          1           0       -0.967631    2.030969   -0.925859
     11          1           0       -2.170892    1.634488    0.295981
     12          6           0        1.566009   -0.807790   -0.135131
     13          7           0        2.248740   -1.731428    0.111281
     14          7           0        1.529679    1.590599   -0.049796
     15          1           0        2.488383    1.476459   -0.370645
     16          1           0        1.116919    2.322267   -0.656998
     17          1           0       -0.037290    2.718357   -2.071396
 ---------------------------------------------------------------------

 SCF Done:  E(RHF) =  -781.346293707     A.U. after    2 cycles

 The electronic state is 1-A.
 Alpha  occ. eigenvalues --  -99.71845 -15.64566 -15.60480 -15.60378 -11.40082
 Alpha  occ. eigenvalues --  -11.36183 -11.31663 -11.27336 -10.29064  -9.49113
 Alpha  occ. eigenvalues --   -9.48497  -9.48459  -1.33122  -1.20255  -1.15527
 Alpha  occ. eigenvalues --   -1.11096  -0.98415  -0.90395  -0.72572  -0.62341
 Alpha  occ. eigenvalues --   -0.56550  -0.54351  -0.50350  -0.47432  -0.46586
 Alpha  occ. eigenvalues --   -0.42121  -0.41533  -0.39598  -0.37487  -0.34027
 Alpha  occ. eigenvalues --   -0.33902  -0.31953  -0.29965  -0.24869  -0.22978
 Alpha  occ. eigenvalues --   -0.12863
 Alpha virt. eigenvalues --    0.13031   0.14648   0.14939   0.15097   0.15718
 Alpha virt. eigenvalues --    0.17042   0.18397   0.19326   0.19810   0.20432
 Alpha virt. eigenvalues --    0.20989   0.22668   0.23707   0.24552   0.25071

 Mulliken charges:
               1
     1  C    3.443902
     2  C   -0.473676
     3  Cl  -0.368050
     4  H    1.904820
     5  C   -4.091230
     6  H    1.314593
     7  H    1.174243
     8  H    1.143571
     9  N   -3.730655
    10  H    0.715156
    11  H    0.687356
    12  C    2.536669
    13  N   -2.697914
    14  N   -2.820592
    15  H    0.644354
    16  H    0.688082
    17  H   -1.070630
 Sum of Mulliken charges =  -1.00000

 Dipole moment (field-independent basis, Debye):
    X=             -0.6491    Y=             -3.3040    Z=              6.6556  Tot=              7.4589

 Test job not archived.
 1\1\GINC-SE229\SP\RHF\Aug-CC-pVDZ\C4H9Cl1N3(1-)\OHZDE\09-Apr-2025\0\\#
 t hf aug-cc-pvdz iop(5/13=1,5/36=2,99/5=2) pseudo=read geom=check gues
 s=(read,tcheck) scf=(maxcycle=1)\\title\\-1,1\C,0,-0.316894,0.002992,-
 1.498137\C,0,0.004225,-0.10402,0.004041\Cl,0,-0.008127,-1.853788,-2.12
 44\H,0,1.019404,-0.530424,0.063624\C,0,-1.775523,0.23153,-1.825736\H,0
 ,-2.404951,-0.582645,-1.466378\H,0,-1.903515,0.322407,-2.907368\H,0,-2
 .064796,1.169222,-1.345124\N,0,0.535464,0.905683,-2.062668\H,0,1.46877
 5,1.031098,-1.597079\H,0,0.500455,0.99249,-3.066363\C,0,-0.929529,-1.0

 Normal termination of Gaussian 16 at Wed Apr  9 02:33:58 2025.
