 Gaussian 16, Revision C.01,

 ----------------------------------------------------------------------
 #t hf aug-cc-pvdz symm=none int=(grid=ultrafine) guess=(read,tcheck) s
 table=(opt,rrhf)
 ----------------------------------------------------------------------
 -----
 title
 -----
 Symbolic Z-matrix:
 Charge = -1 Multiplicity = 1

 SCF Done:  E(RHF) =  -763.537588163     A.U. after   16 cycles
 Normal termination of Gaussian 16 at Wed Apr  9 02:42:24 2025.
 Gaussian 16:  ES64L-G16RevC.01  3-Jul-2019

 ----------------------------------------------------------------------
 #t hf aug-cc-pvdz iop(5/13=1,5/36=2,99/5=2) pseudo=read geom=check gue
 ss=(read,tcheck) scf=(maxcycle=1)
 ----------------------------------------------------------------------
 -----
 title
 -----
 Structure from the checkpoint file:  "E2SN2_20_mol2.chk"
 Charge = -1 Multiplicity = 1

                         Standard orientation:
 ---------------------------------------------------------------------
 Center     Atomic      Atomic             Coordinates (Angstroms)
 Number     Number       Type             X           Y           Z
 ---------------------------------------------------------------------
      1          6           0        0.675076    0.079858    0.329472
      2          6           0       -0.672176    0.787299    0.069631
      3         17           0        0.842554   -1.319133   -0.861861
      4          1           0       -0.687847    1.503247    0.903378
      5          6           0        1.833005    1.030062    0.110667
      6          1           0        1.673886    1.872770    0.794864
      7          1           0        2.754205    0.513419    0.382640
      8          1           0        1.899833    1.371365   -0.923194
      9          7           0        0.765039   -0.434563    1.664754
     10          1           0       -0.034250   -1.039021    1.839562
     11          1           0        0.630109    0.419387    2.257082
     12          6           0       -1.783425   -0.138538    0.268623
     13          7           0       -2.699939   -0.859970    0.415651
     14          6           0       -0.815937    1.511387   -1.268174
     15          1           0       -0.631448    0.834494   -2.105765
     16          1           0       -0.111556    2.342961   -1.317115
     17          1           0       -1.824012    1.921824   -1.367941
     18          1           0        0.132708    2.126137    2.563977
 ---------------------------------------------------------------------

 SCF Done:  E(RHF) =  -765.294923475     A.U. after    2 cycles

 The electronic state is 1-A.
 Alpha  occ. eigenvalues --  -99.74636 -15.63758 -15.59038 -11.38515 -11.34516
 Alpha  occ. eigenvalues --  -11.31098 -11.28191 -11.25304 -10.32034  -9.52068
 Alpha  occ. eigenvalues --   -9.51353  -9.51287  -1.31371  -1.17851  -1.13122
 Alpha  occ. eigenvalues --   -1.06157  -0.95265  -0.85454  -0.71118  -0.60979
 Alpha  occ. eigenvalues --   -0.56200  -0.51965  -0.49442  -0.46213  -0.44334
 Alpha  occ. eigenvalues --   -0.43003  -0.41678  -0.39626  -0.38000  -0.36886
 Alpha  occ. eigenvalues --   -0.35490  -0.32976  -0.30319  -0.29858  -0.22913
 Alpha  occ. eigenvalues --   -0.11542
 Alpha virt. eigenvalues --    0.12988   0.13772   0.14498   0.14582   0.16041
 Alpha virt. eigenvalues --    0.16813   0.17103   0.17536   0.19388   0.20332
 Alpha virt. eigenvalues --    0.20833   0.21728   0.22736   0.23046   0.24442

 Mulliken charges:
               1
     1  C    4.025046
     2  C   -0.644340
     3  Cl  -0.366067
     4  H    1.922616
     5  C   -4.166930
     6  H    1.226350
     7  H    1.075880
     8  H    1.252055
     9  N   -3.827137
    10  H    0.628103
    11  H    0.698576
    12  C    1.596165
    13  N   -2.600520
    14  C   -4.329025
    15  H    1.202390
    16  H    1.278338
    17  H    1.151954
    18  H   -1.123455
 Sum of Mulliken charges =  -1.00000

 Dipole moment (field-independent basis, Debye):
    X=              1.2073    Y=             -2.9936    Z=             -7.9060  Tot=              8.5396

 Test job not archived.
 1\1\GINC-SE338\SP\RHF\Aug-CC-pVDZ\C5H10Cl1N2(1-)\OHZDE\09-Apr-2025\0\\
 #t hf aug-cc-pvdz iop(5/13=1,5/36=2,99/5=2) pseudo=read geom=check gue
 ss=(read,tcheck) scf=(maxcycle=1)\\title\\-1,1\C,0,-0.173267,0.000347,
 -1.481226\C,0,-0.012739,0.00751,0.05411\Cl,0,-1.968595,-0.141171,-1.88
 2811\H,0,1.082415,-0.021226,0.142276\C,0,0.347005,1.288339,-2.082853\H
 ,0,1.398843,1.366843,-1.781065\H,0,0.288379,1.205609,-3.168771\H,0,-0.
 221545,2.159171,-1.753878\N,0,0.526135,-1.092565,-2.091211\H,0,0.21810
 8,-1.96171,-1.661679\H,0,1.516503,-0.940975,-1.783835\C,0,-0.529369,-1

 Normal termination of Gaussian 16 at Wed Apr  9 02:42:32 2025.
