 Gaussian 16, Revision C.01,

 ----------------------------------------------------------------------
 #t hf aug-cc-pvdz symm=none int=(grid=ultrafine) guess=(read,tcheck) s
 table=(opt,rrhf)
 ----------------------------------------------------------------------
 -----
 title
 -----
 Symbolic Z-matrix:
 Charge = -1 Multiplicity = 1

 SCF Done:  E(RHF) =  -739.594752169     A.U. after   16 cycles
 Normal termination of Gaussian 16 at Wed Apr  9 02:44:43 2025.
 Gaussian 16:  ES64L-G16RevC.01  3-Jul-2019

 ----------------------------------------------------------------------
 #t hf aug-cc-pvdz iop(5/13=1,5/36=2,99/5=2) pseudo=read geom=check gue
 ss=(read,tcheck) scf=(maxcycle=1)
 ----------------------------------------------------------------------
 -----
 title
 -----
 Structure from the checkpoint file:  "E2SN2_236_mol1.chk"
 Charge = -1 Multiplicity = 1

                         Standard orientation:
 ---------------------------------------------------------------------
 Center     Atomic      Atomic             Coordinates (Angstroms)
 Number     Number       Type             X           Y           Z
 ---------------------------------------------------------------------
      1          6           0       -0.449090    0.432239    0.050460
      2          1           0        0.543326   -0.862512    1.423228
      3          9           0        0.218112   -0.362022   -1.394829
      4          9           0       -1.271032    0.962461    1.460985
      5          6           0        0.745463    0.067527    0.903601
      6          1           0        0.920478    0.889499    1.590606
      7          7           0       -1.558710   -0.606135   -0.092358
      8          8           0       -1.428963   -1.684731    0.470221
      9          8           0       -2.529285   -0.271662   -0.760220
     10          7           0       -0.554043    1.673298   -0.601090
     11          1           0       -1.412563    2.109793   -0.300825
     12          1           0       -0.548098    1.494726   -1.593430
     13          7           0        2.021961   -0.122996    0.160480
     14          8           0        2.558326    0.880214   -0.300843
     15          8           0        2.503728   -1.254223    0.127270
 ---------------------------------------------------------------------

 SCF Done:  E(RHF) =  -742.622422672     A.U. after    2 cycles

 The electronic state is 1-A.
 Alpha  occ. eigenvalues --  -29.02166 -28.99145 -20.95779 -20.95516 -20.95354
 Alpha  occ. eigenvalues --  -20.95133 -15.85491 -15.85430 -15.62050 -11.52811
 Alpha  occ. eigenvalues --  -11.32481  -1.85709  -1.84649  -1.55479  -1.55021
 Alpha  occ. eigenvalues --   -1.29794  -1.09953  -0.98815  -0.79361  -0.71321
 Alpha  occ. eigenvalues --   -0.66631  -0.60481  -0.56814  -0.55566  -0.52707
 Alpha  occ. eigenvalues --   -0.50330  -0.47691  -0.43136  -0.40849  -0.39015
 Alpha  occ. eigenvalues --   -0.37339  -0.30415  -0.23506  -0.21475  -0.19034
 Alpha  occ. eigenvalues --   -0.18170  -0.17650  -0.16933  -0.16589  -0.07918
 Alpha  occ. eigenvalues --   -0.07200  -0.05438  -0.04508   0.00238
 Alpha virt. eigenvalues --    0.14265   0.15055   0.16187   0.16911   0.21619
 Alpha virt. eigenvalues --    0.22836   0.23212   0.25622   0.26083   0.26867
 Alpha virt. eigenvalues --    0.27462   0.27909   0.28447   0.28944   0.29685

 Mulliken charges:
               1
     1  C    4.377112
     2  H    1.597345
     3  F   -0.599124
     4  F   -0.349875
     5  C   -2.671853
     6  H    1.423155
     7  N    5.619200
     8  O   -3.426159
     9  O   -3.397310
    10  N   -3.351062
    11  H    0.378257
    12  H    0.356412
    13  N    4.960020
    14  O   -3.003972
    15  O   -2.912146
 Sum of Mulliken charges =  -1.00000

 Dipole moment (field-independent basis, Debye):
    X=             -0.0039    Y=              0.8244    Z=              0.0400  Tot=              0.8253

 Test job not archived.
 1\1\GINC-SE459\SP\RHF\Aug-CC-pVDZ\C2H4F2N3O4(1-)\OHZDE\09-Apr-2025\0\\
 #t hf aug-cc-pvdz iop(5/13=1,5/36=2,99/5=2) pseudo=read geom=check gue
 ss=(read,tcheck) scf=(maxcycle=1)\\title\\-1,1\C,0,0.72085782,-0.05844
 319,-0.08718355\H,0,1.52007966,1.36602636,-1.45754564\F,0,-0.89498785,
 -0.07374351,-0.83127872\F,0,2.36072393,-0.20747868,0.39751414\C,0,0.99
 266838,1.36812302,-0.51008734\H,0,1.57136435,1.83887649,0.27842145\N,0
 ,1.01670599,-1.16348772,-1.09774135\O,0,1.44151012,-0.85082266,-2.2015
 8913\O,0,0.82009177,-2.31082878,-0.71710947\N,0,0.20990387,-0.37957619

 Normal termination of Gaussian 16 at Wed Apr  9 02:44:50 2025.
