 Gaussian 16, Revision C.01,

 ----------------------------------------------------------------------
 #t hf aug-cc-pvdz symm=none int=(grid=ultrafine) guess=(read,tcheck) s
 table=(opt,rrhf)
 ----------------------------------------------------------------------
 -----
 title
 -----
 Symbolic Z-matrix:
 Charge = -1 Multiplicity = 1

 SCF Done:  E(RHF) =  -1236.20633648     A.U. after   16 cycles
 Normal termination of Gaussian 16 at Wed Apr  9 02:50:06 2025.
 Gaussian 16:  ES64L-G16RevC.01  3-Jul-2019

 ----------------------------------------------------------------------
 #t hf aug-cc-pvdz iop(5/13=1,5/36=2,99/5=2) pseudo=read geom=check gue
 ss=(read,tcheck) scf=(maxcycle=1)
 ----------------------------------------------------------------------
 -----
 title
 -----
 Structure from the checkpoint file:  "E2SN2_296_mol1.chk"
 Charge = -1 Multiplicity = 1

                         Standard orientation:
 ---------------------------------------------------------------------
 Center     Atomic      Atomic             Coordinates (Angstroms)
 Number     Number       Type             X           Y           Z
 ---------------------------------------------------------------------
      1          6           0        0.032176   -0.469117   -0.246054
      2          1           0       -0.897376    0.708131   -1.761378
      3         17           0        2.395198   -0.343298   -0.106586
      4         17           0       -2.334688   -0.548850   -0.104115
      5          6           0       -0.030042    0.787338   -1.107694
      6          1           0        0.866220    0.829638   -1.724747
      7          6           0        0.031439   -0.409596    1.198758
      8          7           0        0.032103   -0.412365    2.377183
      9          7           0        0.087006   -1.707144   -0.964510
     10          1           0       -0.725601   -2.258422   -0.725093
     11          1           0        0.936046   -2.193319   -0.711185
     12          6           0       -0.130651    2.022873   -0.340845
     13          7           0       -0.208465    3.046865    0.227233
 ---------------------------------------------------------------------

 SCF Done:  E(RHF) =  -1238.17576775     A.U. after    2 cycles

 The electronic state is 1-A.
 Alpha  occ. eigenvalues --  -99.68513 -99.68451 -15.65494 -15.65201 -15.64608
 Alpha  occ. eigenvalues --  -11.49645 -11.36657 -11.34135 -11.31783 -10.25537
 Alpha  occ. eigenvalues --  -10.25457  -9.45573  -9.45508  -9.45128  -9.45069
 Alpha  occ. eigenvalues --   -9.45022  -9.44976  -1.31928  -1.19070  -1.16689
 Alpha  occ. eigenvalues --   -1.07634  -1.05761  -1.03049  -0.86841  -0.66638
 Alpha  occ. eigenvalues --   -0.60220  -0.54391  -0.53884  -0.51873  -0.42357
 Alpha  occ. eigenvalues --   -0.41741  -0.39793  -0.34137  -0.33976  -0.33185
 Alpha  occ. eigenvalues --   -0.32664  -0.31747  -0.31578  -0.31188  -0.30054
 Alpha  occ. eigenvalues --   -0.28172  -0.26789
 Alpha virt. eigenvalues --    0.13664   0.14581   0.15682   0.15873   0.16462
 Alpha virt. eigenvalues --    0.18733   0.19930   0.20381   0.21904   0.22797
 Alpha virt. eigenvalues --    0.23000   0.24476   0.24716   0.24913   0.26091

 Mulliken charges:
               1
     1  C    5.328488
     2  H    1.342363
     3  Cl  -0.667721
     4  Cl  -0.668019
     5  C   -3.516525
     6  H    1.313625
     7  C    1.718462
     8  N   -2.885609
     9  N   -3.964747
    10  H    0.619982
    11  H    0.615405
    12  C    2.355983
    13  N   -2.591687
 Sum of Mulliken charges =  -1.00000

 Dipole moment (field-independent basis, Debye):
    X=              0.1175    Y=             -1.9332    Z=             -3.3741  Tot=              3.8904

 Test job not archived.
 1\1\GINC-SE332\SP\RHF\Aug-CC-pVDZ\C4H4Cl2N3(1-)\OHZDE\09-Apr-2025\0\\#
 t hf aug-cc-pvdz iop(5/13=1,5/36=2,99/5=2) pseudo=read geom=check gues
 s=(read,tcheck) scf=(maxcycle=1)\\title\\-1,1\C,0,0.631653,-0.0725355,
 0.00551919\H,0,1.45367647,1.83427462,0.48980908\Cl,0,-1.72059474,-0.29
 281347,0.19933187\Cl,0,2.95816609,0.03132768,-0.44735705\C,0,0.5386080
 6,1.44895828,0.04256644\H,0,-0.30156639,1.72988431,0.67582527\C,0,0.51
 186459,-0.81887637,-1.22722206\N,0,0.42189683,-1.47023621,-2.20514304\
 N,0,0.84913558,-0.70778505,1.27084718\H,0,1.72499905,-1.21097433,1.235

 Normal termination of Gaussian 16 at Wed Apr  9 02:50:11 2025.
