 Gaussian 16, Revision C.01,

 ----------------------------------------------------------------------
 #t hf aug-cc-pvdz symm=none int=(grid=ultrafine) guess=(read,tcheck) s
 table=(opt,rrhf)
 ----------------------------------------------------------------------
 -----
 title
 -----
 Symbolic Z-matrix:
 Charge = -1 Multiplicity = 1

 SCF Done:  E(RHF) =  -516.112892186     A.U. after   15 cycles
 Normal termination of Gaussian 16 at Wed Apr  9 03:01:59 2025.
 Gaussian 16:  ES64L-G16RevC.01  3-Jul-2019

 ----------------------------------------------------------------------
 #t hf aug-cc-pvdz iop(5/13=1,5/36=2,99/5=2) pseudo=read geom=check gue
 ss=(read,tcheck) scf=(maxcycle=1)
 ----------------------------------------------------------------------
 -----
 title
 -----
 Structure from the checkpoint file:  "E2SN2_84_mol2.chk"
 Charge = -1 Multiplicity = 1

                         Standard orientation:
 ---------------------------------------------------------------------
 Center     Atomic      Atomic             Coordinates (Angstroms)
 Number     Number       Type             X           Y           Z
 ---------------------------------------------------------------------
      1          6           0        0.075301   -0.574565    0.094181
      2          6           0        0.173002    0.785673   -0.598476
      3          9           0       -0.030875   -0.304595    1.494785
      4          1           0        1.184470    1.127512   -0.356948
      5          1           0        0.138052    0.630314   -1.679541
      6          6           0       -1.198090   -1.279444   -0.213880
      7          7           0       -2.192086   -1.846199   -0.479117
      8          7           0        1.182818   -1.339318   -0.257548
      9          1           0        1.239019   -2.174180    0.311363
     10          1           0        2.043726   -0.694776   -0.200547
     11          6           0       -0.876197    1.708355   -0.192400
     12          7           0       -1.714891    2.472859    0.109563
     13          9           0        2.855291    0.555664   -0.186025
 ---------------------------------------------------------------------

 SCF Done:  E(RHF) =  -518.235480230     A.U. after    2 cycles

 The electronic state is 1-A.
 Alpha  occ. eigenvalues --  -29.13369 -28.92941 -15.66194 -15.64440 -15.59443
 Alpha  occ. eigenvalues --  -11.43336 -11.34598 -11.33181 -11.29736  -1.32473
 Alpha  occ. eigenvalues --   -1.18530  -1.17468  -1.03475  -0.89878  -0.68485
 Alpha  occ. eigenvalues --   -0.65195  -0.54987  -0.53364  -0.49654  -0.47551
 Alpha  occ. eigenvalues --   -0.41847  -0.39294  -0.34656  -0.34103  -0.33335
 Alpha  occ. eigenvalues --   -0.31344  -0.29804  -0.26192  -0.20774  -0.14351
 Alpha  occ. eigenvalues --   -0.12969  -0.01622  -0.01323   0.00500
 Alpha virt. eigenvalues --    0.14156   0.15265   0.17580   0.19003   0.19239
 Alpha virt. eigenvalues --    0.20074   0.21339   0.22476   0.22943   0.24180
 Alpha virt. eigenvalues --    0.24485   0.25577   0.26282   0.26526   0.27949

 Mulliken charges:
               1
     1  C    3.554563
     2  C   -2.515355
     3  F    0.129947
     4  H    1.212316
     5  H    1.305494
     6  C    1.422994
     7  N   -2.460557
     8  N   -3.284565
     9  H    0.442357
    10  H    0.088942
    11  C    1.969658
    12  N   -2.580440
    13  F   -0.285355
 Sum of Mulliken charges =  -1.00000

 Dipole moment (field-independent basis, Debye):
    X=             -1.0438    Y=             -0.9444    Z=              2.9208  Tot=              3.2423

 Test job not archived.
 1\1\GINC-SE120\SP\RHF\Aug-CC-pVDZ\C4H4F2N3(1-)\OHZDE\09-Apr-2025\0\\#t
  hf aug-cc-pvdz iop(5/13=1,5/36=2,99/5=2) pseudo=read geom=check guess
 =(read,tcheck) scf=(maxcycle=1)\\title\\-1,1\C,0,-0.052531,0.011569,-1
 .504347\C,0,0.048521,-0.061442,0.020129\F,0,0.083251,-1.330534,-1.9799
 19\H,0,1.110045,-0.258728,0.20041\H,0,-0.166964,0.927448,0.432102\C,0,
 -1.412298,0.400189,-1.96618\N,0,-2.478941,0.732806,-2.328434\N,0,0.919
 575,0.88643,-1.978458\H,0,0.994274,0.829659,-2.985935\H,0,1.829255,0.6
 68341,-1.444824\C,0,-0.844644,-1.050895,0.603478\N,0,-1.559901,-1.8360

 Normal termination of Gaussian 16 at Wed Apr  9 03:02:04 2025.
