 Gaussian 16, Revision C.01,

 ----------------------------------------------------------------------
 #t hf aug-cc-pvdz symm=none int=(grid=ultrafine) guess=(read,tcheck) s
 table=(opt,rrhf)
 ----------------------------------------------------------------------
 -----
 title
 -----
 Symbolic Z-matrix:
 Charge = -1 Multiplicity = 1

 SCF Done:  E(RHF) =  -479.412334087     A.U. after   14 cycles
 Normal termination of Gaussian 16 at Wed Apr  9 02:41:54 2025.
 Gaussian 16:  ES64L-G16RevC.01  3-Jul-2019

 ----------------------------------------------------------------------
 #t hf aug-cc-pvdz iop(5/13=1,5/36=2,99/5=2) pseudo=read geom=check gue
 ss=(read,tcheck) scf=(maxcycle=1)
 ----------------------------------------------------------------------
 -----
 title
 -----
 Structure from the checkpoint file:  "E2SN2_206_mol2.chk"
 Charge = -1 Multiplicity = 1

                         Standard orientation:
 ---------------------------------------------------------------------
 Center     Atomic      Atomic             Coordinates (Angstroms)
 Number     Number       Type             X           Y           Z
 ---------------------------------------------------------------------
      1          6           0       -0.055916    0.987633   -0.383782
      2          6           0        0.298985   -0.486580   -0.152898
      3          9           0        0.648204    1.720909    0.629452
      4          1           0       -0.211193   -1.056533   -0.935237
      5          1           0        0.400618    1.357960   -1.312445
      6          7           0       -1.436558    1.194965   -0.284675
      7          1           0       -1.975519    0.290385   -0.288841
      8          1           0       -1.773102    1.846561   -0.975530
      9          7           0       -0.182753   -1.030513    1.107957
     10          1           0       -1.171508   -1.236702    0.889759
     11          1           0       -0.140123   -0.290081    1.799337
     12          6           0        1.756229   -0.664177   -0.292188
     13          7           0        2.913593   -0.801997   -0.435733
     14          9           0       -2.446530   -1.217579   -0.286860
 ---------------------------------------------------------------------

 SCF Done:  E(RHF) =  -481.402178929     A.U. after    2 cycles

 The electronic state is 1-A.
 Alpha  occ. eigenvalues --  -29.10210 -28.92004 -15.63071 -15.57679 -15.57563
 Alpha  occ. eigenvalues --  -11.37894 -11.33163 -11.28502  -1.29422  -1.18037
 Alpha  occ. eigenvalues --   -1.14166  -0.95480  -0.81894  -0.62939  -0.59110
 Alpha  occ. eigenvalues --   -0.53339  -0.52112  -0.47292  -0.42572  -0.41456
 Alpha  occ. eigenvalues --   -0.37339  -0.30708  -0.30217  -0.29048  -0.25453
 Alpha  occ. eigenvalues --   -0.23708  -0.17370  -0.11716  -0.11350  -0.00877
 Alpha  occ. eigenvalues --   -0.00044   0.01237
 Alpha virt. eigenvalues --    0.13684   0.15161   0.16208   0.16657   0.18978
 Alpha virt. eigenvalues --    0.19359   0.20301   0.22205   0.23038   0.24079
 Alpha virt. eigenvalues --    0.24984   0.25711   0.26412   0.27592   0.30518

 Mulliken charges:
               1
     1  C   -0.320671
     2  C   -0.411538
     3  F    0.262740
     4  H    1.778216
     5  H    1.872767
     6  N   -2.680999
     7  H    0.305058
     8  H    0.392515
     9  N   -2.645850
    10  H    0.403613
    11  H    0.566871
    12  C    2.610892
    13  N   -2.544558
    14  F   -0.589054
 Sum of Mulliken charges =  -1.00000

 Dipole moment (field-independent basis, Debye):
    X=              2.2686    Y=              4.3173    Z=              0.7117  Tot=              4.9287

 Test job not archived.
 1\1\GINC-SE083\SP\RHF\Aug-CC-pVDZ\C3H6F2N3(1-)\OHZDE\09-Apr-2025\0\\#t
  hf aug-cc-pvdz iop(5/13=1,5/36=2,99/5=2) pseudo=read geom=check guess
 =(read,tcheck) scf=(maxcycle=1)\\title\\-1,1\C,0,0.143134,0.094281,0.0
 43101\C,0,-0.487164,0.250094,-1.346508\F,0,1.526576,-0.209783,-0.18875
 2\H,0,-1.53823,0.50784,-1.185236\H,0,0.191198,1.062785,0.56047\N,0,-0.
 480435,-0.928242,0.767386\H,0,-1.380893,-1.240252,0.319517\H,0,-0.5968
 17,-0.688579,1.739053\N,0,-0.498325,-0.968668,-2.141608\H,0,-1.316208,
 -1.469372,-1.75674\H,0,0.344931,-1.487292,-1.922493\C,0,0.180527,1.352

 Normal termination of Gaussian 16 at Wed Apr  9 02:42:01 2025.
