 Gaussian 16, Revision C.01,

 ----------------------------------------------------------------------
 #t hf aug-cc-pvdz symm=none int=(grid=ultrafine) guess=(read,tcheck) s
 table=(opt,rrhf)
 ----------------------------------------------------------------------
 -----
 title
 -----
 Symbolic Z-matrix:
 Charge = -1 Multiplicity = 1

 SCF Done:  E(RHF) =  -666.907925005     A.U. after   16 cycles
 Normal termination of Gaussian 16 at Wed Apr  9 02:59:06 2025.
 Gaussian 16:  ES64L-G16RevC.01  3-Jul-2019

 ----------------------------------------------------------------------
 #t hf aug-cc-pvdz iop(5/13=1,5/36=2,99/5=2) pseudo=read geom=check gue
 ss=(read,tcheck) scf=(maxcycle=1)
 ----------------------------------------------------------------------
 -----
 title
 -----
 Structure from the checkpoint file:  "E2SN2_402_mol2.chk"
 Charge = -1 Multiplicity = 1

                         Standard orientation:
 ---------------------------------------------------------------------
 Center     Atomic      Atomic             Coordinates (Angstroms)
 Number     Number       Type             X           Y           Z
 ---------------------------------------------------------------------
      1          6           0        0.795029    0.278062    0.645326
      2          6           0       -0.257423    0.064833   -0.457797
      3          9           0        0.186194    0.818446    1.784875
      4          1           0        0.347198   -0.442962   -1.264850
      5          7           0        1.303550   -1.021215    0.960624
      6          1           0        2.108377   -0.900731    1.567706
      7          1           0        1.639005   -1.367448    0.038445
      8          6           0        1.835765    1.269385    0.157321
      9          1           0        1.403925    2.251101   -0.051473
     10          1           0        2.273861    0.824565   -0.737884
     11          1           0        2.596462    1.380498    0.936226
     12          6           0       -0.891291    1.304025   -0.873338
     13          7           0       -1.368192    2.309685   -1.249667
     14          7           0       -1.321067   -0.873423    0.029357
     15          8           0       -2.208922   -0.404487    0.742097
     16          8           0       -1.230654   -2.048695   -0.309120
     17          9           0        1.808836   -1.098749   -1.669681
 ---------------------------------------------------------------------

 SCF Done:  E(RHF) =  -669.669727828     A.U. after    2 cycles

 The electronic state is 1-A.
 Alpha  occ. eigenvalues --  -29.13108 -28.92962 -20.97575 -20.97056 -15.87136
 Alpha  occ. eigenvalues --  -15.66030 -15.59384 -11.42304 -11.37966 -11.33454
 Alpha  occ. eigenvalues --  -11.26361  -1.86719  -1.56627  -1.31292  -1.19677
 Alpha  occ. eigenvalues --   -1.08981  -0.99700  -0.83240  -0.78781  -0.68561
 Alpha  occ. eigenvalues --   -0.59575  -0.58008  -0.52787  -0.51147  -0.48229
 Alpha  occ. eigenvalues --   -0.46971  -0.46740  -0.43933  -0.42180  -0.39087
 Alpha  occ. eigenvalues --   -0.34078  -0.33747  -0.29181  -0.26342  -0.24167
 Alpha  occ. eigenvalues --   -0.21880  -0.18760  -0.18444  -0.14125  -0.12020
 Alpha  occ. eigenvalues --   -0.01544  -0.01184   0.00322
 Alpha virt. eigenvalues --    0.13116   0.14322   0.15622   0.16954   0.17323
 Alpha virt. eigenvalues --    0.18602   0.20172   0.20392   0.22553   0.23026
 Alpha virt. eigenvalues --    0.24353   0.24627   0.25447   0.26173   0.26339

 Mulliken charges:
               1
     1  C    4.923935
     2  C   -0.843139
     3  F    0.063732
     4  H    1.513342
     5  N   -3.586253
     6  H    0.509072
     7  H    0.108959
     8  C   -3.957268
     9  H    1.193761
    10  H    0.927903
    11  H    1.093573
    12  C    2.046593
    13  N   -2.573151
    14  N    4.156941
    15  O   -2.923327
    16  O   -2.882288
    17  F   -0.772387
 Sum of Mulliken charges =  -1.00000

 Dipole moment (field-independent basis, Debye):
    X=             -0.7602    Y=              1.2957    Z=              5.0154  Tot=              5.2355

 Test job not archived.
 1\1\GINC-SE331\SP\RHF\Aug-CC-pVDZ\C4H6F2N3O2(1-)\OHZDE\09-Apr-2025\0\\
 #t hf aug-cc-pvdz iop(5/13=1,5/36=2,99/5=2) pseudo=read geom=check gue
 ss=(read,tcheck) scf=(maxcycle=1)\\title\\-1,1\C,0,-0.008234,-0.000981
 ,0.011322\C,0,-0.576106,0.006014,-1.419578\F,0,1.388961,0.084329,-0.03
 1527\H,0,-1.689206,0.018988,-1.230907\N,0,-0.527253,1.170887,0.646515\
 H,0,-0.302423,1.113704,1.634945\H,0,-1.555731,1.055347,0.538319\C,0,-0
 .375727,-1.309181,0.687758\H,0,0.058967,-2.172761,0.178723\H,0,-1.4664
 15,-1.348982,0.686219\H,0,0.000926,-1.282664,1.714952\C,0,-0.1149,-1.1

 Normal termination of Gaussian 16 at Wed Apr  9 02:59:14 2025.
