 Gaussian 16, Revision C.01,

 ----------------------------------------------------------------------
 #t hf aug-cc-pvdz symm=none int=(grid=ultrafine) guess=(read,tcheck) s
 table=(opt,rrhf)
 ----------------------------------------------------------------------
 -----
 title
 -----
 Symbolic Z-matrix:
 Charge = -1 Multiplicity = 1

 SCF Done:  E(RHF) =  -852.269412533     A.U. after   15 cycles
 Normal termination of Gaussian 16 at Wed Apr  9 02:40:57 2025.
 Gaussian 16:  ES64L-G16RevC.01  3-Jul-2019

 ----------------------------------------------------------------------
 #t hf aug-cc-pvdz iop(5/13=1,5/36=2,99/5=2) pseudo=read geom=check gue
 ss=(read,tcheck) scf=(maxcycle=1)
 ----------------------------------------------------------------------
 -----
 title
 -----
 Structure from the checkpoint file:  "E2SN2_199_mol2.chk"
 Charge = -1 Multiplicity = 1

                         Standard orientation:
 ---------------------------------------------------------------------
 Center     Atomic      Atomic             Coordinates (Angstroms)
 Number     Number       Type             X           Y           Z
 ---------------------------------------------------------------------
      1          6           0       -0.998278    0.145657    0.269321
      2          6           0        0.264042    0.654559   -0.428938
      3         17           0       -1.099800   -1.657773   -0.057277
      4          1           0        0.223693    0.406939   -1.494437
      5          1           0       -0.856640    0.240801    1.346027
      6          7           0       -2.187408    0.806064   -0.109305
      7          1           0       -2.189621    0.986740   -1.107707
      8          1           0       -2.192515    1.731457    0.393178
      9          7           0        1.469742   -0.151509    0.051619
     10          8           0        1.631872   -0.263427    1.261911
     11          8           0        2.232156   -0.595995   -0.808792
     12          7           0        0.506635    2.024111   -0.139561
     13          1           0       -0.250813    2.467794    0.426386
     14          1           0        0.620152    2.559621   -0.987997
     15          1           0       -1.687242    3.112204    1.111740
 ---------------------------------------------------------------------

 SCF Done:  E(RHF) =  -854.298364930     A.U. after    2 cycles

 The electronic state is 1-A.
 Alpha  occ. eigenvalues --  -99.75634 -20.97412 -20.97190 -15.85869 -15.60996
 Alpha  occ. eigenvalues --  -15.59912 -11.39667 -11.33018 -10.32998  -9.53011
 Alpha  occ. eigenvalues --   -9.52331  -9.52147  -1.86314  -1.56530  -1.31711
 Alpha  occ. eigenvalues --   -1.20490  -1.13755  -0.99278  -0.82819  -0.71372
 Alpha  occ. eigenvalues --   -0.61107  -0.58618  -0.56793  -0.54395  -0.48929
 Alpha  occ. eigenvalues --   -0.46377  -0.45728  -0.43057  -0.41294  -0.36693
 Alpha  occ. eigenvalues --   -0.35480  -0.28454  -0.24984  -0.20872  -0.19174
 Alpha  occ. eigenvalues --   -0.18905  -0.12648
 Alpha virt. eigenvalues --    0.13523   0.14661   0.15662   0.16588   0.17395
 Alpha virt. eigenvalues --    0.19207   0.20981   0.21767   0.21969   0.22662
 Alpha virt. eigenvalues --    0.23979   0.24513   0.25981   0.26363   0.26825

 Mulliken charges:
               1
     1  C   -1.212790
     2  C    1.516367
     3  Cl  -0.053248
     4  H    1.817578
     5  H    2.088527
     6  N   -2.421893
     7  H    0.518489
     8  H    0.752503
     9  N    4.410747
    10  O   -2.878890
    11  O   -2.842767
    12  N   -2.955926
    13  H    0.828507
    14  H    0.499871
    15  H   -1.067074
 Sum of Mulliken charges =  -1.00000

 Dipole moment (field-independent basis, Debye):
    X=              3.9693    Y=             -6.2562    Z=             -4.5638  Tot=              8.7019

 Test job not archived.
 1\1\GINC-SE333\SP\RHF\Aug-CC-pVDZ\C2H7Cl1N3O2(1-)\OHZDE\09-Apr-2025\0\
 \#t hf aug-cc-pvdz iop(5/13=1,5/36=2,99/5=2) pseudo=read geom=check gu
 ess=(read,tcheck) scf=(maxcycle=1)\\title\\-1,1\C,0,-0.062619,0.029301
 ,-0.057486\C,0,-0.311402,0.133869,-1.5632\Cl,0,1.756134,0.065902,0.187
 73\H,0,0.214014,-0.673777,-2.082698\H,0,-0.440327,0.935558,0.41627\N,0
 ,-0.643348,-1.100891,0.558099\H,0,-0.546459,-1.917079,-0.0368\H,0,-1.6
 69738,-0.892107,0.666723\N,0,0.382439,1.38191,-2.106681\O,0,0.168466,2
 .445042,-1.534331\O,0,1.07417,1.249215,-3.11814\N,0,-1.697082,0.236577

 Normal termination of Gaussian 16 at Wed Apr  9 02:41:02 2025.
