 Gaussian 16, Revision C.01,

 ----------------------------------------------------------------------
 #t hf aug-cc-pvdz symm=none int=(grid=ultrafine) guess=(read,tcheck) s
 table=(opt,rrhf)
 ----------------------------------------------------------------------
 -----
 title
 -----
 Symbolic Z-matrix:
 Charge = -1 Multiplicity = 1

 SCF Done:  E(RHF) =  -1334.36432440     A.U. after   16 cycles
 Normal termination of Gaussian 16 at Wed Apr  9 02:45:42 2025.
 Gaussian 16:  ES64L-G16RevC.01  3-Jul-2019

 ----------------------------------------------------------------------
 #t hf aug-cc-pvdz iop(5/13=1,5/36=2,99/5=2) pseudo=read geom=check gue
 ss=(read,tcheck) scf=(maxcycle=1)
 ----------------------------------------------------------------------
 -----
 title
 -----
 Structure from the checkpoint file:  "E2SN2_235_mol2.chk"
 Charge = -1 Multiplicity = 1

                         Standard orientation:
 ---------------------------------------------------------------------
 Center     Atomic      Atomic             Coordinates (Angstroms)
 Number     Number       Type             X           Y           Z
 ---------------------------------------------------------------------
      1          6           0        0.744741    0.125637   -0.262169
      2          6           0        0.097205    0.748896    0.999231
      3         17           0        2.225819    1.058806   -0.706226
      4          1           0        0.925895    0.925345    1.692639
      5          7           0        1.279466   -1.244447    0.159999
      6          8           0        0.968577   -2.223213   -0.511944
      7          8           0        1.971608   -1.278365    1.174430
      8          6           0       -0.150986   -0.004176   -1.461644
      9          1           0       -0.380652    0.993902   -1.834135
     10          1           0        0.340002   -0.574373   -2.249237
     11          1           0       -1.096793   -0.477397   -1.187515
     12          7           0       -0.865542   -0.110272    1.647475
     13          1           0       -1.707550   -0.240947    1.083063
     14          1           0       -0.475716   -1.005521    1.909055
     15          6           0       -0.589772    2.064418    0.656029
     16          1           0       -1.503412    1.865164    0.091648
     17          1           0        0.060971    2.734922    0.090754
     18          1           0       -0.876858    2.551346    1.589729
     19         17           0       -3.538287   -0.287360   -0.395356
 ---------------------------------------------------------------------

 SCF Done:  E(RHF) =  -1336.77938403     A.U. after    2 cycles

 The electronic state is 1-A.
 Alpha  occ. eigenvalues --  -99.79884 -99.61056 -21.00261 -20.99417 -15.88993
 Alpha  occ. eigenvalues --  -15.60187 -11.43235 -11.34317 -11.28595 -11.26192
 Alpha  occ. eigenvalues --  -10.37288 -10.17710  -9.57361  -9.56560  -9.56539
 Alpha  occ. eigenvalues --   -9.37759  -9.37448  -9.37346  -1.89369  -1.59334
 Alpha  occ. eigenvalues --   -1.31102  -1.21265  -1.07201  -0.97805  -0.96780
 Alpha  occ. eigenvalues --   -0.92772  -0.79910  -0.67987  -0.62090  -0.61202
 Alpha  occ. eigenvalues --   -0.57811  -0.53985  -0.50430  -0.48355  -0.45647
 Alpha  occ. eigenvalues --   -0.45458  -0.43646  -0.42008  -0.39662  -0.38076
 Alpha  occ. eigenvalues --   -0.37850  -0.36195  -0.25958  -0.25194  -0.24803
 Alpha  occ. eigenvalues --   -0.24683  -0.22500  -0.21638  -0.21070
 Alpha virt. eigenvalues --    0.12835   0.13519   0.13854   0.14356   0.15508
 Alpha virt. eigenvalues --    0.16081   0.16520   0.17721   0.18443   0.20079
 Alpha virt. eigenvalues --    0.20593   0.22474   0.22983   0.23419   0.24190

 Mulliken charges:
               1
     1  C    1.650378
     2  C    1.240291
     3  Cl  -0.165026
     4  H    1.817792
     5  N    3.949765
     6  O   -2.712297
     7  O   -3.137125
     8  C   -3.989393
     9  H    1.328837
    10  H    1.206073
    11  H    1.089268
    12  N   -3.279205
    13  H    0.583115
    14  H    0.497586
    15  C   -3.640362
    16  H    1.388813
    17  H    1.206623
    18  H    0.954669
    19  Cl  -0.989802
 Sum of Mulliken charges =  -1.00000

 Dipole moment (field-independent basis, Debye):
    X=             10.3776    Y=              1.2226    Z=              0.8710  Tot=             10.4856

 Test job not archived.
 1\1\GINC-SE435\SP\RHF\Aug-CC-pVDZ\C4H9Cl2N2O2(1-)\OHZDE\09-Apr-2025\0\
 \#t hf aug-cc-pvdz iop(5/13=1,5/36=2,99/5=2) pseudo=read geom=check gu
 ess=(read,tcheck) scf=(maxcycle=1)\\title\\-1,1\C,0,0.026357,0.032827,
 0.000558\C,0,-0.437835,0.184785,-1.469244\Cl,0,1.798018,-0.315028,0.04
 2964\H,0,0.311409,0.826319,-1.944368\N,0,-0.097202,1.418763,0.637112\O
 ,0,-0.709508,1.520873,1.695789\O,0,0.407881,2.355363,0.023146\C,0,-0.7
 10694,-0.990663,0.817345\H,0,-0.469026,-1.981706,0.433827\H,0,-0.41676
 ,-0.932243,1.864573\H,0,-1.790652,-0.856309,0.721028\N,0,-1.731427,0.8

 Normal termination of Gaussian 16 at Wed Apr  9 02:45:53 2025.
