 Gaussian 16, Revision C.01,

 ----------------------------------------------------------------------
 #t hf aug-cc-pvdz symm=none int=(grid=ultrafine) guess=(read,tcheck) s
 table=(opt,rrhf)
 ----------------------------------------------------------------------
 -----
 title
 -----
 Symbolic Z-matrix:
 Charge = -1 Multiplicity = 1

 SCF Done:  E(RHF) =  -627.866092699     A.U. after   16 cycles
 Normal termination of Gaussian 16 at Wed Apr  9 02:43:09 2025.
 Gaussian 16:  ES64L-G16RevC.01  3-Jul-2019

 ----------------------------------------------------------------------
 #t hf aug-cc-pvdz iop(5/13=1,5/36=2,99/5=2) pseudo=read geom=check gue
 ss=(read,tcheck) scf=(maxcycle=1)
 ----------------------------------------------------------------------
 -----
 title
 -----
 Structure from the checkpoint file:  "E2SN2_218_mol2.chk"
 Charge = -1 Multiplicity = 1

                         Standard orientation:
 ---------------------------------------------------------------------
 Center     Atomic      Atomic             Coordinates (Angstroms)
 Number     Number       Type             X           Y           Z
 ---------------------------------------------------------------------
      1          6           0        0.221751   -0.525422    0.487358
      2          6           0        0.457360    0.970956    0.220756
      3          9           0       -0.283218   -0.697905    1.748493
      4          1           0        1.004119    1.279762    1.116872
      5          1           0        1.226888   -0.987506    0.366281
      6          7           0       -0.776090   -1.097423   -0.469998
      7          8           0       -0.486496   -0.997271   -1.663402
      8          8           0       -1.796055   -1.622288   -0.034233
      9          6           0       -0.820026    1.701370    0.181465
     10          7           0       -1.847062    2.269471    0.139949
     11          7           0        1.304854    1.272694   -0.915006
     12          1           0        0.874005    0.864995   -1.737342
     13          1           0        2.142336    0.691499   -0.686448
     14          9           0        2.848399   -0.511750    0.240354
 ---------------------------------------------------------------------

 SCF Done:  E(RHF) =  -630.421207466     A.U. after    2 cycles

 The electronic state is 1-A.
 Alpha  occ. eigenvalues --  -29.16990 -28.92791 -20.99174 -20.98389 -15.88099
 Alpha  occ. eigenvalues --  -15.65536 -15.59438 -11.42115 -11.36463 -11.31666
 Alpha  occ. eigenvalues --   -1.88313  -1.58278  -1.28812  -1.16823  -1.12972
 Alpha  occ. eigenvalues --   -0.90887  -0.80605  -0.66639  -0.62882  -0.59917
 Alpha  occ. eigenvalues --   -0.56260  -0.50002  -0.48617  -0.47972  -0.44090
 Alpha  occ. eigenvalues --   -0.39870  -0.34683  -0.32716  -0.32062  -0.28545
 Alpha  occ. eigenvalues --   -0.25795  -0.23367  -0.22263  -0.20947  -0.15392
 Alpha  occ. eigenvalues --   -0.14006  -0.01935  -0.01190   0.01066
 Alpha virt. eigenvalues --    0.14941   0.16094   0.17435   0.18848   0.19230
 Alpha virt. eigenvalues --    0.21676   0.22141   0.22924   0.23316   0.24284
 Alpha virt. eigenvalues --    0.25661   0.25939   0.27230   0.27568   0.28488

 Mulliken charges:
               1
     1  C    0.649189
     2  C    0.737714
     3  F    0.384262
     4  H    1.678532
     5  H    1.077231
     6  N    3.255056
     7  O   -2.909502
     8  O   -2.670457
     9  C    2.174622
    10  N   -2.486979
    11  N   -3.072024
    12  H    0.725750
    13  H    0.146626
    14  F   -0.690020
 Sum of Mulliken charges =  -1.00000

 Dipole moment (field-independent basis, Debye):
    X=             -3.3878    Y=             -1.5121    Z=              2.2059  Tot=              4.3162

 Test job not archived.
 1\1\GINC-SE149\SP\RHF\Aug-CC-pVDZ\C3H4F2N3O2(1-)\OHZDE\09-Apr-2025\0\\
 #t hf aug-cc-pvdz iop(5/13=1,5/36=2,99/5=2) pseudo=read geom=check gue
 ss=(read,tcheck) scf=(maxcycle=1)\\title\\-1,1\C,0,-0.309917,0.075331,
 0.06318\C,0,-0.415989,-0.114553,-1.459459\F,0,0.545217,-0.856458,0.588
 27\H,0,-0.59963,-1.189961,-1.543736\H,0,-1.353052,-0.052674,0.429194\N
 ,0,0.241742,1.423618,0.405522\O,0,-0.399409,2.385045,-0.021902\O,0,1.2
 67609,1.502207,1.074195\C,0,0.866861,0.190114,-2.113857\N,0,1.892538,0
 .448587,-2.624194\N,0,-1.534713,0.5549,-2.091547\H,0,-1.449308,1.54649

 Normal termination of Gaussian 16 at Wed Apr  9 02:43:27 2025.
