 Gaussian 16, Revision C.01,

 ----------------------------------------------------------------------
 #t hf aug-cc-pvdz symm=none int=(grid=ultrafine) guess=(read,tcheck) s
 table=(opt,rrhf)
 ----------------------------------------------------------------------
 -----
 title
 -----
 Symbolic Z-matrix:
 Charge = -1 Multiplicity = 1

 SCF Done:  E(RHF) =  -492.200631816     A.U. after   17 cycles
 Normal termination of Gaussian 16 at Wed Apr  9 02:32:49 2025.
 Gaussian 16:  ES64L-G16RevC.01  3-Jul-2019

 ----------------------------------------------------------------------
 #t hf aug-cc-pvdz iop(5/13=1,5/36=2,99/5=2) pseudo=read geom=check gue
 ss=(read,tcheck) scf=(maxcycle=1)
 ----------------------------------------------------------------------
 -----
 title
 -----
 Structure from the checkpoint file:  "E2SN2_103_mol2.chk"
 Charge = -1 Multiplicity = 1

                         Standard orientation:
 ---------------------------------------------------------------------
 Center     Atomic      Atomic             Coordinates (Angstroms)
 Number     Number       Type             X           Y           Z
 ---------------------------------------------------------------------
      1          6           0       -0.137290    0.495355   -0.427772
      2          6           0        1.068343   -0.120156    0.240042
      3          9           0       -0.266801    1.822053   -0.091789
      4          1           0        0.947344    0.011860    1.322578
      5          1           0       -0.105823    0.405743   -1.513026
      6          7           0       -1.392748   -0.192648    0.021084
      7          8           0       -1.740085   -0.012380    1.183781
      8          8           0       -1.977955   -0.885905   -0.807802
      9          7           0        2.261009    0.529746   -0.293314
     10          1           0        2.314424    1.472747    0.084976
     11          1           0        3.019786   -0.010042    0.163021
     12          7           0        1.070175   -1.542552   -0.015412
     13          1           0        1.371148   -1.657402   -0.981239
     14          1           0        1.872232   -1.872544    0.546350
     15          1           0        3.571053   -1.375575    1.335470
 ---------------------------------------------------------------------

 SCF Done:  E(RHF) =  -494.307554655     A.U. after    2 cycles

 The electronic state is 1-A.
 Alpha  occ. eigenvalues --  -29.18674 -20.99588 -20.99350 -15.88542 -15.59071
 Alpha  occ. eigenvalues --  -15.58947 -11.42648 -11.30569  -1.88698  -1.58869
 Alpha  occ. eigenvalues --   -1.31288  -1.13866  -1.09758  -0.84150  -0.77592
 Alpha  occ. eigenvalues --   -0.65962  -0.61663  -0.58050  -0.53493  -0.50598
 Alpha  occ. eigenvalues --   -0.47892  -0.43846  -0.40804  -0.40494  -0.31192
 Alpha  occ. eigenvalues --   -0.26037  -0.25283  -0.24628  -0.22126  -0.20574
 Alpha  occ. eigenvalues --   -0.17441  -0.15797  -0.10844
 Alpha virt. eigenvalues --    0.13750   0.14990   0.15889   0.16960   0.18625
 Alpha virt. eigenvalues --    0.19569   0.20804   0.21672   0.22266   0.23864
 Alpha virt. eigenvalues --    0.24241   0.24489   0.26046   0.27199   0.27857

 Mulliken charges:
               1
     1  C    0.090640
     2  C    0.148100
     3  F    0.289903
     4  H    1.787631
     5  H    1.814522
     6  N    4.273157
     7  O   -2.884676
     8  O   -2.813688
     9  N   -2.515287
    10  H    0.533509
    11  H    0.705434
    12  N   -2.461084
    13  H    0.500992
    14  H    0.603051
    15  H   -1.072205
 Sum of Mulliken charges =  -1.00000

 Dipole moment (field-independent basis, Debye):
    X=            -10.5589    Y=              7.5701    Z=             -4.2599  Tot=             13.6728

 Test job not archived.
 1\1\GINC-SE423\SP\RHF\Aug-CC-pVDZ\C2H7F1N3O2(1-)\OHZDE\09-Apr-2025\0\\
 #t hf aug-cc-pvdz iop(5/13=1,5/36=2,99/5=2) pseudo=read geom=check gue
 ss=(read,tcheck) scf=(maxcycle=1)\\title\\-1,1\C,0,-0.79071,0.084299,-
 1.536889\C,0,0.145579,-0.008361,-0.356569\F,0,-0.499924,-0.875655,-2.4
 76952\H,0,1.168296,0.09866,-0.739386\H,0,-1.8374,-0.006841,-1.248912\N
 ,0,-0.64883,1.415308,-2.214591\O,0,0.398072,1.622119,-2.819759\O,0,-1.
 589945,2.198796,-2.11176\N,0,-0.093107,-1.284204,0.310176\H,0,0.283499
 ,-2.030151,-0.270287\H,0,0.531753,-1.21376,1.134763\N,0,-0.096789,1.11

 Normal termination of Gaussian 16 at Wed Apr  9 02:32:54 2025.
