 Gaussian 16, Revision C.01,

 ----------------------------------------------------------------------
 #t hf aug-cc-pvdz symm=none int=(grid=ultrafine) guess=(read,tcheck) s
 table=(opt,rrhf)
 ----------------------------------------------------------------------
 -----
 title
 -----
 Symbolic Z-matrix:
 Charge = -1 Multiplicity = 1

 SCF Done:  E(RHF) =  -862.549709225     A.U. after   14 cycles
 Normal termination of Gaussian 16 at Wed Apr  9 02:52:54 2025.
 Gaussian 16:  ES64L-G16RevC.01  3-Jul-2019

 ----------------------------------------------------------------------
 #t hf aug-cc-pvdz iop(5/13=1,5/36=2,99/5=2) pseudo=read geom=check gue
 ss=(read,tcheck) scf=(maxcycle=1)
 ----------------------------------------------------------------------
 -----
 title
 -----
 Structure from the checkpoint file:  "E2SN2_316_mol2.chk"
 Charge = -1 Multiplicity = 1

                         Standard orientation:
 ---------------------------------------------------------------------
 Center     Atomic      Atomic             Coordinates (Angstroms)
 Number     Number       Type             X           Y           Z
 ---------------------------------------------------------------------
      1          6           0       -0.769392   -0.268020    0.461919
      2          6           0       -0.323956    0.889000   -0.433157
      3          9           0       -1.843245    0.182749    1.274887
      4          1           0        0.466286    0.484579   -1.075407
      5          6           0       -1.397686   -1.351132   -0.348888
      6          7           0       -1.869328   -2.233328   -0.965489
      7          7           0        0.276966   -0.722624    1.285931
      8          1           0        1.197538   -0.617556    0.838244
      9          1           0        0.148650   -1.679579    1.583903
     10          6           0        0.286027    2.002929    0.415918
     11          1           0        0.511919    2.860723   -0.224352
     12          1           0       -0.413236    2.319723    1.193979
     13          1           0        1.218220    1.675647    0.872840
     14          6           0       -1.482710    1.406310   -1.281053
     15          1           0       -1.129384    2.208756   -1.934120
     16          1           0       -2.277324    1.805715   -0.645952
     17          1           0       -1.909500    0.624100   -1.914546
     18         17           0        3.061698   -0.394688   -0.311771
 ---------------------------------------------------------------------

 SCF Done:  E(RHF) =  -864.606885482     A.U. after    2 cycles

 The electronic state is 1-A.
 Alpha  occ. eigenvalues --  -99.61358 -29.14204 -15.66240 -15.61520 -11.44749
 Alpha  occ. eigenvalues --  -11.33804 -11.30810 -11.28049 -11.24877 -10.18034
 Alpha  occ. eigenvalues --   -9.38090  -9.37720  -9.37624  -1.32790  -1.17868
 Alpha  occ. eigenvalues --   -1.10706  -0.97342  -0.95054  -0.89900  -0.75491
 Alpha  occ. eigenvalues --   -0.67832  -0.58197  -0.55823  -0.50567  -0.48668
 Alpha  occ. eigenvalues --   -0.44362  -0.43857  -0.41840  -0.38509  -0.36726
 Alpha  occ. eigenvalues --   -0.34787  -0.34065  -0.31994  -0.26993  -0.26109
 Alpha  occ. eigenvalues --   -0.25174  -0.25068  -0.21726  -0.14715  -0.14467
 Alpha virt. eigenvalues --    0.12719   0.13810   0.13962   0.14416   0.15306
 Alpha virt. eigenvalues --    0.15392   0.17291   0.18420   0.18967   0.20336
 Alpha virt. eigenvalues --    0.21460   0.22736   0.22987   0.23160   0.24140

 Mulliken charges:
               1
     1  C    5.232037
     2  C   -2.481174
     3  F    0.016958
     4  H    1.741302
     5  C    0.855767
     6  N   -2.406767
     7  N   -3.690327
     8  H    0.475815
     9  H    0.572711
    10  C   -3.728075
    11  H    1.163187
    12  H    1.288798
    13  H    1.292507
    14  C   -3.991402
    15  H    1.174356
    16  H    1.257686
    17  H    1.199144
    18  Cl  -0.972522
 Sum of Mulliken charges =  -1.00000

 Dipole moment (field-independent basis, Debye):
    X=             -9.9640    Y=              4.0841    Z=              2.9040  Tot=             11.1532

 Test job not archived.
 1\1\GINC-SE113\SP\RHF\Aug-CC-pVDZ\C5H9Cl1F1N2(1-)\OHZDE\09-Apr-2025\0\
 \#t hf aug-cc-pvdz iop(5/13=1,5/36=2,99/5=2) pseudo=read geom=check gu
 ess=(read,tcheck) scf=(maxcycle=1)\\title\\-1,1\C,0,0.042618,0.095094,
 -0.005703\C,0,-0.492714,-0.248032,-1.39637\F,0,1.449351,-0.100795,-0.0
 06711\H,0,-1.566984,-0.034695,-1.365486\C,0,-0.089778,1.556021,0.26532
 4\N,0,-0.209657,2.697369,0.518044\N,0,-0.537349,-0.712519,0.990252\H,0
 ,-1.50287,-0.982283,0.758062\H,0,-0.513014,-0.280421,1.903331\C,0,-0.3
 18784,-1.740799,-1.670672\H,0,-0.616851,-1.954359,-2.701367\H,0,0.7250

 Normal termination of Gaussian 16 at Wed Apr  9 02:53:03 2025.
