 Gaussian 16, Revision C.01,

 ----------------------------------------------------------------------
 #t hf aug-cc-pvdz symm=none int=(grid=ultrafine) guess=(read,tcheck) s
 table=(opt,rrhf)
 ----------------------------------------------------------------------
 -----
 title
 -----
 Symbolic Z-matrix:
 Charge = -1 Multiplicity = 1

 SCF Done:  E(RHF) =  -1350.30704921     A.U. after   17 cycles
 Normal termination of Gaussian 16 at Wed Apr  9 03:01:01 2025.
 Gaussian 16:  ES64L-G16RevC.01  3-Jul-2019

 ----------------------------------------------------------------------
 #t hf aug-cc-pvdz iop(5/13=1,5/36=2,99/5=2) pseudo=read geom=check gue
 ss=(read,tcheck) scf=(maxcycle=1)
 ----------------------------------------------------------------------
 -----
 title
 -----
 Structure from the checkpoint file:  "E2SN2_44_mol1.chk"
 Charge = -1 Multiplicity = 1

                         Standard orientation:
 ---------------------------------------------------------------------
 Center     Atomic      Atomic             Coordinates (Angstroms)
 Number     Number       Type             X           Y           Z
 ---------------------------------------------------------------------
      1          6           0       -0.277388    0.193604   -0.370024
      2          6           0        0.488246   -0.748594    0.323014
      3         17           0       -2.673800   -0.969723   -0.025593
      4         17           0        3.204317    0.126993   -0.297802
      5          1           0        1.703117   -0.201226    0.071521
      6          7           0       -0.627561    1.505886    0.223621
      7          8           0       -1.208600    2.310280   -0.507166
      8          8           0       -0.316198    1.723552    1.391721
      9          7           0       -0.394512    0.217727   -1.713535
     10          1           0       -0.564901   -0.700691   -2.094205
     11          1           0       -1.067907    0.905332   -2.022615
     12          6           0        0.440037   -0.899967    1.825668
     13          1           0       -0.600529   -1.028887    2.140684
     14          1           0        1.005229   -1.801742    2.062130
     15          1           0        0.871249   -0.052304    2.352195
     16          7           0        0.608411   -2.017994   -0.363520
     17          1           0       -0.332235   -2.349759   -0.574668
     18          1           0        1.155842   -1.924575   -1.211654
 ---------------------------------------------------------------------

 SCF Done:  E(RHF) =  -1352.77510194     A.U. after    2 cycles

 The electronic state is 1-A.
 Alpha  occ. eigenvalues --  -99.69498 -99.64625 -21.01041 -21.00611 -15.91021
 Alpha  occ. eigenvalues --  -15.69515 -15.62681 -11.48164 -11.33277 -11.26078
 Alpha  occ. eigenvalues --  -10.26441 -10.21404  -9.46472  -9.45932  -9.45903
 Alpha  occ. eigenvalues --   -9.41525  -9.41065  -9.41041  -1.90532  -1.60317
 Alpha  occ. eigenvalues --   -1.35713  -1.22550  -1.07898  -1.04982  -1.00869
 Alpha  occ. eigenvalues --   -0.96210  -0.82884  -0.68098  -0.64514  -0.61871
 Alpha  occ. eigenvalues --   -0.58784  -0.56480  -0.51355  -0.49965  -0.48377
 Alpha  occ. eigenvalues --   -0.42758  -0.41191  -0.40162  -0.39268  -0.33242
 Alpha  occ. eigenvalues --   -0.33152  -0.29672  -0.29364  -0.28565  -0.27571
 Alpha  occ. eigenvalues --   -0.24749  -0.22327  -0.21940  -0.20206
 Alpha virt. eigenvalues --    0.13043   0.14273   0.14594   0.15353   0.15909
 Alpha virt. eigenvalues --    0.16342   0.16738   0.17361   0.18262   0.21289
 Alpha virt. eigenvalues --    0.22878   0.22972   0.24086   0.25196   0.25908

 Mulliken charges:
               1
     1  C    6.330111
     2  C    1.398416
     3  Cl  -0.903729
     4  Cl  -0.934293
     5  H    1.841003
     6  N    3.040127
     7  O   -2.829744
     8  O   -2.850292
     9  N   -4.036152
    10  H    0.603114
    11  H    0.963570
    12  C   -5.074953
    13  H    1.186424
    14  H    1.114334
    15  H    1.250783
    16  N   -3.166711
    17  H    0.589106
    18  H    0.478886
 Sum of Mulliken charges =  -1.00000

 Dipole moment (field-independent basis, Debye):
    X=             -0.4366    Y=              1.8258    Z=             -1.6524  Tot=              2.5010

 Test job not archived.
 1\1\GINC-SE049\SP\RHF\Aug-CC-pVDZ\C3H8Cl2N3O2(1-)\OHZDE\09-Apr-2025\0\
 \#t hf aug-cc-pvdz iop(5/13=1,5/36=2,99/5=2) pseudo=read geom=check gu
 ess=(read,tcheck) scf=(maxcycle=1)\\title\\-1,1\C,0,-0.52469706,0.0734
 8768,-0.1296475\C,0,-0.16917119,-0.03710757,1.21779531\Cl,0,1.95598756
 ,0.28374758,-1.1379875\Cl,0,-2.77137383,0.14458274,2.53104996\H,0,-1.4
 2616235,-0.05595657,1.72611537\N,0,-0.94370636,-1.10372805,-0.92696537
 \O,0,-1.34484852,-0.88656589,-2.07179355\O,0,-0.87981466,-2.21594737,-
 0.40959891\N,0,-0.93886899,1.22326555,-0.700431\H,0,-0.35691568,2.0049

 Normal termination of Gaussian 16 at Wed Apr  9 03:01:13 2025.
