 Gaussian 16, Revision C.01,

 ----------------------------------------------------------------------
 #t hf aug-cc-pvdz symm=none int=(grid=ultrafine) guess=(read,tcheck) s
 table=(opt,rrhf)
 ----------------------------------------------------------------------
 -----
 title
 -----
 Symbolic Z-matrix:
 Charge = -1 Multiplicity = 1

 SCF Done:  E(RHF) =  -1199.51072562     A.U. after   16 cycles
 Normal termination of Gaussian 16 at Wed Apr  9 03:00:14 2025.
 Gaussian 16:  ES64L-G16RevC.01  3-Jul-2019

 ----------------------------------------------------------------------
 #t hf aug-cc-pvdz iop(5/13=1,5/36=2,99/5=2) pseudo=read geom=check gue
 ss=(read,tcheck) scf=(maxcycle=1)
 ----------------------------------------------------------------------
 -----
 title
 -----
 Structure from the checkpoint file:  "E2SN2_52_mol1.chk"
 Charge = -1 Multiplicity = 1

                         Standard orientation:
 ---------------------------------------------------------------------
 Center     Atomic      Atomic             Coordinates (Angstroms)
 Number     Number       Type             X           Y           Z
 ---------------------------------------------------------------------
      1          6           0        0.302068    0.244336    0.477451
      2          6           0       -0.425361   -0.876305    0.111020
      3         17           0        2.851930   -0.553951    0.040623
      4         17           0       -3.252174   -0.059093    0.148547
      5          1           0       -1.773683   -0.360828    0.193905
      6          1           0       -0.527950   -1.638556    0.886696
      7          6           0        0.521584    1.252393   -0.528056
      8          7           0        0.578105    2.112534   -1.329898
      9          7           0       -0.336742   -1.377102   -1.230956
     10          1           0        0.636266   -1.322688   -1.522419
     11          1           0       -0.908865   -0.833631   -1.865241
     12          7           0        0.489116    0.649897    1.771507
     13          1           0        1.263008    1.292883    1.858576
     14          1           0        0.612270   -0.135273    2.395525
 ---------------------------------------------------------------------

 SCF Done:  E(RHF) =  -1201.33495866     A.U. after    2 cycles

 The electronic state is 1-A.
 Alpha  occ. eigenvalues --  -99.71169 -99.63899 -15.69090 -15.67294 -15.62074
 Alpha  occ. eigenvalues --  -11.45086 -11.34713 -11.29318 -10.28135 -10.20668
 Alpha  occ. eigenvalues --   -9.48163  -9.47578  -9.47555  -9.40679  -9.40275
 Alpha  occ. eigenvalues --   -9.40242  -1.34508  -1.21218  -1.18689  -1.09656
 Alpha  occ. eigenvalues --   -1.00194  -0.96029  -0.80781  -0.62406  -0.58736
 Alpha  occ. eigenvalues --   -0.57183  -0.51047  -0.48301  -0.44487  -0.43775
 Alpha  occ. eigenvalues --   -0.40504  -0.34912  -0.34658  -0.34305  -0.33856
 Alpha  occ. eigenvalues --   -0.28621  -0.27269  -0.27171  -0.25303  -0.20676
 Alpha virt. eigenvalues --    0.12912   0.14325   0.15461   0.15879   0.16323
 Alpha virt. eigenvalues --    0.18129   0.18866   0.20083   0.21900   0.22231
 Alpha virt. eigenvalues --    0.23282   0.23792   0.24530   0.25123   0.25606

 Mulliken charges:
               1
     1  C    4.317095
     2  C   -1.076427
     3  Cl  -0.871493
     4  Cl  -0.996575
     5  H    1.478639
     6  H    1.186058
     7  C    1.708078
     8  N   -2.618705
     9  N   -2.655296
    10  H    0.621937
    11  H    0.472453
    12  N   -3.863855
    13  H    0.753548
    14  H    0.544543
 Sum of Mulliken charges =  -1.00000

 Dipole moment (field-independent basis, Debye):
    X=             -1.1889    Y=              1.1055    Z=              2.7888  Tot=              3.2269

 Test job not archived.
 1\1\GINC-SE114\SP\RHF\Aug-CC-pVDZ\C3H6Cl2N3(1-)\OHZDE\09-Apr-2025\0\\#
 t hf aug-cc-pvdz iop(5/13=1,5/36=2,99/5=2) pseudo=read geom=check gues
 s=(read,tcheck) scf=(maxcycle=1)\\title\\-1,1\C,0,-0.58549591,0.092426
 71,-0.14155254\C,0,-0.22719489,0.09540844,1.19668174\Cl,0,1.80560003,-
 0.19239645,-1.37905493\Cl,0,-2.74725599,0.00366118,2.71358374\H,0,-1.5
 297562,0.07731415,1.8240285\H,0,0.09489663,1.06226065,1.5899735\C,0,-0
 .95775061,-1.17004394,-0.72721952\N,0,-1.37546748,-2.1885368,-1.144560
 3\N,0,0.43549402,-1.04588993,1.76044769\H,0,1.11836968,-1.37806456,1.0

 Normal termination of Gaussian 16 at Wed Apr  9 03:00:20 2025.
