 Gaussian 16, Revision C.01,

 ----------------------------------------------------------------------
 #t hf aug-cc-pvdz symm=none int=(grid=ultrafine) guess=(read,tcheck) s
 table=(opt,rrhf)
 ----------------------------------------------------------------------
 -----
 title
 -----
 Symbolic Z-matrix:
 Charge = -1 Multiplicity = 1

 SCF Done:  E(RHF) =  -419.417282578     A.U. after   18 cycles
 Normal termination of Gaussian 16 at Wed Apr  9 02:52:21 2025.
 Gaussian 16:  ES64L-G16RevC.01  3-Jul-2019

 ----------------------------------------------------------------------
 #t hf aug-cc-pvdz iop(5/13=1,5/36=2,99/5=2) pseudo=read geom=check gue
 ss=(read,tcheck) scf=(maxcycle=1)
 ----------------------------------------------------------------------
 -----
 title
 -----
 Structure from the checkpoint file:  "E2SN2_317_mol1.chk"
 Charge = -1 Multiplicity = 1

                         Standard orientation:
 ---------------------------------------------------------------------
 Center     Atomic      Atomic             Coordinates (Angstroms)
 Number     Number       Type             X           Y           Z
 ---------------------------------------------------------------------
      1          6           0        0.327584    0.383798   -0.186463
      2          1           0       -0.929175   -0.548237   -1.648635
      3          9           0        0.133977    0.225091    1.450257
      4          1           0        0.821104    0.539842   -2.025637
      5          6           0       -0.940958   -0.398102   -0.572660
      6          6           0        1.602110   -0.289403   -0.326448
      7          7           0        2.654530   -0.812615   -0.192782
      8          7           0        0.294046    1.835405   -0.150175
      9          1           0        0.804800    2.159419   -0.956899
     10          1           0        0.761551    2.105104    0.708775
     11          6           0       -2.183605    0.406779   -0.197717
     12          1           0       -2.187402    0.599675    0.876140
     13          1           0       -2.203074    1.364971   -0.718857
     14          1           0       -3.079927   -0.166007   -0.465526
     15          7           0       -0.875319   -1.724432    0.051608
     16          1           0       -1.746012   -2.210959   -0.132520
     17          1           0       -0.791250   -1.576569    1.050012
 ---------------------------------------------------------------------

 SCF Done:  E(RHF) =  -421.333014202     A.U. after    2 cycles

 The electronic state is 1-A.
 Alpha  occ. eigenvalues --  -29.02166 -15.59644 -15.58778 -15.57924 -11.42914
 Alpha  occ. eigenvalues --  -11.30219 -11.28371 -11.23270  -1.28055  -1.18122
 Alpha  occ. eigenvalues --   -1.10859  -0.96037  -0.88678  -0.72257  -0.63479
 Alpha  occ. eigenvalues --   -0.55962  -0.53417  -0.45930  -0.43645  -0.40978
 Alpha  occ. eigenvalues --   -0.40653  -0.36668  -0.35894  -0.35024  -0.29653
 Alpha  occ. eigenvalues --   -0.25561  -0.23743  -0.20840  -0.16407  -0.07892
 Alpha  occ. eigenvalues --   -0.06964  -0.06472
 Alpha virt. eigenvalues --    0.12889   0.14189   0.14729   0.15160   0.15543
 Alpha virt. eigenvalues --    0.16445   0.17626   0.18180   0.20615   0.21070
 Alpha virt. eigenvalues --    0.22474   0.24338   0.25159   0.25449   0.26696

 Mulliken charges:
               1
     1  C    2.710678
     2  H    1.809004
     3  F   -0.226123
     4  H   -0.852363
     5  C   -0.510900
     6  C    2.477782
     7  N   -2.911200
     8  N   -3.108021
     9  H    0.668515
    10  H    0.461673
    11  C   -3.471479
    12  H    1.245230
    13  H    1.364127
    14  H    1.054376
    15  N   -2.824672
    16  H    0.558061
    17  H    0.555311
 Sum of Mulliken charges =  -1.00000

 Dipole moment (field-independent basis, Debye):
    X=             -5.9114    Y=              0.2529    Z=              6.6918  Tot=              8.9324

 Test job not archived.
 1\1\GINC-SE322\SP\RHF\Aug-CC-pVDZ\C4H9F1N3(1-)\OHZDE\09-Apr-2025\0\\#t
  hf aug-cc-pvdz iop(5/13=1,5/36=2,99/5=2) pseudo=read geom=check guess
 =(read,tcheck) scf=(maxcycle=1)\\title\\-1,1\C,0,0.54347176,-0.0240398
 3,0.0047748\H,0,1.67108167,1.79250824,-0.11658609\F,0,-1.10711003,-0.1
 0819203,-0.09534336\H,0,2.44931887,-0.15121788,-0.04043933\C,0,0.62561
 604,1.51294891,-0.02041427\C,0,0.87711477,-0.73607579,-1.21132511\N,0,
 0.91080042,-1.39004441,-2.19641163\N,0,0.60189254,-0.72624888,1.274850
 67\H,0,1.51166148,-1.15767244,1.32826231\H,0,-0.13137514,-1.42648157,1

 Normal termination of Gaussian 16 at Wed Apr  9 02:52:28 2025.
