 Gaussian 16, Revision C.01,

 ----------------------------------------------------------------------
 #t hf aug-cc-pvdz symm=none int=(grid=ultrafine) guess=(read,tcheck) s
 table=(opt,rrhf)
 ----------------------------------------------------------------------
 -----
 title
 -----
 Symbolic Z-matrix:
 Charge = -1 Multiplicity = 1

 SCF Done:  E(RHF) =  -823.439846931     A.U. after   16 cycles
 Normal termination of Gaussian 16 at Wed Apr  9 02:56:17 2025.
 Gaussian 16:  ES64L-G16RevC.01  3-Jul-2019

 ----------------------------------------------------------------------
 #t hf aug-cc-pvdz iop(5/13=1,5/36=2,99/5=2) pseudo=read geom=check gue
 ss=(read,tcheck) scf=(maxcycle=1)
 ----------------------------------------------------------------------
 -----
 title
 -----
 Structure from the checkpoint file:  "E2SN2_373_mol1.chk"
 Charge = -1 Multiplicity = 1

                         Standard orientation:
 ---------------------------------------------------------------------
 Center     Atomic      Atomic             Coordinates (Angstroms)
 Number     Number       Type             X           Y           Z
 ---------------------------------------------------------------------
      1          6           0        0.421633   -0.430977    0.341043
      2          1           0        0.146438    1.058386   -1.146314
      3          9           0       -1.215876   -0.886361    1.461469
      4         17           0        2.429383    0.230170   -0.323440
      5          6           0       -0.396818    0.690276   -0.271477
      6          1           0        0.777431   -0.313392    1.347626
      7          7           0        0.357753   -1.679528   -0.307556
      8          1           0       -0.531726   -2.041622    0.034517
      9          1           0        1.105538   -2.265122    0.042491
     10          6           0       -0.587853    1.818008    0.737664
     11          1           0       -1.127503    1.402369    1.586282
     12          1           0        0.393776    2.179802    1.052800
     13          1           0       -1.145644    2.650757    0.301192
     14          6           0       -1.688795    0.207755   -0.772223
     15          7           0       -2.709746   -0.080073   -1.275783
 ---------------------------------------------------------------------

 SCF Done:  E(RHF) =  -825.302050111     A.U. after    2 cycles

 The electronic state is 1-A.
 Alpha  occ. eigenvalues --  -99.67090 -28.93247 -15.61586 -15.61199 -11.39992
 Alpha  occ. eigenvalues --  -11.34162 -11.29921 -11.25510 -10.24107  -9.44192
 Alpha  occ. eigenvalues --   -9.43645  -9.43567  -1.27187  -1.16411  -1.07175
 Alpha  occ. eigenvalues --   -1.04073  -0.85122  -0.76876  -0.60013  -0.56364
 Alpha  occ. eigenvalues --   -0.53305  -0.49379  -0.44080  -0.39768  -0.38294
 Alpha  occ. eigenvalues --   -0.37795  -0.35377  -0.32318  -0.31356  -0.30350
 Alpha  occ. eigenvalues --   -0.27942  -0.26858  -0.25406  -0.03267  -0.01716
 Alpha  occ. eigenvalues --   -0.01037
 Alpha virt. eigenvalues --    0.13589   0.14758   0.15392   0.16020   0.16359
 Alpha virt. eigenvalues --    0.16953   0.18758   0.20376   0.20816   0.22493
 Alpha virt. eigenvalues --    0.24202   0.25232   0.25591   0.26719   0.26908

 Mulliken charges:
               1
     1  C    1.342167
     2  H    1.732487
     3  F   -0.623407
     4  Cl  -0.612223
     5  C   -2.891933
     6  H    1.773330
     7  N   -3.347311
     8  H    0.478641
     9  H    0.616875
    10  C   -3.485682
    11  H    1.195270
    12  H    1.277905
    13  H    1.260648
    14  C    3.209765
    15  N   -2.926532
 Sum of Mulliken charges =  -1.00000

 Dipole moment (field-independent basis, Debye):
    X=             -2.1389    Y=              0.0090    Z=              2.8280  Tot=              3.5458

 Test job not archived.
 1\1\GINC-SE460\SP\RHF\Aug-CC-pVDZ\C4H7Cl1F1N2(1-)\OHZDE\09-Apr-2025\0\
 \#t hf aug-cc-pvdz iop(5/13=1,5/36=2,99/5=2) pseudo=read geom=check gu
 ess=(read,tcheck) scf=(maxcycle=1)\\title\\-1,1\C,0,0.72517013,-0.0424
 5266,-0.03925519\H,0,1.61153761,1.86905627,-0.2974221\F,0,-1.30847158,
 -0.10002537,-0.11104219\Cl,0,2.83707195,-0.1902882,0.61475475\C,0,0.61
 383179,1.46976009,-0.09464925\H,0,0.46523691,-0.54116822,0.87581017\N,
 0,0.81405363,-0.70969546,-1.27640035\H,0,-0.16096907,-0.7180095,-1.573
 98968\H,0,1.11328544,-1.66227405,-1.10999821\C,0,0.09435047,2.01097849

 Normal termination of Gaussian 16 at Wed Apr  9 02:56:22 2025.
