 Gaussian 16, Revision C.01,

 ----------------------------------------------------------------------
 #t hf aug-cc-pvdz symm=none int=(grid=ultrafine) guess=(read,tcheck) s
 table=(opt,rrhf)
 ----------------------------------------------------------------------
 -----
 title
 -----
 Symbolic Z-matrix:
 Charge = -1 Multiplicity = 1

 SCF Done:  E(RHF) =  -878.445300844     A.U. after   16 cycles
 Normal termination of Gaussian 16 at Wed Apr  9 02:49:40 2025.
 Gaussian 16:  ES64L-G16RevC.01  3-Jul-2019

 ----------------------------------------------------------------------
 #t hf aug-cc-pvdz iop(5/13=1,5/36=2,99/5=2) pseudo=read geom=check gue
 ss=(read,tcheck) scf=(maxcycle=1)
 ----------------------------------------------------------------------
 -----
 title
 -----
 Structure from the checkpoint file:  "E2SN2_289_mol1.chk"
 Charge = -1 Multiplicity = 1

                         Standard orientation:
 ---------------------------------------------------------------------
 Center     Atomic      Atomic             Coordinates (Angstroms)
 Number     Number       Type             X           Y           Z
 ---------------------------------------------------------------------
      1          6           0       -0.017017    0.360446    0.203471
      2          1           0       -1.425206    0.089129   -1.318975
      3         17           0        1.824955   -0.978184    0.391548
      4          9           0       -1.500800    1.672948    0.066988
      5          6           0       -0.993041   -0.566857   -0.561391
      6          6           0        0.712045    1.310192   -0.602480
      7          7           0        1.308559    2.083047   -1.258884
      8          6           0       -0.038913    0.536977    1.713326
      9          1           0       -0.837955    1.225571    1.971234
     10          1           0       -0.195568   -0.430649    2.183653
     11          1           0        0.918279    0.935452    2.044368
     12          7           0       -2.007610   -0.984710    0.417466
     13          1           0       -2.712021   -1.512528   -0.088844
     14          1           0       -2.438519   -0.108762    0.705292
     15          7           0       -0.399807   -1.671026   -1.280671
     16          1           0       -1.140944   -2.143368   -1.787745
     17          1           0        0.028460   -2.317966   -0.631113
 ---------------------------------------------------------------------

 SCF Done:  E(RHF) =  -880.569336249     A.U. after    2 cycles

 The electronic state is 1-A.
 Alpha  occ. eigenvalues --  -99.66360 -28.95169 -15.61559 -15.60569 -15.60244
 Alpha  occ. eigenvalues --  -11.43964 -11.33199 -11.30548 -11.25060 -10.23417
 Alpha  occ. eigenvalues --   -9.43471  -9.43098  -9.42957  -1.30439  -1.16684
 Alpha  occ. eigenvalues --   -1.11423  -1.07576  -1.00788  -0.86866  -0.74540
 Alpha  occ. eigenvalues --   -0.60905  -0.57522  -0.50978  -0.49965  -0.46208
 Alpha  occ. eigenvalues --   -0.44411  -0.43034  -0.38666  -0.37256  -0.35324
 Alpha  occ. eigenvalues --   -0.31715  -0.30787  -0.29743  -0.27944  -0.25869
 Alpha  occ. eigenvalues --   -0.24818  -0.22699  -0.05637  -0.02631  -0.01803
 Alpha virt. eigenvalues --    0.12526   0.14012   0.15098   0.15387   0.16360
 Alpha virt. eigenvalues --    0.16821   0.17662   0.18149   0.20854   0.21187
 Alpha virt. eigenvalues --    0.22554   0.23753   0.24883   0.25503   0.25869

 Mulliken charges:
               1
     1  C    3.579967
     2  H    1.590852
     3  Cl  -0.700476
     4  F   -0.549746
     5  C    1.376188
     6  C    1.961752
     7  N   -3.039597
     8  C   -4.721964
     9  H    0.985408
    10  H    1.233378
    11  H    1.240740
    12  N   -3.010460
    13  H    0.584696
    14  H    0.738372
    15  N   -3.303631
    16  H    0.540094
    17  H    0.494429
 Sum of Mulliken charges =  -1.00000

 Dipole moment (field-independent basis, Debye):
    X=             -7.5743    Y=             -0.4240    Z=              0.7232  Tot=              7.6206

 Test job not archived.
 1\1\GINC-SE074\SP\RHF\Aug-CC-pVDZ\C4H8Cl1F1N3(1-)\OHZDE\09-Apr-2025\0\
 \#t hf aug-cc-pvdz iop(5/13=1,5/36=2,99/5=2) pseudo=read geom=check gu
 ess=(read,tcheck) scf=(maxcycle=1)\\title\\-1,1\C,0,0.53453613,-0.0450
 7373,-0.01153245\H,0,1.53516114,1.66234083,-0.68824155\Cl,0,-1.6448635
 1,-0.45879429,-0.55853962\F,0,2.46469873,0.13164316,0.41991648\C,0,0.5
 9890773,1.49551195,-0.15287689\C,0,1.00037106,-0.80227671,-1.14852252\
 N,0,1.37760616,-1.42032935,-2.07572574\C,0,0.33291354,-0.75677972,1.31
 667227\H,0,1.28186108,-0.78436093,1.84381864\H,0,-0.41639557,-0.224055

 Normal termination of Gaussian 16 at Wed Apr  9 02:49:48 2025.
