 Gaussian 16, Revision C.01,

 ----------------------------------------------------------------------
 #t hf aug-cc-pvdz symm=none int=(grid=ultrafine) guess=(read,tcheck) s
 table=(opt,rrhf)
 ----------------------------------------------------------------------
 -----
 title
 -----
 Symbolic Z-matrix:
 Charge = -1 Multiplicity = 1

 SCF Done:  E(RHF) =  -852.235983276     A.U. after   17 cycles
 Normal termination of Gaussian 16 at Wed Apr  9 02:41:35 2025.
 Gaussian 16:  ES64L-G16RevC.01  3-Jul-2019

 ----------------------------------------------------------------------
 #t hf aug-cc-pvdz iop(5/13=1,5/36=2,99/5=2) pseudo=read geom=check gue
 ss=(read,tcheck) scf=(maxcycle=1)
 ----------------------------------------------------------------------
 -----
 title
 -----
 Structure from the checkpoint file:  "E2SN2_204_mol1.chk"
 Charge = -1 Multiplicity = 1

                         Standard orientation:
 ---------------------------------------------------------------------
 Center     Atomic      Atomic             Coordinates (Angstroms)
 Number     Number       Type             X           Y           Z
 ---------------------------------------------------------------------
      1          6           0        0.937943   -0.305147    0.697596
      2          1           0       -0.511252   -1.850573    0.601381
      3         17           0        0.920178    1.526256   -0.293200
      4          1           0        1.048346   -1.864903    2.054028
      5          6           0       -0.284109   -0.956957    0.026791
      6          1           0        0.799087    0.070862    1.697449
      7          7           0        2.213992   -0.791380    0.209621
      8          1           0        2.541978   -1.416955    0.932555
      9          1           0        2.839851   -0.003269    0.095227
     10          7           0       -0.132278   -1.283345   -1.365101
     11          1           0        0.782132   -1.726066   -1.412535
     12          1           0       -0.038621   -0.407938   -1.870752
     13          7           0       -1.487111   -0.074923    0.221322
     14          8           0       -2.159236    0.255687   -0.751376
     15          8           0       -1.739486    0.228394    1.386353
 ---------------------------------------------------------------------

 SCF Done:  E(RHF) =  -854.282237317     A.U. after    2 cycles

 The electronic state is 1-A.
 Alpha  occ. eigenvalues --  -99.70539 -20.96487 -20.95914 -15.85587 -15.61591
 Alpha  occ. eigenvalues --  -15.61456 -11.40302 -11.32380 -10.27665  -9.47732
 Alpha  occ. eigenvalues --   -9.47259  -9.47111  -1.85728  -1.55657  -1.29124
 Alpha  occ. eigenvalues --   -1.19308  -1.08720  -0.99607  -0.82206  -0.68820
 Alpha  occ. eigenvalues --   -0.60405  -0.57825  -0.55280  -0.51949  -0.49813
 Alpha  occ. eigenvalues --   -0.46613  -0.42896  -0.41726  -0.35550  -0.33989
 Alpha  occ. eigenvalues --   -0.33604  -0.26645  -0.25406  -0.22007  -0.18189
 Alpha  occ. eigenvalues --   -0.17763  -0.13501
 Alpha virt. eigenvalues --    0.13991   0.15290   0.16084   0.16237   0.17044
 Alpha virt. eigenvalues --    0.17357   0.19368   0.21312   0.23444   0.24325
 Alpha virt. eigenvalues --    0.24895   0.25499   0.26573   0.26714   0.27261

 Mulliken charges:
               1
     1  C   -0.536224
     2  H    1.922045
     3  Cl  -0.462362
     4  H   -0.962616
     5  C    1.230585
     6  H    2.019914
     7  N   -2.443628
     8  H    0.713193
     9  H    0.529658
    10  N   -2.768875
    11  H    0.624924
    12  H    0.508340
    13  N    4.455077
    14  O   -2.781969
    15  O   -3.048063
 Sum of Mulliken charges =  -1.00000

 Dipole moment (field-independent basis, Debye):
    X=             -0.5264    Y=              1.8578    Z=             -4.0127  Tot=              4.4531

 Test job not archived.
 1\1\GINC-SE120\SP\RHF\Aug-CC-pVDZ\C2H7Cl1N3O2(1-)\OHZDE\09-Apr-2025\0\
 \#t hf aug-cc-pvdz iop(5/13=1,5/36=2,99/5=2) pseudo=read geom=check gu
 ess=(read,tcheck) scf=(maxcycle=1)\\title\\-1,1\C,0,0.56406877,0.00541
 81,0.08219419\H,0,1.77064232,1.71060919,-0.28423142\Cl,0,-1.51476309,-
 0.09991232,0.14046458\H,0,2.58944849,-0.25699263,-0.25531265\C,0,0.727
 43086,1.53074814,-0.03998194\H,0,0.71224032,-0.57148658,-0.81535573\N,
 0,0.83439487,-0.51733264,1.40752404\H,0,1.75198869,-0.93481019,1.33481
 846\H,0,0.13241235,-1.21204045,1.63225849\N,0,0.34663165,2.29417476,1.

 Normal termination of Gaussian 16 at Wed Apr  9 02:41:42 2025.
