 Gaussian 16, Revision C.01,

 ----------------------------------------------------------------------
 #t hf aug-cc-pvdz symm=none int=(grid=ultrafine) guess=(read,tcheck) s
 table=(opt,rrhf)
 ----------------------------------------------------------------------
 -----
 title
 -----
 Symbolic Z-matrix:
 Charge = -1 Multiplicity = 1

 SCF Done:  E(RHF) =  -823.512803041     A.U. after   14 cycles
 Normal termination of Gaussian 16 at Wed Apr  9 02:51:14 2025.
 Gaussian 16:  ES64L-G16RevC.01  3-Jul-2019

 ----------------------------------------------------------------------
 #t hf aug-cc-pvdz iop(5/13=1,5/36=2,99/5=2) pseudo=read geom=check gue
 ss=(read,tcheck) scf=(maxcycle=1)
 ----------------------------------------------------------------------
 -----
 title
 -----
 Structure from the checkpoint file:  "E2SN2_299_mol2.chk"
 Charge = -1 Multiplicity = 1

                         Standard orientation:
 ---------------------------------------------------------------------
 Center     Atomic      Atomic             Coordinates (Angstroms)
 Number     Number       Type             X           Y           Z
 ---------------------------------------------------------------------
      1          6           0       -0.975798    0.093569    0.216869
      2          6           0       -0.300953    0.851298   -0.916057
      3          9           0       -2.034401    0.896151    0.715922
      4          1           0       -1.074312    1.080691   -1.655993
      5          1           0        0.438429    0.185454   -1.369064
      6          6           0       -1.688899   -1.102642   -0.318128
      7          7           0       -2.241185   -2.054543   -0.729422
      8          7           0       -0.078856   -0.194496    1.261269
      9          1           0       -0.375427   -0.977182    1.826711
     10          1           0        0.880248   -0.345493    0.922502
     11          6           0        0.385380    2.122128   -0.426490
     12          1           0        1.271355    1.870022    0.153990
     13          1           0        0.704645    2.720930   -1.283949
     14          1           0       -0.294460    2.719848    0.183936
     15         17           0        2.851825   -0.668381   -0.016560
 ---------------------------------------------------------------------

 SCF Done:  E(RHF) =  -825.362886939     A.U. after    2 cycles

 The electronic state is 1-A.
 Alpha  occ. eigenvalues --  -99.61331 -29.14246 -15.66252 -15.61512 -11.43400
 Alpha  occ. eigenvalues --  -11.33367 -11.29889 -11.24751 -10.18003  -9.38014
 Alpha  occ. eigenvalues --   -9.37669  -9.37591  -1.32196  -1.17795  -1.06346
 Alpha  occ. eigenvalues --   -0.97231  -0.94351  -0.78137  -0.67542  -0.60661
 Alpha  occ. eigenvalues --   -0.54275  -0.49097  -0.45685  -0.44219  -0.39686
 Alpha  occ. eigenvalues --   -0.38321  -0.37346  -0.34777  -0.32049  -0.27405
 Alpha  occ. eigenvalues --   -0.26090  -0.25168  -0.25026  -0.21873  -0.14783
 Alpha  occ. eigenvalues --   -0.14492
 Alpha virt. eigenvalues --    0.12960   0.14068   0.14701   0.15395   0.17343
 Alpha virt. eigenvalues --    0.17677   0.18542   0.20322   0.20805   0.21971
 Alpha virt. eigenvalues --    0.23005   0.23428   0.24819   0.25301   0.26053

 Mulliken charges:
               1
     1  C    3.940116
     2  C   -3.615432
     3  F    0.111951
     4  H    1.395629
     5  H    1.317379
     6  C    1.290261
     7  N   -2.471752
     8  N   -3.291911
     9  H    0.565145
    10  H    0.514161
    11  C   -3.369162
    12  H    1.310972
    13  H    1.022120
    14  H    1.248019
    15  Cl  -0.967496
 Sum of Mulliken charges =  -1.00000

 Dipole moment (field-independent basis, Debye):
    X=             -8.8859    Y=              5.3142    Z=              1.2867  Tot=             10.4334

 Test job not archived.
 1\1\GINC-SE102\SP\RHF\Aug-CC-pVDZ\C4H7Cl1F1N2(1-)\OHZDE\09-Apr-2025\0\
 \#t hf aug-cc-pvdz iop(5/13=1,5/36=2,99/5=2) pseudo=read geom=check gu
 ess=(read,tcheck) scf=(maxcycle=1)\\title\\-1,1\C,0,0.07569,0.063663,0
 .028695\C,0,-0.415404,0.049101,-1.410647\F,0,1.469654,-0.202147,0.0224
 05\H,0,0.177254,0.78679,-1.960903\H,0,-1.462482,0.363545,-1.409276\C,0
 ,0.003272,1.447081,0.58238\N,0,-0.063914,2.530974,1.030665\N,0,-0.5780
 62,-0.90229,0.814698\H,0,-0.555118,-0.684792,1.800824\H,0,-1.54683,-1.
 063876,0.510031\C,0,-0.29618,-1.333616,-2.0428\H,0,-1.033073,-2.008463

 Normal termination of Gaussian 16 at Wed Apr  9 02:51:20 2025.
