 Gaussian 16, Revision C.01,

 ----------------------------------------------------------------------
 #t hf aug-cc-pvdz symm=none int=(grid=ultrafine) guess=(read,tcheck) s
 table=(opt,rrhf)
 ----------------------------------------------------------------------
 -----
 title
 -----
 Symbolic Z-matrix:
 Charge = -1 Multiplicity = 1

 SCF Done:  E(RHF) =  -604.589587552     A.U. after   18 cycles
 Normal termination of Gaussian 16 at Wed Apr  9 03:01:53 2025.
 Gaussian 16:  ES64L-G16RevC.01  3-Jul-2019

 ----------------------------------------------------------------------
 #t hf aug-cc-pvdz iop(5/13=1,5/36=2,99/5=2) pseudo=read geom=check gue
 ss=(read,tcheck) scf=(maxcycle=1)
 ----------------------------------------------------------------------
 -----
 title
 -----
 Structure from the checkpoint file:  "E2SN2_63_mol1.chk"
 Charge = -1 Multiplicity = 1

                         Standard orientation:
 ---------------------------------------------------------------------
 Center     Atomic      Atomic             Coordinates (Angstroms)
 Number     Number       Type             X           Y           Z
 ---------------------------------------------------------------------
      1          6           0        0.695229    0.377695    0.088388
      2          6           0       -0.739695    0.576195   -0.305010
      3          9           0        1.208799    1.623096    0.472394
      4          1           0        0.478144    0.476837   -2.166676
      5          1           0       -0.402389    0.696240   -1.587136
      6          6           0        0.909553   -0.533109    1.212994
      7          7           0        1.119330   -1.184213    2.168854
      8          6           0        1.576032   -0.050417   -1.147489
      9          7           0        2.660003   -0.500356   -1.360841
     10          7           0       -1.456268   -0.648914   -0.284162
     11          8           0       -0.790770   -1.676202   -0.535553
     12          8           0       -2.692691   -0.645034   -0.136175
     13          6           0       -1.490327    1.775929    0.195774
     14          1           0       -0.906160    2.676849    0.006955
     15          1           0       -2.440753    1.852918   -0.334008
     16          1           0       -1.706551    1.715790    1.268245
 ---------------------------------------------------------------------

 SCF Done:  E(RHF) =  -607.208140022     A.U. after    2 cycles

 The electronic state is 1-A.
 Alpha  occ. eigenvalues --  -29.16458 -20.95544 -20.95285 -15.85526 -15.65440
 Alpha  occ. eigenvalues --  -15.57903 -11.46806 -11.35100 -11.33688 -11.30168
 Alpha  occ. eigenvalues --  -11.28196  -1.84771  -1.54782  -1.26863  -1.16219
 Alpha  occ. eigenvalues --   -1.11828  -1.01816  -0.92468  -0.75091  -0.67261
 Alpha  occ. eigenvalues --   -0.66648  -0.57759  -0.55973  -0.50252  -0.46774
 Alpha  occ. eigenvalues --   -0.45511  -0.44575  -0.42633  -0.40245  -0.38260
 Alpha  occ. eigenvalues --   -0.33370  -0.32096  -0.29387  -0.28621  -0.25944
 Alpha  occ. eigenvalues --   -0.22726  -0.18356  -0.18340  -0.16448  -0.14917
 Alpha  occ. eigenvalues --   -0.11189
 Alpha virt. eigenvalues --    0.12718   0.14141   0.14348   0.15972   0.17870
 Alpha virt. eigenvalues --    0.19468   0.20486   0.21384   0.22366   0.22841
 Alpha virt. eigenvalues --    0.23077   0.24237   0.24921   0.25285   0.25713

 Mulliken charges:
               1
     1  C    3.172536
     2  C    0.729826
     3  F    0.018049
     4  H    0.344083
     5  H    0.868017
     6  C    0.784043
     7  N   -2.607045
     8  C    1.738410
     9  N   -2.888802
    10  N    3.399583
    11  O   -3.050544
    12  O   -2.834303
    13  C   -4.264683
    14  H    1.198178
    15  H    1.208136
    16  H    1.184517
 Sum of Mulliken charges =  -1.00000

 Dipole moment (field-independent basis, Debye):
    X=             -3.7617    Y=              5.0377    Z=              2.6132  Tot=              6.8086

 Test job not archived.
 1\1\GINC-SE164\SP\RHF\Aug-CC-pVDZ\C5H5F1N3O2(1-)\OHZDE\09-Apr-2025\0\\
 #t hf aug-cc-pvdz iop(5/13=1,5/36=2,99/5=2) pseudo=read geom=check gue
 ss=(read,tcheck) scf=(maxcycle=1)\\title\\-1,1\C,0,-0.22989517,0.03680
 064,-0.29896608\C,0,0.37883837,-0.10231287,1.06604724\F,0,0.53340547,0
 .96878544,-1.0138189\H,0,-1.38748759,1.24345685,1.23277436\H,0,-0.4681
 0393,0.79395374,1.56747253\C,0,-0.25361498,-1.19020001,-1.09529831\N,0
 ,-0.20921237,-2.12881658,-1.80144239\C,0,-1.66897904,0.67703042,-0.223
 94064\N,0,-2.62057935,0.82455968,-0.92796517\N,0,-0.03195733,-1.306328

 Normal termination of Gaussian 16 at Wed Apr  9 03:02:02 2025.
