 Gaussian 16, Revision C.01,

 ----------------------------------------------------------------------
 #t hf aug-cc-pvdz symm=none int=(grid=ultrafine) guess=(read,tcheck) s
 table=(opt,rrhf)
 ----------------------------------------------------------------------
 -----
 title
 -----
 Symbolic Z-matrix:
 Charge = -1 Multiplicity = 1

 SCF Done:  E(RHF) =  -987.861386156     A.U. after   16 cycles
 Normal termination of Gaussian 16 at Wed Apr  9 02:47:30 2025.
 Gaussian 16:  ES64L-G16RevC.01  3-Jul-2019

 ----------------------------------------------------------------------
 #t hf aug-cc-pvdz iop(5/13=1,5/36=2,99/5=2) pseudo=read geom=check gue
 ss=(read,tcheck) scf=(maxcycle=1)
 ----------------------------------------------------------------------
 -----
 title
 -----
 Structure from the checkpoint file:  "E2SN2_25_mol1.chk"
 Charge = -1 Multiplicity = 1

                         Standard orientation:
 ---------------------------------------------------------------------
 Center     Atomic      Atomic             Coordinates (Angstroms)
 Number     Number       Type             X           Y           Z
 ---------------------------------------------------------------------
      1          6           0       -0.367660    0.137553   -0.229504
      2          6           0        0.873283   -0.247684   -0.918839
      3         17           0       -1.877771   -0.858817   -0.673202
      4          9           0        3.188771    0.414183   -0.353641
      5          1           0        1.982940    0.359789   -0.536873
      6          1           0        0.760071   -0.005047   -1.985588
      7          7           0       -0.189926   -0.021994    1.292191
      8          8           0        0.384683    0.919424    1.829575
      9          8           0       -0.558139   -1.050039    1.832889
     10          7           0        1.245660   -1.615571   -0.611461
     11          1           0        2.255913   -1.610438   -0.539693
     12          1           0        0.954140   -2.267081   -1.329004
     13          6           0       -0.735260    1.524871   -0.496585
     14          7           0       -1.050650    2.630638   -0.739558
 ---------------------------------------------------------------------

 SCF Done:  E(RHF) =  -990.358124082     A.U. after    2 cycles

 The electronic state is 1-A.
 Alpha  occ. eigenvalues --  -99.78397 -28.95746 -20.98666 -20.98062 -15.88245
 Alpha  occ. eigenvalues --  -15.67106 -15.59429 -11.45565 -11.35417 -11.25300
 Alpha  occ. eigenvalues --  -10.35648  -9.55711  -9.54898  -9.54832  -1.87945
 Alpha  occ. eigenvalues --   -1.58048  -1.29109  -1.18361  -1.17648  -1.05359
 Alpha  occ. eigenvalues --   -0.85446  -0.76630  -0.64068  -0.61735  -0.57117
 Alpha  occ. eigenvalues --   -0.54459  -0.48405  -0.47205  -0.45438  -0.44527
 Alpha  occ. eigenvalues --   -0.42563  -0.40968  -0.37883  -0.34152  -0.32639
 Alpha  occ. eigenvalues --   -0.26305  -0.23852  -0.22693  -0.19500  -0.18653
 Alpha  occ. eigenvalues --   -0.03487  -0.03368  -0.01329
 Alpha virt. eigenvalues --    0.13811   0.15108   0.16011   0.17209   0.18883
 Alpha virt. eigenvalues --    0.20863   0.21425   0.21864   0.22999   0.24063
 Alpha virt. eigenvalues --    0.24709   0.25055   0.25803   0.26318   0.27288

 Mulliken charges:
               1
     1  C    0.245647
     2  C   -1.007648
     3  Cl  -0.101184
     4  F    0.337871
     5  H    0.778565
     6  H    1.250706
     7  N    4.456240
     8  O   -2.863096
     9  O   -2.910275
    10  N   -2.294590
    11  H    0.417531
    12  H    0.484910
    13  C    2.979189
    14  N   -2.773866
 Sum of Mulliken charges =  -1.00000

 Dipole moment (field-independent basis, Debye):
    X=             -0.0876    Y=             -1.7580    Z=              0.9350  Tot=              1.9931

 Test job not archived.
 1\1\GINC-SE112\SP\RHF\Aug-CC-pVDZ\C3H4Cl1F1N3O2(1-)\OHZDE\09-Apr-2025\
 0\\#t hf aug-cc-pvdz iop(5/13=1,5/36=2,99/5=2) pseudo=read geom=check
 guess=(read,tcheck) scf=(maxcycle=1)\\title\\-1,1\C,0,-0.07616289,0.07
 773684,-0.37258675\C,0,-0.34425148,0.01871585,1.07246485\Cl,0,1.715683
 3,-0.05215886,-0.86499798\F,0,-2.5198652,-0.32933916,2.19699451\H,0,-1
 .61178414,-0.01290461,1.44478466\H,0,0.07293991,0.92574118,1.53387602\
 N,0,-0.79379931,-1.08483542,-1.08393987\O,0,-1.98146344,-0.87566247,-1
 .30960883\O,0,-0.18322612,-2.11422653,-1.31277523\N,0,0.09072051,-1.24

 Normal termination of Gaussian 16 at Wed Apr  9 02:47:36 2025.
