 Gaussian 16, Revision C.01,

 ----------------------------------------------------------------------
 #t hf aug-cc-pvdz symm=none int=(grid=ultrafine) guess=(read,tcheck) s
 table=(opt,rrhf)
 ----------------------------------------------------------------------
 -----
 title
 -----
 Symbolic Z-matrix:
 Charge = -1 Multiplicity = 1

 SCF Done:  E(RHF) =  -852.257228304     A.U. after   17 cycles
 Normal termination of Gaussian 16 at Wed Apr  9 02:34:01 2025.
 Gaussian 16:  ES64L-G16RevC.01  3-Jul-2019

 ----------------------------------------------------------------------
 #t hf aug-cc-pvdz iop(5/13=1,5/36=2,99/5=2) pseudo=read geom=check gue
 ss=(read,tcheck) scf=(maxcycle=1)
 ----------------------------------------------------------------------
 -----
 title
 -----
 Structure from the checkpoint file:  "E2SN2_119_mol1.chk"
 Charge = -1 Multiplicity = 1

                         Standard orientation:
 ---------------------------------------------------------------------
 Center     Atomic      Atomic             Coordinates (Angstroms)
 Number     Number       Type             X           Y           Z
 ---------------------------------------------------------------------
      1          6           0        0.868072    0.080825    0.605254
      2          6           0       -0.393659    0.694366    0.056173
      3         17           0        1.478503   -1.250658   -0.509462
      4          1           0       -0.320005    2.847596    1.264558
      5          1           0       -0.555081    1.653847    0.812141
      6          1           0        0.666885   -0.422023    1.546788
      7          7           0        1.932392    1.042190    0.774147
      8          1           0        1.493196    1.816810    1.286459
      9          1           0        2.135272    1.429721   -0.143042
     10          7           0       -0.317136    1.320829   -1.207890
     11          1           0        0.360219    0.903951   -1.831438
     12          1           0       -0.146365    2.312634   -1.065550
     13          7           0       -1.539028   -0.217109    0.188350
     14          8           0       -2.444795   -0.203199   -0.648503
     15          8           0       -1.573798   -0.916034    1.216019
 ---------------------------------------------------------------------

 SCF Done:  E(RHF) =  -854.294165005     A.U. after    2 cycles

 The electronic state is 1-A.
 Alpha  occ. eigenvalues --  -99.75290 -20.94429 -20.93517 -15.83605 -15.61506
 Alpha  occ. eigenvalues --  -15.61062 -11.36985 -11.29414 -10.32638  -9.52639
 Alpha  occ. eigenvalues --   -9.51905  -9.51868  -1.83359  -1.53083  -1.30829
 Alpha  occ. eigenvalues --   -1.19777  -1.13605  -0.98686  -0.82321  -0.67616
 Alpha  occ. eigenvalues --   -0.61136  -0.57297  -0.55203  -0.50772  -0.50274
 Alpha  occ. eigenvalues --   -0.45268  -0.42685  -0.42559  -0.38105  -0.36130
 Alpha  occ. eigenvalues --   -0.35352  -0.27812  -0.25082  -0.19619  -0.16858
 Alpha  occ. eigenvalues --   -0.15306  -0.12194
 Alpha virt. eigenvalues --    0.14060   0.15407   0.15460   0.16231   0.17648
 Alpha virt. eigenvalues --    0.18017   0.19647   0.20603   0.23146   0.24896
 Alpha virt. eigenvalues --    0.25320   0.26127   0.26791   0.27181   0.27442

 Mulliken charges:
               1
     1  C   -1.072692
     2  C    2.277363
     3  Cl  -0.070532
     4  H   -0.428180
     5  H    1.230856
     6  H    1.882158
     7  N   -2.382209
     8  H    0.730637
     9  H    0.568008
    10  N   -2.643877
    11  H    0.549228
    12  H    0.535723
    13  N    3.423332
    14  O   -2.716442
    15  O   -2.883372
 Sum of Mulliken charges =  -1.00000

 Dipole moment (field-independent basis, Debye):
    X=              2.0362    Y=             -4.6108    Z=             -3.2118  Tot=              5.9767

 Test job not archived.
 1\1\GINC-SE071\SP\RHF\Aug-CC-pVDZ\C2H7Cl1N3O2(1-)\OHZDE\09-Apr-2025\0\
 \#t hf aug-cc-pvdz iop(5/13=1,5/36=2,99/5=2) pseudo=read geom=check gu
 ess=(read,tcheck) scf=(maxcycle=1)\\title\\-1,1\C,0,-0.21058346,0.0263
 4739,-0.37150823\C,0,-0.04475323,0.05884734,1.1255997\Cl,0,1.41790298,
 -0.20317219,-1.19819795\H,0,-2.35820662,-0.51796213,1.77154426\H,0,-1.
 21596329,0.03941751,1.50774842\H,0,-0.56845036,0.98549638,-0.73452826\
 N,0,-1.08807126,-1.03086457,-0.81630688\H,0,-1.92302661,-0.93016778,-0
 .22630531\H,0,-0.67394365,-1.90984585,-0.51887321\N,0,0.49037181,-1.09

 Normal termination of Gaussian 16 at Wed Apr  9 02:34:07 2025.
