 Gaussian 16, Revision C.01,

 ----------------------------------------------------------------------
 #t hf aug-cc-pvdz symm=none int=(grid=ultrafine) guess=(read,tcheck) s
 table=(opt,rrhf)
 ----------------------------------------------------------------------
 -----
 title
 -----
 Symbolic Z-matrix:
 Charge = -1 Multiplicity = 1

 SCF Done:  E(RHF) =  -1292.98583702     A.U. after   16 cycles
 Normal termination of Gaussian 16 at Wed Apr  9 02:38:51 2025.
 Gaussian 16:  ES64L-G16RevC.01  3-Jul-2019

 ----------------------------------------------------------------------
 #t hf aug-cc-pvdz iop(5/13=1,5/36=2,99/5=2) pseudo=read geom=check gue
 ss=(read,tcheck) scf=(maxcycle=1)
 ----------------------------------------------------------------------
 -----
 title
 -----
 Structure from the checkpoint file:  "E2SN2_174_mol2.chk"
 Charge = -1 Multiplicity = 1

                         Standard orientation:
 ---------------------------------------------------------------------
 Center     Atomic      Atomic             Coordinates (Angstroms)
 Number     Number       Type             X           Y           Z
 ---------------------------------------------------------------------
      1          6           0       -0.102069    0.726675   -0.177265
      2          6           0        0.326294   -0.336189    0.810700
      3         17           0        1.292220    1.783802   -0.622763
      4          1           0        0.717547    0.080104    1.737007
      5          1           0       -0.479700    0.250830   -1.080590
      6          1           0       -0.545836   -0.983688    0.965540
      7          6           0       -1.128692    1.571279    0.424127
      8          7           0       -1.876480    2.322545    0.928869
      9          7           0        1.398830   -1.202786    0.250630
     10          8           0        2.167571   -1.713480    1.064948
     11          8           0        1.421395   -1.388446   -0.961057
     12         17           0       -2.447126   -1.439140   -0.380469
 ---------------------------------------------------------------------

 SCF Done:  E(RHF) =  -1295.10451885     A.U. after    2 cycles

 The electronic state is 1-A.
 Alpha  occ. eigenvalues --  -99.80293 -99.61902 -20.99619 -20.99261 -15.89137
 Alpha  occ. eigenvalues --  -15.66854 -11.41986 -11.36168 -11.33714 -10.37638
 Alpha  occ. eigenvalues --  -10.18585  -9.57583  -9.56885  -9.56711  -9.38577
 Alpha  occ. eigenvalues --   -9.38247  -9.38167  -1.88877  -1.58773  -1.29611
 Alpha  occ. eigenvalues --   -1.18406  -1.11818  -0.97792  -0.95456  -0.74813
 Alpha  occ. eigenvalues --   -0.65996  -0.63321  -0.58528  -0.54494  -0.54043
 Alpha  occ. eigenvalues --   -0.47630  -0.44772  -0.43982  -0.40595  -0.39741
 Alpha  occ. eigenvalues --   -0.33811  -0.33507  -0.26511  -0.25893  -0.25587
 Alpha  occ. eigenvalues --   -0.24748  -0.21254  -0.21044
 Alpha virt. eigenvalues --    0.13576   0.14872   0.16370   0.17747   0.18980
 Alpha virt. eigenvalues --    0.20520   0.21987   0.22462   0.22745   0.23408
 Alpha virt. eigenvalues --    0.24204   0.25053   0.25419   0.26313   0.26730

 Mulliken charges:
               1
     1  C   -2.118329
     2  C   -1.773491
     3  Cl   0.023418
     4  H    1.581507
     5  H    1.811353
     6  H    1.467994
     7  C    2.749815
     8  N   -2.655113
     9  N    4.446616
    10  O   -2.803150
    11  O   -2.801654
    12  Cl  -0.928967
 Sum of Mulliken charges =  -1.00000

 Dipole moment (field-independent basis, Debye):
    X=              7.9876    Y=              3.3135    Z=              0.8598  Tot=              8.6902

 Test job not archived.
 1\1\GINC-SE459\SP\RHF\Aug-CC-pVDZ\C3H3Cl2N2O2(1-)\OHZDE\09-Apr-2025\0\
 \#t hf aug-cc-pvdz iop(5/13=1,5/36=2,99/5=2) pseudo=read geom=check gu
 ess=(read,tcheck) scf=(maxcycle=1)\\title\\-1,1\C,0,-0.06745,-0.028089
 ,0.018818\C,0,-0.502084,-0.503217,-1.350341\Cl,0,1.714664,0.259063,0.0
 59322\H,0,-0.023755,-1.43482,-1.646553\H,0,-0.57511,0.905025,0.256742\
 H,0,-1.596632,-0.573161,-1.320126\C,0,-0.378206,-1.048448,1.01445\N,0,
 -0.524664,-1.899923,1.809366\N,0,-0.17377,0.494348,-2.404891\O,0,0.018
 728,0.048438,-3.535817\O,0,-0.161562,1.681152,-2.097463\Cl,0,-3.221861

 Normal termination of Gaussian 16 at Wed Apr  9 02:38:58 2025.
