 Gaussian 16, Revision C.01,

 ----------------------------------------------------------------------
 #t hf aug-cc-pvdz symm=none int=(grid=ultrafine) guess=(read,tcheck) s
 table=(opt,rrhf)
 ----------------------------------------------------------------------
 -----
 title
 -----
 Symbolic Z-matrix:
 Charge = -1 Multiplicity = 1

 SCF Done:  E(RHF) =  -935.188977902     A.U. after   16 cycles
 Normal termination of Gaussian 16 at Wed Apr  9 02:57:38 2025.
 Gaussian 16:  ES64L-G16RevC.01  3-Jul-2019

 ----------------------------------------------------------------------
 #t hf aug-cc-pvdz iop(5/13=1,5/36=2,99/5=2) pseudo=read geom=check gue
 ss=(read,tcheck) scf=(maxcycle=1)
 ----------------------------------------------------------------------
 -----
 title
 -----
 Structure from the checkpoint file:  "E2SN2_378_mol1.chk"
 Charge = -1 Multiplicity = 1

                         Standard orientation:
 ---------------------------------------------------------------------
 Center     Atomic      Atomic             Coordinates (Angstroms)
 Number     Number       Type             X           Y           Z
 ---------------------------------------------------------------------
      1          6           0        0.038663   -0.047209    0.526345
      2          1           0        0.203172    1.966066    1.104828
      3          9           0        1.685875   -1.088946    0.679230
      4         17           0       -1.855506    0.944697   -0.075394
      5          6           0        0.866484    1.208092    0.686152
      6          1           0        1.595312    0.937043    1.449416
      7          7           0       -0.456354   -0.633386    1.706952
      8          1           0        0.242825   -1.337467    1.922634
      9          1           0       -1.341139   -1.079388    1.507780
     10          7           0       -0.033425   -0.889827   -0.741618
     11          8           0        0.451120   -0.453673   -1.774177
     12          8           0       -0.611959   -1.963505   -0.633601
     13          6           0        1.598598    1.762054   -0.523832
     14          1           0        2.300618    1.023671   -0.904884
     15          1           0        0.909754    2.036644   -1.321877
     16          1           0        2.152880    2.656383   -0.216360
 ---------------------------------------------------------------------

 SCF Done:  E(RHF) =  -937.514170895     A.U. after    2 cycles

 The electronic state is 1-A.
 Alpha  occ. eigenvalues --  -99.67573 -28.95358 -20.94305 -20.94082 -15.85104
 Alpha  occ. eigenvalues --  -15.61528 -11.46448 -11.28546 -11.23180 -10.24644
 Alpha  occ. eigenvalues --   -9.44779  -9.44236  -9.44158  -1.84550  -1.54560
 Alpha  occ. eigenvalues --   -1.27720  -1.07280  -1.03633  -0.95063  -0.81004
 Alpha  occ. eigenvalues --   -0.63688  -0.62804  -0.55960  -0.51596  -0.50679
 Alpha  occ. eigenvalues --   -0.49535  -0.44743  -0.38677  -0.37221  -0.36548
 Alpha  occ. eigenvalues --   -0.33363  -0.31967  -0.31348  -0.30290  -0.27674
 Alpha  occ. eigenvalues --   -0.20561  -0.17223  -0.15791  -0.05737  -0.02413
 Alpha  occ. eigenvalues --   -0.02179
 Alpha virt. eigenvalues --    0.13213   0.14824   0.15654   0.16067   0.16266
 Alpha virt. eigenvalues --    0.16964   0.17934   0.21124   0.22896   0.23972
 Alpha virt. eigenvalues --    0.25027   0.25582   0.26580   0.27308   0.27645

 Mulliken charges:
               1
     1  C    4.212639
     2  H    1.253328
     3  F   -0.532697
     4  Cl  -0.712659
     5  C   -2.877491
     6  H    1.160398
     7  N   -3.636902
     8  H    0.474181
     9  H    0.653347
    10  N    6.028013
    11  O   -3.544313
    12  O   -3.339053
    13  C   -3.770169
    14  H    1.339715
    15  H    1.315343
    16  H    0.976320
 Sum of Mulliken charges =  -1.00000

 Dipole moment (field-independent basis, Debye):
    X=              4.5807    Y=             -1.6362    Z=              0.9837  Tot=              4.9626

 Test job not archived.
 1\1\GINC-SE132\SP\RHF\Aug-CC-pVDZ\C3H7Cl1F1N2O2(1-)\OHZDE\09-Apr-2025\
 0\\#t hf aug-cc-pvdz iop(5/13=1,5/36=2,99/5=2) pseudo=read geom=check
 guess=(read,tcheck) scf=(maxcycle=1)\\title\\-1,1\C,0,0.72260027,-0.03
 6532,0.00346928\H,0,1.36293145,1.9125541,-0.4504267\F,0,-1.21023145,-0
 .31480288,-0.08938539\Cl,0,2.87993749,0.0618446,0.52314557\C,0,0.46800
 485,1.45370008,-0.02810584\H,0,-0.33994846,1.55873125,-0.75157676\N,0,
 0.88706779,-0.67691743,-1.23964546\H,0,-0.04582216,-1.02218017,-1.4436
 2964\H,0,1.52307765,-1.45444941,-1.12843495\N,0,0.50126279,-0.9344755,

 Normal termination of Gaussian 16 at Wed Apr  9 02:57:46 2025.
