 Gaussian 16, Revision C.01,

 ----------------------------------------------------------------------
 #t hf aug-cc-pvdz symm=none int=(grid=ultrafine) guess=(read,tcheck) s
 table=(opt,rrhf)
 ----------------------------------------------------------------------
 -----
 title
 -----
 Symbolic Z-matrix:
 Charge = -1 Multiplicity = 1

 SCF Done:  E(RHF) =  -1332.02781738     A.U. after   16 cycles
 Normal termination of Gaussian 16 at Wed Apr  9 02:53:49 2025.
 Gaussian 16:  ES64L-G16RevC.01  3-Jul-2019

 ----------------------------------------------------------------------
 #t hf aug-cc-pvdz iop(5/13=1,5/36=2,99/5=2) pseudo=read geom=check gue
 ss=(read,tcheck) scf=(maxcycle=1)
 ----------------------------------------------------------------------
 -----
 title
 -----
 Structure from the checkpoint file:  "E2SN2_329_mol2.chk"
 Charge = -1 Multiplicity = 1

                         Standard orientation:
 ---------------------------------------------------------------------
 Center     Atomic      Atomic             Coordinates (Angstroms)
 Number     Number       Type             X           Y           Z
 ---------------------------------------------------------------------
      1          6           0        0.549295   -0.185487    0.204015
      2          6           0        0.081489    0.893770   -0.759983
      3         17           0        2.340588   -0.361453    0.124695
      4          1           0       -1.023606    0.914520   -0.689330
      5          1           0        0.372756    0.638418   -1.778894
      6          6           0        0.101977    0.044527    1.621920
      7          1           0        0.514460    0.992577    1.971292
      8          1           0       -0.990796    0.098298    1.616600
      9          1           0        0.441945   -0.761765    2.268400
     10          7           0        0.022721   -1.531428   -0.306570
     11          8           0       -0.072658   -1.668468   -1.520386
     12          8           0       -0.198201   -2.395871    0.531734
     13          6           0        0.631576    2.192534   -0.398873
     14          7           0        1.080462    3.240825   -0.119319
     15         17           0       -3.108600    0.419973    0.081182
 ---------------------------------------------------------------------

 SCF Done:  E(RHF) =  -1334.36296153     A.U. after    2 cycles

 The electronic state is 1-A.
 Alpha  occ. eigenvalues --  -99.80951 -99.61807 -21.00015 -20.99761 -15.89540
 Alpha  occ. eigenvalues --  -15.66399 -11.44205 -11.37460 -11.32889 -11.28949
 Alpha  occ. eigenvalues --  -10.38363 -10.18472  -9.58407  -9.57587  -9.57536
 Alpha  occ. eigenvalues --   -9.38510  -9.38197  -9.38069  -1.89483  -1.59491
 Alpha  occ. eigenvalues --   -1.31021  -1.20456  -1.11499  -0.98517  -0.97454
 Alpha  occ. eigenvalues --   -0.93560  -0.71435  -0.64629  -0.62190  -0.58513
 Alpha  occ. eigenvalues --   -0.54475  -0.53642  -0.50206  -0.46174  -0.44847
 Alpha  occ. eigenvalues --   -0.43942  -0.41912  -0.41227  -0.39329  -0.33334
 Alpha  occ. eigenvalues --   -0.32875  -0.25662  -0.25560  -0.25317  -0.25053
 Alpha  occ. eigenvalues --   -0.21760  -0.21139
 Alpha virt. eigenvalues --    0.13092   0.14221   0.14587   0.15546   0.16921
 Alpha virt. eigenvalues --    0.18159   0.18554   0.20027   0.21713   0.22038
 Alpha virt. eigenvalues --    0.23363   0.23553   0.24517   0.24773   0.25140

 Mulliken charges:
               1
     1  C    1.609604
     2  C   -2.035160
     3  Cl  -0.165867
     4  H    1.586288
     5  H    1.447829
     6  C   -3.701183
     7  H    1.200152
     8  H    1.076336
     9  H    1.333681
    10  N    4.054026
    11  O   -2.985248
    12  O   -2.896007
    13  C    1.934492
    14  N   -2.541205
    15  Cl  -0.917740
 Sum of Mulliken charges =  -1.00000

 Dipole moment (field-independent basis, Debye):
    X=              8.6023    Y=             -3.1175    Z=              0.0065  Tot=              9.1498

 Test job not archived.
 1\1\GINC-SE412\SP\RHF\Aug-CC-pVDZ\C4H5Cl2N2O2(1-)\OHZDE\09-Apr-2025\0\
 \#t hf aug-cc-pvdz iop(5/13=1,5/36=2,99/5=2) pseudo=read geom=check gu
 ess=(read,tcheck) scf=(maxcycle=1)\\title\\-1,1\C,0,-0.005068,-0.00274
 7,0.010123\C,0,-0.588805,0.303533,-1.360415\Cl,0,1.795106,-0.00556,-0.
 063033\H,0,-1.689142,0.244889,-1.248714\H,0,-0.259672,-0.442768,-2.083
 551\C,0,-0.489877,0.928027,1.088119\H,0,-0.196358,1.947168,0.830827\H,
 0,-1.581192,0.855709,1.117687\H,0,-0.062539,0.657282,2.051291\N,0,-0.3
 63034,-1.451574,0.359832\O,0,-0.430022,-2.248762,-0.568193\O,0,-0.4874

 Normal termination of Gaussian 16 at Wed Apr  9 02:53:57 2025.
