 Gaussian 16, Revision C.01,

 ----------------------------------------------------------------------
 #t hf aug-cc-pvdz symm=none int=(grid=ultrafine) guess=(read,tcheck) s
 table=(opt,rrhf)
 ----------------------------------------------------------------------
 -----
 title
 -----
 Symbolic Z-matrix:
 Charge = -1 Multiplicity = 1

 SCF Done:  E(RHF) =  -476.163706099     A.U. after   17 cycles
 Normal termination of Gaussian 16 at Wed Apr  9 02:51:14 2025.
 Gaussian 16:  ES64L-G16RevC.01  3-Jul-2019

 ----------------------------------------------------------------------
 #t hf aug-cc-pvdz iop(5/13=1,5/36=2,99/5=2) pseudo=read geom=check gue
 ss=(read,tcheck) scf=(maxcycle=1)
 ----------------------------------------------------------------------
 -----
 title
 -----
 Structure from the checkpoint file:  "E2SN2_2_mol1.chk"
 Charge = -1 Multiplicity = 1

                         Standard orientation:
 ---------------------------------------------------------------------
 Center     Atomic      Atomic             Coordinates (Angstroms)
 Number     Number       Type             X           Y           Z
 ---------------------------------------------------------------------
      1          6           0       -0.034613    0.575499    0.233330
      2          6           0        1.231004    0.536655   -0.499502
      3          9           0        0.058267    0.558066    1.648949
      4          1           0        0.420396    1.229355   -2.754844
      5          1           0        0.809366    0.834296   -1.834721
      6          1           0        1.755903    1.481273   -0.307891
      7          7           0       -0.809922   -0.711110   -0.081210
      8          8           0       -0.557694   -1.707061    0.595805
      9          8           0       -1.585567   -0.684275   -1.032353
     10          6           0        2.120640   -0.676799   -0.322256
     11          1           0        1.669257   -1.571809   -0.764269
     12          1           0        3.067814   -0.510661   -0.848436
     13          1           0        2.357091   -0.923169    0.722811
     14          7           0       -0.907591    1.670256   -0.088642
     15          1           0       -0.893284    1.743463   -1.109128
     16          1           0       -0.444449    2.499185    0.267845
 ---------------------------------------------------------------------

 SCF Done:  E(RHF) =  -478.264393756     A.U. after    2 cycles

 The electronic state is 1-A.
 Alpha  occ. eigenvalues --  -29.11769 -20.95292 -20.94911 -15.83683 -15.60699
 Alpha  occ. eigenvalues --  -11.42095 -11.24819 -11.19107  -1.84421  -1.54607
 Alpha  occ. eigenvalues --   -1.28484  -1.03899  -0.94363  -0.78799  -0.73157
 Alpha  occ. eigenvalues --   -0.60573  -0.54806  -0.52546  -0.47233  -0.44635
 Alpha  occ. eigenvalues --   -0.43653  -0.42541  -0.39362  -0.37290  -0.33885
 Alpha  occ. eigenvalues --   -0.26039  -0.23697  -0.21680  -0.18384  -0.16905
 Alpha  occ. eigenvalues --   -0.12493  -0.10941  -0.05416
 Alpha virt. eigenvalues --    0.13886   0.14235   0.15242   0.15572   0.17294
 Alpha virt. eigenvalues --    0.18553   0.19791   0.21041   0.22141   0.23232
 Alpha virt. eigenvalues --    0.24607   0.24736   0.25897   0.27245   0.27943

 Mulliken charges:
               1
     1  C    4.066091
     2  C   -2.366137
     3  F    0.317483
     4  H   -0.069474
     5  H    0.349675
     6  H    1.286507
     7  N    3.799661
     8  O   -2.909458
     9  O   -2.798181
    10  C   -3.896560
    11  H    1.349587
    12  H    1.101150
    13  H    1.250776
    14  N   -3.627815
    15  H    0.699687
    16  H    0.447009
 Sum of Mulliken charges =  -1.00000

 Dipole moment (field-independent basis, Debye):
    X=             -0.0246    Y=             -1.5977    Z=              8.7352  Tot=              8.8801

 Test job not archived.
 1\1\GINC-SE149\SP\RHF\Aug-CC-pVDZ\C3H8F1N2O2(1-)\OHZDE\09-Apr-2025\0\\
 #t hf aug-cc-pvdz iop(5/13=1,5/36=2,99/5=2) pseudo=read geom=check gue
 ss=(read,tcheck) scf=(maxcycle=1)\\title\\-1,1\C,0,-0.0823942,-0.11492
 886,-0.29633365\C,0,-0.17006231,0.02560943,1.1572481\F,0,1.22434939,-0
 .20964644,-0.8407212\H,0,-2.58611077,-0.50794276,1.47586429\H,0,-1.567
 90981,-0.17630373,1.39055315\H,0,0.18041926,-0.91343004,1.60435593\N,0
 ,-0.63452973,1.16642493,-0.93561427\O,0,0.14040951,2.11184654,-1.07537
 744\O,0,-1.83156456,1.19120987,-1.20674381\C,0,0.45548699,1.24961749,1

 Normal termination of Gaussian 16 at Wed Apr  9 02:51:20 2025.
