 Gaussian 16, Revision C.01,

 ----------------------------------------------------------------------
 #t hf aug-cc-pvdz symm=none int=(grid=ultrafine) guess=(read,tcheck) s
 table=(opt,rrhf)
 ----------------------------------------------------------------------
 -----
 title
 -----
 Symbolic Z-matrix:
 Charge = -1 Multiplicity = 1

 SCF Done:  E(RHF) =  -876.157716102     A.U. after   16 cycles
 Normal termination of Gaussian 16 at Wed Apr  9 02:50:10 2025.
 Gaussian 16:  ES64L-G16RevC.01  3-Jul-2019

 ----------------------------------------------------------------------
 #t hf aug-cc-pvdz iop(5/13=1,5/36=2,99/5=2) pseudo=read geom=check gue
 ss=(read,tcheck) scf=(maxcycle=1)
 ----------------------------------------------------------------------
 -----
 title
 -----
 Structure from the checkpoint file:  "E2SN2_295_mol2.chk"
 Charge = -1 Multiplicity = 1

                         Standard orientation:
 ---------------------------------------------------------------------
 Center     Atomic      Atomic             Coordinates (Angstroms)
 Number     Number       Type             X           Y           Z
 ---------------------------------------------------------------------
      1          6           0        0.321080   -0.201829    0.143779
      2          6           0       -0.593848    0.529548   -0.839221
      3         17           0       -0.154463   -1.976862    0.247845
      4          1           0       -0.455324    0.149254   -1.854019
      5          1           0       -0.237010    1.583479   -0.736032
      6          6           0        1.686583   -0.233988   -0.429412
      7          7           0        2.787050   -0.270681   -0.840984
      8          7           0        0.222597    0.417963    1.412565
      9          1           0        0.937992    0.048978    2.029713
     10          1           0        0.424442    1.445294    1.177099
     11          6           0       -1.997419    0.423736   -0.467702
     12          7           0       -3.146984    0.361672   -0.236530
     13          9           0        0.713196    2.634685    0.264428
 ---------------------------------------------------------------------

 SCF Done:  E(RHF) =  -878.193191383     A.U. after    2 cycles

 The electronic state is 1-A.
 Alpha  occ. eigenvalues --  -99.77346 -28.93111 -15.65385 -15.63889 -15.59810
 Alpha  occ. eigenvalues --  -11.42362 -11.34436 -11.33052 -11.29761 -10.34704
 Alpha  occ. eigenvalues --   -9.54686  -9.53961  -9.53837  -1.33585  -1.17741
 Alpha  occ. eigenvalues --   -1.16909  -1.15395  -1.01554  -0.84771  -0.64694
 Alpha  occ. eigenvalues --   -0.62143  -0.55978  -0.52276  -0.47704  -0.44929
 Alpha  occ. eigenvalues --   -0.42771  -0.40510  -0.39243  -0.37963  -0.33999
 Alpha  occ. eigenvalues --   -0.32474  -0.31813  -0.29758  -0.27165  -0.24630
 Alpha  occ. eigenvalues --   -0.02151  -0.01384   0.00106
 Alpha virt. eigenvalues --    0.13964   0.15199   0.16434   0.18002   0.18752
 Alpha virt. eigenvalues --    0.19212   0.20550   0.21157   0.21690   0.23328
 Alpha virt. eigenvalues --    0.23906   0.24214   0.25381   0.25800   0.26068

 Mulliken charges:
               1
     1  C    2.449335
     2  C   -2.477548
     3  Cl  -0.140988
     4  H    1.325186
     5  H    1.281586
     6  C    2.979418
     7  N   -2.874261
     8  N   -3.403111
     9  H    0.589688
    10  H    0.165496
    11  C    2.198161
    12  N   -2.620400
    13  F   -0.472562
 Sum of Mulliken charges =  -1.00000

 Dipole moment (field-independent basis, Debye):
    X=              0.6832    Y=             -2.6177    Z=             -0.3741  Tot=              2.7311

 Test job not archived.
 1\1\GINC-SE247\SP\RHF\Aug-CC-pVDZ\C4H4Cl1F1N3(1-)\OHZDE\09-Apr-2025\0\
 \#t hf aug-cc-pvdz iop(5/13=1,5/36=2,99/5=2) pseudo=read geom=check gu
 ess=(read,tcheck) scf=(maxcycle=1)\\title\\-1,1\C,0,0.004209,0.021679,
 0.00539\C,0,-0.524241,-0.17764,-1.415634\Cl,0,1.841675,-0.084668,0.016
 379\H,0,-0.199178,0.63641,-2.067772\H,0,-1.629001,-0.162638,-1.248208\
 C,0,-0.27213,1.419179,0.41136\N,0,-0.483544,2.515523,0.778918\N,0,-0.5
 59364,-0.965642,0.848741\H,0,-0.346442,-0.750377,1.8168\H,0,-1.609469,
 -0.848637,0.661166\C,0,-0.10807,-1.451638,-1.983934\N,0,0.20766,-2.453

 Normal termination of Gaussian 16 at Wed Apr  9 02:50:15 2025.
