 Gaussian 16, Revision C.01,

 ----------------------------------------------------------------------
 #t hf aug-cc-pvdz symm=none int=(grid=ultrafine) guess=(read,tcheck) s
 table=(opt,rrhf)
 ----------------------------------------------------------------------
 -----
 title
 -----
 Symbolic Z-matrix:
 Charge = -1 Multiplicity = 1

 SCF Done:  E(RHF) =  -380.379112854     A.U. after   16 cycles
 Normal termination of Gaussian 16 at Wed Apr  9 02:50:53 2025.
 Gaussian 16:  ES64L-G16RevC.01  3-Jul-2019

 ----------------------------------------------------------------------
 #t hf aug-cc-pvdz iop(5/13=1,5/36=2,99/5=2) pseudo=read geom=check gue
 ss=(read,tcheck) scf=(maxcycle=1)
 ----------------------------------------------------------------------
 -----
 title
 -----
 Structure from the checkpoint file:  "E2SN2_300_mol1.chk"
 Charge = -1 Multiplicity = 1

                         Standard orientation:
 ---------------------------------------------------------------------
 Center     Atomic      Atomic             Coordinates (Angstroms)
 Number     Number       Type             X           Y           Z
 ---------------------------------------------------------------------
      1          6           0       -0.220391   -0.384500   -0.227527
      2          1           0        1.360965   -0.297144   -1.699850
      3          9           0        0.083294   -0.450754    1.406328
      4          1           0       -0.765673   -0.096569   -2.024637
      5          6           0        1.249464   -0.318453   -0.620513
      6          1           0        1.656875   -1.263809   -0.233126
      7          6           0       -1.020184    0.819990   -0.249240
      8          7           0       -1.681966    1.770582   -0.007342
      9          7           0       -0.868256   -1.681749   -0.281620
     10          1           0       -1.506547   -1.660776   -1.062503
     11          1           0       -1.374446   -1.772257    0.593091
     12          7           0        1.870374    0.879114   -0.050176
     13          1           0        2.868689    0.844004   -0.221170
     14          1           0        1.716098    0.825490    0.948895
 ---------------------------------------------------------------------

 SCF Done:  E(RHF) =  -382.088485259     A.U. after    2 cycles

 The electronic state is 1-A.
 Alpha  occ. eigenvalues --  -29.01675 -15.59798 -15.59101 -15.57567 -11.41563
 Alpha  occ. eigenvalues --  -11.28256 -11.25764  -1.27151  -1.17066  -1.10620
 Alpha  occ. eigenvalues --   -0.92097  -0.77465  -0.62735  -0.54593  -0.53335
 Alpha  occ. eigenvalues --   -0.46160  -0.41691  -0.39001  -0.37823  -0.35070
 Alpha  occ. eigenvalues --   -0.30242  -0.25811  -0.23224  -0.22336  -0.16301
 Alpha  occ. eigenvalues --   -0.07413  -0.06626  -0.06176
 Alpha virt. eigenvalues --    0.13375   0.15039   0.15233   0.16081   0.17233
 Alpha virt. eigenvalues --    0.17775   0.20307   0.21534   0.23126   0.24673
 Alpha virt. eigenvalues --    0.25216   0.26087   0.26760   0.28738   0.29130

 Mulliken charges:
               1
     1  C    2.292827
     2  H    1.337212
     3  F   -0.131156
     4  H   -0.824932
     5  C   -1.600091
     6  H    1.357934
     7  C    2.830557
     8  N   -2.952027
     9  N   -3.298649
    10  H    0.684126
    11  H    0.437299
    12  N   -2.258803
    13  H    0.572121
    14  H    0.553582
 Sum of Mulliken charges =  -1.00000

 Dipole moment (field-independent basis, Debye):
    X=              4.4294    Y=             -2.8243    Z=              6.3964  Tot=              8.2771

 Test job not archived.
 1\1\GINC-SE195\SP\RHF\Aug-CC-pVDZ\C3H7F1N3(1-)\OHZDE\09-Apr-2025\0\\#t
  hf aug-cc-pvdz iop(5/13=1,5/36=2,99/5=2) pseudo=read geom=check guess
 =(read,tcheck) scf=(maxcycle=1)\\title\\-1,1\C,0,0.56459567,-0.0183417
 8,0.00503724\H,0,1.7341379,1.80012399,0.0425367\F,0,-1.09846267,-0.010
 35942,-0.01134718\H,0,2.44218275,-0.22705319,-0.19731885\C,0,0.6922330
 3,1.4992102,0.00082836\H,0,0.19182739,1.79702997,0.93391329\C,0,0.7884
 5971,-0.75717237,-1.21764558\N,0,0.71601874,-1.41605046,-2.19781212\N,
 0,0.66850957,-0.69348437,1.28523041\H,0,1.5506724,-1.18276546,1.290351

 Normal termination of Gaussian 16 at Wed Apr  9 02:50:57 2025.
