 Gaussian 16, Revision C.01,

 ----------------------------------------------------------------------
 #t hf aug-cc-pvdz symm=none int=(grid=ultrafine) guess=(read,tcheck) s
 table=(opt,rrhf)
 ----------------------------------------------------------------------
 -----
 title
 -----
 Symbolic Z-matrix:
 Charge = -1 Multiplicity = 1

 SCF Done:  E(RHF) =  -627.854866258     A.U. after   16 cycles
 Normal termination of Gaussian 16 at Wed Apr  9 02:46:22 2025.
 Gaussian 16:  ES64L-G16RevC.01  3-Jul-2019

 ----------------------------------------------------------------------
 #t hf aug-cc-pvdz iop(5/13=1,5/36=2,99/5=2) pseudo=read geom=check gue
 ss=(read,tcheck) scf=(maxcycle=1)
 ----------------------------------------------------------------------
 -----
 title
 -----
 Structure from the checkpoint file:  "E2SN2_249_mol2.chk"
 Charge = -1 Multiplicity = 1

                         Standard orientation:
 ---------------------------------------------------------------------
 Center     Atomic      Atomic             Coordinates (Angstroms)
 Number     Number       Type             X           Y           Z
 ---------------------------------------------------------------------
      1          6           0        0.918719   -0.157273    0.671063
      2          6           0       -0.518302    0.372574    0.847514
      3          9           0        1.097279   -1.237264    1.551397
      4          1           0       -0.898638   -0.072942    1.774502
      5          1           0        1.611133    0.639827    0.922127
      6          6           0        1.241950   -0.635544   -0.677749
      7          7           0        1.504754   -1.197932   -1.674216
      8          7           0       -1.430517   -0.339073   -0.193749
      9          8           0       -1.481149   -1.565514   -0.118121
     10          8           0       -2.076820    0.349768   -0.977638
     11          7           0       -0.568756    1.771380    0.818005
     12          1           0       -1.506214    2.092795    0.620740
     13          1           0        0.144008    2.075618    0.092766
     14          9           0        1.427265    1.889653   -0.700210
 ---------------------------------------------------------------------

 SCF Done:  E(RHF) =  -630.414878959     A.U. after    2 cycles

 The electronic state is 1-A.
 Alpha  occ. eigenvalues --  -29.15037 -28.91998 -20.97704 -20.96986 -15.85668
 Alpha  occ. eigenvalues --  -15.62814 -15.59157 -11.43318 -11.35684 -11.30575
 Alpha  occ. eigenvalues --   -1.86200  -1.56563  -1.27981  -1.17264  -1.06998
 Alpha  occ. eigenvalues --   -0.95088  -0.74127  -0.65920  -0.63129  -0.58365
 Alpha  occ. eigenvalues --   -0.55410  -0.52358  -0.49606  -0.45057  -0.43656
 Alpha  occ. eigenvalues --   -0.38863  -0.33934  -0.30769  -0.29281  -0.26767
 Alpha  occ. eigenvalues --   -0.25365  -0.21893  -0.19172  -0.18343  -0.14872
 Alpha  occ. eigenvalues --   -0.13763  -0.00722  -0.00252   0.01221
 Alpha virt. eigenvalues --    0.13722   0.14940   0.16771   0.19287   0.19995
 Alpha virt. eigenvalues --    0.20969   0.21481   0.23494   0.24137   0.24560
 Alpha virt. eigenvalues --    0.25044   0.26304   0.26716   0.27253   0.28011

 Mulliken charges:
               1
     1  C   -0.729189
     2  C    1.257447
     3  F    0.012106
     4  H    1.714279
     5  H    1.293415
     6  C    2.860228
     7  N   -2.967873
     8  N    4.422181
     9  O   -3.061283
    10  O   -2.766859
    11  N   -2.907782
    12  H    0.483888
    13  H    0.088225
    14  F   -0.698783
 Sum of Mulliken charges =  -1.00000

 Dipole moment (field-independent basis, Debye):
    X=             -2.7720    Y=             -2.8174    Z=              4.4019  Tot=              5.9160

 Test job not archived.
 1\1\GINC-SE250\SP\RHF\Aug-CC-pVDZ\C3H4F2N3O2(1-)\OHZDE\09-Apr-2025\0\\
 #t hf aug-cc-pvdz iop(5/13=1,5/36=2,99/5=2) pseudo=read geom=check gue
 ss=(read,tcheck) scf=(maxcycle=1)\\title\\-1,1\C,0,-0.02018,0.031938,-
 0.050297\C,0,-0.390545,0.038037,-1.546858\F,0,1.362608,0.254042,0.0584
 24\H,0,0.55434,-0.040206,-2.097783\H,0,-0.269483,-0.94117,0.360491\C,0
 ,-0.69158,1.055248,0.75876\N,0,-1.049598,1.956859,1.419982\N,0,-0.8169
 39,1.483395,-1.936644\O,0,0.028265,2.360208,-1.765561\O,0,-1.926056,1.
 65567,-2.433507\N,0,-1.323827,-0.957405,-1.860154\H,0,-1.785295,-0.754

 Normal termination of Gaussian 16 at Wed Apr  9 02:46:29 2025.
