 Gaussian 16, Revision C.01,

 ----------------------------------------------------------------------
 #t hf aug-cc-pvdz symm=none int=(grid=ultrafine) guess=(read,tcheck) s
 table=(opt,rrhf)
 ----------------------------------------------------------------------
 -----
 title
 -----
 Symbolic Z-matrix:
 Charge = -1 Multiplicity = 1

 SCF Done:  E(RHF) =  -971.889321027     A.U. after   16 cycles
 Normal termination of Gaussian 16 at Wed Apr  9 02:40:29 2025.
 Gaussian 16:  ES64L-G16RevC.01  3-Jul-2019

 ----------------------------------------------------------------------
 #t hf aug-cc-pvdz iop(5/13=1,5/36=2,99/5=2) pseudo=read geom=check gue
 ss=(read,tcheck) scf=(maxcycle=1)
 ----------------------------------------------------------------------
 -----
 title
 -----
 Structure from the checkpoint file:  "E2SN2_187_mol1.chk"
 Charge = -1 Multiplicity = 1

                         Standard orientation:
 ---------------------------------------------------------------------
 Center     Atomic      Atomic             Coordinates (Angstroms)
 Number     Number       Type             X           Y           Z
 ---------------------------------------------------------------------
      1          6           0       -0.971963    0.546214    0.170928
      2          1           0        0.359092    1.007165   -1.392523
      3         17           0       -0.892653   -1.252629    1.424048
      4          9           0       -0.911931    2.365448   -0.512029
      5          6           0        0.419850    0.486399   -0.437674
      6          1           0       -1.081656    1.110149    1.074332
      7          6           0       -2.164249    0.173817   -0.665018
      8          1           0       -2.220498    0.866935   -1.501929
      9          1           0       -2.096977   -0.852322   -1.020263
     10          1           0       -3.063451    0.272347   -0.055798
     11          7           0        0.919900   -0.899302   -0.795394
     12          8           0        1.940932   -1.327260   -0.272104
     13          8           0        0.271200   -1.467943   -1.668811
     14          6           0        1.393530    1.163414    0.409465
     15          7           0        2.183801    1.719868    1.074927
 ---------------------------------------------------------------------

 SCF Done:  E(RHF) =  -974.319051866     A.U. after    2 cycles

 The electronic state is 1-A.
 Alpha  occ. eigenvalues --  -99.68079 -28.95973 -20.98976 -20.98272 -15.88537
 Alpha  occ. eigenvalues --  -15.65507 -11.44702 -11.38498 -11.33272 -11.26752
 Alpha  occ. eigenvalues --  -10.25145  -9.45229  -9.44805  -9.44683  -1.88182
 Alpha  occ. eigenvalues --   -1.58153  -1.23510  -1.14822  -1.06406  -1.00162
 Alpha  occ. eigenvalues --   -0.84406  -0.74691  -0.64777  -0.61800  -0.58091
 Alpha  occ. eigenvalues --   -0.50781  -0.49231  -0.47282  -0.45382  -0.41802
 Alpha  occ. eigenvalues --   -0.39444  -0.37000  -0.33043  -0.32893  -0.31798
 Alpha  occ. eigenvalues --   -0.31303  -0.30287  -0.24630  -0.20240  -0.20152
 Alpha  occ. eigenvalues --   -0.05535  -0.03647  -0.03393
 Alpha virt. eigenvalues --    0.13950   0.15235   0.15413   0.16185   0.17097
 Alpha virt. eigenvalues --    0.19478   0.20607   0.21713   0.22482   0.22840
 Alpha virt. eigenvalues --    0.24050   0.24386   0.25369   0.26076   0.27017

 Mulliken charges:
               1
     1  C    1.243385
     2  H    1.815892
     3  Cl  -0.756090
     4  F   -0.451526
     5  C   -2.957437
     6  H    1.390510
     7  C   -4.383530
     8  H    1.162083
     9  H    1.340849
    10  H    1.085583
    11  N    4.816112
    12  O   -2.899831
    13  O   -3.085466
    14  C    3.506735
    15  N   -2.827270
 Sum of Mulliken charges =  -1.00000

 Dipole moment (field-independent basis, Debye):
    X=             -0.6125    Y=              2.0458    Z=             -4.2002  Tot=              4.7119

 Test job not archived.
 1\1\GINC-SE455\SP\RHF\Aug-CC-pVDZ\C4H5Cl1F1N2O2(1-)\OHZDE\09-Apr-2025\
 0\\#t hf aug-cc-pvdz iop(5/13=1,5/36=2,99/5=2) pseudo=read geom=check
 guess=(read,tcheck) scf=(maxcycle=1)\\title\\-1,1\C,0,0.38857577,-0.06
 452282,0.10022482\H,0,1.71032778,1.52301015,0.5018123\Cl,0,-1.78628148
 ,-0.01524547,0.38307503\F,0,2.1877425,-0.12561671,-0.6338846\C,0,0.680
 56406,1.42621195,0.15999162\H,0,0.20314088,-0.48326626,-0.86748512\C,0
 ,0.73845665,-0.93701745,1.27298478\H,0,1.8159104,-0.89253568,1.4182772
 4\H,0,0.21627259,-0.6218461,2.17391594\H,0,0.44875206,-1.96331894,1.04

 Normal termination of Gaussian 16 at Wed Apr  9 02:40:36 2025.
