 Gaussian 16, Revision C.01,

 ----------------------------------------------------------------------
 #t hf aug-cc-pvdz symm=none int=(grid=ultrafine) guess=(read,tcheck) s
 table=(opt,rrhf)
 ----------------------------------------------------------------------
 -----
 title
 -----
 Symbolic Z-matrix:
 Charge = -1 Multiplicity = 1

 SCF Done:  E(RHF) =  -591.120880824     A.U. after   15 cycles
 Normal termination of Gaussian 16 at Wed Apr  9 02:41:09 2025.
 Gaussian 16:  ES64L-G16RevC.01  3-Jul-2019

 ----------------------------------------------------------------------
 #t hf aug-cc-pvdz iop(5/13=1,5/36=2,99/5=2) pseudo=read geom=check gue
 ss=(read,tcheck) scf=(maxcycle=1)
 ----------------------------------------------------------------------
 -----
 title
 -----
 Structure from the checkpoint file:  "E2SN2_194_mol1.chk"
 Charge = -1 Multiplicity = 1

                         Standard orientation:
 ---------------------------------------------------------------------
 Center     Atomic      Atomic             Coordinates (Angstroms)
 Number     Number       Type             X           Y           Z
 ---------------------------------------------------------------------
      1          6           0        1.069043   -0.348710    0.155645
      2          1           0        0.130035    0.405635   -1.617079
      3          9           0        0.144741   -1.318564    1.331470
      4          9           0        2.161073    0.463448   -1.070598
      5          6           0       -0.141925   -0.206820   -0.763112
      6          1           0        1.677569   -1.219779   -0.022554
      7          7           0        1.365486    0.648295    1.132226
      8          1           0        2.231743    1.073565    0.839874
      9          1           0        1.446750    0.177730    2.020421
     10          7           0       -1.222058    0.636673   -0.068962
     11          8           0       -2.225103    0.075321    0.373038
     12          8           0       -1.044555    1.851754   -0.054709
     13          7           0       -0.623586   -1.490775   -1.141386
     14          1           0       -1.490494   -1.405041   -1.655116
     15          1           0       -0.792270   -1.978829   -0.268378
 ---------------------------------------------------------------------

 SCF Done:  E(RHF) =  -593.561754683     A.U. after    2 cycles

 The electronic state is 1-A.
 Alpha  occ. eigenvalues --  -28.96898 -28.94811 -20.94245 -20.94079 -15.82800
 Alpha  occ. eigenvalues --  -15.60583 -15.58239 -11.42602 -11.30946  -1.83186
 Alpha  occ. eigenvalues --   -1.53329  -1.27251  -1.19190  -0.97094  -0.84968
 Alpha  occ. eigenvalues --   -0.69000  -0.61678  -0.56817  -0.55389  -0.52847
 Alpha  occ. eigenvalues --   -0.47945  -0.46144  -0.41575  -0.37441  -0.36329
 Alpha  occ. eigenvalues --   -0.31893  -0.28051  -0.23879  -0.19655  -0.15979
 Alpha  occ. eigenvalues --   -0.15268  -0.12582  -0.04273  -0.03869  -0.01687
 Alpha  occ. eigenvalues --   -0.01134   0.04491
 Alpha virt. eigenvalues --    0.13969   0.15270   0.15617   0.16374   0.17633
 Alpha virt. eigenvalues --    0.17981   0.22876   0.23635   0.25324   0.26447
 Alpha virt. eigenvalues --    0.26934   0.27564   0.28363   0.29296   0.30296

 Mulliken charges:
               1
     1  C    1.296135
     2  H    1.783742
     3  F   -0.521378
     4  F   -0.684384
     5  C    1.349251
     6  H    1.561598
     7  N   -3.323116
     8  H    0.461005
     9  H    0.551559
    10  N    4.469103
    11  O   -2.792888
    12  O   -2.981189
    13  N   -3.107734
    14  H    0.526078
    15  H    0.412219
 Sum of Mulliken charges =  -1.00000

 Dipole moment (field-independent basis, Debye):
    X=             -2.0533    Y=             -0.6569    Z=              0.5649  Tot=              2.2286

 Test job not archived.
 1\1\GINC-SE195\SP\RHF\Aug-CC-pVDZ\C2H6F2N3O2(1-)\OHZDE\09-Apr-2025\0\\
 #t hf aug-cc-pvdz iop(5/13=1,5/36=2,99/5=2) pseudo=read geom=check gue
 ss=(read,tcheck) scf=(maxcycle=1)\\title\\-1,1\C,0,0.64138183,-0.03091
 068,0.00159523\H,0,1.78625185,1.77048666,0.19540803\F,0,-1.12572183,0.
 03491516,-0.22319054\F,0,2.46381164,-0.21461627,0.0299479\C,0,0.750197
 76,1.4915883,0.03069052\H,0,0.70824697,-0.47462673,-0.97792687\N,0,0.5
 1220397,-0.77697719,1.21085435\H,0,1.36218529,-1.31234753,1.29823312\H
 ,0,-0.3038046,-1.36124938,1.11245711\N,0,0.04726359,2.03673418,1.28317

 Normal termination of Gaussian 16 at Wed Apr  9 02:41:16 2025.
