 Gaussian 16, Revision C.01,

 ----------------------------------------------------------------------
 #t hf aug-cc-pvdz symm=none int=(grid=ultrafine) guess=(read,tcheck) s
 table=(opt,rrhf)
 ----------------------------------------------------------------------
 -----
 title
 -----
 Symbolic Z-matrix:
 Charge = -1 Multiplicity = 1

 SCF Done:  E(RHF) =  -1042.92620892     A.U. after   17 cycles
 Normal termination of Gaussian 16 at Wed Apr  9 02:52:11 2025.
 Gaussian 16:  ES64L-G16RevC.01  3-Jul-2019

 ----------------------------------------------------------------------
 #t hf aug-cc-pvdz iop(5/13=1,5/36=2,99/5=2) pseudo=read geom=check gue
 ss=(read,tcheck) scf=(maxcycle=1)
 ----------------------------------------------------------------------
 -----
 title
 -----
 Structure from the checkpoint file:  "E2SN2_308_mol1.chk"
 Charge = -1 Multiplicity = 1

                         Standard orientation:
 ---------------------------------------------------------------------
 Center     Atomic      Atomic             Coordinates (Angstroms)
 Number     Number       Type             X           Y           Z
 ---------------------------------------------------------------------
      1          6           0       -0.544594    0.036595    0.353298
      2          1           0        0.354253   -1.127622   -1.240787
      3          9           0        0.633855    1.423305    1.019223
      4         17           0       -2.030092   -1.378154   -0.544905
      5          6           0        0.526975   -0.185827   -0.723770
      6          6           0       -1.475606    1.138433    0.157651
      7          7           0       -2.264407    2.009578    0.097699
      8          7           0       -0.487752   -0.637131    1.600277
      9          1           0       -1.426377   -0.821515    1.924548
     10          1           0        0.003890   -0.005378    2.220742
     11          7           0        1.913349   -0.428100   -0.075991
     12          8           0        2.830818    0.322569   -0.396237
     13          8           0        2.037685   -1.427586    0.622544
     14          7           0        0.535817    0.910210   -1.613916
     15          1           0        1.222579    0.771631   -2.341641
     16          1           0        0.784789    1.724795   -1.062495
 ---------------------------------------------------------------------

 SCF Done:  E(RHF) =  -1045.67597927     A.U. after    2 cycles

 The electronic state is 1-A.
 Alpha  occ. eigenvalues --  -99.69018 -28.98343 -20.96625 -20.96433 -15.85608
 Alpha  occ. eigenvalues --  -15.63385 -15.63223 -15.63165 -11.50713 -11.37736
 Alpha  occ. eigenvalues --  -11.32229 -10.26077  -9.46179  -9.45672  -9.45557
 Alpha  occ. eigenvalues --   -1.85818  -1.56085  -1.33138  -1.24120  -1.15738
 Alpha  occ. eigenvalues --   -1.07080  -1.00145  -0.90943  -0.73825  -0.66622
 Alpha  occ. eigenvalues --   -0.60557  -0.59317  -0.57715  -0.51555  -0.49889
 Alpha  occ. eigenvalues --   -0.45291  -0.43423  -0.43103  -0.40429  -0.34779
 Alpha  occ. eigenvalues --   -0.33555  -0.32961  -0.32557  -0.29441  -0.28320
 Alpha  occ. eigenvalues --   -0.26729  -0.21373  -0.18821  -0.17147  -0.08559
 Alpha  occ. eigenvalues --   -0.05610  -0.05094
 Alpha virt. eigenvalues --    0.13347   0.14499   0.15219   0.16937   0.17573
 Alpha virt. eigenvalues --    0.19809   0.20633   0.22499   0.23427   0.23749
 Alpha virt. eigenvalues --    0.23874   0.24749   0.26342   0.26741   0.27033

 Mulliken charges:
               1
     1  C    3.594323
     2  H    1.726219
     3  F   -0.448283
     4  Cl  -0.668104
     5  C   -0.555131
     6  C    3.669425
     7  N   -3.349643
     8  N   -3.634151
     9  H    0.616004
    10  H    0.584368
    11  N    5.213063
    12  O   -2.811306
    13  O   -3.136316
    14  N   -2.811438
    15  H    0.597008
    16  H    0.413962
 Sum of Mulliken charges =  -1.00000

 Dipole moment (field-independent basis, Debye):
    X=              6.5968    Y=              2.3945    Z=              1.9263  Tot=              7.2775

 Test job not archived.
 1\1\GINC-SE069\SP\RHF\Aug-CC-pVDZ\C3H5Cl1F1N4O2(1-)\OHZDE\09-Apr-2025\
 0\\#t hf aug-cc-pvdz iop(5/13=1,5/36=2,99/5=2) pseudo=read geom=check
 guess=(read,tcheck) scf=(maxcycle=1)\\title\\-1,1\C,0,0.76398653,-0.03
 800163,0.0311106\H,0,1.72566591,1.88163289,0.33869031\F,0,-1.16938502,
 0.09165805,0.01048654\Cl,0,2.98486349,-0.2047294,-0.20318712\C,0,0.743
 86783,1.49688684,0.07006597\C,0,0.57930667,-0.67995121,-1.26229727\N,0
 ,0.42550247,-1.2916171,-2.25572726\N,0,0.71881203,-0.80655228,1.222489
 83\H,0,1.25611104,-1.65242357,1.09608764\H,0,-0.26272288,-1.00691087,1

 Normal termination of Gaussian 16 at Wed Apr  9 02:52:20 2025.
