 Gaussian 16, Revision C.01,

 ----------------------------------------------------------------------
 #t hf aug-cc-pvdz symm=none int=(grid=ultrafine) guess=(read,tcheck) s
 table=(opt,rrhf)
 ----------------------------------------------------------------------
 -----
 title
 -----
 Symbolic Z-matrix:
 Charge = -1 Multiplicity = 1

 SCF Done:  E(RHF) =  -784.427475608     A.U. after   15 cycles
 Normal termination of Gaussian 16 at Wed Apr  9 02:40:32 2025.
 Gaussian 16:  ES64L-G16RevC.01  3-Jul-2019

 ----------------------------------------------------------------------
 #t hf aug-cc-pvdz iop(5/13=1,5/36=2,99/5=2) pseudo=read geom=check gue
 ss=(read,tcheck) scf=(maxcycle=1)
 ----------------------------------------------------------------------
 -----
 title
 -----
 Structure from the checkpoint file:  "E2SN2_193_mol2.chk"
 Charge = -1 Multiplicity = 1

                         Standard orientation:
 ---------------------------------------------------------------------
 Center     Atomic      Atomic             Coordinates (Angstroms)
 Number     Number       Type             X           Y           Z
 ---------------------------------------------------------------------
      1          6           0        0.110265   -0.556457   -0.309192
      2          6           0        0.224601    0.743141    0.470067
      3         17           0       -1.527739   -1.351487    0.042296
      4          1           0        1.283658    1.055077    0.287020
      5          1           0        0.026919   -0.337622   -1.380313
      6          1           0        0.114576    0.521918    1.534704
      7          7           0        1.176044   -1.405415    0.075993
      8          1           0        2.028563   -0.770734    0.061625
      9          1           0        1.286979   -2.139976   -0.612885
     10          6           0       -0.740222    1.752401    0.068019
     11          7           0       -1.507589    2.582286   -0.252328
     12          9           0        2.887091    0.530444   -0.083134
 ---------------------------------------------------------------------

 SCF Done:  E(RHF) =  -786.077069442     A.U. after    2 cycles

 The electronic state is 1-A.
 Alpha  occ. eigenvalues --  -99.73932 -28.91815 -15.63066 -15.57629 -11.35478
 Alpha  occ. eigenvalues --  -11.32355 -11.26962 -10.31268  -9.51195  -9.50491
 Alpha  occ. eigenvalues --   -9.50424  -1.27794  -1.16658  -1.11928  -0.98650
 Alpha  occ. eigenvalues --   -0.76029  -0.61326  -0.57110  -0.50202  -0.47234
 Alpha  occ. eigenvalues --   -0.43525  -0.42432  -0.38086  -0.35963  -0.34833
 Alpha  occ. eigenvalues --   -0.31606  -0.29170  -0.26012  -0.22907  -0.00844
 Alpha  occ. eigenvalues --   -0.00009   0.01493
 Alpha virt. eigenvalues --    0.14444   0.15592   0.16242   0.17691   0.18910
 Alpha virt. eigenvalues --    0.19723   0.20881   0.22956   0.23854   0.24691
 Alpha virt. eigenvalues --    0.25745   0.26252   0.27092   0.27910   0.28339

 Mulliken charges:
               1
     1  C   -0.882736
     2  C   -1.959082
     3  Cl  -0.072927
     4  H    1.296754
     5  H    1.839010
     6  H    1.365688
     7  N   -2.538462
     8  H    0.275817
     9  H    0.458609
    10  C    2.187242
    11  N   -2.598844
    12  F   -0.371068
 Sum of Mulliken charges =  -1.00000

 Dipole moment (field-independent basis, Debye):
    X=             -1.7599    Y=             -2.2146    Z=             -0.2459  Tot=              2.8394

 Test job not archived.
 1\1\GINC-SE143\SP\RHF\Aug-CC-pVDZ\C3H5Cl1F1N2(1-)\OHZDE\09-Apr-2025\0\
 \#t hf aug-cc-pvdz iop(5/13=1,5/36=2,99/5=2) pseudo=read geom=check gu
 ess=(read,tcheck) scf=(maxcycle=1)\\title\\-1,1\C,0,0.04333,0.028111,-
 0.000708\C,0,-0.544424,0.20822,-1.390448\Cl,0,1.880367,-0.192135,-0.12
 5042\H,0,-1.647441,0.196086,-1.201723\H,0,-0.031433,0.969849,0.555777\
 H,0,-0.292754,-0.669129,-1.991629\N,0,-0.561001,-1.103611,0.598435\H,0
 ,-1.59721,-0.978629,0.397274\H,0,-0.403188,-1.079263,1.598906\C,0,-0.0
 98297,1.417316,-2.06141\N,0,0.245444,2.395822,-2.613271\F,0,-2.91743,-

 Normal termination of Gaussian 16 at Wed Apr  9 02:40:37 2025.
