 Gaussian 16, Revision C.01,

 ----------------------------------------------------------------------
 #t hf aug-cc-pvdz symm=none int=(grid=ultrafine) guess=(read,tcheck) s
 table=(opt,rrhf)
 ----------------------------------------------------------------------
 -----
 title
 -----
 Symbolic Z-matrix:
 Charge = -1 Multiplicity = 1

 SCF Done:  E(RHF) =  -896.150929265     A.U. after   16 cycles
 Normal termination of Gaussian 16 at Wed Apr  9 02:38:51 2025.
 Gaussian 16:  ES64L-G16RevC.01  3-Jul-2019

 ----------------------------------------------------------------------
 #t hf aug-cc-pvdz iop(5/13=1,5/36=2,99/5=2) pseudo=read geom=check gue
 ss=(read,tcheck) scf=(maxcycle=1)
 ----------------------------------------------------------------------
 -----
 title
 -----
 Structure from the checkpoint file:  "E2SN2_173_mol1.chk"
 Charge = -1 Multiplicity = 1

                         Standard orientation:
 ---------------------------------------------------------------------
 Center     Atomic      Atomic             Coordinates (Angstroms)
 Number     Number       Type             X           Y           Z
 ---------------------------------------------------------------------
      1          6           0        0.078967    0.065586   -0.603863
      2          1           0        0.295870    2.118041   -0.308005
      3         17           0       -1.552993   -1.212452   -0.325004
      4          9           0        1.787421    0.954449   -1.102561
      5          6           0       -0.547536    1.440437   -0.389035
      6          1           0        0.314001   -0.331687   -1.569910
      7          1           0       -1.077471    1.665680   -1.319235
      8          7           0        0.947926   -0.479300    0.458327
      9          8           0        0.971886    0.122209    1.532803
     10          8           0        1.558623   -1.512328    0.220468
     11          7           0       -1.451731    1.656079    0.730772
     12          1           0       -0.930717    1.447502    1.573394
     13          1           0       -2.193620    0.969471    0.679407
 ---------------------------------------------------------------------

 SCF Done:  E(RHF) =  -898.248779632     A.U. after    2 cycles

 The electronic state is 1-A.
 Alpha  occ. eigenvalues --  -99.70997 -28.93130 -20.95106 -20.94719 -15.85585
 Alpha  occ. eigenvalues --  -15.59923 -11.40772 -11.27790 -10.28066  -9.48074
 Alpha  occ. eigenvalues --   -9.47627  -9.47494  -1.84902  -1.54794  -1.22781
 Alpha  occ. eigenvalues --   -1.12058  -1.03099  -0.85228  -0.69222  -0.58834
 Alpha  occ. eigenvalues --   -0.58530  -0.53140  -0.51313  -0.44667  -0.43730
 Alpha  occ. eigenvalues --   -0.39349  -0.35582  -0.34533  -0.33773  -0.29362
 Alpha  occ. eigenvalues --   -0.26151  -0.20349  -0.17449  -0.17032  -0.03109
 Alpha  occ. eigenvalues --   -0.01153   0.00025
 Alpha virt. eigenvalues --    0.14731   0.15361   0.16108   0.16631   0.17821
 Alpha virt. eigenvalues --    0.20644   0.22928   0.23343   0.25316   0.26362
 Alpha virt. eigenvalues --    0.27556   0.27891   0.28423   0.28946   0.29813

 Mulliken charges:
               1
     1  C   -1.533685
     2  H    1.014283
     3  Cl  -0.526748
     4  F   -0.581744
     5  C   -0.339797
     6  H    1.456177
     7  H    1.349195
     8  N    5.742287
     9  O   -3.046526
    10  O   -3.265922
    11  N   -2.404551
    12  H    0.645582
    13  H    0.491448
 Sum of Mulliken charges =  -1.00000

 Dipole moment (field-independent basis, Debye):
    X=              1.9177    Y=              2.1815    Z=              0.0243  Tot=              2.9046

 Test job not archived.
 1\1\GINC-SE074\SP\RHF\Aug-CC-pVDZ\C2H5Cl1F1N2O2(1-)\OHZDE\09-Apr-2025\
 0\\#t hf aug-cc-pvdz iop(5/13=1,5/36=2,99/5=2) pseudo=read geom=check
 guess=(read,tcheck) scf=(maxcycle=1)\\title\\-1,1\C,0,0.58636156,0.028
 22385,0.08694952\H,0,1.81059156,1.71218154,0.19964326\Cl,0,-1.48873718
 ,-0.19159385,0.22866087\F,0,2.5433876,-0.15832157,-0.2177535\C,0,0.748
 56702,1.54527927,0.05371253\H,0,0.66281464,-0.59288071,-0.78178478\H,0
 ,0.4943721,1.84132025,-0.96833528\N,0,0.95173086,-0.68593497,1.3265946
 2\O,0,1.19225762,-0.00244782,2.32252537\O,0,0.95543618,-1.90900952,1.2

 Normal termination of Gaussian 16 at Wed Apr  9 02:38:57 2025.
