 Gaussian 16, Revision C.01,

 ----------------------------------------------------------------------
 #t hf aug-cc-pvdz symm=none int=(grid=ultrafine) guess=(read,tcheck) s
 table=(opt,rrhf)
 ----------------------------------------------------------------------
 -----
 title
 -----
 Symbolic Z-matrix:
 Charge = -1 Multiplicity = 1

 SCF Done:  E(RHF) =  -366.773007994     A.U. after   15 cycles
 Normal termination of Gaussian 16 at Wed Apr  9 02:55:18 2025.
 Gaussian 16:  ES64L-G16RevC.01  3-Jul-2019

 ----------------------------------------------------------------------
 #t hf aug-cc-pvdz iop(5/13=1,5/36=2,99/5=2) pseudo=read geom=check gue
 ss=(read,tcheck) scf=(maxcycle=1)
 ----------------------------------------------------------------------
 -----
 title
 -----
 Structure from the checkpoint file:  "E2SN2_352_mol2.chk"
 Charge = -1 Multiplicity = 1

                         Standard orientation:
 ---------------------------------------------------------------------
 Center     Atomic      Atomic             Coordinates (Angstroms)
 Number     Number       Type             X           Y           Z
 ---------------------------------------------------------------------
      1          6           0        0.656053   -0.016365    0.018369
      2          6           0       -0.755165    0.101178   -0.579277
      3          9           0        1.305588   -1.033305   -0.750292
      4          1           0       -0.581865    0.232969   -1.659220
      5          6           0        1.453442    1.251011   -0.199341
      6          1           0        1.055612    2.048083    0.426383
      7          1           0        1.380630    1.567671   -1.243653
      8          1           0        2.505149    1.069566    0.043365
      9          6           0        0.671679   -0.477909    1.458157
     10          1           0        1.675589   -0.367575    1.881422
     11          1           0       -0.067680    0.062891    2.056745
     12          1           0        0.390156   -1.530850    1.506188
     13          7           0       -1.403273    1.289959   -0.058595
     14          1           0       -1.740211    1.051644    0.894444
     15          1           0       -2.254567    1.413163   -0.598813
     16          7           0       -1.588714   -1.088368   -0.396443
     17          1           0       -1.017481   -1.921527   -0.497839
     18          1           0       -1.947103   -1.045698    0.561378
     19          1           0       -2.360664    0.160782    2.380040
 ---------------------------------------------------------------------

 SCF Done:  E(RHF) =  -368.478600512     A.U. after    2 cycles

 The electronic state is 1-A.
 Alpha  occ. eigenvalues --  -29.10668 -15.57440 -15.56531 -11.35653 -11.30878
 Alpha  occ. eigenvalues --  -11.26869 -11.22671  -1.28600  -1.11107  -1.07563
 Alpha  occ. eigenvalues --   -0.89777  -0.82613  -0.70611  -0.58890  -0.52130
 Alpha  occ. eigenvalues --   -0.50874  -0.47797  -0.45015  -0.42524  -0.40860
 Alpha  occ. eigenvalues --   -0.39442  -0.35961  -0.35484  -0.33021  -0.22722
 Alpha  occ. eigenvalues --   -0.22250  -0.19809  -0.11871  -0.11057  -0.09071
 Alpha virt. eigenvalues --    0.13001   0.13753   0.14042   0.14934   0.15377
 Alpha virt. eigenvalues --    0.15596   0.16174   0.17626   0.18830   0.20190
 Alpha virt. eigenvalues --    0.21365   0.22284   0.23281   0.24164   0.24504

 Mulliken charges:
               1
     1  C    4.188040
     2  C    0.237392
     3  F   -0.299408
     4  H    1.438290
     5  C   -4.580322
     6  H    1.256197
     7  H    1.157180
     8  H    1.097239
     9  C   -4.788290
    10  H    1.099178
    11  H    1.207934
    12  H    1.316758
    13  N   -3.091131
    14  H    0.819239
    15  H    0.529777
    16  N   -2.579066
    17  H    0.559874
    18  H    0.561438
    19  H   -1.130319
 Sum of Mulliken charges =  -1.00000

 Dipole moment (field-independent basis, Debye):
    X=              9.2210    Y=             -1.9591    Z=             -8.5377  Tot=             12.7184

 Test job not archived.
 1\1\GINC-SE105\SP\RHF\Aug-CC-pVDZ\C4H12F1N2(1-)\OHZDE\09-Apr-2025\0\\#
 t hf aug-cc-pvdz iop(5/13=1,5/36=2,99/5=2) pseudo=read geom=check gues
 s=(read,tcheck) scf=(maxcycle=1)\\title\\-1,1\C,0,0.016182,0.058749,0.
 035304\C,0,-0.424791,0.128696,-1.435473\F,0,1.418214,-0.223167,-0.0063
 03\H,0,0.280933,0.838039,-1.896412\C,0,-0.123894,1.402529,0.716555\H,0
 ,-1.178016,1.637964,0.852642\H,0,0.324582,2.186566,0.099855\H,0,0.3857
 69,1.378393,1.684841\C,0,-0.633605,-1.062906,0.813714\H,0,-0.426633,-0
 .9524,1.883346\H,0,-1.710685,-1.105282,0.625227\H,0,-0.228901,-2.01965

 Normal termination of Gaussian 16 at Wed Apr  9 02:55:25 2025.
