 Gaussian 16, Revision C.01,

 ----------------------------------------------------------------------
 #t hf aug-cc-pvdz symm=none int=(grid=ultrafine) guess=(read,tcheck) s
 table=(opt,rrhf)
 ----------------------------------------------------------------------
 -----
 title
 -----
 Symbolic Z-matrix:
 Charge = -1 Multiplicity = 1

 SCF Done:  E(RHF) =  -1275.27994892     A.U. after   15 cycles
 Normal termination of Gaussian 16 at Wed Apr  9 03:01:21 2025.
 Gaussian 16:  ES64L-G16RevC.01  3-Jul-2019

 ----------------------------------------------------------------------
 #t hf aug-cc-pvdz iop(5/13=1,5/36=2,99/5=2) pseudo=read geom=check gue
 ss=(read,tcheck) scf=(maxcycle=1)
 ----------------------------------------------------------------------
 -----
 title
 -----
 Structure from the checkpoint file:  "E2SN2_57_mol2.chk"
 Charge = -1 Multiplicity = 1

                         Standard orientation:
 ---------------------------------------------------------------------
 Center     Atomic      Atomic             Coordinates (Angstroms)
 Number     Number       Type             X           Y           Z
 ---------------------------------------------------------------------
      1          6           0        1.077475    0.129303    0.025605
      2          6           0       -0.424594   -0.255092   -0.020864
      3         17           0        1.816107   -0.265720    1.625671
      4          1           0       -0.929391    0.323869    0.765709
      5          6           0        1.816074   -0.607299   -1.004720
      6          7           0        2.377630   -1.227773   -1.829524
      7          6           0        1.248836    1.568126   -0.193681
      8          7           0        1.433600    2.722092   -0.311758
      9          6           0       -0.664884   -1.737036    0.220007
     10          1           0       -0.213887   -2.337341   -0.578322
     11          1           0       -0.275964   -2.079340    1.181212
     12          1           0       -1.747584   -1.872898    0.209980
     13          7           0       -0.900732    0.234522   -1.300688
     14          1           0       -0.888300   -0.523055   -1.976204
     15          1           0       -1.883068    0.481676   -1.148705
     16         17           0       -3.742738    0.225555    0.226213
 ---------------------------------------------------------------------

 SCF Done:  E(RHF) =  -1277.42816134     A.U. after    2 cycles

 The electronic state is 1-A.
 Alpha  occ. eigenvalues --  -99.82847 -99.61517 -15.70151 -15.68908 -15.61263
 Alpha  occ. eigenvalues --  -11.47852 -11.39050 -11.37672 -11.35153 -11.27492
 Alpha  occ. eigenvalues --  -10.40186 -10.18176  -9.60159  -9.59444  -9.59370
 Alpha  occ. eigenvalues --   -9.38174  -9.37846  -9.37773  -1.36537  -1.23095
 Alpha  occ. eigenvalues --   -1.21753  -1.20501  -1.04204  -0.97331  -0.97196
 Alpha  occ. eigenvalues --   -0.79272  -0.72794  -0.62238  -0.59597  -0.53460
 Alpha  occ. eigenvalues --   -0.48836  -0.48005  -0.46538  -0.44631  -0.44165
 Alpha  occ. eigenvalues --   -0.41613  -0.40768  -0.38298  -0.36931  -0.36563
 Alpha  occ. eigenvalues --   -0.34834  -0.32777  -0.26831  -0.25302  -0.25271
 Alpha  occ. eigenvalues --   -0.23929
 Alpha virt. eigenvalues --    0.12501   0.13468   0.14705   0.15211   0.15967
 Alpha virt. eigenvalues --    0.16734   0.17216   0.18463   0.19055   0.19173
 Alpha virt. eigenvalues --    0.20990   0.21274   0.21616   0.22280   0.23355

 Mulliken charges:
               1
     1  C   -0.396141
     2  C    1.165964
     3  Cl   0.003980
     4  H    1.795231
     5  C    2.755162
     6  N   -2.731833
     7  C    2.316647
     8  N   -2.586116
     9  C   -3.994954
    10  H    1.333708
    11  H    1.153511
    12  H    1.043501
    13  N   -2.925994
    14  H    0.627379
    15  H    0.390986
    16  Cl  -0.951027
 Sum of Mulliken charges =  -1.00000

 Dipole moment (field-independent basis, Debye):
    X=              9.8457    Y=             -2.8951    Z=              0.0879  Tot=             10.2629

 Test job not archived.
 1\1\GINC-SE455\SP\RHF\Aug-CC-pVDZ\C5H6Cl2N3(1-)\OHZDE\09-Apr-2025\0\\#
 t hf aug-cc-pvdz iop(5/13=1,5/36=2,99/5=2) pseudo=read geom=check gues
 s=(read,tcheck) scf=(maxcycle=1)\\title\\-1,1\C,0,-0.680795,0.051562,-
 1.578527\C,0,0.108093,-0.047654,-0.246633\Cl,0,-0.352318,-1.36228,-2.6
 5323\H,0,1.176296,-0.06701,-0.506017\C,0,-2.121271,0.085066,-1.307263\
 N,0,-3.268367,0.091837,-1.052783\C,0,-0.300277,1.260227,-2.314733\N,0,
 0.009453,2.187085,-2.966438\C,0,-0.232737,-1.295457,0.552579\H,0,-1.28
 2206,-1.278826,0.867908\H,0,-0.045297,-2.218106,-0.00053\H,0,0.411981,

 Normal termination of Gaussian 16 at Wed Apr  9 03:01:29 2025.
