 Gaussian 16, Revision C.01,

 ----------------------------------------------------------------------
 #t hf aug-cc-pvdz symm=none int=(grid=ultrafine) guess=(read,tcheck) s
 table=(opt,rrhf)
 ----------------------------------------------------------------------
 -----
 title
 -----
 Symbolic Z-matrix:
 Charge = -1 Multiplicity = 1

 SCF Done:  E(RHF) =  -1238.53853666     A.U. after   17 cycles
 Normal termination of Gaussian 16 at Wed Apr  9 03:00:48 2025.
 Gaussian 16:  ES64L-G16RevC.01  3-Jul-2019

 ----------------------------------------------------------------------
 #t hf aug-cc-pvdz iop(5/13=1,5/36=2,99/5=2) pseudo=read geom=check gue
 ss=(read,tcheck) scf=(maxcycle=1)
 ----------------------------------------------------------------------
 -----
 title
 -----
 Structure from the checkpoint file:  "E2SN2_58_mol1.chk"
 Charge = -1 Multiplicity = 1

                         Standard orientation:
 ---------------------------------------------------------------------
 Center     Atomic      Atomic             Coordinates (Angstroms)
 Number     Number       Type             X           Y           Z
 ---------------------------------------------------------------------
      1          6           0        0.449651    0.251924    0.410426
      2          6           0       -0.303020   -0.638653   -0.361277
      3         17           0        2.697695   -0.407511   -0.052043
      4         17           0       -3.082062    0.125304    0.189265
      5          1           0       -1.552865   -0.169907    0.007000
      6          6           0        0.572097    1.581585   -0.126911
      7          7           0        0.617413    2.684593   -0.538996
      8          7           0       -0.300750   -1.982127    0.120649
      9          1           0        0.653157   -2.331046    0.026571
     10          1           0       -0.908889   -2.524365   -0.480453
     11          7           0       -0.332857   -0.494020   -1.796583
     12          1           0        0.635658   -0.463905   -2.116095
     13          1           0       -0.775817    0.381946   -2.051575
     14          6           0        0.477969    0.149656    1.906659
     15          1           0       -0.485438    0.502060    2.297522
     16          1           0        0.620088   -0.886245    2.202313
     17          1           0        1.281532    0.762787    2.313057
 ---------------------------------------------------------------------

 SCF Done:  E(RHF) =  -1240.57670596     A.U. after    2 cycles

 The electronic state is 1-A.
 Alpha  occ. eigenvalues --  -99.68636 -99.67768 -15.66598 -15.61859 -15.61608
 Alpha  occ. eigenvalues --  -11.44146 -11.35414 -11.33041 -11.28760 -10.25599
 Alpha  occ. eigenvalues --  -10.24619  -9.45621  -9.45091  -9.45044  -9.44728
 Alpha  occ. eigenvalues --   -9.44225  -9.44180  -1.32830  -1.19854  -1.13003
 Alpha  occ. eigenvalues --   -1.08901  -1.06784  -1.03166  -0.88273  -0.74971
 Alpha  occ. eigenvalues --   -0.61957  -0.56527  -0.51891  -0.49803  -0.47894
 Alpha  occ. eigenvalues --   -0.46727  -0.45477  -0.42983  -0.39856  -0.38410
 Alpha  occ. eigenvalues --   -0.33207  -0.32601  -0.32504  -0.32411  -0.31361
 Alpha  occ. eigenvalues --   -0.29837  -0.27156  -0.25279  -0.18502
 Alpha virt. eigenvalues --    0.13296   0.14404   0.14914   0.15449   0.15786
 Alpha virt. eigenvalues --    0.16319   0.17013   0.17763   0.18571   0.19884
 Alpha virt. eigenvalues --    0.20994   0.22276   0.23472   0.23919   0.25113

 Mulliken charges:
               1
     1  C    2.453552
     2  C    3.613245
     3  Cl  -0.771080
     4  Cl  -0.990884
     5  H    1.463157
     6  C    2.393235
     7  N   -2.826548
     8  N   -4.071211
     9  H    0.552737
    10  H    0.724201
    11  N   -3.441537
    12  H    0.592639
    13  H    0.491463
    14  C   -4.925125
    15  H    1.202597
    16  H    1.229513
    17  H    1.310045
 Sum of Mulliken charges =  -1.00000

 Dipole moment (field-independent basis, Debye):
    X=              1.1008    Y=             -1.2032    Z=              0.7025  Tot=              1.7757

 Test job not archived.
 1\1\GINC-SE456\SP\RHF\Aug-CC-pVDZ\C4H8Cl2N3(1-)\OHZDE\09-Apr-2025\0\\#
 t hf aug-cc-pvdz iop(5/13=1,5/36=2,99/5=2) pseudo=read geom=check gues
 s=(read,tcheck) scf=(maxcycle=1)\\title\\-1,1\C,0,-0.43732183,0.010216
 07,-0.23573586\C,0,-0.32869855,0.15612777,1.15065393\Cl,0,1.84076477,-
 0.11884323,-0.94007937\Cl,0,-3.11223608,0.3358355,2.06138171\H,0,-1.68
 44024,0.23707052,1.42079334\C,0,-0.80720534,-1.30456439,-0.68989512\N,
 0,-1.17063343,-2.36481715,-1.05359762\N,0,0.16674365,1.42675666,1.5716
 306\H,0,1.13175661,1.49274582,1.24770264\H,0,0.15929911,1.4384833,2.58

 Normal termination of Gaussian 16 at Wed Apr  9 03:00:56 2025.
