 Gaussian 16, Revision C.01,

 ----------------------------------------------------------------------
 #t hf aug-cc-pvdz symm=none int=(grid=ultrafine) guess=(read,tcheck) s
 table=(opt,rrhf)
 ----------------------------------------------------------------------
 -----
 title
 -----
 Symbolic Z-matrix:
 Charge = -1 Multiplicity = 1

 SCF Done:  E(RHF) =  -1083.65127804     A.U. after   16 cycles
 Normal termination of Gaussian 16 at Wed Apr  9 02:41:08 2025.
 Gaussian 16:  ES64L-G16RevC.01  3-Jul-2019

 ----------------------------------------------------------------------
 #t hf aug-cc-pvdz iop(5/13=1,5/36=2,99/5=2) pseudo=read geom=check gue
 ss=(read,tcheck) scf=(maxcycle=1)
 ----------------------------------------------------------------------
 -----
 title
 -----
 Structure from the checkpoint file:  "E2SN2_185_mol1.chk"
 Charge = -1 Multiplicity = 1

                         Standard orientation:
 ---------------------------------------------------------------------
 Center     Atomic      Atomic             Coordinates (Angstroms)
 Number     Number       Type             X           Y           Z
 ---------------------------------------------------------------------
      1          6           0       -0.665071    1.013624    0.062814
      2          1           0        0.731227    0.468995   -1.444180
      3         17           0       -1.952807   -0.430925    1.134151
      4          9           0        0.622401    2.350713   -0.462324
      5          6           0        0.419851    0.117332   -0.467999
      6          1           0       -0.497298    1.472566    1.014846
      7          6           0       -1.717379    1.495094   -0.897342
      8          1           0       -1.246110    2.179081   -1.600273
      9          1           0       -2.172796    0.656300   -1.422695
     10          1           0       -2.500391    2.013127   -0.344380
     11          7           0        0.072406   -1.340880   -0.672125
     12          8           0        0.571198   -2.186818    0.057867
     13          8           0       -0.666395   -1.551916   -1.628093
     14          7           0        1.645086    0.141357    0.386181
     15          8           0        2.695941   -0.099829   -0.204685
     16          8           0        1.528584    0.341013    1.586636
 ---------------------------------------------------------------------

 SCF Done:  E(RHF) =  -1086.52176859     A.U. after    2 cycles

 The electronic state is 1-A.
 Alpha  occ. eigenvalues --  -99.67682 -28.96918 -20.99425 -20.98862 -20.98683
 Alpha  occ. eigenvalues --  -20.98109 -15.89226 -15.88483 -11.45867 -11.38138
 Alpha  occ. eigenvalues --  -11.27178 -10.24743  -9.44838  -9.44407  -9.44273
 Alpha  occ. eigenvalues --   -1.89941  -1.86566  -1.58880  -1.57972  -1.21634
 Alpha  occ. eigenvalues --   -1.08159  -1.01147  -0.89027  -0.81980  -0.70557
 Alpha  occ. eigenvalues --   -0.63728  -0.61499  -0.59381  -0.52244  -0.51284
 Alpha  occ. eigenvalues --   -0.50427  -0.49322  -0.45477  -0.43347  -0.41204
 Alpha  occ. eigenvalues --   -0.37439  -0.32580  -0.31604  -0.30916  -0.26813
 Alpha  occ. eigenvalues --   -0.23676  -0.21975  -0.20408  -0.19638  -0.18660
 Alpha  occ. eigenvalues --   -0.06283  -0.04449  -0.04167
 Alpha virt. eigenvalues --    0.13846   0.15199   0.15417   0.16138   0.17071
 Alpha virt. eigenvalues --    0.20477   0.22033   0.22123   0.23158   0.24381
 Alpha virt. eigenvalues --    0.24980   0.25696   0.26126   0.26507   0.26874

 Mulliken charges:
               1
     1  C    1.054531
     2  H    2.208265
     3  Cl  -0.744794
     4  F   -0.573645
     5  C   -2.359161
     6  H    1.466766
     7  C   -3.609036
     8  H    1.171029
     9  H    1.298021
    10  H    1.147033
    11  N    4.846087
    12  O   -2.967693
    13  O   -3.050859
    14  N    5.347776
    15  O   -2.961458
    16  O   -3.272861
 Sum of Mulliken charges =  -1.00000

 Dipole moment (field-independent basis, Debye):
    X=              3.2229    Y=              2.2694    Z=             -2.6837  Tot=              4.7686

 Test job not archived.
 1\1\GINC-SE335\SP\RHF\Aug-CC-pVDZ\C3H5Cl1F1N2O4(1-)\OHZDE\09-Apr-2025\
 0\\#t hf aug-cc-pvdz iop(5/13=1,5/36=2,99/5=2) pseudo=read geom=check
 guess=(read,tcheck) scf=(maxcycle=1)\\title\\-1,1\C,0,0.33535128,-0.08
 173681,0.1169656\H,0,1.61364626,1.55030057,0.58570421\Cl,0,-1.81368417
 ,-0.15633791,0.63545455\F,0,2.05550199,-0.03839765,-0.7550224\C,0,0.61
 528446,1.39394995,0.19534701\H,0,0.0532095,-0.47538443,-0.83727576\C,0
 ,0.81000777,-0.952525,1.24722915\H,0,1.89768838,-0.97372337,1.22386092
 \H,0,0.45269074,-0.57192288,2.20349464\H,0,0.41669175,-1.96015669,1.11

 Normal termination of Gaussian 16 at Wed Apr  9 02:41:17 2025.
