 Gaussian 16, Revision C.01,

 ----------------------------------------------------------------------
 #t hf aug-cc-pvdz symm=none int=(grid=ultrafine) guess=(read,tcheck) s
 table=(opt,rrhf)
 ----------------------------------------------------------------------
 -----
 title
 -----
 Symbolic Z-matrix:
 Charge = -1 Multiplicity = 1

 SCF Done:  E(RHF) =  -875.250922302     A.U. after   17 cycles
 Normal termination of Gaussian 16 at Wed Apr  9 02:55:53 2025.
 Gaussian 16:  ES64L-G16RevC.01  3-Jul-2019

 ----------------------------------------------------------------------
 #t hf aug-cc-pvdz iop(5/13=1,5/36=2,99/5=2) pseudo=read geom=check gue
 ss=(read,tcheck) scf=(maxcycle=1)
 ----------------------------------------------------------------------
 -----
 title
 -----
 Structure from the checkpoint file:  "E2SN2_351_mol1.chk"
 Charge = -1 Multiplicity = 1

                         Standard orientation:
 ---------------------------------------------------------------------
 Center     Atomic      Atomic             Coordinates (Angstroms)
 Number     Number       Type             X           Y           Z
 ---------------------------------------------------------------------
      1          6           0       -1.019222    0.274124    0.288541
      2          1           0        0.539245    1.105277    1.486568
      3         17           0       -0.609532   -1.402325   -0.928690
      4          1           0       -1.239748    2.034132    1.406855
      5          6           0        0.396705    0.864521    0.435287
      6          6           0       -1.620452   -0.398285    1.517572
      7          1           0       -1.874103   -1.438662    1.296797
      8          1           0       -0.910047   -0.386343    2.344791
      9          1           0       -2.515917    0.131327    1.834764
     10          6           0       -2.006917    0.872174   -0.712680
     11          1           0       -2.501618    1.737409   -0.281616
     12          1           0       -1.480716    1.157029   -1.623197
     13          1           0       -2.747994    0.111733   -0.970918
     14          7           0        0.607053    1.951798   -0.485776
     15          1           0        1.566806    2.268949   -0.413160
     16          1           0       -0.012782    2.672362   -0.120744
     17          7           0        1.544154   -0.144178    0.230959
     18          8           0        2.348219    0.006440   -0.685469
     19          8           0        1.649255   -0.991718    1.115344
 ---------------------------------------------------------------------

 SCF Done:  E(RHF) =  -877.471500659     A.U. after    2 cycles

 The electronic state is 1-A.
 Alpha  occ. eigenvalues --  -99.68244 -20.95509 -20.94822 -15.84155 -15.60711
 Alpha  occ. eigenvalues --  -11.40627 -11.33586 -11.25426 -11.23618 -10.25431
 Alpha  occ. eigenvalues --   -9.45489  -9.45135  -9.44919  -1.84525  -1.54605
 Alpha  occ. eigenvalues --   -1.26261  -1.12591  -1.01555  -0.95993  -0.88644
 Alpha  occ. eigenvalues --   -0.75496  -0.64543  -0.58416  -0.56410  -0.51975
 Alpha  occ. eigenvalues --   -0.48847  -0.46642  -0.46114  -0.44548  -0.42836
 Alpha  occ. eigenvalues --   -0.40412  -0.35108  -0.34404  -0.32273  -0.30919
 Alpha  occ. eigenvalues --   -0.30068  -0.24688  -0.21944  -0.17410  -0.16903
 Alpha  occ. eigenvalues --   -0.13088
 Alpha virt. eigenvalues --    0.13964   0.14511   0.14834   0.15389   0.15775
 Alpha virt. eigenvalues --    0.15894   0.16222   0.17190   0.18245   0.18833
 Alpha virt. eigenvalues --    0.22290   0.23369   0.23755   0.24650   0.25247

 Mulliken charges:
               1
     1  C    3.546832
     2  H    2.414395
     3  Cl  -0.659006
     4  H   -0.965032
     5  C   -0.802037
     6  C   -4.772920
     7  H    1.130970
     8  H    1.256983
     9  H    1.414008
    10  C   -4.237354
    11  H    1.369362
    12  H    1.162077
    13  H    1.180349
    14  N   -2.919064
    15  H    0.566438
    16  H    0.731510
    17  N    4.504345
    18  O   -2.870781
    19  O   -3.051075
 Sum of Mulliken charges =  -1.00000

 Dipole moment (field-independent basis, Debye):
    X=              1.4839    Y=             -0.4396    Z=             -0.7581  Tot=              1.7234

 Test job not archived.
 1\1\GINC-SE177\SP\RHF\Aug-CC-pVDZ\C4H10Cl1N2O2(1-)\OHZDE\09-Apr-2025\0
 \\#t hf aug-cc-pvdz iop(5/13=1,5/36=2,99/5=2) pseudo=read geom=check g
 uess=(read,tcheck) scf=(maxcycle=1)\\title\\-1,1\C,0,0.40103835,-0.090
 40039,-0.04124859\H,0,1.51220709,1.56441469,-0.80400457\Cl,0,-1.689306
 98,-0.15914303,-0.33401345\H,0,2.44646058,0.19082683,0.32487577\C,0,0.
 64878343,1.42624843,-0.15679304\C,0,0.88548467,-0.96155016,-1.19473813
 \H,0,0.05105641,-1.5212582,-1.62592411\H,0,1.32706585,-0.3454932,-1.97
 869563\H,0,1.64448753,-1.65809742,-0.84589317\C,0,0.32106734,-0.758986

 Normal termination of Gaussian 16 at Wed Apr  9 02:56:04 2025.
