 Gaussian 16, Revision C.01,

 ----------------------------------------------------------------------
 #t hf aug-cc-pvdz symm=none int=(grid=ultrafine) guess=(read,tcheck) s
 table=(opt,rrhf)
 ----------------------------------------------------------------------
 -----
 title
 -----
 Symbolic Z-matrix:
 Charge = -1 Multiplicity = 1

 SCF Done:  E(RHF) =  -627.814203855     A.U. after   16 cycles
 Normal termination of Gaussian 16 at Wed Apr  9 02:43:10 2025.
 Gaussian 16:  ES64L-G16RevC.01  3-Jul-2019

 ----------------------------------------------------------------------
 #t hf aug-cc-pvdz iop(5/13=1,5/36=2,99/5=2) pseudo=read geom=check gue
 ss=(read,tcheck) scf=(maxcycle=1)
 ----------------------------------------------------------------------
 -----
 title
 -----
 Structure from the checkpoint file:  "E2SN2_218_mol1.chk"
 Charge = -1 Multiplicity = 1

                         Standard orientation:
 ---------------------------------------------------------------------
 Center     Atomic      Atomic             Coordinates (Angstroms)
 Number     Number       Type             X           Y           Z
 ---------------------------------------------------------------------
      1          6           0       -0.222160   -0.185327    0.413089
      2          1           0        0.698372   -0.197253   -1.471129
      3          9           0       -0.497818    1.316839    1.235284
      4          9           0       -0.096294   -1.812524   -0.252927
      5          6           0        0.925115    0.249390   -0.504074
      6          1           0       -0.095771   -0.639401    1.376332
      7          7           0       -1.596808   -0.129355   -0.124738
      8          8           0       -1.749965    0.330058   -1.252604
      9          8           0       -2.494107   -0.541926    0.600019
     10          6           0        2.136543   -0.418130    0.012650
     11          7           0        3.159147   -0.831268    0.417722
     12          7           0        1.122276    1.691451   -0.651750
     13          1           0        2.109432    1.892413   -0.741563
     14          1           0        0.758249    2.108966    0.197207
 ---------------------------------------------------------------------

 SCF Done:  E(RHF) =  -630.384833423     A.U. after    2 cycles

 The electronic state is 1-A.
 Alpha  occ. eigenvalues --  -29.01623 -28.99489 -20.95664 -20.95445 -15.86031
 Alpha  occ. eigenvalues --  -15.64274 -15.61468 -11.47933 -11.37256 -11.31144
 Alpha  occ. eigenvalues --   -1.85578  -1.55486  -1.28289  -1.15787  -1.10927
 Alpha  occ. eigenvalues --   -0.91770  -0.74558  -0.65811  -0.63874  -0.58267
 Alpha  occ. eigenvalues --   -0.53504  -0.50100  -0.48262  -0.43774  -0.41180
 Alpha  occ. eigenvalues --   -0.40109  -0.34752  -0.32910  -0.31237  -0.24822
 Alpha  occ. eigenvalues --   -0.23430  -0.18615  -0.17675  -0.16998  -0.08328
 Alpha  occ. eigenvalues --   -0.06701  -0.05578  -0.04702   0.01655
 Alpha virt. eigenvalues --    0.13978   0.16031   0.16501   0.17248   0.19170
 Alpha virt. eigenvalues --    0.21856   0.22758   0.23383   0.24680   0.25306
 Alpha virt. eigenvalues --    0.26147   0.27406   0.27784   0.28660   0.28901

 Mulliken charges:
               1
     1  C   -1.138893
     2  H    1.549464
     3  F   -0.477362
     4  F   -0.403423
     5  C   -0.458966
     6  H    1.734476
     7  N    5.734063
     8  O   -3.206847
     9  O   -3.325128
    10  C    3.744348
    11  N   -2.995398
    12  N   -2.594369
    13  H    0.613857
    14  H    0.224178
 Sum of Mulliken charges =  -1.00000

 Dipole moment (field-independent basis, Debye):
    X=             -0.3742    Y=              1.3732    Z=             -0.1943  Tot=              1.4365

 Test job not archived.
 1\1\GINC-SE105\SP\RHF\Aug-CC-pVDZ\C3H4F2N3O2(1-)\OHZDE\09-Apr-2025\0\\
 #t hf aug-cc-pvdz iop(5/13=1,5/36=2,99/5=2) pseudo=read geom=check gue
 ss=(read,tcheck) scf=(maxcycle=1)\\title\\-1,1\C,0,0.35556072,0.005535
 76,-0.10976571\H,0,1.71187023,1.55883366,-0.49119564\F,0,-1.20981945,0
 .01671568,-0.85672908\F,0,1.89625527,-0.24356628,0.70962313\C,0,0.6684
 1098,1.50319345,-0.18428383\H,0,-0.09696751,-0.48298081,0.73080813\N,0
 ,0.85504416,-0.86034835,-1.19733623\O,0,1.43182385,-0.32085567,-2.1369
 4837\O,0,0.65134286,-2.06330678,-1.08764806\C,0,0.59296785,2.00574294,

 Normal termination of Gaussian 16 at Wed Apr  9 02:43:27 2025.
