 Gaussian 16, Revision C.01,

 ----------------------------------------------------------------------
 #t hf aug-cc-pvdz symm=none int=(grid=ultrafine) guess=(read,tcheck) s
 table=(opt,rrhf)
 ----------------------------------------------------------------------
 -----
 title
 -----
 Symbolic Z-matrix:
 Charge = -1 Multiplicity = 1

 SCF Done:  E(RHF) =  -839.415933353     A.U. after   16 cycles
 Normal termination of Gaussian 16 at Wed Apr  9 02:39:58 2025.
 Gaussian 16:  ES64L-G16RevC.01  3-Jul-2019

 ----------------------------------------------------------------------
 #t hf aug-cc-pvdz iop(5/13=1,5/36=2,99/5=2) pseudo=read geom=check gue
 ss=(read,tcheck) scf=(maxcycle=1)
 ----------------------------------------------------------------------
 -----
 title
 -----
 Structure from the checkpoint file:  "E2SN2_181_mol1.chk"
 Charge = -1 Multiplicity = 1

                         Standard orientation:
 ---------------------------------------------------------------------
 Center     Atomic      Atomic             Coordinates (Angstroms)
 Number     Number       Type             X           Y           Z
 ---------------------------------------------------------------------
      1          6           0       -0.063945    0.197010   -0.534725
      2          1           0        0.281588   -1.875920   -0.286146
      3          9           0        1.459087    1.436297   -0.833294
      4         17           0       -1.999223   -0.785237   -0.446354
      5          6           0        0.757761   -0.956452    0.067667
      6          1           0       -0.107272    0.292692   -1.603444
      7          6           0       -0.461219    1.320956    0.279467
      8          7           0       -0.873370    2.172409    0.978135
      9          7           0        0.680530   -0.850151    1.532172
     10          1           0        0.988339   -1.737413    1.918393
     11          1           0       -0.295197   -0.749923    1.798635
     12          7           0        2.122040   -0.958042   -0.425119
     13          1           0        2.696098   -1.451467    0.249590
     14          1           0        2.391472    0.025795   -0.460138
 ---------------------------------------------------------------------

 SCF Done:  E(RHF) =  -841.326243095     A.U. after    2 cycles

 The electronic state is 1-A.
 Alpha  occ. eigenvalues --  -99.69186 -28.94978 -15.61007 -15.60900 -15.58402
 Alpha  occ. eigenvalues --  -11.42115 -11.31999 -11.30099 -10.26216  -9.46276
 Alpha  occ. eigenvalues --   -9.45777  -9.45655  -1.29956  -1.15949  -1.10852
 Alpha  occ. eigenvalues --   -1.08390  -0.96450  -0.77402  -0.60729  -0.58856
 Alpha  occ. eigenvalues --   -0.53996  -0.48344  -0.45426  -0.42207  -0.40710
 Alpha  occ. eigenvalues --   -0.37491  -0.33425  -0.31866  -0.30239  -0.28612
 Alpha  occ. eigenvalues --   -0.26117  -0.24230  -0.22495  -0.05097  -0.02840
 Alpha  occ. eigenvalues --   -0.01593
 Alpha virt. eigenvalues --    0.12918   0.14572   0.15373   0.16104   0.17144
 Alpha virt. eigenvalues --    0.18957   0.20655   0.21197   0.23495   0.24252
 Alpha virt. eigenvalues --    0.24981   0.25539   0.26029   0.26730   0.27880

 Mulliken charges:
               1
     1  C   -1.240408
     2  H    1.612110
     3  F   -0.347371
     4  Cl  -0.543207
     5  C    1.760102
     6  H    1.544099
     7  C    2.964370
     8  N   -2.952388
     9  N   -2.817110
    10  H    0.519111
    11  H    0.611730
    12  N   -2.916519
    13  H    0.502173
    14  H    0.303308
 Sum of Mulliken charges =  -1.00000

 Dipole moment (field-independent basis, Debye):
    X=              5.6042    Y=             -1.6342    Z=              0.0655  Tot=              5.8380

 Test job not archived.
 1\1\GINC-SE127\SP\RHF\Aug-CC-pVDZ\C3H6Cl1F1N3(1-)\OHZDE\09-Apr-2025\0\
 \#t hf aug-cc-pvdz iop(5/13=1,5/36=2,99/5=2) pseudo=read geom=check gu
 ess=(read,tcheck) scf=(maxcycle=1)\\title\\-1,1\C,0,0.75151142,0.04566
 563,-0.01037551\H,0,1.68394225,1.89630996,-0.43922637\F,0,-1.11878819,
 -0.28981099,-0.58833487\Cl,0,2.82681888,-0.10478338,0.61282523\C,0,0.6
 9386601,1.5812106,-0.09599441\H,0,0.93093234,-0.51209402,-0.91032268\C
 ,0,0.22813305,-0.64713976,1.14291774\N,0,-0.09770306,-1.19017544,2.133
 83739\N,0,0.41103614,2.09903351,1.25081903\H,0,0.63285828,3.08996075,1

 Normal termination of Gaussian 16 at Wed Apr  9 02:40:04 2025.
