 Gaussian 16, Revision C.01,

 ----------------------------------------------------------------------
 #t hf aug-cc-pvdz symm=none int=(grid=ultrafine) guess=(read,tcheck) s
 table=(opt,rrhf)
 ----------------------------------------------------------------------
 -----
 title
 -----
 Symbolic Z-matrix:
 Charge = -1 Multiplicity = 1

 SCF Done:  E(RHF) =  -839.449548707     A.U. after   15 cycles
 Normal termination of Gaussian 16 at Wed Apr  9 02:51:06 2025.
 Gaussian 16:  ES64L-G16RevC.01  3-Jul-2019

 ----------------------------------------------------------------------
 #t hf aug-cc-pvdz iop(5/13=1,5/36=2,99/5=2) pseudo=read geom=check gue
 ss=(read,tcheck) scf=(maxcycle=1)
 ----------------------------------------------------------------------
 -----
 title
 -----
 Structure from the checkpoint file:  "E2SN2_302_mol2.chk"
 Charge = -1 Multiplicity = 1

                         Standard orientation:
 ---------------------------------------------------------------------
 Center     Atomic      Atomic             Coordinates (Angstroms)
 Number     Number       Type             X           Y           Z
 ---------------------------------------------------------------------
      1          6           0        0.336735   -0.095660    0.120456
      2          6           0       -0.165306   -1.170298   -0.873346
      3         17           0        2.170678   -0.266080    0.194017
      4          1           0        0.390258   -2.081082   -0.632068
      5          1           0        0.134022   -0.856625   -1.880322
      6          6           0        0.144272    1.265085   -0.433122
      7          7           0        0.062583    2.342678   -0.895424
      8          7           0       -0.218057   -0.302325    1.416400
      9          1           0        0.208933    0.366471    2.050986
     10          1           0       -1.233517    0.013453    1.279998
     11          7           0       -1.588975   -1.442851   -0.818770
     12          1           0       -1.737218   -2.046659   -0.018252
     13          1           0       -2.086211   -0.578131   -0.542786
     14          9           0       -2.473427    0.614296    0.627199
 ---------------------------------------------------------------------

 SCF Done:  E(RHF) =  -841.357271407     A.U. after    2 cycles

 The electronic state is 1-A.
 Alpha  occ. eigenvalues --  -99.76310 -28.91906 -15.62973 -15.58393 -15.57069
 Alpha  occ. eigenvalues --  -11.39904 -11.31209 -11.28004 -10.33656  -9.53663
 Alpha  occ. eigenvalues --   -9.52902  -9.52819  -1.31837  -1.16910  -1.14783
 Alpha  occ. eigenvalues --   -1.13522  -0.91606  -0.77598  -0.61599  -0.58737
 Alpha  occ. eigenvalues --   -0.51904  -0.49940  -0.44173  -0.42432  -0.39710
 Alpha  occ. eigenvalues --   -0.38837  -0.37681  -0.36838  -0.31079  -0.30025
 Alpha  occ. eigenvalues --   -0.27152  -0.23647  -0.21304  -0.01026   0.00036
 Alpha  occ. eigenvalues --    0.01375
 Alpha virt. eigenvalues --    0.14121   0.15385   0.15600   0.16205   0.17108
 Alpha virt. eigenvalues --    0.19377   0.20052   0.21719   0.21935   0.23286
 Alpha virt. eigenvalues --    0.24052   0.24526   0.25332   0.25774   0.27776

 Mulliken charges:
               1
     1  C    1.329363
     2  C   -1.479234
     3  Cl  -0.115431
     4  H    1.432065
     5  H    1.310032
     6  C    3.543852
     7  N   -2.962570
     8  N   -3.234503
     9  H    0.535125
    10  H    0.287119
    11  N   -2.235514
    12  H    0.454684
    13  H    0.547024
    14  F   -0.412014
 Sum of Mulliken charges =  -1.00000

 Dipole moment (field-independent basis, Debye):
    X=              2.8906    Y=             -2.0213    Z=              0.3186  Tot=              3.5416

 Test job not archived.
 1\1\GINC-SE227\SP\RHF\Aug-CC-pVDZ\C3H6Cl1F1N3(1-)\OHZDE\09-Apr-2025\0\
 \#t hf aug-cc-pvdz iop(5/13=1,5/36=2,99/5=2) pseudo=read geom=check gu
 ess=(read,tcheck) scf=(maxcycle=1)\\title\\-1,1\C,0,0.000339,0.016255,
 -0.058087\C,0,-0.2,0.385403,-1.547425\Cl,0,1.820448,-0.075419,0.21868\
 H,0,0.508429,-0.233872,-2.105119\H,0,0.103417,1.431339,-1.673693\C,0,-
 0.421126,1.130779,0.822436\N,0,-0.68405,2.036596,1.523841\N,0,-0.59548
 3,-1.243526,0.23843\H,0,-0.360115,-1.484259,1.197053\H,0,-1.640863,-1.
 005563,0.232563\N,0,-1.539549,0.170322,-2.060694\H,0,-1.621674,-0.8225

 Normal termination of Gaussian 16 at Wed Apr  9 02:51:12 2025.
