 Gaussian 16, Revision C.01,

 ----------------------------------------------------------------------
 #t hf aug-cc-pvdz symm=none int=(grid=ultrafine) guess=(read,tcheck) s
 table=(opt,rrhf)
 ----------------------------------------------------------------------
 -----
 title
 -----
 Symbolic Z-matrix:
 Charge = -1 Multiplicity = 1

 SCF Done:  E(RHF) =  -684.582574749     A.U. after   15 cycles
 Normal termination of Gaussian 16 at Wed Apr  9 02:42:09 2025.
 Gaussian 16:  ES64L-G16RevC.01  3-Jul-2019

 ----------------------------------------------------------------------
 #t hf aug-cc-pvdz iop(5/13=1,5/36=2,99/5=2) pseudo=read geom=check gue
 ss=(read,tcheck) scf=(maxcycle=1)
 ----------------------------------------------------------------------
 -----
 title
 -----
 Structure from the checkpoint file:  "E2SN2_211_mol2.chk"
 Charge = -1 Multiplicity = 1

                         Standard orientation:
 ---------------------------------------------------------------------
 Center     Atomic      Atomic             Coordinates (Angstroms)
 Number     Number       Type             X           Y           Z
 ---------------------------------------------------------------------
      1          6           0        0.472888    0.564900   -0.165237
      2          6           0       -0.632431    0.172310    0.775796
      3          9           0        0.882307    1.882184    0.122802
      4          1           0       -0.788338    0.955258    1.527019
      5          1           0        0.221058    0.491433   -1.208665
      6          1           0       -0.439669   -0.791277    1.220461
      7          7           0        1.713084   -0.233500    0.060237
      8          8           0        2.516259   -0.262314   -0.865589
      9          8           0        1.928815   -0.655322    1.194971
     10          7           0       -1.930523    0.049799    0.061660
     11          8           0       -2.767592   -0.689752    0.568885
     12          8           0       -2.135676    0.774823   -0.908151
     13          9           0       -0.087658   -1.563545   -0.786843
 ---------------------------------------------------------------------

 SCF Done:  E(RHF) =  -687.322524859     A.U. after    2 cycles

 The electronic state is 1-A.
 Alpha  occ. eigenvalues --  -29.15606 -28.90019 -20.96473 -20.96273 -20.96123
 Alpha  occ. eigenvalues --  -20.95858 -15.86397 -15.85904 -11.42717 -11.32282
 Alpha  occ. eigenvalues --   -1.86874  -1.84758  -1.55930  -1.55501  -1.19733
 Alpha  occ. eigenvalues --   -1.02833  -0.79755  -0.73507  -0.66830  -0.60107
 Alpha  occ. eigenvalues --   -0.57107  -0.55753  -0.52031  -0.48058  -0.46062
 Alpha  occ. eigenvalues --   -0.43216  -0.42134  -0.32162  -0.27330  -0.24782
 Alpha  occ. eigenvalues --   -0.22843  -0.19577  -0.18574  -0.18168  -0.17521
 Alpha  occ. eigenvalues --   -0.14682  -0.13718   0.00976   0.01284   0.02431
 Alpha virt. eigenvalues --    0.14118   0.17191   0.17475   0.21445   0.22139
 Alpha virt. eigenvalues --    0.22723   0.24273   0.25133   0.25748   0.26748
 Alpha virt. eigenvalues --    0.27315   0.28187   0.28930   0.29289   0.30105

 Mulliken charges:
               1
     1  C   -0.974515
     2  C   -2.109022
     3  F    0.205931
     4  H    1.482198
     5  H    1.638090
     6  H    1.331911
     7  N    5.854776
     8  O   -3.169599
     9  O   -3.200310
    10  N    5.085008
    11  O   -2.937994
    12  O   -3.000368
    13  F   -1.206108
 Sum of Mulliken charges =  -1.00000

 Dipole moment (field-independent basis, Debye):
    X=              0.2162    Y=              4.4616    Z=              1.5382  Tot=              4.7242

 Test job not archived.
 1\1\GINC-SE402\SP\RHF\Aug-CC-pVDZ\C2H3F2N2O4(1-)\OHZDE\09-Apr-2025\0\\
 #t hf aug-cc-pvdz iop(5/13=1,5/36=2,99/5=2) pseudo=read geom=check gue
 ss=(read,tcheck) scf=(maxcycle=1)\\title\\-1,1\C,0,-0.042192,-0.010516
 ,-0.003372\C,0,-0.475953,0.420187,-1.377325\F,0,1.364839,-0.074901,0.0
 40728\H,0,0.396595,0.682907,-1.98666\H,0,-0.451088,-0.951004,0.321965\
 H,0,-1.195974,1.22148,-1.323641\N,0,-0.368461,1.010329,1.034795\O,0,-0
 .405766,0.61323,2.194103\O,0,-0.403544,2.190649,0.691705\N,0,-1.142602
 ,-0.691311,-2.105469\O,0,-1.932455,-0.372459,-2.988284\O,0,-0.78198,-1

 Normal termination of Gaussian 16 at Wed Apr  9 02:42:15 2025.
