 Gaussian 16, Revision C.01,

 ----------------------------------------------------------------------
 #t hf aug-cc-pvdz symm=none int=(grid=ultrafine) guess=(read,tcheck) s
 table=(opt,rrhf)
 ----------------------------------------------------------------------
 -----
 title
 -----
 Symbolic Z-matrix:
 Charge = -1 Multiplicity = 1

 SCF Done:  E(RHF) =  -571.087411709     A.U. after   16 cycles
 Normal termination of Gaussian 16 at Wed Apr  9 02:52:29 2025.
 Gaussian 16:  ES64L-G16RevC.01  3-Jul-2019

 ----------------------------------------------------------------------
 #t hf aug-cc-pvdz iop(5/13=1,5/36=2,99/5=2) pseudo=read geom=check gue
 ss=(read,tcheck) scf=(maxcycle=1)
 ----------------------------------------------------------------------
 -----
 title
 -----
 Structure from the checkpoint file:  "E2SN2_312_mol1.chk"
 Charge = -1 Multiplicity = 1

                         Standard orientation:
 ---------------------------------------------------------------------
 Center     Atomic      Atomic             Coordinates (Angstroms)
 Number     Number       Type             X           Y           Z
 ---------------------------------------------------------------------
      1          6           0       -0.435317   -0.343066    0.082333
      2          1           0        0.645479   -0.068143   -1.725324
      3          9           0        0.099357    0.469303    1.555423
      4          9           0       -1.121365   -1.101448   -1.432519
      5          6           0        0.705687    0.304251   -0.704197
      6          6           0       -1.716997    0.354778    0.175695
      7          7           0       -2.767094    0.859907    0.326985
      8          7           0       -0.235208   -1.640360    0.646664
      9          1           0       -0.913162   -2.255002    0.221844
     10          1           0       -0.349791   -1.564688    1.646889
     11          6           0        2.002881   -0.128158   -0.137661
     12          7           0        3.103003   -0.367244    0.198685
     13          7           0        0.551305    1.752650   -0.713312
     14          1           0        1.324268    2.171320   -1.216485
     15          1           0        0.589713    2.044315    0.256784
 ---------------------------------------------------------------------

 SCF Done:  E(RHF) =  -573.480123985     A.U. after    2 cycles

 The electronic state is 1-A.
 Alpha  occ. eigenvalues --  -29.00488 -28.97833 -15.63025 -15.62345 -15.61764
 Alpha  occ. eigenvalues --  -15.61657 -11.51318 -11.36442 -11.31451 -11.29653
 Alpha  occ. eigenvalues --   -1.32345  -1.22475  -1.15057  -1.14601  -0.97403
 Alpha  occ. eigenvalues --   -0.85667  -0.69128  -0.60698  -0.59171  -0.56831
 Alpha  occ. eigenvalues --   -0.46546  -0.44135  -0.42745  -0.40341  -0.39612
 Alpha  occ. eigenvalues --   -0.36892  -0.32292  -0.30584  -0.28852  -0.28018
 Alpha  occ. eigenvalues --   -0.26233  -0.24436  -0.15491  -0.07316  -0.06567
 Alpha  occ. eigenvalues --   -0.04634  -0.04213   0.00634
 Alpha virt. eigenvalues --    0.13395   0.14938   0.15267   0.16797   0.17503
 Alpha virt. eigenvalues --    0.19222   0.19834   0.21473   0.22638   0.23840
 Alpha virt. eigenvalues --    0.24393   0.24884   0.25332   0.27154   0.27579

 Mulliken charges:
               1
     1  C    5.367095
     2  H    1.623334
     3  F   -0.350696
     4  F   -0.608138
     5  C   -2.283093
     6  C    2.275869
     7  N   -3.155734
     8  N   -4.008790
     9  H    0.444048
    10  H    0.481820
    11  C    3.901393
    12  N   -3.034663
    13  N   -2.876766
    14  H    0.642103
    15  H    0.582219
 Sum of Mulliken charges =  -1.00000

 Dipole moment (field-independent basis, Debye):
    X=              1.8077    Y=              0.1893    Z=              0.1855  Tot=              1.8270

 Test job not archived.
 1\1\GINC-SE177\SP\RHF\Aug-CC-pVDZ\C4H5F2N4(1-)\OHZDE\09-Apr-2025\0\\#t
  hf aug-cc-pvdz iop(5/13=1,5/36=2,99/5=2) pseudo=read geom=check guess
 =(read,tcheck) scf=(maxcycle=1)\\title\\-1,1\C,0,0.66843631,-0.0396051
 4,0.0141352\H,0,1.73456312,1.79641262,0.07527794\F,0,-1.09658215,-0.02
 799759,-0.00558992\F,0,2.49043444,-0.11953676,-0.1063467\C,0,0.6912193
 1,1.48973046,0.02648131\C,0,0.6673468,-0.73809267,-1.27059102\N,0,0.63
 350448,-1.37708954,-2.25612827\N,0,0.71540536,-0.74038653,1.2583954\H,
 0,1.55463398,-1.30030661,1.25049348\H,0,-0.12399728,-1.29635594,1.3332

 Normal termination of Gaussian 16 at Wed Apr  9 02:52:36 2025.
