 Gaussian 16, Revision C.01,

 ----------------------------------------------------------------------
 #t hf aug-cc-pvdz symm=none int=(grid=ultrafine) guess=(read,tcheck) s
 table=(opt,rrhf)
 ----------------------------------------------------------------------
 -----
 title
 -----
 Symbolic Z-matrix:
 Charge = -1 Multiplicity = 1

 SCF Done:  E(RHF) =  -839.446873542     A.U. after   15 cycles
 Normal termination of Gaussian 16 at Wed Apr  9 02:56:11 2025.
 Gaussian 16:  ES64L-G16RevC.01  3-Jul-2019

 ----------------------------------------------------------------------
 #t hf aug-cc-pvdz iop(5/13=1,5/36=2,99/5=2) pseudo=read geom=check gue
 ss=(read,tcheck) scf=(maxcycle=1)
 ----------------------------------------------------------------------
 -----
 title
 -----
 Structure from the checkpoint file:  "E2SN2_370_mol1.chk"
 Charge = -1 Multiplicity = 1

                         Standard orientation:
 ---------------------------------------------------------------------
 Center     Atomic      Atomic             Coordinates (Angstroms)
 Number     Number       Type             X           Y           Z
 ---------------------------------------------------------------------
      1          6           0       -0.676365   -0.475734   -0.309773
      2          1           0       -1.166276    1.264804    0.536323
      3         17           0        1.483374   -1.438428   -0.461054
      4          9           0       -2.466814    0.689656   -0.809470
      5          6           0       -0.221119    0.707387    0.498909
      6          1           0       -0.718581   -0.407069   -1.377442
      7          7           0       -1.416367   -1.392743    0.322933
      8          1           0       -2.266377   -1.568094   -0.187955
      9          1           0       -1.542255   -1.181012    1.301790
     10          6           0        0.761632    1.555861   -0.190930
     11          7           0        1.530626    2.331006   -0.624249
     12          7           0        0.183857    0.284738    1.833043
     13          1           0        0.362644    1.100288    2.404956
     14          1           0        1.043103   -0.248649    1.734155
 ---------------------------------------------------------------------

 SCF Done:  E(RHF) =  -841.353208783     A.U. after    2 cycles

 The electronic state is 1-A.
 Alpha  occ. eigenvalues --  -99.65347 -28.91830 -15.64644 -15.63635 -15.63555
 Alpha  occ. eigenvalues --  -11.41677 -11.35306 -11.30153 -10.22298  -9.42354
 Alpha  occ. eigenvalues --   -9.41908  -9.41829  -1.32766  -1.21949  -1.15344
 Alpha  occ. eigenvalues --   -1.03072  -0.95527  -0.76796  -0.65700  -0.60693
 Alpha  occ. eigenvalues --   -0.53306  -0.52226  -0.47290  -0.42044  -0.40807
 Alpha  occ. eigenvalues --   -0.38742  -0.32680  -0.31373  -0.29586  -0.29333
 Alpha  occ. eigenvalues --   -0.28673  -0.26483  -0.24529  -0.01607  -0.00545
 Alpha  occ. eigenvalues --    0.00423
 Alpha virt. eigenvalues --    0.12965   0.14280   0.15921   0.16248   0.17458
 Alpha virt. eigenvalues --    0.17764   0.19877   0.21881   0.23310   0.23669
 Alpha virt. eigenvalues --    0.24135   0.25100   0.26709   0.27655   0.28378

 Mulliken charges:
               1
     1  C    1.658483
     2  H    1.079273
     3  Cl  -0.746212
     4  F   -0.833196
     5  C    0.616527
     6  H    1.542413
     7  N   -3.751547
     8  H    0.584877
     9  H    0.645638
    10  C    2.774654
    11  N   -2.759204
    12  N   -2.991667
    13  H    0.677781
    14  H    0.502180
 Sum of Mulliken charges =  -1.00000

 Dipole moment (field-independent basis, Debye):
    X=             -2.7599    Y=              0.4409    Z=              4.0202  Tot=              4.8963

 Test job not archived.
 1\1\GINC-SE424\SP\RHF\Aug-CC-pVDZ\C3H6Cl1F1N3(1-)\OHZDE\09-Apr-2025\0\
 \#t hf aug-cc-pvdz iop(5/13=1,5/36=2,99/5=2) pseudo=read geom=check gu
 ess=(read,tcheck) scf=(maxcycle=1)\\title\\-1,1\C,0,0.32566043,-0.1481
 7034,-0.06018487\H,0,1.70119625,1.29810216,-0.02070339\Cl,0,-2.0211310
 1,0.09936019,0.15297887\F,0,2.43472183,-0.45167878,0.46257654\C,0,0.60
 370884,1.32898419,-0.01903105\H,0,0.3457912,-0.71969703,0.84500351\N,0
 ,0.49964103,-0.76436013,-1.23443633\H,0,1.10288526,-1.56311106,-1.1232
 4239\H,0,0.76576892,-0.12726987,-1.97073058\C,0,0.18494946,1.97774954,

 Normal termination of Gaussian 16 at Wed Apr  9 02:56:16 2025.
