 Gaussian 16, Revision C.01,

 ----------------------------------------------------------------------
 #t hf aug-cc-pvdz symm=none int=(grid=ultrafine) guess=(read,tcheck) s
 table=(opt,rrhf)
 ----------------------------------------------------------------------
 -----
 title
 -----
 Symbolic Z-matrix:
 Charge = -1 Multiplicity = 1

 SCF Done:  E(RHF) =  -380.438507888     A.U. after   15 cycles
 Normal termination of Gaussian 16 at Wed Apr  9 02:50:48 2025.
 Gaussian 16:  ES64L-G16RevC.01  3-Jul-2019

 ----------------------------------------------------------------------
 #t hf aug-cc-pvdz iop(5/13=1,5/36=2,99/5=2) pseudo=read geom=check gue
 ss=(read,tcheck) scf=(maxcycle=1)
 ----------------------------------------------------------------------
 -----
 title
 -----
 Structure from the checkpoint file:  "E2SN2_300_mol2.chk"
 Charge = -1 Multiplicity = 1

                         Standard orientation:
 ---------------------------------------------------------------------
 Center     Atomic      Atomic             Coordinates (Angstroms)
 Number     Number       Type             X           Y           Z
 ---------------------------------------------------------------------
      1          6           0        0.157973    0.072169    0.207210
      2          6           0       -0.819239   -0.537789   -0.804219
      3          9           0        0.157171   -0.819530    1.343919
      4          1           0       -0.695129   -0.002102   -1.749927
      5          1           0       -0.526572   -1.584300   -0.947153
      6          6           0        1.553170   -0.031937   -0.291963
      7          7           0        2.649117   -0.083763   -0.713999
      8          7           0       -0.210330    1.357943    0.582097
      9          1           0       -0.928243    1.824208   -0.054568
     10          1           0        0.559926    1.964861    0.818781
     11          7           0       -2.211700   -0.434954   -0.414815
     12          1           0       -2.474899    0.546401   -0.568133
     13          1           0       -2.280092   -0.618426    0.579979
     14          1           0       -2.010570    2.355887   -1.013398
 ---------------------------------------------------------------------

 SCF Done:  E(RHF) =  -382.118757188     A.U. after    2 cycles

 The electronic state is 1-A.
 Alpha  occ. eigenvalues --  -29.12202 -15.65818 -15.59165 -15.58461 -11.42013
 Alpha  occ. eigenvalues --  -11.33130 -11.28253  -1.31716  -1.17984  -1.15998
 Alpha  occ. eigenvalues --   -0.97428  -0.80160  -0.66671  -0.59840  -0.53801
 Alpha  occ. eigenvalues --   -0.51619  -0.44735  -0.41511  -0.39745  -0.38460
 Alpha  occ. eigenvalues --   -0.34340  -0.33348  -0.26722  -0.24041  -0.18971
 Alpha  occ. eigenvalues --   -0.14337  -0.12768  -0.10491
 Alpha virt. eigenvalues --    0.14282   0.15596   0.15678   0.16761   0.18398
 Alpha virt. eigenvalues --    0.19113   0.20621   0.21097   0.22279   0.23036
 Alpha virt. eigenvalues --    0.23835   0.24779   0.25490   0.26055   0.27174

 Mulliken charges:
               1
     1  C    2.581358
     2  C   -1.972165
     3  F    0.118410
     4  H    1.563296
     5  H    1.234932
     6  C    1.986924
     7  N   -2.552657
     8  N   -3.165450
     9  H    0.674247
    10  H    0.540224
    11  N   -2.291700
    12  H    0.697456
    13  H    0.581648
    14  H   -0.996523
 Sum of Mulliken charges =  -1.00000

 Dipole moment (field-independent basis, Debye):
    X=              4.4182    Y=             -7.5669    Z=              5.4575  Tot=             10.3229

 Test job not archived.
 1\1\GINC-SE040\SP\RHF\Aug-CC-pVDZ\C3H7F1N3(1-)\OHZDE\09-Apr-2025\0\\#t
  hf aug-cc-pvdz iop(5/13=1,5/36=2,99/5=2) pseudo=read geom=check guess
 =(read,tcheck) scf=(maxcycle=1)\\title\\-1,1\C,0,0.00379,0.072734,0.05
 245\C,0,-0.519209,0.332597,-1.364916\F,0,1.37787,-0.345071,-0.104317\H
 ,0,-1.485365,0.837678,-1.274564\H,0,0.191384,1.008924,-1.853699\C,0,0.
 13123,1.349763,0.800476\N,0,0.190671,2.361453,1.396169\N,0,-0.738976,-
 0.895515,0.715923\H,0,-1.68531,-1.116823,0.275901\H,0,-0.787373,-0.777
 297,1.716595\N,0,-0.718114,-0.869676,-2.149857\H,0,-1.572713,-1.306786

 Normal termination of Gaussian 16 at Wed Apr  9 02:50:53 2025.
