 Gaussian 16, Revision C.01,

 ----------------------------------------------------------------------
 #t hf aug-cc-pvdz symm=none int=(grid=ultrafine) guess=(read,tcheck) s
 table=(opt,rrhf)
 ----------------------------------------------------------------------
 -----
 title
 -----
 Symbolic Z-matrix:
 Charge =  0 Multiplicity = 1

 SCF Done:  E(RHF) =  -328.718681906     A.U. after   14 cycles
 Normal termination of Gaussian 16 at Wed Apr  9 03:02:08 2025.
 Gaussian 16:  ES64L-G16RevC.01  3-Jul-2019

 ----------------------------------------------------------------------
 #t hf aug-cc-pvdz iop(5/13=1,5/36=2,99/5=2) pseudo=read geom=check gue
 ss=(read,tcheck) scf=(maxcycle=1)
 ----------------------------------------------------------------------
 -----
 title
 -----
 Structure from the checkpoint file:  "EIE22_6_mol1.chk"
 Charge =  0 Multiplicity = 1

                         Standard orientation:
 ---------------------------------------------------------------------
 Center     Atomic      Atomic             Coordinates (Angstroms)
 Number     Number       Type             X           Y           Z
 ---------------------------------------------------------------------
      1          6           0        1.000347    0.144783   -0.012972
      2          8           0        1.143109    1.311222   -0.129149
      3          6           0       -0.241450   -0.644418    0.289299
      4          1           0       -0.058041   -1.140325    1.249240
      5          6           0       -1.479788    0.195204    0.341685
      6          1           0       -0.324154   -1.444709   -0.447810
      7          6           0       -2.586990   -0.082155   -0.330066
      8          1           0       -2.656689   -0.943558   -0.983216
      9          1           0       -3.464790    0.543700   -0.251631
     10          1           0       -1.433945    1.070881    0.977850
     11          9           0        2.071115   -0.695139   -0.137657
 ---------------------------------------------------------------------

 SCF Done:  E(RHF) =  -330.096573062     A.U. after    2 cycles

 The electronic state is 1-A.
 Alpha  occ. eigenvalues --  -29.29938 -21.09035 -11.56717 -11.45195 -11.42295
 Alpha  occ. eigenvalues --  -11.38931  -1.76722  -1.26090  -1.10861  -0.95732
 Alpha  occ. eigenvalues --   -0.80965  -0.71659  -0.67436  -0.62862  -0.57270
 Alpha  occ. eigenvalues --   -0.56455  -0.50484  -0.49722  -0.43169  -0.37687
 Alpha  occ. eigenvalues --   -0.30272  -0.29737  -0.27510
 Alpha virt. eigenvalues --    0.03435   0.05252   0.05570   0.05995   0.06992
 Alpha virt. eigenvalues --    0.09513   0.10759   0.10972   0.12281   0.12337
 Alpha virt. eigenvalues --    0.13000   0.14614   0.14883   0.16367   0.16942

 Mulliken charges:
               1
     1  C    2.636297
     2  O   -2.953669
     3  C   -4.539032
     4  H    1.451148
     5  C    0.092755
     6  H    1.478892
     7  C   -3.083551
     8  H    1.422191
     9  H    1.349995
    10  H    1.422408
    11  F    0.722566
 Sum of Mulliken charges =  -0.00000

 Dipole moment (field-independent basis, Debye):
    X=              0.6913    Y=             -2.7634    Z=              0.1341  Tot=              2.8517

 Test job not archived.
 1\1\GINC-SE208\SP\RHF\Aug-CC-pVDZ\C4H5F1O1\OHZDE\09-Apr-2025\0\\#t hf
 aug-cc-pvdz iop(5/13=1,5/36=2,99/5=2) pseudo=read geom=check guess=(re
 ad,tcheck) scf=(maxcycle=1)\\title\\0,1\C,0,1.000347,0.144783,-0.01297
 2\O,0,1.143109,1.311222,-0.129149\C,0,-0.24145,-0.644418,0.289299\H,0,
 -0.058041,-1.140325,1.24924\C,0,-1.479788,0.195204,0.341685\H,0,-0.324
 154,-1.444709,-0.44781\C,0,-2.58699,-0.082156,-0.330066\H,0,-2.656689,
 -0.943559,-0.983216\H,0,-3.46479,0.543699,-0.251631\H,0,-1.433945,1.07
 0881,0.97785\F,0,2.071115,-0.695139,-0.137657\\Version=ES64L-G16RevC.0

 Normal termination of Gaussian 16 at Wed Apr  9 03:02:11 2025.
