 Gaussian 16, Revision C.01,

 ----------------------------------------------------------------------
 #t hf aug-cc-pvdz symm=none int=(grid=ultrafine) guess=(read,tcheck) s
 table=(opt,rrhf)
 ----------------------------------------------------------------------
 -----
 title
 -----
 Symbolic Z-matrix:
 Charge =  0 Multiplicity = 1

 SCF Done:  E(RHF) =  -328.725957684     A.U. after   15 cycles
 Normal termination of Gaussian 16 at Wed Apr  9 03:02:10 2025.
 Gaussian 16:  ES64L-G16RevC.01  3-Jul-2019

 ----------------------------------------------------------------------
 #t hf aug-cc-pvdz iop(5/13=1,5/36=2,99/5=2) pseudo=read geom=check gue
 ss=(read,tcheck) scf=(maxcycle=1)
 ----------------------------------------------------------------------
 -----
 title
 -----
 Structure from the checkpoint file:  "EIE22_6_mol2.chk"
 Charge =  0 Multiplicity = 1

                         Standard orientation:
 ---------------------------------------------------------------------
 Center     Atomic      Atomic             Coordinates (Angstroms)
 Number     Number       Type             X           Y           Z
 ---------------------------------------------------------------------
      1          6           0       -1.130504   -0.317366    0.000000
      2          8           0       -2.286709   -0.046748    0.000000
      3          6           0        0.000000    0.607358    0.000000
      4          1           0       -0.284388    1.651062    0.000000
      5          6           0        1.278466    0.227558    0.000000
      6          6           0        2.437241    1.160511    0.000000
      7          1           0        3.067735    0.983049    0.874754
      8          1           0        3.067735    0.983049   -0.874754
      9          1           0        1.502013   -0.832660    0.000000
     10          1           0        2.124408    2.203147    0.000000
     11          9           0       -0.743895   -1.631337    0.000000
 ---------------------------------------------------------------------

 SCF Done:  E(RHF) =  -330.102562811     A.U. after    2 cycles

 The electronic state is 1-A'.
 Alpha  occ. eigenvalues --  -29.29051 -21.07668 -11.55812 -11.47293 -11.42363
 Alpha  occ. eigenvalues --  -11.40354  -1.75339  -1.26796  -1.10089  -0.96021
 Alpha  occ. eigenvalues --   -0.85485  -0.71030  -0.61992  -0.60027  -0.58739
 Alpha  occ. eigenvalues --   -0.56295  -0.53736  -0.52384  -0.41991  -0.36753
 Alpha  occ. eigenvalues --   -0.30577  -0.28971  -0.26464
 Alpha virt. eigenvalues --    0.02827   0.05384   0.05609   0.05699   0.06948
 Alpha virt. eigenvalues --    0.08301   0.10418   0.10731   0.12441   0.12484
 Alpha virt. eigenvalues --    0.13107   0.13639   0.14486   0.15790   0.16731

 Mulliken charges:
               1
     1  C    1.915765
     2  O   -3.168463
     3  C   -1.733449
     4  H    1.389579
     5  C    0.404482
     6  C   -4.492325
     7  H    1.099327
     8  H    1.099327
     9  H    1.483506
    10  H    1.242584
    11  F    0.759666
 Sum of Mulliken charges =   0.00000

 Dipole moment (field-independent basis, Debye):
    X=              3.8596    Y=             -1.6360    Z=             -0.0000  Tot=              4.1920

 Test job not archived.
 1\1\GINC-SE132\SP\RHF\Aug-CC-pVDZ\C4H5F1O1\OHZDE\09-Apr-2025\0\\#t hf
 aug-cc-pvdz iop(5/13=1,5/36=2,99/5=2) pseudo=read geom=check guess=(re
 ad,tcheck) scf=(maxcycle=1)\\title\\0,1\C,0,-1.130504,-0.317366,0.\O,0
 ,-2.286709,-0.046747,0.\C,0,0.,0.607358,0.\H,0,-0.284388,1.651062,0.\C
 ,0,1.278466,0.227558,0.\C,0,2.437241,1.160511,0.\H,0,3.067735,0.983048
 ,0.874754\H,0,3.067735,0.983048,-0.874754\H,0,1.502013,-0.83266,0.\H,0
 ,2.124408,2.203147,0.\F,0,-0.743895,-1.631337,0.\\Version=ES64L-G16Rev
 C.01\State=1-A'\HF=-330.1025628\RMSD=1.209e+00\Dipole=1.5184648,-0.643

 Normal termination of Gaussian 16 at Wed Apr  9 03:02:14 2025.
