 Gaussian 16, Revision C.01,

 ----------------------------------------------------------------------
 #t hf aug-cc-pvdz symm=none int=(grid=ultrafine) guess=(read,tcheck) s
 table=(opt,rrhf)
 ----------------------------------------------------------------------
 -----
 title
 -----
 Symbolic Z-matrix:
 Charge =  0 Multiplicity = 1

 SCF Done:  E(RHF) =  -369.786022094     A.U. after   14 cycles
 Normal termination of Gaussian 16 at Wed Apr  9 03:03:14 2025.
 Gaussian 16:  ES64L-G16RevC.01  3-Jul-2019

 ----------------------------------------------------------------------
 #t hf aug-cc-pvdz iop(5/13=1,5/36=2,99/5=2) pseudo=read geom=check gue
 ss=(read,tcheck) scf=(maxcycle=1)
 ----------------------------------------------------------------------
 -----
 title
 -----
 Structure from the checkpoint file:  "F-set_c6h6_ch3f_100_dimer_mol1.chk"
 Charge =  0 Multiplicity = 1

                         Standard orientation:
 ---------------------------------------------------------------------
 Center     Atomic      Atomic             Coordinates (Angstroms)
 Number     Number       Type             X           Y           Z
 ---------------------------------------------------------------------
      1          6           0        1.280771   -0.672240   -1.201600
      2          6           0        1.120480    0.705310   -1.199560
      3          6           0        1.357842   -1.363060   -0.001320
      4          1           0        1.344992   -1.207830   -2.138760
      5          6           0        1.037239    1.392129    0.002650
      6          1           0        1.060839    1.244039   -2.135390
      7          6           0        1.274781   -0.676400    1.200950
      8          1           0        1.482133   -2.437220   -0.002860
      9          6           0        1.114510    0.701150    1.202870
     10          1           0        0.914008    2.466639    0.004210
     11          1           0        1.334322   -1.215200    2.136580
     12          1           0        1.050279    1.236689    2.140250
     13          6           0       -2.235760    0.261266    0.000770
     14          1           0       -2.162100    0.871996    0.899780
     15          1           0       -1.437319   -0.479023   -0.009560
     16          1           0       -2.165790    0.892976   -0.883920
     17          9           0       -3.457839   -0.384665   -0.004320
 ---------------------------------------------------------------------

 SCF Done:  E(RHF) =  -371.466964960     A.U. after    2 cycles

 The electronic state is 1-A.
 Alpha  occ. eigenvalues --  -29.23868 -11.52493 -11.43054 -11.43030 -11.41664
 Alpha  occ. eigenvalues --  -11.40714 -11.40625 -11.36554  -1.34885  -1.13183
 Alpha  occ. eigenvalues --   -1.09878  -1.09876  -0.86524  -0.86520  -0.73090
 Alpha  occ. eigenvalues --   -0.66093  -0.64921  -0.61282  -0.61266  -0.58933
 Alpha  occ. eigenvalues --   -0.58932  -0.56675  -0.51060  -0.45314  -0.45309
 Alpha  occ. eigenvalues --   -0.36097  -0.33906  -0.33713  -0.23494  -0.23440
 Alpha virt. eigenvalues --    0.03199   0.04496   0.04501   0.05868   0.05876
 Alpha virt. eigenvalues --    0.06462   0.07049   0.07143   0.08815   0.10517
 Alpha virt. eigenvalues --    0.10704   0.11588   0.13589   0.13727   0.14118

 Mulliken charges:
               1
     1  C   -1.923773
     2  C   -1.457090
     3  C   -1.117412
     4  H    1.526109
     5  C   -1.673454
     6  H    1.562302
     7  C   -1.929605
     8  H    1.509500
     9  C   -1.452331
    10  H    1.604349
    11  H    1.526406
    12  H    1.563050
    13  C   -4.406590
    14  H    1.364685
    15  H    1.759350
    16  H    1.362592
    17  F    0.181913
 Sum of Mulliken charges =   0.00000

 Dipole moment (field-independent basis, Debye):
    X=             -0.2231    Y=             -0.4040    Z=             -0.0031  Tot=              0.4615

 Test job not archived.
 1\1\GINC-SE080\SP\RHF\Aug-CC-pVDZ\C7H9F1\OHZDE\09-Apr-2025\0\\#t hf au
 g-cc-pvdz iop(5/13=1,5/36=2,99/5=2) pseudo=read geom=check guess=(read
 ,tcheck) scf=(maxcycle=1)\\title\\0,1\C,0,1.28077,-0.67224,-1.2016\C,0
 ,1.12048,0.70531,-1.19956\C,0,1.35784,-1.36306,-0.00132\H,0,1.34499,-1
 .20783,-2.13876\C,0,1.03724,1.39213,0.00265\H,0,1.06084,1.24404,-2.135
 39\C,0,1.27478,-0.6764,1.20095\H,0,1.48213,-2.43722,-0.00286\C,0,1.114
 51,0.70115,1.20287\H,0,0.91401,2.46664,0.00421\H,0,1.33432,-1.2152,2.1
 3658\H,0,1.05028,1.23669,2.14025\C,0,-2.23576,0.26127,0.00077\H,0,-2.1

 Normal termination of Gaussian 16 at Wed Apr  9 03:03:21 2025.
