 Gaussian 16, Revision C.01,

 ----------------------------------------------------------------------
 #t hf aug-cc-pvdz symm=none int=(grid=ultrafine) guess=(read,tcheck) s
 table=(opt,rrhf)
 ----------------------------------------------------------------------
 -----
 title
 -----
 Symbolic Z-matrix:
 Charge =  0 Multiplicity = 1

 SCF Done:  E(RHF) =  -369.787280982     A.U. after   12 cycles
 Normal termination of Gaussian 16 at Wed Apr  9 03:03:08 2025.
 Gaussian 16:  ES64L-G16RevC.01  3-Jul-2019

 ----------------------------------------------------------------------
 #t hf aug-cc-pvdz iop(5/13=1,5/36=2,99/5=2) pseudo=read geom=check gue
 ss=(read,tcheck) scf=(maxcycle=1)
 ----------------------------------------------------------------------
 -----
 title
 -----
 Structure from the checkpoint file:  "F-set_c6h6_ch3f_125_dimer_mol1.chk"
 Charge =  0 Multiplicity = 1

                         Standard orientation:
 ---------------------------------------------------------------------
 Center     Atomic      Atomic             Coordinates (Angstroms)
 Number     Number       Type             X           Y           Z
 ---------------------------------------------------------------------
      1          6           0        1.549947   -0.670207   -1.202377
      2          6           0        1.374286    0.705465   -1.199037
      3          6           0        1.634850   -1.361242   -0.002749
      4          1           0        1.620046   -1.204173   -2.140042
      5          6           0        1.283507    1.390192    0.003821
      6          1           0        1.308537    1.244367   -2.134358
      7          6           0        1.544253   -0.676672    1.200168
      8          1           0        1.771126   -2.433945   -0.005303
      9          6           0        1.368612    0.699000    1.203389
     10          1           0        1.148287    2.463257    0.006395
     11          1           0        1.609902   -1.215646    2.135290
     12          1           0        1.298503    1.232915    2.141274
     13          6           0       -2.849578    0.267619    0.001294
     14          1           0       -2.782648    0.878295    0.900867
     15          1           0       -2.042923   -0.463700   -0.009801
     16          1           0       -2.786757    0.900895   -0.882813
     17          9           0       -4.064370   -0.391911   -0.004285
 ---------------------------------------------------------------------

 SCF Done:  E(RHF) =  -371.464288513     A.U. after    2 cycles

 The electronic state is 1-A.
 Alpha  occ. eigenvalues --  -29.24380 -11.52171 -11.42804 -11.42795 -11.42146
 Alpha  occ. eigenvalues --  -11.40360 -11.40306 -11.36341  -1.34654  -1.13701
 Alpha  occ. eigenvalues --   -1.09594  -1.09592  -0.86307  -0.86304  -0.72830
 Alpha  occ. eigenvalues --   -0.65908  -0.65363  -0.61744  -0.61634  -0.58738
 Alpha  occ. eigenvalues --   -0.58732  -0.56489  -0.50778  -0.45136  -0.45131
 Alpha  occ. eigenvalues --   -0.36465  -0.33520  -0.33501  -0.23980  -0.23940
 Alpha virt. eigenvalues --    0.03103   0.04547   0.04580   0.05793   0.05834
 Alpha virt. eigenvalues --    0.06216   0.06988   0.07144   0.08210   0.10878
 Alpha virt. eigenvalues --    0.10995   0.11728   0.13917   0.14014   0.14221

 Mulliken charges:
               1
     1  C   -1.599974
     2  C   -1.603065
     3  C   -1.387859
     4  H    1.534672
     5  C   -1.475723
     6  H    1.557118
     7  C   -1.603423
     8  H    1.518465
     9  C   -1.602790
    10  H    1.567777
    11  H    1.534844
    12  H    1.558501
    13  C   -4.195032
    14  H    1.330731
    15  H    1.308114
    16  H    1.330770
    17  F    0.226874
 Sum of Mulliken charges =   0.00000

 Dipole moment (field-independent basis, Debye):
    X=             -0.3038    Y=             -0.4176    Z=             -0.0036  Tot=              0.5164

 Test job not archived.
 1\1\GINC-SE071\SP\RHF\Aug-CC-pVDZ\C7H9F1\OHZDE\09-Apr-2025\0\\#t hf au
 g-cc-pvdz iop(5/13=1,5/36=2,99/5=2) pseudo=read geom=check guess=(read
 ,tcheck) scf=(maxcycle=1)\\title\\0,1\C,0,1.28077,-0.67224,-1.2016\C,0
 ,1.12048,0.70531,-1.19956\C,0,1.35784,-1.36306,-0.00132\H,0,1.34499,-1
 .20783,-2.13876\C,0,1.03724,1.39213,0.00265\H,0,1.06084,1.24404,-2.135
 39\C,0,1.27478,-0.6764,1.20095\H,0,1.48213,-2.43722,-0.00286\C,0,1.114
 51,0.70115,1.20287\H,0,0.91401,2.46664,0.00421\H,0,1.33432,-1.2152,2.1
 3658\H,0,1.05028,1.23669,2.14025\C,0,-3.10812112,0.31577329,0.00074042

 Normal termination of Gaussian 16 at Wed Apr  9 03:03:14 2025.
