 Gaussian 16, Revision C.01,

 ----------------------------------------------------------------------
 #t hf aug-cc-pvdz symm=none int=(grid=ultrafine) guess=(read,tcheck) s
 table=(opt,rrhf)
 ----------------------------------------------------------------------
 -----
 title
 -----
 Symbolic Z-matrix:
 Charge =  0 Multiplicity = 1

 SCF Done:  E(RHF) =  -176.865306934     A.U. after   11 cycles
 Normal termination of Gaussian 16 at Wed Apr  9 03:02:14 2025.
 Gaussian 16:  ES64L-G16RevC.01  3-Jul-2019

 ----------------------------------------------------------------------
 #t hf aug-cc-pvdz iop(5/13=1,5/36=2,99/5=2) pseudo=read geom=check gue
 ss=(read,tcheck) scf=(maxcycle=1)
 ----------------------------------------------------------------------
 -----
 title
 -----
 Structure from the checkpoint file:  "F-set_c2h2_hf_095_dimer_mol1.chk"
 Charge =  0 Multiplicity = 1

                         Standard orientation:
 ---------------------------------------------------------------------
 Center     Atomic      Atomic             Coordinates (Angstroms)
 Number     Number       Type             X           Y           Z
 ---------------------------------------------------------------------
      1          6           0        0.601052   -1.181969    0.000000
      2          6           0       -0.594048   -1.183571    0.000000
      3          1           0        1.664963   -1.187275    0.000000
      4          1           0       -1.657986   -1.191164    0.000000
      5          9           0       -0.005445    1.749768    0.000000
      6          1           0        0.000000    0.823769    0.000000
 ---------------------------------------------------------------------

 SCF Done:  E(RHF) =  -177.590541232     A.U. after    2 cycles

 The electronic state is 1-A'.
 Alpha  occ. eigenvalues --  -29.26696 -11.44351 -11.44126  -1.14002  -0.82808
 Alpha  occ. eigenvalues --   -0.81676  -0.68834  -0.43511  -0.42345  -0.35620
 Alpha  occ. eigenvalues --   -0.27411  -0.27098
 Alpha virt. eigenvalues --    0.03220   0.04348   0.09537   0.10279   0.11480
 Alpha virt. eigenvalues --    0.11905   0.13408   0.13419   0.14830   0.15297
 Alpha virt. eigenvalues --    0.21128   0.23175   0.24858   0.26564   0.28124

 Mulliken charges:
               1
     1  C   -0.797452
     2  C   -0.796656
     3  H    0.544101
     4  H    0.544549
     5  F    1.396120
     6  H   -0.890662
 Sum of Mulliken charges =  -0.00000

 Dipole moment (field-independent basis, Debye):
    X=             -0.0007    Y=             -0.4906    Z=              0.0000  Tot=              0.4906

 Test job not archived.
 1\1\GINC-SE024\SP\RHF\Aug-CC-pVDZ\C2H3F1\OHZDE\09-Apr-2025\0\\#t hf au
 g-cc-pvdz iop(5/13=1,5/36=2,99/5=2) pseudo=read geom=check guess=(read
 ,tcheck) scf=(maxcycle=1)\\title\\0,1\C,0,0.60093,-1.23632,0.\C,0,-0.5
 9417,-1.23767,0.\H,0,1.66484,-1.24185,0.\H,0,-1.65811,-1.24504,0.\F,0,
 -0.00495012,1.6955445,0.\H,0,0.00029988,0.7695445,0.\\Version=ES64L-G1
 6RevC.01\State=1-A'\HF=-177.5905412\RMSD=9.261e-01\Dipole=-0.0003319,-
 0.1930298,0.\Quadrupole=3.3491278,-1.0118715,-2.3372563,-0.0002855,0.,
 0.\PG=CS [SG(C2H3F1)]\\@

 Normal termination of Gaussian 16 at Wed Apr  9 03:02:15 2025.
