 Gaussian 16, Revision C.01,

 ----------------------------------------------------------------------
 #t hf aug-cc-pvdz symm=none int=(grid=ultrafine) guess=(read,tcheck) s
 table=(opt,rrhf)
 ----------------------------------------------------------------------
 -----
 title
 -----
 Symbolic Z-matrix:
 Charge =  0 Multiplicity = 1

 SCF Done:  E(RHF) =  -1048.91524780     A.U. after   13 cycles
 Normal termination of Gaussian 16 at Wed Apr  9 03:04:34 2025.
 Gaussian 16:  ES64L-G16RevC.01  3-Jul-2019

 ----------------------------------------------------------------------
 #t hf aug-cc-pvdz iop(5/13=1,5/36=2,99/5=2) pseudo=read geom=check gue
 ss=(read,tcheck) scf=(maxcycle=1)
 ----------------------------------------------------------------------
 -----
 title
 -----
 Structure from the checkpoint file:  "F-set_cf3co2h_cf3co2h_100_dimer_mol1.chk"
 Charge =  0 Multiplicity = 1

                         Standard orientation:
 ---------------------------------------------------------------------
 Center     Atomic      Atomic             Coordinates (Angstroms)
 Number     Number       Type             X           Y           Z
 ---------------------------------------------------------------------
      1          6           0       -0.000780    1.879560   -0.000009
      2          8           0        1.204570    1.401400    0.000121
      3          8           0       -1.035350    1.256970    0.000041
      4          6           0        0.000780    3.430960   -0.000049
      5          1           0        1.184610    0.408900    0.000091
      6          9           0        0.629830    3.884620    1.081531
      7          9           0        0.631840    3.884650   -1.080449
      8          9           0       -1.234540    3.897420   -0.001199
      9          6           0        0.000780   -1.879560   -0.000009
     10          8           0       -1.204570   -1.401400    0.000121
     11          8           0        1.035350   -1.256970    0.000041
     12          6           0       -0.000780   -3.430960   -0.000049
     13          1           0       -1.184610   -0.408900    0.000091
     14          9           0        1.234540   -3.897420   -0.001199
     15          9           0       -0.629830   -3.884620    1.081531
     16          9           0       -0.631840   -3.884650   -1.080449
 ---------------------------------------------------------------------

 SCF Done:  E(RHF) =  -1052.76202583     A.U. after    2 cycles

 The electronic state is 1-A.
 Alpha  occ. eigenvalues --  -29.34066 -29.34065 -29.34045 -29.34042 -29.33892
 Alpha  occ. eigenvalues --  -29.33892 -21.16163 -21.16132 -21.11690 -21.11687
 Alpha  occ. eigenvalues --  -11.64678 -11.64580 -11.57500 -11.57258  -1.90509
 Alpha  occ. eigenvalues --   -1.88457  -1.74445  -1.71898  -1.45362  -1.44997
 Alpha  occ. eigenvalues --   -0.99102  -0.96479  -0.92750  -0.92738  -0.92507
 Alpha  occ. eigenvalues --   -0.91824  -0.76159  -0.74655  -0.70883  -0.62938
 Alpha  occ. eigenvalues --   -0.61677  -0.60923  -0.59079  -0.51571  -0.50403
 Alpha  occ. eigenvalues --   -0.49372  -0.46899  -0.46626  -0.46287  -0.46050
 Alpha  occ. eigenvalues --   -0.42313  -0.40814  -0.40581  -0.39537  -0.38598
 Alpha  occ. eigenvalues --   -0.38097  -0.37961  -0.36827  -0.31967  -0.29134
 Alpha  occ. eigenvalues --   -0.28753  -0.28734  -0.27590  -0.27414  -0.23971
 Alpha  occ. eigenvalues --   -0.23955
 Alpha virt. eigenvalues --    0.05086   0.07760   0.08781   0.08928   0.09137
 Alpha virt. eigenvalues --    0.11049   0.11080   0.11557   0.12144   0.12372
 Alpha virt. eigenvalues --    0.12478   0.13901   0.16179   0.16501   0.16827

 Mulliken charges:
               1
     1  C    2.035666
     2  O   -3.189133
     3  O   -2.959217
     4  C    1.216985
     5  H    1.777803
     6  F    0.324970
     7  F    0.324697
     8  F    0.468228
     9  C    2.035666
    10  O   -3.189133
    11  O   -2.959217
    12  C    1.216985
    13  H    1.777803
    14  F    0.468228
    15  F    0.324970
    16  F    0.324697
 Sum of Mulliken charges =   0.00000

 Dipole moment (field-independent basis, Debye):
    X=              0.0000    Y=              0.0000    Z=              0.0003  Tot=              0.0003

 Test job not archived.
 1\1\GINC-SE044\SP\RHF\Aug-CC-pVDZ\C4H2F6O4\OHZDE\09-Apr-2025\0\\#t hf
 aug-cc-pvdz iop(5/13=1,5/36=2,99/5=2) pseudo=read geom=check guess=(re
 ad,tcheck) scf=(maxcycle=1)\\title\\0,1\C,0,-0.00078,1.87956,-0.00001\
 O,0,1.20457,1.4014,0.00012\O,0,-1.03535,1.25697,0.00004\C,0,0.00078,3.
 43096,-0.00005\H,0,1.18461,0.4089,0.00009\F,0,0.62983,3.88462,1.08153\
 F,0,0.63184,3.88465,-1.08045\F,0,-1.23454,3.89742,-0.0012\C,0,0.00078,
 -1.87956,-0.00001\O,0,-1.20457,-1.4014,0.00012\O,0,1.03535,-1.25697,0.
 00004\C,0,-0.00078,-3.43096,-0.00005\H,0,-1.18461,-0.4089,0.00009\F,0,

 Normal termination of Gaussian 16 at Wed Apr  9 03:05:10 2025.
