 Gaussian 16, Revision C.01,

 ----------------------------------------------------------------------
 #t hf aug-cc-pvdz symm=none int=(grid=ultrafine) guess=(read,tcheck) s
 table=(opt,rrhf)
 ----------------------------------------------------------------------
 -----
 title
 -----
 Symbolic Z-matrix:
 Charge =  0 Multiplicity = 1

 SCF Done:  E(RHF) =  -823.417213751     A.U. after   11 cycles
 Normal termination of Gaussian 16 at Wed Apr  9 03:03:55 2025.
 Gaussian 16:  ES64L-G16RevC.01  3-Jul-2019

 ----------------------------------------------------------------------
 #t hf aug-cc-pvdz iop(5/13=1,5/36=2,99/5=2) pseudo=read geom=check gue
 ss=(read,tcheck) scf=(maxcycle=1)
 ----------------------------------------------------------------------
 -----
 title
 -----
 Structure from the checkpoint file:  "F-set_cf3oh_cf3oh_100_dimer_mol1.chk"
 Charge =  0 Multiplicity = 1

                         Standard orientation:
 ---------------------------------------------------------------------
 Center     Atomic      Atomic             Coordinates (Angstroms)
 Number     Number       Type             X           Y           Z
 ---------------------------------------------------------------------
      1          6           0        2.138961    0.037501    0.004211
      2          8           0        1.559720    1.189171   -0.331979
      3          9           0        1.891621   -0.939319   -0.898629
      4          9           0        3.445461    0.208581    0.076311
      5          9           0        1.707491   -0.435589    1.183331
      6          1           0        0.611440    1.039780   -0.446139
      7          8           0       -1.026549    0.039430   -0.791779
      8          6           0       -2.125279    0.009420   -0.000579
      9          1           0       -0.847829   -0.833870   -1.150899
     10          9           0       -2.007939   -0.890730    0.974931
     11          9           0       -3.221289   -0.295901   -0.694009
     12          9           0       -2.272130    1.206710    0.531991
 ---------------------------------------------------------------------

 SCF Done:  E(RHF) =  -826.346660700     A.U. after    2 cycles

 The electronic state is 1-A.
 Alpha  occ. eigenvalues --  -29.34477 -29.34034 -29.33966 -29.32113 -29.31806
 Alpha  occ. eigenvalues --  -29.31549 -21.16986 -21.13097 -11.63444 -11.60983
 Alpha  occ. eigenvalues --   -1.89336  -1.85996  -1.36339  -1.33022  -0.96829
 Alpha  occ. eigenvalues --   -0.95054  -0.93992  -0.91976  -0.79910  -0.76581
 Alpha  occ. eigenvalues --   -0.60466  -0.53940  -0.50973  -0.49578  -0.48520
 Alpha  occ. eigenvalues --   -0.46798  -0.46422  -0.46299  -0.44530  -0.44042
 Alpha  occ. eigenvalues --   -0.39534  -0.38284  -0.35660  -0.34800  -0.33730
 Alpha  occ. eigenvalues --   -0.32224  -0.28725  -0.27241  -0.26355  -0.24839
 Alpha  occ. eigenvalues --   -0.24253  -0.22277
 Alpha virt. eigenvalues --    0.05073   0.07155   0.09964   0.10983   0.11453
 Alpha virt. eigenvalues --    0.12071   0.12614   0.13478   0.17367   0.17786
 Alpha virt. eigenvalues --    0.18150   0.19775   0.20310   0.21091   0.21821

 Mulliken charges:
               1
     1  C    0.245078
     2  O   -3.111559
     3  F    0.487495
     4  F    0.732860
     5  F    0.583742
     6  H    1.077544
     7  O   -2.718331
     8  C    0.273903
     9  H    0.685630
    10  F    0.591696
    11  F    0.617843
    12  F    0.534100
 Sum of Mulliken charges =  -0.00000

 Dipole moment (field-independent basis, Debye):
    X=             -1.9496    Y=             -2.3978    Z=              1.5047  Tot=              3.4372

 Test job not archived.
 1\1\GINC-SE015\SP\RHF\Aug-CC-pVDZ\C2H2F6O2\OHZDE\09-Apr-2025\0\\#t hf
 aug-cc-pvdz iop(5/13=1,5/36=2,99/5=2) pseudo=read geom=check guess=(re
 ad,tcheck) scf=(maxcycle=1)\\title\\0,1\C,0,2.13896,0.0375,0.00421\O,0
 ,1.55972,1.18917,-0.33198\F,0,1.89162,-0.93932,-0.89863\F,0,3.44546,0.
 20858,0.07631\F,0,1.70749,-0.43559,1.18333\H,0,0.61144,1.03978,-0.4461
 4\O,0,-1.02655,0.03943,-0.79178\C,0,-2.12528,0.00942,-0.00058\H,0,-0.8
 4783,-0.83387,-1.1509\F,0,-2.00794,-0.89073,0.97493\F,0,-3.22129,-0.29
 59,-0.69401\F,0,-2.27213,1.20671,0.53199\\Version=ES64L-G16RevC.01\Sta

 Normal termination of Gaussian 16 at Wed Apr  9 03:04:01 2025.
