 Gaussian 16, Revision C.01,

 ----------------------------------------------------------------------
 #t hf aug-cc-pvdz symm=none int=(grid=ultrafine) guess=(read,tcheck) s
 table=(opt,rrhf)
 ----------------------------------------------------------------------
 -----
 title
 -----
 Symbolic Z-matrix:
 Charge =  0 Multiplicity = 1

 SCF Done:  E(RHF) =  -278.113528038     A.U. after   10 cycles
 Normal termination of Gaussian 16 at Wed Apr  9 03:03:33 2025.
 Gaussian 16:  ES64L-G16RevC.01  3-Jul-2019

 ----------------------------------------------------------------------
 #t hf aug-cc-pvdz iop(5/13=1,5/36=2,99/5=2) pseudo=read geom=check gue
 ss=(read,tcheck) scf=(maxcycle=1)
 ----------------------------------------------------------------------
 -----
 title
 -----
 Structure from the checkpoint file:  "F-set_ch3f_ch3f_090_dimer_mol1.chk"
 Charge =  0 Multiplicity = 1

                         Standard orientation:
 ---------------------------------------------------------------------
 Center     Atomic      Atomic             Coordinates (Angstroms)
 Number     Number       Type             X           Y           Z
 ---------------------------------------------------------------------
      1          6           0       -1.500557    0.916784    0.000000
      2          1           0       -0.469517    1.267012    0.000000
      3          1           0       -2.016077    1.267013    0.892907
      4          1           0       -2.016077    1.267013   -0.892907
      5          9           0       -1.500557   -0.466216    0.000000
      6          6           0        1.500557   -0.916784    0.000000
      7          1           0        0.469517   -1.267012    0.000000
      8          9           0        1.500557    0.466216    0.000000
      9          1           0        2.016077   -1.267013   -0.892907
     10          1           0        2.016077   -1.267013    0.892907
 ---------------------------------------------------------------------

 SCF Done:  E(RHF) =  -279.207991453     A.U. after    2 cycles

 The electronic state is 1-AG.
 Alpha  occ. eigenvalues --  -29.24909 -29.24904 -11.41945 -11.41944  -1.14711
 Alpha  occ. eigenvalues --   -1.13517  -0.67252  -0.66255  -0.63459  -0.62166
 Alpha  occ. eigenvalues --   -0.61901  -0.59433  -0.38511  -0.36277  -0.26672
 Alpha  occ. eigenvalues --   -0.25064  -0.24592  -0.22659
 Alpha virt. eigenvalues --    0.04536   0.04672   0.05968   0.06244   0.07896
 Alpha virt. eigenvalues --    0.08303   0.12699   0.14299   0.15128   0.15495
 Alpha virt. eigenvalues --    0.16151   0.17774   0.17870   0.20048   0.24390

 Mulliken charges:
               1
     1  C   -4.124887
     2  H    1.295680
     3  H    1.314051
     4  H    1.314051
     5  F    0.201105
     6  C   -4.124887
     7  H    1.295680
     8  F    0.201105
     9  H    1.314051
    10  H    1.314051
 Sum of Mulliken charges =  -0.00000

 Dipole moment (field-independent basis, Debye):
    X=              0.0000    Y=              0.0000    Z=              0.0000  Tot=              0.0000

 Test job not archived.
 1\1\GINC-SE042\SP\RHF\Aug-CC-pVDZ\C2H6F2\OHZDE\09-Apr-2025\0\\#t hf au
 g-cc-pvdz iop(5/13=1,5/36=2,99/5=2) pseudo=read geom=check guess=(read
 ,tcheck) scf=(maxcycle=1)\\title\\0,1\C,0,-1.667286,1.011264,0.\H,0,-0
 .636246,1.361492,0.\H,0,-2.182806,1.361493,0.892907\H,0,-2.182806,1.36
 1493,-0.892907\F,0,-1.667286,-0.371736,0.\C,0,1.3338288,-0.82230376,0.
 \H,0,0.3027888,-1.17253176,0.\F,0,1.3338288,0.56069624,0.\H,0,1.849348
 8,-1.17253276,-0.892907\H,0,1.8493488,-1.17253276,0.892907\\Version=ES
 64L-G16RevC.01\State=1-AG\HF=-279.2079915\RMSD=5.368e-02\Dipole=0.,0.,

 Normal termination of Gaussian 16 at Wed Apr  9 03:03:34 2025.
