 Gaussian 16, Revision C.01,

 ----------------------------------------------------------------------
 #t hf aug-cc-pvdz symm=none int=(grid=ultrafine) guess=(read,tcheck) s
 table=(opt,rrhf)
 ----------------------------------------------------------------------
 -----
 title
 -----
 Symbolic Z-matrix:
 Charge =  0 Multiplicity = 1

 SCF Done:  E(RHF) =  -1054.58947039     A.U. after   14 cycles

 1\1\GINC-SE164\Stability\RHF\Aug-CC-pVDZ\C12H6F6\OHZDE\09-Apr-2025\0\\
 #t hf aug-cc-pvdz symm=none int=(grid=ultrafine) guess=(read,tcheck) s
 table=(opt,rrhf)\\title\\0,1\C,0,-1.05492,1.38134,-0.46157\C,0,-0.2198
 5,0.74322,-1.36181\C,0,-1.8503,0.63831,0.39257\F,0,-1.07636,2.70339,-0
 .40254\C,0,-0.17808,-0.63935,-1.40641\F,0,0.545,1.45496,-2.17284\C,0,-
 1.80849,-0.74408,0.34809\F,0,-2.63364,1.24984,1.26796\C,0,-0.97186,-1.
 38232,-0.55041\F,0,0.62544,-1.25007,-2.26137\F,0,-2.5528,-1.4566,1.180
 18\F,0,-0.91673,-2.70456,-0.57861\C,0,1.30779,-0.57489,2.00283\H,0,0.6

 Normal termination of Gaussian 16 at Wed Apr  9 03:10:46 2025.
 Gaussian 16:  ES64L-G16RevC.01  3-Jul-2019

 ----------------------------------------------------------------------
 #t hf aug-cc-pvdz iop(5/13=1,5/36=2,99/5=2) pseudo=read geom=check gue
 ss=(read,tcheck) scf=(maxcycle=1)
 ----------------------------------------------------------------------
 -----
 title
 -----
 Structure from the checkpoint file:  "F-set_c6h6_c6f6_100_dimer_mol1.chk"
 Charge =  0 Multiplicity = 1

                         Standard orientation:
 ---------------------------------------------------------------------
 Center     Atomic      Atomic             Coordinates (Angstroms)
 Number     Number       Type             X           Y           Z
 ---------------------------------------------------------------------
      1          6           0       -1.054921   -1.381339    0.461569
      2          6           0       -0.219850   -0.743219    1.361809
      3          6           0       -1.850300   -0.638308   -0.392571
      4          9           0       -1.076362   -2.703389    0.402539
      5          6           0       -0.178079    0.639351    1.406409
      6          9           0        0.544999   -1.454960    2.172839
      7          6           0       -1.808489    0.744082   -0.348091
      8          9           0       -2.633641   -1.249838   -1.267961
      9          6           0       -0.971859    1.382321    0.550409
     10          9           0        0.625441    1.250070    2.261369
     11          9           0       -2.552799    1.456602   -1.180181
     12          9           0       -0.916728    2.704561    0.578609
     13          6           0        1.307791    0.574889   -2.002831
     14          1           0        0.644571    1.024600   -2.729621
     15          6           0        2.073071    1.379819   -1.171021
     16          6           0        1.392500   -0.805311   -1.902821
     17          1           0        2.004982    2.456819   -1.248121
     18          6           0        2.921761    0.803528   -0.238161
     19          6           0        2.241929   -1.381721   -0.969951
     20          1           0        0.795319   -1.432680   -2.550611
     21          1           0        3.514081    1.430168    0.414119
     22          6           0        3.005660   -0.577572   -0.137341
     23          1           0        2.304369   -2.458141   -0.888781
     24          1           0        3.663180   -1.027302    0.593579
 ---------------------------------------------------------------------

 SCF Done:  E(RHF) =  -1058.73457418     A.U. after    2 cycles

 The electronic state is 1-A.
 Alpha  occ. eigenvalues --  -29.33077 -29.32972 -29.32949 -29.32929 -29.32838
 Alpha  occ. eigenvalues --  -29.32780 -11.63218 -11.55175 -11.54859 -11.53179
 Alpha  occ. eigenvalues --  -11.52154 -11.52025 -11.46823 -11.43621 -11.43480
 Alpha  occ. eigenvalues --  -11.41022 -11.40974 -11.36631  -1.49684  -1.34671
 Alpha  occ. eigenvalues --   -1.30153  -1.30124  -1.10762  -1.10725  -1.09908
 Alpha  occ. eigenvalues --   -1.09882  -0.92703  -0.92699  -0.86636  -0.86625
 Alpha  occ. eigenvalues --   -0.78727  -0.77286  -0.77263  -0.73046  -0.69207
 Alpha  occ. eigenvalues --   -0.66316  -0.66061  -0.65963  -0.59047  -0.59015
 Alpha  occ. eigenvalues --   -0.57429  -0.57413  -0.56767  -0.50983  -0.45434
 Alpha  occ. eigenvalues --   -0.45429  -0.44895  -0.44882  -0.44753  -0.43471
 Alpha  occ. eigenvalues --   -0.42644  -0.42601  -0.40931  -0.40871  -0.37888
 Alpha  occ. eigenvalues --   -0.34197  -0.33558  -0.32259  -0.32252  -0.31290
 Alpha  occ. eigenvalues --   -0.31274  -0.30459  -0.28090  -0.27869  -0.19361
 Alpha  occ. eigenvalues --   -0.19319
 Alpha virt. eigenvalues --    0.04542   0.04982   0.04987   0.06120   0.06122
 Alpha virt. eigenvalues --    0.07508   0.08503   0.10443   0.10523   0.10580
 Alpha virt. eigenvalues --    0.10754   0.10915   0.11598   0.11742   0.12123

 Mulliken charges:
               1
     1  C   -1.299893
     2  C   -0.434512
     3  C   -0.857304
     4  F    0.992405
     5  C   -0.549273
     6  F    0.933554
     7  C   -1.069017
     8  F    1.038138
     9  C   -1.385586
    10  F    0.938749
    11  F    1.045277
    12  F    0.996327
    13  C   -1.669851
    14  H    1.801474
    15  C   -1.473039
    16  C   -1.773559
    17  H    1.681181
    18  C   -1.982330
    19  C   -1.909508
    20  H    1.774314
    21  H    1.649333
    22  C   -1.723644
    23  H    1.637154
    24  H    1.639609
 Sum of Mulliken charges =   0.00000

 Dipole moment (field-independent basis, Debye):
    X=              0.6244    Y=              0.0064    Z=             -0.0208  Tot=              0.6248

 Test job not archived.
 1\1\GINC-SE164\SP\RHF\Aug-CC-pVDZ\C12H6F6\OHZDE\09-Apr-2025\0\\#t hf a
 ug-cc-pvdz iop(5/13=1,5/36=2,99/5=2) pseudo=read geom=check guess=(rea
 d,tcheck) scf=(maxcycle=1)\\title\\0,1\C,0,-1.05492,1.38134,-0.46157\C
 ,0,-0.21985,0.74322,-1.36181\C,0,-1.8503,0.63831,0.39257\F,0,-1.07636,
 2.70339,-0.40254\C,0,-0.17808,-0.63935,-1.40641\F,0,0.545,1.45496,-2.1
 7284\C,0,-1.80849,-0.74408,0.34809\F,0,-2.63364,1.24984,1.26796\C,0,-0
 .97186,-1.38232,-0.55041\F,0,0.62544,-1.25007,-2.26137\F,0,-2.5528,-1.
 4566,1.18018\F,0,-0.91673,-2.70456,-0.57861\C,0,1.30779,-0.57489,2.002

 Normal termination of Gaussian 16 at Wed Apr  9 03:11:18 2025.
