 Gaussian 16, Revision C.01,

 ----------------------------------------------------------------------
 #t hf aug-cc-pvdz symm=none int=(grid=ultrafine) guess=(read,tcheck) s
 table=(opt,rrhf)
 ----------------------------------------------------------------------
 -----
 title
 -----
 Symbolic Z-matrix:
 Charge =  0 Multiplicity = 1

 SCF Done:  E(RHF) =  -823.414683347     A.U. after   11 cycles
 Normal termination of Gaussian 16 at Wed Apr  9 03:03:58 2025.
 Gaussian 16:  ES64L-G16RevC.01  3-Jul-2019

 ----------------------------------------------------------------------
 #t hf aug-cc-pvdz iop(5/13=1,5/36=2,99/5=2) pseudo=read geom=check gue
 ss=(read,tcheck) scf=(maxcycle=1)
 ----------------------------------------------------------------------
 -----
 title
 -----
 Structure from the checkpoint file:  "F-set_cf3oh_cf3oh_125_dimer_mol1.chk"
 Charge =  0 Multiplicity = 1

                         Standard orientation:
 ---------------------------------------------------------------------
 Center     Atomic      Atomic             Coordinates (Angstroms)
 Number     Number       Type             X           Y           Z
 ---------------------------------------------------------------------
      1          6           0        2.616054    0.036180    0.002991
      2          8           0        2.052580    1.192367   -0.344304
      3          9           0        2.348306   -0.947915   -0.886021
      4          9           0        3.925439    0.187944    0.065334
      5          9           0        2.184452   -0.415408    1.190464
      6          1           0        1.101446    1.056229   -0.451059
      7          8           0       -1.507342    0.013703   -0.797920
      8          6           0       -2.601631    0.010565   -0.000030
      9          1           0       -1.344230   -0.866676   -1.147045
     10          9           0       -2.492287   -0.879022    0.986041
     11          9           0       -3.706352   -0.286433   -0.683177
     12          9           0       -2.726854    1.216546    0.518263
 ---------------------------------------------------------------------

 SCF Done:  E(RHF) =  -826.346605785     A.U. after    2 cycles

 The electronic state is 1-A.
 Alpha  occ. eigenvalues --  -29.33654 -29.33383 -29.33233 -29.32452 -29.31835
 Alpha  occ. eigenvalues --  -29.31759 -21.15739 -21.14423 -11.62410 -11.61347
 Alpha  occ. eigenvalues --   -1.87542  -1.86873  -1.35293  -1.33348  -0.95833
 Alpha  occ. eigenvalues --   -0.94378  -0.94118  -0.92250  -0.78665  -0.76971
 Alpha  occ. eigenvalues --   -0.57240  -0.55543  -0.50359  -0.49166  -0.47897
 Alpha  occ. eigenvalues --   -0.46788  -0.45933  -0.45660  -0.44600  -0.44207
 Alpha  occ. eigenvalues --   -0.38863  -0.37940  -0.35022  -0.34554  -0.34127
 Alpha  occ. eigenvalues --   -0.32633  -0.27990  -0.26608  -0.26482  -0.25001
 Alpha  occ. eigenvalues --   -0.23633  -0.22351
 Alpha virt. eigenvalues --    0.04763   0.06763   0.10354   0.10986   0.11622
 Alpha virt. eigenvalues --    0.12129   0.12568   0.13673   0.15891   0.16814
 Alpha virt. eigenvalues --    0.18259   0.18683   0.19668   0.20679   0.21036

 Mulliken charges:
               1
     1  C    0.183092
     2  O   -3.029816
     3  F    0.592049
     4  F    0.690512
     5  F    0.630572
     6  H    0.889266
     7  O   -2.728511
     8  C    0.192877
     9  H    0.721529
    10  F    0.654338
    11  F    0.621788
    12  F    0.582304
 Sum of Mulliken charges =  -0.00000

 Dipole moment (field-independent basis, Debye):
    X=             -1.5845    Y=             -2.2595    Z=              1.4553  Tot=              3.1199

 Test job not archived.
 1\1\GINC-SE195\SP\RHF\Aug-CC-pVDZ\C2H2F6O2\OHZDE\09-Apr-2025\0\\#t hf
 aug-cc-pvdz iop(5/13=1,5/36=2,99/5=2) pseudo=read geom=check guess=(re
 ad,tcheck) scf=(maxcycle=1)\\title\\0,1\C,0,2.13896,0.0375,0.00421\O,0
 ,1.55972,1.18917,-0.33198\F,0,1.89162,-0.93932,-0.89863\F,0,3.44546,0.
 20858,0.07631\F,0,1.70749,-0.43559,1.18333\H,0,0.61144,1.03978,-0.4461
 4\O,0,-1.97887125,-0.03828083,-0.82167375\C,0,-3.07760125,-0.06829083,
 -0.03047375\H,0,-1.80015125,-0.91158083,-1.18079375\F,0,-2.96026125,-0
 .96844083,0.94503625\F,0,-4.17361125,-0.37361083,-0.72390375\F,0,-3.22

 Normal termination of Gaussian 16 at Wed Apr  9 03:04:05 2025.
