 Gaussian 16, Revision C.01,

 ----------------------------------------------------------------------
 #t hf aug-cc-pvdz symm=none int=(grid=ultrafine) guess=(read,tcheck) s
 table=(opt,rrhf)
 ----------------------------------------------------------------------
 -----
 title
 -----
 Symbolic Z-matrix:
 Charge =  0 Multiplicity = 1

 SCF Done:  E(RHF) =  -254.952556598     A.U. after   12 cycles
 Normal termination of Gaussian 16 at Wed Apr  9 03:02:35 2025.
 Gaussian 16:  ES64L-G16RevC.01  3-Jul-2019

 ----------------------------------------------------------------------
 #t hf aug-cc-pvdz iop(5/13=1,5/36=2,99/5=2) pseudo=read geom=check gue
 ss=(read,tcheck) scf=(maxcycle=1)
 ----------------------------------------------------------------------
 -----
 title
 -----
 Structure from the checkpoint file:  "F-set_c2h4_c2h3f_105_dimer_mol1.chk"
 Charge =  0 Multiplicity = 1

                         Standard orientation:
 ---------------------------------------------------------------------
 Center     Atomic      Atomic             Coordinates (Angstroms)
 Number     Number       Type             X           Y           Z
 ---------------------------------------------------------------------
      1          6           0       -0.691562   -2.211417    0.660810
      2          6           0       -0.691562   -2.211417   -0.660810
      3          1           0       -0.051294   -1.544489    1.223580
      4          1           0       -1.326759   -2.878440    1.229250
      5          1           0       -0.051294   -1.544489   -1.223580
      6          1           0       -1.326759   -2.878440   -1.229250
      7          6           0       -0.691562    1.773001    0.000000
      8          6           0        0.618468    1.875489    0.000000
      9          1           0       -1.185382    0.811927    0.000000
     10          1           0       -1.286239    2.673083    0.000000
     11          1           0        1.183281    2.797754    0.000000
     12          9           0        1.420195    0.801018    0.000000
 ---------------------------------------------------------------------

 SCF Done:  E(RHF) =  -256.068245587     A.U. after    2 cycles

 The electronic state is 1-A'.
 Alpha  occ. eigenvalues --  -29.28459 -11.46927 -11.40171 -11.38864 -11.36727
 Alpha  occ. eigenvalues --   -1.22380  -1.13392  -0.92036  -0.81851  -0.71983
 Alpha  occ. eigenvalues --   -0.64009  -0.62948  -0.55573  -0.54316  -0.49197
 Alpha  occ. eigenvalues --   -0.48176  -0.39363  -0.35899  -0.27684  -0.24360
 Alpha virt. eigenvalues --    0.04061   0.04833   0.05512   0.05790   0.07184
 Alpha virt. eigenvalues --    0.07837   0.08290   0.09800   0.12157   0.12218
 Alpha virt. eigenvalues --    0.13317   0.14656   0.14962   0.15499   0.15925

 Mulliken charges:
               1
     1  C   -2.629970
     2  C   -2.629970
     3  H    1.334567
     4  H    1.298811
     5  H    1.334567
     6  H    1.298811
     7  C   -3.033455
     8  C   -1.652850
     9  H    1.414795
    10  H    1.300890
    11  H    1.448333
    12  F    0.515473
 Sum of Mulliken charges =  -0.00000

 Dipole moment (field-independent basis, Debye):
    X=              1.6316    Y=             -1.0987    Z=              0.0000  Tot=              1.9670

 Test job not archived.
 1\1\GINC-SE095\SP\RHF\Aug-CC-pVDZ\C4H7F1\OHZDE\09-Apr-2025\0\\#t hf au
 g-cc-pvdz iop(5/13=1,5/36=2,99/5=2) pseudo=read geom=check guess=(read
 ,tcheck) scf=(maxcycle=1)\\title\\0,1\C,0,-0.68996,-2.09115,0.66081\C,
 0,-0.68996,-2.09115,-0.66081\H,0,-0.04386,-1.42987,1.22358\H,0,-1.3309
 9,-2.75257,1.22925\H,0,-0.04386,-1.42987,-1.22358\H,0,-1.33099,-2.7525
 7,-1.22925\C,0,-0.65497117,1.89311392,0.\C,0,0.65590883,1.98409392,0.\
 H,0,-1.15721117,0.93641392,0.\H,0,-1.24172117,2.79838392,0.\H,0,1.2287
 9883,2.90136392,0.\F,0,1.44816883,0.90262392,0.\\Version=ES64L-G16RevC

 Normal termination of Gaussian 16 at Wed Apr  9 03:02:38 2025.
