 Gaussian 16, Revision C.01,

 ----------------------------------------------------------------------
 #t hf aug-cc-pvdz symm=none int=(grid=ultrafine) guess=(read,tcheck) s
 table=(opt,rrhf)
 ----------------------------------------------------------------------
 -----
 title
 -----
 Symbolic Z-matrix:
 Charge =  0 Multiplicity = 1

 SCF Done:  E(RHF) =  -254.950661812     A.U. after   12 cycles
 Normal termination of Gaussian 16 at Wed Apr  9 03:02:35 2025.
 Gaussian 16:  ES64L-G16RevC.01  3-Jul-2019

 ----------------------------------------------------------------------
 #t hf aug-cc-pvdz iop(5/13=1,5/36=2,99/5=2) pseudo=read geom=check gue
 ss=(read,tcheck) scf=(maxcycle=1)
 ----------------------------------------------------------------------
 -----
 title
 -----
 Structure from the checkpoint file:  "F-set_c2h4_c2h3f_095_dimer_mol1.chk"
 Charge =  0 Multiplicity = 1

                         Standard orientation:
 ---------------------------------------------------------------------
 Center     Atomic      Atomic             Coordinates (Angstroms)
 Number     Number       Type             X           Y           Z
 ---------------------------------------------------------------------
      1          6           0       -0.688130   -1.970450    0.660810
      2          6           0       -0.688130   -1.970450   -0.660810
      3          1           0       -0.035641   -1.315474    1.223580
      4          1           0       -1.335551   -2.625616    1.229250
      5          1           0       -0.035641   -1.315474   -1.223580
      6          1           0       -1.335551   -2.625616   -1.229250
      7          6           0       -0.688130    1.633616    0.000000
      8          6           0        0.623571    1.711865    0.000000
      9          1           0       -1.199634    0.681837    0.000000
     10          1           0       -1.266064    2.544539    0.000000
     11          1           0        1.205339    2.623530    0.000000
     12          9           0        1.405295    0.622755    0.000000
 ---------------------------------------------------------------------

 SCF Done:  E(RHF) =  -256.068415054     A.U. after    2 cycles

 The electronic state is 1-A'.
 Alpha  occ. eigenvalues --  -29.28428 -11.46888 -11.40152 -11.38788 -11.36620
 Alpha  occ. eigenvalues --   -1.22359  -1.13375  -0.92003  -0.81905  -0.72043
 Alpha  occ. eigenvalues --   -0.63933  -0.62850  -0.55507  -0.54372  -0.49622
 Alpha  occ. eigenvalues --   -0.47856  -0.39389  -0.35939  -0.27655  -0.24352
 Alpha virt. eigenvalues --    0.04075   0.04938   0.05512   0.05777   0.07238
 Alpha virt. eigenvalues --    0.07845   0.08307   0.09870   0.12185   0.12417
 Alpha virt. eigenvalues --    0.13441   0.14836   0.15041   0.15338   0.15962

 Mulliken charges:
               1
     1  C   -2.653623
     2  C   -2.653623
     3  H    1.346036
     4  H    1.285094
     5  H    1.346036
     6  H    1.285094
     7  C   -3.082440
     8  C   -1.638592
     9  H    1.559660
    10  H    1.293738
    11  H    1.461296
    12  F    0.451324
 Sum of Mulliken charges =  -0.00000

 Dipole moment (field-independent basis, Debye):
    X=              1.6427    Y=             -1.1009    Z=              0.0000  Tot=              1.9775

 Test job not archived.
 1\1\GINC-SE021\SP\RHF\Aug-CC-pVDZ\C4H7F1\OHZDE\09-Apr-2025\0\\#t hf au
 g-cc-pvdz iop(5/13=1,5/36=2,99/5=2) pseudo=read geom=check guess=(read
 ,tcheck) scf=(maxcycle=1)\\title\\0,1\C,0,-0.68996,-2.09115,0.66081\C,
 0,-0.68996,-2.09115,-0.66081\H,0,-0.04386,-1.42987,1.22358\H,0,-1.3309
 9,-2.75257,1.22925\H,0,-0.04386,-1.42987,-1.22358\H,0,-1.33099,-2.7525
 7,-1.22925\C,0,-0.72494883,1.51274608,0.\C,0,0.58593117,1.60372608,0.\
 H,0,-1.22718883,0.55604608,0.\H,0,-1.31169883,2.41801608,0.\H,0,1.1588
 2117,2.52099608,0.\F,0,1.37819117,0.52225608,0.\\Version=ES64L-G16RevC

 Normal termination of Gaussian 16 at Wed Apr  9 03:02:38 2025.
