 Gaussian 16, Revision C.01,

 ----------------------------------------------------------------------
 #t hf aug-cc-pvdz symm=none int=(grid=ultrafine) guess=(read,tcheck) s
 table=(opt,rrhf)
 ----------------------------------------------------------------------
 -----
 title
 -----
 Symbolic Z-matrix:
 Charge =  0 Multiplicity = 1

 SCF Done:  E(RHF) =  -1048.90024265     A.U. after   13 cycles
 Normal termination of Gaussian 16 at Wed Apr  9 03:04:48 2025.
 Gaussian 16:  ES64L-G16RevC.01  3-Jul-2019

 ----------------------------------------------------------------------
 #t hf aug-cc-pvdz iop(5/13=1,5/36=2,99/5=2) pseudo=read geom=check gue
 ss=(read,tcheck) scf=(maxcycle=1)
 ----------------------------------------------------------------------
 -----
 title
 -----
 Structure from the checkpoint file:  "F-set_cf3co2h_cf3co2h_125_dimer_mol1.chk"
 Charge =  0 Multiplicity = 1

                         Standard orientation:
 ---------------------------------------------------------------------
 Center     Atomic      Atomic             Coordinates (Angstroms)
 Number     Number       Type             X           Y           Z
 ---------------------------------------------------------------------
      1          6           0        0.009420    2.506291   -0.000009
      2          8           0        1.220953    2.044021    0.000121
      3          8           0       -1.016874    1.870151    0.000041
      4          6           0       -0.009420    4.057577   -0.000049
      5          1           0        1.214046    1.051345    0.000091
      6          9           0        0.613610    4.519469    1.081531
      7          9           0        0.615620    4.519526   -1.080449
      8          9           0       -1.250767    4.507753   -0.001199
      9          6           0       -0.009420   -2.506291   -0.000009
     10          8           0       -1.220953   -2.044021    0.000121
     11          8           0        1.016874   -1.870151    0.000041
     12          6           0        0.009420   -4.057577   -0.000049
     13          1           0       -1.214046   -1.051345    0.000091
     14          9           0        1.250767   -4.507753   -0.001199
     15          9           0       -0.613610   -4.519469    1.081531
     16          9           0       -0.615620   -4.519526   -1.080449
 ---------------------------------------------------------------------

 SCF Done:  E(RHF) =  -1052.74281090     A.U. after    2 cycles

 The electronic state is 1-A.
 Alpha  occ. eigenvalues --  -29.33807 -29.33806 -29.33776 -29.33775 -29.33537
 Alpha  occ. eigenvalues --  -29.33536 -21.17726 -21.17724 -21.10672 -21.10670
 Alpha  occ. eigenvalues --  -11.63849 -11.63718 -11.56196 -11.56085  -1.89253
 Alpha  occ. eigenvalues --   -1.89168  -1.71452  -1.71389  -1.44841  -1.44779
 Alpha  occ. eigenvalues --   -0.97304  -0.97196  -0.92438  -0.92426  -0.91677
 Alpha  occ. eigenvalues --   -0.91620  -0.74901  -0.74846  -0.65914  -0.65296
 Alpha  occ. eigenvalues --   -0.60882  -0.60789  -0.54186  -0.53744  -0.50092
 Alpha  occ. eigenvalues --   -0.49995  -0.46572  -0.46550  -0.45887  -0.45860
 Alpha  occ. eigenvalues --   -0.40969  -0.40901  -0.39331  -0.39188  -0.37971
 Alpha  occ. eigenvalues --   -0.37894  -0.37579  -0.37469  -0.30573  -0.29728
 Alpha  occ. eigenvalues --   -0.28488  -0.28469  -0.27109  -0.26928  -0.23706
 Alpha  occ. eigenvalues --   -0.23705
 Alpha virt. eigenvalues --    0.04862   0.06615   0.08036   0.08877   0.09466
 Alpha virt. eigenvalues --    0.11221   0.11715   0.11805   0.12182   0.12316
 Alpha virt. eigenvalues --    0.12731   0.15304   0.15349   0.15495   0.16257

 Mulliken charges:
               1
     1  C    2.662841
     2  O   -2.896430
     3  O   -2.627256
     4  C    0.501085
     5  H    1.099758
     6  F    0.377661
     7  F    0.377357
     8  F    0.504984
     9  C    2.662841
    10  O   -2.896430
    11  O   -2.627256
    12  C    0.501085
    13  H    1.099758
    14  F    0.504984
    15  F    0.377661
    16  F    0.377357
 Sum of Mulliken charges =   0.00000

 Dipole moment (field-independent basis, Debye):
    X=             -0.0000    Y=              0.0000    Z=              0.0003  Tot=              0.0003

 Test job not archived.
 1\1\GINC-SE177\SP\RHF\Aug-CC-pVDZ\C4H2F6O4\OHZDE\09-Apr-2025\0\\#t hf
 aug-cc-pvdz iop(5/13=1,5/36=2,99/5=2) pseudo=read geom=check guess=(re
 ad,tcheck) scf=(maxcycle=1)\\title\\0,1\C,0,-0.00078,1.87956,-0.00001\
 O,0,1.20457,1.4014,0.00012\O,0,-1.03535,1.25697,0.00004\C,0,0.00078,3.
 43096,-0.00005\H,0,1.18461,0.4089,0.00009\F,0,0.62983,3.88462,1.08153\
 F,0,0.63184,3.88465,-1.08045\F,0,-1.23454,3.89742,-0.0012\C,0,-0.08553
 ,-3.13234,-0.00001\O,0,-1.29088,-2.65418,0.00012\O,0,0.94904,-2.50975,
 0.00004\C,0,-0.08709,-4.68374,-0.00005\H,0,-1.27092,-1.66168,0.00009\F

 Normal termination of Gaussian 16 at Wed Apr  9 03:05:10 2025.
