 Gaussian 16, Revision C.01,

 ----------------------------------------------------------------------
 #t hf aug-cc-pvdz symm=none int=(grid=ultrafine) guess=(read,tcheck) s
 table=(opt,rrhf)
 ----------------------------------------------------------------------
 -----
 title
 -----
 Symbolic Z-matrix:
 Charge =  0 Multiplicity = 1

 SCF Done:  E(RHF) =  -176.866386220     A.U. after   11 cycles
 Normal termination of Gaussian 16 at Wed Apr  9 03:02:17 2025.
 Gaussian 16:  ES64L-G16RevC.01  3-Jul-2019

 ----------------------------------------------------------------------
 #t hf aug-cc-pvdz iop(5/13=1,5/36=2,99/5=2) pseudo=read geom=check gue
 ss=(read,tcheck) scf=(maxcycle=1)
 ----------------------------------------------------------------------
 -----
 title
 -----
 Structure from the checkpoint file:  "F-set_c2h2_hf_100_dimer_mol1.chk"
 Charge =  0 Multiplicity = 1

                         Standard orientation:
 ---------------------------------------------------------------------
 Center     Atomic      Atomic             Coordinates (Angstroms)
 Number     Number       Type             X           Y           Z
 ---------------------------------------------------------------------
      1          6           0        0.600926   -1.236324    0.000000
      2          6           0       -0.594174   -1.237672    0.000000
      3          1           0        1.664836   -1.241856    0.000000
      4          1           0       -1.658114   -1.245040    0.000000
      5          9           0       -0.005248    1.825687    0.000000
      6          1           0        0.000000    0.899687    0.000000
 ---------------------------------------------------------------------

 SCF Done:  E(RHF) =  -177.591510983     A.U. after    2 cycles

 The electronic state is 1-A'.
 Alpha  occ. eigenvalues --  -29.27251 -11.44166 -11.43988  -1.13441  -0.82965
 Alpha  occ. eigenvalues --   -0.81454  -0.68654  -0.43147  -0.42059  -0.36318
 Alpha  occ. eigenvalues --   -0.27662  -0.27433
 Alpha virt. eigenvalues --    0.03188   0.04356   0.09589   0.10245   0.11548
 Alpha virt. eigenvalues --    0.11863   0.13412   0.13434   0.14760   0.15387
 Alpha virt. eigenvalues --    0.21316   0.23291   0.24718   0.26126   0.27995

 Mulliken charges:
               1
     1  C   -0.723880
     2  C   -0.722652
     3  H    0.551350
     4  H    0.551795
     5  F    1.318584
     6  H   -0.975198
 Sum of Mulliken charges =   0.00000

 Dipole moment (field-independent basis, Debye):
    X=             -0.0004    Y=             -0.5468    Z=              0.0000  Tot=              0.5468

 Test job not archived.
 1\1\GINC-SE083\SP\RHF\Aug-CC-pVDZ\C2H3F1\OHZDE\09-Apr-2025\0\\#t hf au
 g-cc-pvdz iop(5/13=1,5/36=2,99/5=2) pseudo=read geom=check guess=(read
 ,tcheck) scf=(maxcycle=1)\\title\\0,1\C,0,0.60093,-1.23632,0.\C,0,-0.5
 9417,-1.23767,0.\H,0,1.66484,-1.24185,0.\H,0,-1.65811,-1.24504,0.\F,0,
 -0.00525,1.82569,0.\H,0,0.,0.89969,0.\\Version=ES64L-G16RevC.01\State=
 1-A'\HF=-177.591511\RMSD=9.243e-01\Dipole=-0.0001665,-0.2151267,0.\Qua
 drupole=3.3064314,-0.9294918,-2.3769396,-0.0007014,0.,0.\PG=CS [SG(C2H
 3F1)]\\@

 Normal termination of Gaussian 16 at Wed Apr  9 03:02:20 2025.
