 Gaussian 16, Revision C.01,

 ----------------------------------------------------------------------
 #t hf aug-cc-pvdz symm=none int=(grid=ultrafine) guess=(read,tcheck) s
 table=(opt,rrhf)
 ----------------------------------------------------------------------
 -----
 title
 -----
 Symbolic Z-matrix:
 Charge =  0 Multiplicity = 1

 SCF Done:  E(RHF) =  -369.780702996     A.U. after   14 cycles
 Normal termination of Gaussian 16 at Wed Apr  9 03:03:09 2025.
 Gaussian 16:  ES64L-G16RevC.01  3-Jul-2019

 ----------------------------------------------------------------------
 #t hf aug-cc-pvdz iop(5/13=1,5/36=2,99/5=2) pseudo=read geom=check gue
 ss=(read,tcheck) scf=(maxcycle=1)
 ----------------------------------------------------------------------
 -----
 title
 -----
 Structure from the checkpoint file:  "F-set_c6h6_ch3f_090_dimer_mol1.chk"
 Charge =  0 Multiplicity = 1

                         Standard orientation:
 ---------------------------------------------------------------------
 Center     Atomic      Atomic             Coordinates (Angstroms)
 Number     Number       Type             X           Y           Z
 ---------------------------------------------------------------------
      1          6           0        1.171814   -0.674146   -1.201070
      2          6           0        1.020528    0.704423   -1.199932
      3          6           0        1.244268   -1.364681   -0.000338
      4          1           0        1.232613   -1.210749   -2.137879
      5          6           0        0.941676    1.392547    0.001828
      6          1           0        0.964488    1.242927   -2.136114
      7          6           0        1.165594   -0.676717    1.201481
      8          1           0        1.361537   -2.439630   -0.001175
      9          6           0        1.014328    0.701852    1.202499
     10          1           0        0.825469    2.467840    0.002684
     11          1           0        1.221534   -1.215291    2.137464
     12          1           0        0.953519    1.238404    2.139528
     13          6           0       -1.989848    0.259014    0.000443
     14          1           0       -1.912276    0.869830    0.899066
     15          1           0       -1.196261   -0.486483   -0.009339
     16          1           0       -1.915678    0.889683   -0.884648
     17          9           0       -3.216122   -0.378921   -0.004339
 ---------------------------------------------------------------------

 SCF Done:  E(RHF) =  -371.466416265     A.U. after    2 cycles

 The electronic state is 1-A.
 Alpha  occ. eigenvalues --  -29.23506 -11.52613 -11.43170 -11.43100 -11.41389
 Alpha  occ. eigenvalues --  -11.40786 -11.40768 -11.36633  -1.35096  -1.12913
 Alpha  occ. eigenvalues --   -1.10058  -1.10054  -0.86646  -0.86645  -0.73262
 Alpha  occ. eigenvalues --   -0.66179  -0.64876  -0.61330  -0.61074  -0.59039
 Alpha  occ. eigenvalues --   -0.59027  -0.56742  -0.51011  -0.45383  -0.45379
 Alpha  occ. eigenvalues --   -0.35975  -0.34110  -0.33611  -0.23161  -0.23080
 Alpha virt. eigenvalues --    0.03300   0.04465   0.04469   0.05864   0.05891
 Alpha virt. eigenvalues --    0.06547   0.07021   0.07146   0.09050   0.10314
 Alpha virt. eigenvalues --    0.10567   0.11458   0.13373   0.13596   0.14045

 Mulliken charges:
               1
     1  C   -1.934094
     2  C   -1.495890
     3  C   -1.158471
     4  H    1.518627
     5  C   -1.791487
     6  H    1.556495
     7  C   -1.939392
     8  H    1.507200
     9  C   -1.492924
    10  H    1.608292
    11  H    1.519347
    12  H    1.558201
    13  C   -4.575822
    14  H    1.419271
    15  H    2.113025
    16  H    1.415469
    17  F    0.172152
 Sum of Mulliken charges =  -0.00000

 Dipole moment (field-independent basis, Debye):
    X=             -0.2510    Y=             -0.3672    Z=             -0.0026  Tot=              0.4447

 Test job not archived.
 1\1\GINC-SE366\SP\RHF\Aug-CC-pVDZ\C7H9F1\OHZDE\09-Apr-2025\0\\#t hf au
 g-cc-pvdz iop(5/13=1,5/36=2,99/5=2) pseudo=read geom=check guess=(read
 ,tcheck) scf=(maxcycle=1)\\title\\0,1\C,0,1.28077,-0.67224,-1.2016\C,0
 ,1.12048,0.70531,-1.19956\C,0,1.35784,-1.36306,-0.00132\H,0,1.34499,-1
 .20783,-2.13876\C,0,1.03724,1.39213,0.00265\H,0,1.06084,1.24404,-2.135
 39\C,0,1.27478,-0.6764,1.20095\H,0,1.48213,-2.43722,-0.00286\C,0,1.114
 51,0.70115,1.20287\H,0,0.91401,2.46664,0.00421\H,0,1.33432,-1.2152,2.1
 3658\H,0,1.05028,1.23669,2.14025\C,0,-1.88681555,0.23946868,0.00078183

 Normal termination of Gaussian 16 at Wed Apr  9 03:03:14 2025.
