 Gaussian 16, Revision C.01,

 ----------------------------------------------------------------------
 #t hf aug-cc-pvdz symm=none int=(grid=ultrafine) guess=(read,tcheck) s
 table=(opt,rrhf)
 ----------------------------------------------------------------------
 -----
 title
 -----
 Symbolic Z-matrix:
 Charge =  0 Multiplicity = 1

 SCF Done:  E(RHF) =  -179.257271214     A.U. after   11 cycles
 Normal termination of Gaussian 16 at Wed Apr  9 03:03:31 2025.
 Gaussian 16:  ES64L-G16RevC.01  3-Jul-2019

 ----------------------------------------------------------------------
 #t hf aug-cc-pvdz iop(5/13=1,5/36=2,99/5=2) pseudo=read geom=check gue
 ss=(read,tcheck) scf=(maxcycle=1)
 ----------------------------------------------------------------------
 -----
 title
 -----
 Structure from the checkpoint file:  "F-set_ch4_ch3f_110_dimer_mol1.chk"
 Charge =  0 Multiplicity = 1

                         Standard orientation:
 ---------------------------------------------------------------------
 Center     Atomic      Atomic             Coordinates (Angstroms)
 Number     Number       Type             X           Y           Z
 ---------------------------------------------------------------------
      1          6           0        1.024565   -2.218829    0.000000
      2          1           0        1.225161   -3.287622    0.000000
      3          1           0        0.450450   -1.955865    0.885270
      4          1           0        0.450450   -1.955865   -0.885270
      5          1           0        1.967142   -1.675286    0.000000
      6          6           0        0.000000    1.504912    0.000000
      7          9           0       -1.244431    0.909807    0.000000
      8          1           0        0.542592    1.191330    0.891170
      9          1           0        0.542592    1.191330   -0.891170
     10          1           0       -0.125901    2.587208    0.000000
 ---------------------------------------------------------------------

 SCF Done:  E(RHF) =  -180.041734040     A.U. after    2 cycles

 The electronic state is 1-A'.
 Alpha  occ. eigenvalues --  -29.25073 -11.42898 -11.35488  -1.14677  -1.02921
 Alpha  occ. eigenvalues --   -0.66205  -0.62620  -0.62533  -0.53672  -0.53588
 Alpha  occ. eigenvalues --   -0.53443  -0.37136  -0.24660  -0.24626
 Alpha virt. eigenvalues --    0.03384   0.04500   0.06163   0.06334   0.07172
 Alpha virt. eigenvalues --    0.07817   0.08347   0.12695   0.14139   0.14387
 Alpha virt. eigenvalues --    0.16472   0.16873   0.17239   0.19994   0.22135

 Mulliken charges:
               1
     1  C   -5.048731
     2  H    1.229312
     3  H    1.280354
     4  H    1.280354
     5  H    1.241456
     6  C   -4.235464
     7  F    0.181169
     8  H    1.330715
     9  H    1.330715
    10  H    1.410122
 Sum of Mulliken charges =   0.00000

 Dipole moment (field-independent basis, Debye):
    X=             -0.7322    Y=             -0.3414    Z=             -0.0000  Tot=              0.8079

 Test job not archived.
 1\1\GINC-SE362\SP\RHF\Aug-CC-pVDZ\C2H7F1\OHZDE\09-Apr-2025\0\\#t hf au
 g-cc-pvdz iop(5/13=1,5/36=2,99/5=2) pseudo=read geom=check guess=(read
 ,tcheck) scf=(maxcycle=1)\\title\\0,1\C,0,-1.01183,-1.97786,0.\H,0,-1.
 23943,-3.04123,0.\H,0,-0.43124,-1.72952,-0.88527\H,0,-0.43124,-1.72952
 ,0.88527\H,0,-1.94034,-1.41062,0.\C,0,0.1067118,1.718739,0.\F,0,1.3356
 718,1.092309,0.\H,0,-0.4436482,1.418999,-0.89117\H,0,-0.4436482,1.4189
 99,0.89117\H,0,0.2599818,2.797499,0.\\Version=ES64L-G16RevC.01\State=1
 -A'\HF=-180.041734\RMSD=5.642e-02\Dipole=0.2845755,-0.1415789,0.\Quadr

 Normal termination of Gaussian 16 at Wed Apr  9 03:03:33 2025.
