 Gaussian 16, Revision C.01,

 ----------------------------------------------------------------------
 #t hf aug-cc-pvdz symm=none int=(grid=ultrafine) guess=(read,tcheck) s
 table=(opt,rrhf)
 ----------------------------------------------------------------------
 -----
 title
 -----
 Symbolic Z-matrix:
 Charge =  0 Multiplicity = 1

 SCF Done:  E(RHF) =  -1048.91457895     A.U. after   13 cycles
 Normal termination of Gaussian 16 at Wed Apr  9 03:04:44 2025.
 Gaussian 16:  ES64L-G16RevC.01  3-Jul-2019

 ----------------------------------------------------------------------
 #t hf aug-cc-pvdz iop(5/13=1,5/36=2,99/5=2) pseudo=read geom=check gue
 ss=(read,tcheck) scf=(maxcycle=1)
 ----------------------------------------------------------------------
 -----
 title
 -----
 Structure from the checkpoint file:  "F-set_cf3co2h_cf3co2h_105_dimer_mol1.chk"
 Charge =  0 Multiplicity = 1

                         Standard orientation:
 ---------------------------------------------------------------------
 Center     Atomic      Atomic             Coordinates (Angstroms)
 Number     Number       Type             X           Y           Z
 ---------------------------------------------------------------------
      1          6           0        0.001628    2.004853   -0.000009
      2          8           0        1.208456    1.530436    0.000121
      3          8           0       -1.031005    1.379054    0.000041
      4          6           0       -0.001628    3.556250   -0.000049
      5          1           0        1.191577    0.537879    0.000091
      6          9           0        0.626011    4.011861    1.081531
      7          9           0        0.628021    4.011897   -1.080449
      8          9           0       -1.238390    4.018873   -0.001199
      9          6           0       -0.001628   -2.004853   -0.000009
     10          8           0       -1.208456   -1.530436    0.000121
     11          8           0        1.031005   -1.379054    0.000041
     12          6           0        0.001628   -3.556250   -0.000049
     13          1           0       -1.191577   -0.537879    0.000091
     14          9           0        1.238390   -4.018873   -0.001199
     15          9           0       -0.626011   -4.011861    1.081531
     16          9           0       -0.628021   -4.011897   -1.080449
 ---------------------------------------------------------------------

 SCF Done:  E(RHF) =  -1052.75775924     A.U. after    2 cycles

 The electronic state is 1-A.
 Alpha  occ. eigenvalues --  -29.34019 -29.34018 -29.33995 -29.33992 -29.33816
 Alpha  occ. eigenvalues --  -29.33815 -21.16944 -21.16926 -21.11479 -21.11469
 Alpha  occ. eigenvalues --  -11.64508 -11.64328 -11.57096 -11.56967  -1.89914
 Alpha  occ. eigenvalues --   -1.88863  -1.73075  -1.71953  -1.45193  -1.45004
 Alpha  occ. eigenvalues --   -0.98177  -0.96932  -0.92688  -0.92680  -0.92262
 Alpha  occ. eigenvalues --   -0.91788  -0.75416  -0.74611  -0.69049  -0.63829
 Alpha  occ. eigenvalues --   -0.61364  -0.60973  -0.57459  -0.52330  -0.50312
 Alpha  occ. eigenvalues --   -0.49918  -0.46809  -0.46643  -0.46190  -0.46010
 Alpha  occ. eigenvalues --   -0.41843  -0.41040  -0.40112  -0.39464  -0.38446
 Alpha  occ. eigenvalues --   -0.38120  -0.37876  -0.37194  -0.31612  -0.29494
 Alpha  occ. eigenvalues --   -0.28697  -0.28690  -0.27455  -0.27428  -0.23920
 Alpha  occ. eigenvalues --   -0.23909
 Alpha virt. eigenvalues --    0.05080   0.07611   0.08816   0.08920   0.09099
 Alpha virt. eigenvalues --    0.11139   0.11230   0.11638   0.12230   0.12362
 Alpha virt. eigenvalues --    0.12696   0.14125   0.16047   0.16319   0.16794

 Mulliken charges:
               1
     1  C    2.191317
     2  O   -3.143089
     3  O   -2.770828
     4  C    1.092700
     5  H    1.489084
     6  F    0.333288
     7  F    0.333004
     8  F    0.474524
     9  C    2.191317
    10  O   -3.143089
    11  O   -2.770828
    12  C    1.092700
    13  H    1.489084
    14  F    0.474524
    15  F    0.333288
    16  F    0.333004
 Sum of Mulliken charges =  -0.00000

 Dipole moment (field-independent basis, Debye):
    X=              0.0000    Y=              0.0000    Z=              0.0003  Tot=              0.0003

 Test job not archived.
 1\1\GINC-SE092\SP\RHF\Aug-CC-pVDZ\C4H2F6O4\OHZDE\09-Apr-2025\0\\#t hf
 aug-cc-pvdz iop(5/13=1,5/36=2,99/5=2) pseudo=read geom=check guess=(re
 ad,tcheck) scf=(maxcycle=1)\\title\\0,1\C,0,-0.00078,1.87956,-0.00001\
 O,0,1.20457,1.4014,0.00012\O,0,-1.03535,1.25697,0.00004\C,0,0.00078,3.
 43096,-0.00005\H,0,1.18461,0.4089,0.00009\F,0,0.62983,3.88462,1.08153\
 F,0,0.63184,3.88465,-1.08045\F,0,-1.23454,3.89742,-0.0012\C,0,-0.01648
 2,-2.130116,-0.00001\O,0,-1.221832,-1.651956,0.00012\O,0,1.018088,-1.5
 07526,0.00004\C,0,-0.018042,-3.681516,-0.00005\H,0,-1.201872,-0.659456

 Normal termination of Gaussian 16 at Wed Apr  9 03:05:11 2025.
