 Gaussian 16, Revision C.01,

 ----------------------------------------------------------------------
 #t hf aug-cc-pvdz symm=none int=(grid=ultrafine) guess=(read,tcheck) s
 table=(opt,rrhf)
 ----------------------------------------------------------------------
 -----
 title
 -----
 Symbolic Z-matrix:
 Charge =  0 Multiplicity = 1

 SCF Done:  E(RHF) =  -278.115335031     A.U. after   10 cycles
 Normal termination of Gaussian 16 at Wed Apr  9 03:03:33 2025.
 Gaussian 16:  ES64L-G16RevC.01  3-Jul-2019

 ----------------------------------------------------------------------
 #t hf aug-cc-pvdz iop(5/13=1,5/36=2,99/5=2) pseudo=read geom=check gue
 ss=(read,tcheck) scf=(maxcycle=1)
 ----------------------------------------------------------------------
 -----
 title
 -----
 Structure from the checkpoint file:  "F-set_ch3f_ch3f_200_dimer_mol1.chk"
 Charge =  0 Multiplicity = 1

                         Standard orientation:
 ---------------------------------------------------------------------
 Center     Atomic      Atomic             Coordinates (Angstroms)
 Number     Number       Type             X           Y           Z
 ---------------------------------------------------------------------
      1          6           0       -3.334572    1.956065    0.000000
      2          1           0       -2.303532    2.306293    0.000000
      3          1           0       -3.850092    2.306294    0.892907
      4          1           0       -3.850092    2.306294   -0.892907
      5          9           0       -3.334572    0.573065    0.000000
      6          6           0        3.334572   -1.956065    0.000000
      7          1           0        2.303532   -2.306293    0.000000
      8          9           0        3.334572   -0.573065    0.000000
      9          1           0        3.850092   -2.306294   -0.892907
     10          1           0        3.850092   -2.306294    0.892907
 ---------------------------------------------------------------------

 SCF Done:  E(RHF) =  -279.218157021     A.U. after    2 cycles

 The electronic state is 1-AG.
 Alpha  occ. eigenvalues --  -29.24902 -29.24901 -11.42779 -11.42769  -1.14467
 Alpha  occ. eigenvalues --   -1.14466  -0.65955  -0.65952  -0.62464  -0.62462
 Alpha  occ. eigenvalues --   -0.62444  -0.62440  -0.36943  -0.36942  -0.24498
 Alpha  occ. eigenvalues --   -0.24496  -0.24489  -0.24483
 Alpha virt. eigenvalues --    0.03943   0.04094   0.06091   0.06202   0.06577
 Alpha virt. eigenvalues --    0.06750   0.11753   0.14020   0.14519   0.15152
 Alpha virt. eigenvalues --    0.15391   0.15920   0.16733   0.17107   0.24268

 Mulliken charges:
               1
     1  C   -4.019862
     2  H    1.257538
     3  H    1.257593
     4  H    1.257593
     5  F    0.247138
     6  C   -4.019862
     7  H    1.257538
     8  F    0.247138
     9  H    1.257593
    10  H    1.257593
 Sum of Mulliken charges =  -0.00000

 Dipole moment (field-independent basis, Debye):
    X=             -0.0000    Y=              0.0000    Z=              0.0000  Tot=              0.0000

 Test job not archived.
 1\1\GINC-SE228\SP\RHF\Aug-CC-pVDZ\C2H6F2\OHZDE\09-Apr-2025\0\\#t hf au
 g-cc-pvdz iop(5/13=1,5/36=2,99/5=2) pseudo=read geom=check guess=(read
 ,tcheck) scf=(maxcycle=1)\\title\\0,1\C,0,-1.667286,1.011264,0.\H,0,-0
 .636246,1.361492,0.\H,0,-2.182806,1.361493,0.892907\H,0,-2.182806,1.36
 1493,-0.892907\F,0,-1.667286,-0.371736,0.\C,0,5.001858,-2.9008664,0.\H
 ,0,3.970818,-3.2510944,0.\F,0,5.001858,-1.5178664,0.\H,0,5.517378,-3.2
 510954,-0.892907\H,0,5.517378,-3.2510954,0.892907\\Version=ES64L-G16Re
 vC.01\State=1-AG\HF=-279.218157\RMSD=4.629e-02\Dipole=0.,0.,0.\Quadrup

 Normal termination of Gaussian 16 at Wed Apr  9 03:03:35 2025.
