 Gaussian 16, Revision C.01,

 ----------------------------------------------------------------------
 #t hf aug-cc-pvdz symm=none int=(grid=ultrafine) guess=(read,tcheck) s
 table=(opt,rrhf)
 ----------------------------------------------------------------------
 -----
 title
 -----
 Symbolic Z-matrix:
 Charge =  0 Multiplicity = 1

 SCF Done:  E(RHF) =  -1048.89235677     A.U. after   13 cycles
 Normal termination of Gaussian 16 at Wed Apr  9 03:04:19 2025.
 Gaussian 16:  ES64L-G16RevC.01  3-Jul-2019

 ----------------------------------------------------------------------
 #t hf aug-cc-pvdz iop(5/13=1,5/36=2,99/5=2) pseudo=read geom=check gue
 ss=(read,tcheck) scf=(maxcycle=1)
 ----------------------------------------------------------------------
 -----
 title
 -----
 Structure from the checkpoint file:  "F-set_cf3co2h_cf3co2h_200_dimer_mol1.chk"
 Charge =  0 Multiplicity = 1

                         Standard orientation:
 ---------------------------------------------------------------------
 Center     Atomic      Atomic             Coordinates (Angstroms)
 Number     Number       Type             X           Y           Z
 ---------------------------------------------------------------------
      1          6           0       -0.122034    4.386789   -0.000009
      2          8           0        1.112616    3.990373    0.000121
      3          8           0       -1.112616    3.696352    0.000041
      4          6           0       -0.224310    5.934814   -0.000049
      5          1           0        1.159127    2.998762    0.000091
      6          9           0        0.372966    6.429558    1.081531
      7          9           0        0.374970    6.429723   -1.080449
      8          9           0       -1.488080    6.317551   -0.001199
      9          6           0        0.122034   -4.386789   -0.000009
     10          8           0       -1.112616   -3.990373    0.000121
     11          8           0        1.112616   -3.696352    0.000041
     12          6           0        0.224310   -5.934814   -0.000049
     13          1           0       -1.159127   -2.998762    0.000091
     14          9           0        1.488080   -6.317551   -0.001199
     15          9           0       -0.372966   -6.429558    1.081531
     16          9           0       -0.374970   -6.429723   -1.080449
 ---------------------------------------------------------------------

 SCF Done:  E(RHF) =  -1052.73622073     A.U. after    2 cycles

 The electronic state is 1-A.
 Alpha  occ. eigenvalues --  -29.33459 -29.33459 -29.33425 -29.33425 -29.33120
 Alpha  occ. eigenvalues --  -29.33119 -21.17460 -21.17460 -21.09777 -21.09774
 Alpha  occ. eigenvalues --  -11.63020 -11.62956 -11.55295 -11.55286  -1.88751
 Alpha  occ. eigenvalues --   -1.88747  -1.70594  -1.70592  -1.44385  -1.44383
 Alpha  occ. eigenvalues --   -0.96816  -0.96815  -0.92032  -0.92031  -0.91200
 Alpha  occ. eigenvalues --   -0.91200  -0.74513  -0.74513  -0.64938  -0.64936
 Alpha  occ. eigenvalues --   -0.60312  -0.60312  -0.53237  -0.53236  -0.49725
 Alpha  occ. eigenvalues --   -0.49723  -0.46257  -0.46257  -0.45499  -0.45498
 Alpha  occ. eigenvalues --   -0.40352  -0.40352  -0.38739  -0.38737  -0.37477
 Alpha  occ. eigenvalues --   -0.37476  -0.37118  -0.37118  -0.29607  -0.29594
 Alpha  occ. eigenvalues --   -0.28132  -0.28131  -0.26517  -0.26512  -0.23361
 Alpha  occ. eigenvalues --   -0.23361
 Alpha virt. eigenvalues --    0.02977   0.04110   0.08893   0.09368   0.09673
 Alpha virt. eigenvalues --    0.09941   0.11023   0.11378   0.12227   0.12439
 Alpha virt. eigenvalues --    0.12517   0.12628   0.12643   0.13951   0.13967

 Mulliken charges:
               1
     1  C    3.444679
     2  O   -2.639303
     3  O   -2.585566
     4  C   -0.610940
     5  H    0.810111
     6  F    0.482951
     7  F    0.482699
     8  F    0.615370
     9  C    3.444679
    10  O   -2.639303
    11  O   -2.585566
    12  C   -0.610940
    13  H    0.810111
    14  F    0.615370
    15  F    0.482951
    16  F    0.482699
 Sum of Mulliken charges =   0.00000

 Dipole moment (field-independent basis, Debye):
    X=             -0.0000    Y=             -0.0000    Z=              0.0003  Tot=              0.0003

 Test job not archived.
 1\1\GINC-SE060\SP\RHF\Aug-CC-pVDZ\C4H2F6O4\OHZDE\09-Apr-2025\0\\#t hf
 aug-cc-pvdz iop(5/13=1,5/36=2,99/5=2) pseudo=read geom=check guess=(re
 ad,tcheck) scf=(maxcycle=1)\\title\\0,1\C,0,-0.00078,1.87956,-0.00001\
 O,0,1.20457,1.4014,0.00012\O,0,-1.03535,1.25697,0.00004\C,0,0.00078,3.
 43096,-0.00005\H,0,1.18461,0.4089,0.00009\F,0,0.62983,3.88462,1.08153\
 F,0,0.63184,3.88465,-1.08045\F,0,-1.23454,3.89742,-0.0012\C,0,-0.34446
 ,-6.89068,-0.00001\O,0,-1.54981,-6.41252,0.00012\O,0,0.69011,-6.26809,
 0.00004\C,0,-0.34602,-8.44208,-0.00005\H,0,-1.52985,-5.42002,0.00009\F

 Normal termination of Gaussian 16 at Wed Apr  9 03:04:24 2025.
