 Gaussian 16, Revision C.01,

 ----------------------------------------------------------------------
 #t hf aug-cc-pvdz symm=none int=(grid=ultrafine) guess=(read,tcheck) s
 table=(opt,rrhf)
 ----------------------------------------------------------------------
 -----
 title
 -----
 Symbolic Z-matrix:
 Charge =  0 Multiplicity = 1

 SCF Done:  E(RHF) =  -475.894321267     A.U. after   10 cycles
 Normal termination of Gaussian 16 at Wed Apr  9 03:03:36 2025.
 Gaussian 16:  ES64L-G16RevC.01  3-Jul-2019

 ----------------------------------------------------------------------
 #t hf aug-cc-pvdz iop(5/13=1,5/36=2,99/5=2) pseudo=read geom=check gue
 ss=(read,tcheck) scf=(maxcycle=1)
 ----------------------------------------------------------------------
 -----
 title
 -----
 Structure from the checkpoint file:  "F-set_ch4_cf4_100_dimer_mol1.chk"
 Charge =  0 Multiplicity = 1

                         Standard orientation:
 ---------------------------------------------------------------------
 Center     Atomic      Atomic             Coordinates (Angstroms)
 Number     Number       Type             X           Y           Z
 ---------------------------------------------------------------------
      1          6           0        0.000000   -3.099382    0.000000
      2          1           0        0.000000   -4.186812    0.000000
      3          1           0        1.025560   -2.737412    0.000000
      4          1           0       -0.512780   -2.737412    0.888160
      5          1           0       -0.512780   -2.737412   -0.888160
      6          6           0        0.000000    0.737208    0.000000
      7          9           0        0.000000    2.056088    0.000000
      8          9           0       -1.243220    0.298788    0.000000
      9          9           0        0.621610    0.298788    1.076660
     10          9           0        0.621610    0.298788   -1.076660
 ---------------------------------------------------------------------

 SCF Done:  E(RHF) =  -477.616654255     A.U. after    2 cycles

 The electronic state is 1-A'.
 Alpha  occ. eigenvalues --  -29.34406 -29.34403 -29.34403 -29.34314 -11.64382
 Alpha  occ. eigenvalues --  -11.35600  -1.52906  -1.03082  -0.96983  -0.96983
 Alpha  occ. eigenvalues --   -0.96897  -0.53833  -0.53833  -0.53749  -0.51762
 Alpha  occ. eigenvalues --   -0.47540  -0.47500  -0.47500  -0.44854  -0.44854
 Alpha  occ. eigenvalues --   -0.32888  -0.32888  -0.32686  -0.24394  -0.24394
 Alpha  occ. eigenvalues --   -0.24369
 Alpha virt. eigenvalues --    0.03946   0.06989   0.07052   0.07052   0.11582
 Alpha virt. eigenvalues --    0.11582   0.12502   0.15548   0.15608   0.15608
 Alpha virt. eigenvalues --    0.19028   0.19798   0.21514   0.21514   0.23531

 Mulliken charges:
               1
     1  C   -4.919182
     2  H    1.251742
     3  H    1.213571
     4  H    1.213572
     5  H    1.213572
     6  C   -1.998221
     7  F    0.628651
     8  F    0.465432
     9  F    0.465432
    10  F    0.465432
 Sum of Mulliken charges =   0.00000

 Dipole moment (field-independent basis, Debye):
    X=             -0.0000    Y=              0.0368    Z=              0.0000  Tot=              0.0368

 Test job not archived.
 1\1\GINC-SE115\SP\RHF\Aug-CC-pVDZ\C2H4F4\OHZDE\09-Apr-2025\0\\#t hf au
 g-cc-pvdz iop(5/13=1,5/36=2,99/5=2) pseudo=read geom=check guess=(read
 ,tcheck) scf=(maxcycle=1)\\title\\0,1\C,0,0.,0.,-3.09938\H,0,0.,0.,-4.
 18681\H,0,0.,-1.02556,-2.73741\H,0,-0.88816,0.51278,-2.73741\H,0,0.888
 16,0.51278,-2.73741\C,0,0.,0.,0.73721\F,0,0.,0.,2.05609\F,0,0.,1.24322
 ,0.29879\F,0,-1.07666,-0.62161,0.29879\F,0,1.07666,-0.62161,0.29879\\V
 ersion=ES64L-G16RevC.01\State=1-A'\HF=-477.6166543\RMSD=3.137e-02\Dipo
 le=0.,0.0000003,0.0144845\Quadrupole=0.0845351,0.0845377,-0.1690727,0.

 Normal termination of Gaussian 16 at Wed Apr  9 03:03:39 2025.
