 Gaussian 16, Revision C.01,

 ----------------------------------------------------------------------
 #t hf aug-cc-pvdz symm=none int=(grid=ultrafine) guess=(read,tcheck) s
 table=(opt,rrhf)
 ----------------------------------------------------------------------
 -----
 title
 -----
 Symbolic Z-matrix:
 Charge =  0 Multiplicity = 1

 SCF Done:  E(RHF) =  -823.415106724     A.U. after   11 cycles
 Normal termination of Gaussian 16 at Wed Apr  9 03:03:40 2025.
 Gaussian 16:  ES64L-G16RevC.01  3-Jul-2019

 ----------------------------------------------------------------------
 #t hf aug-cc-pvdz iop(5/13=1,5/36=2,99/5=2) pseudo=read geom=check gue
 ss=(read,tcheck) scf=(maxcycle=1)
 ----------------------------------------------------------------------
 -----
 title
 -----
 Structure from the checkpoint file:  "F-set_cf3oh_cf3oh_095_dimer_mol1.chk"
 Charge =  0 Multiplicity = 1

                         Standard orientation:
 ---------------------------------------------------------------------
 Center     Atomic      Atomic             Coordinates (Angstroms)
 Number     Number       Type             X           Y           Z
 ---------------------------------------------------------------------
      1          6           0        2.043590    0.037829    0.004522
      2          8           0        1.460306    1.188259   -0.328909
      3          9           0        1.801535   -0.937080   -0.901809
      4          9           0        3.349287    0.213857    0.079216
      5          9           0        1.612167   -0.440726    1.181452
      6          1           0        0.512805    1.035475   -0.445032
      7          8           0       -0.930269    0.046023   -0.790096
      8          6           0       -2.030101    0.009134   -0.000720
      9          1           0       -0.747524   -0.825412   -1.151712
     10          9           0       -1.910706   -0.893650    0.972103
     11          9           0       -3.123809   -0.298317   -0.696837
     12          9           0       -2.182532    1.204128    0.535427
 ---------------------------------------------------------------------

 SCF Done:  E(RHF) =  -826.343863368     A.U. after    2 cycles

 The electronic state is 1-A.
 Alpha  occ. eigenvalues --  -29.34729 -29.34227 -29.34174 -29.31965 -29.31804
 Alpha  occ. eigenvalues --  -29.31441 -21.17249 -21.12427 -11.63757 -11.60817
 Alpha  occ. eigenvalues --   -1.90094  -1.85587  -1.36719  -1.32903  -0.97174
 Alpha  occ. eigenvalues --   -0.95353  -0.93917  -0.91888  -0.80330  -0.76684
 Alpha  occ. eigenvalues --   -0.61746  -0.53340  -0.51165  -0.49926  -0.48382
 Alpha  occ. eigenvalues --   -0.47033  -0.46508  -0.46320  -0.44495  -0.43966
 Alpha  occ. eigenvalues --   -0.39703  -0.38511  -0.35906  -0.34405  -0.33530
 Alpha  occ. eigenvalues --   -0.32038  -0.28928  -0.27433  -0.26282  -0.24801
 Alpha  occ. eigenvalues --   -0.24394  -0.22241
 Alpha virt. eigenvalues --    0.05109   0.07215   0.09848   0.10963   0.11416
 Alpha virt. eigenvalues --    0.12059   0.12548   0.13439   0.17562   0.17625
 Alpha virt. eigenvalues --    0.18265   0.19954   0.20559   0.21138   0.22004

 Mulliken charges:
               1
     1  C    0.274494
     2  O   -3.124943
     3  F    0.469896
     4  F    0.737312
     5  F    0.568771
     6  H    1.159491
     7  O   -2.718646
     8  C    0.232866
     9  H    0.672372
    10  F    0.583748
    11  F    0.626185
    12  F    0.518453
 Sum of Mulliken charges =  -0.00000

 Dipole moment (field-independent basis, Debye):
    X=             -2.0122    Y=             -2.4442    Z=              1.5201  Tot=              3.5120

 Test job not archived.
 1\1\GINC-SE143\SP\RHF\Aug-CC-pVDZ\C2H2F6O2\OHZDE\09-Apr-2025\0\\#t hf
 aug-cc-pvdz iop(5/13=1,5/36=2,99/5=2) pseudo=read geom=check guess=(re
 ad,tcheck) scf=(maxcycle=1)\\title\\0,1\C,0,2.13896,0.0375,0.00421\O,0
 ,1.55972,1.18917,-0.33198\F,0,1.89162,-0.93932,-0.89863\F,0,3.44546,0.
 20858,0.07631\F,0,1.70749,-0.43559,1.18333\H,0,0.61144,1.03978,-0.4461
 4\O,0,-0.83608575,0.05497217,-0.78580125\C,0,-1.93481575,0.02496217,0.
 00539875\H,0,-0.65736575,-0.81832783,-1.14492125\F,0,-1.81747575,-0.87
 518783,0.98090875\F,0,-3.03082575,-0.28035783,-0.68803125\F,0,-2.08166

 Normal termination of Gaussian 16 at Wed Apr  9 03:03:47 2025.
