 Gaussian 16, Revision C.01,

 ----------------------------------------------------------------------
 #t hf aug-cc-pvdz symm=none int=(grid=ultrafine) guess=(read,tcheck) s
 table=(opt,rrhf)
 ----------------------------------------------------------------------
 -----
 title
 -----
 Symbolic Z-matrix:
 Charge =  0 Multiplicity = 1

 SCF Done:  E(RHF) =  -1054.59150028     A.U. after   14 cycles

 1\1\GINC-SE187\Stability\RHF\Aug-CC-pVDZ\C12H6F6\OHZDE\09-Apr-2025\0\\
 #t hf aug-cc-pvdz symm=none int=(grid=ultrafine) guess=(read,tcheck) s
 table=(opt,rrhf)\\title\\0,1\C,0,-1.05492,1.38134,-0.46157\C,0,-0.2198
 5,0.74322,-1.36181\C,0,-1.8503,0.63831,0.39257\F,0,-1.07636,2.70339,-0
 .40254\C,0,-0.17808,-0.63935,-1.40641\F,0,0.545,1.45496,-2.17284\C,0,-
 1.80849,-0.74408,0.34809\F,0,-2.63364,1.24984,1.26796\C,0,-0.97186,-1.
 38232,-0.55041\F,0,0.62544,-1.25007,-2.26137\F,0,-2.5528,-1.4566,1.180
 18\F,0,-0.91673,-2.70456,-0.57861\C,0,1.46596417,-0.57481163,2.0813229

 Normal termination of Gaussian 16 at Wed Apr  9 03:11:13 2025.
 Gaussian 16:  ES64L-G16RevC.01  3-Jul-2019

 ----------------------------------------------------------------------
 #t hf aug-cc-pvdz iop(5/13=1,5/36=2,99/5=2) pseudo=read geom=check gue
 ss=(read,tcheck) scf=(maxcycle=1)
 ----------------------------------------------------------------------
 -----
 title
 -----
 Structure from the checkpoint file:  "F-set_c6h6_c6f6_105_dimer_mol1.chk"
 Charge =  0 Multiplicity = 1

                         Standard orientation:
 ---------------------------------------------------------------------
 Center     Atomic      Atomic             Coordinates (Angstroms)
 Number     Number       Type             X           Y           Z
 ---------------------------------------------------------------------
      1          6           0       -1.135355   -1.381371    0.411231
      2          6           0       -0.362811   -0.743071    1.365547
      3          6           0       -1.871527   -0.638512   -0.494578
      4          9           0       -1.152654   -2.703430    0.351044
      5          6           0       -0.324263    0.639508    1.412698
      6          9           0        0.345798   -1.454648    2.226286
      7          6           0       -1.832931    0.743886   -0.447544
      8          9           0       -2.594133   -1.250215   -1.420623
      9          6           0       -1.058714    1.382307    0.505141
     10          9           0        0.419852    1.250400    2.319717
     11          9           0       -2.519630    1.456243   -1.327913
     12          9           0       -1.005727    2.704555    0.536835
     13          6           0        1.550742    0.574754   -1.956499
     14          1           0        0.937888    1.024320   -2.726320
     15          6           0        2.258244    1.379850   -1.075173
     16          6           0        1.628657   -0.805427   -1.850857
     17          1           0        2.195398    2.456835   -1.156803
     18          6           0        3.042293    0.803745   -0.087254
     19          6           0        2.413444   -1.381652   -0.862879
     20          1           0        1.076476   -1.432926   -2.537290
     21          1           0        3.589323    1.430514    0.603331
     22          6           0        3.119345   -0.577336    0.019141
     23          1           0        2.470379   -2.458057   -0.777568
     24          1           0        3.726234   -1.026922    0.792699
 ---------------------------------------------------------------------

 SCF Done:  E(RHF) =  -1058.73403453     A.U. after    2 cycles

 The electronic state is 1-A.
 Alpha  occ. eigenvalues --  -29.33121 -29.33015 -29.32990 -29.32970 -29.32881
 Alpha  occ. eigenvalues --  -29.32825 -11.62969 -11.55086 -11.54785 -11.52969
 Alpha  occ. eigenvalues --  -11.52144 -11.52050 -11.46893 -11.43434 -11.43326
 Alpha  occ. eigenvalues --  -11.40900 -11.40847 -11.36567  -1.49774  -1.34591
 Alpha  occ. eigenvalues --   -1.30183  -1.30152  -1.10776  -1.10747  -1.09805
 Alpha  occ. eigenvalues --   -1.09783  -0.92766  -0.92749  -0.86532  -0.86523
 Alpha  occ. eigenvalues --   -0.78795  -0.77358  -0.77338  -0.72975  -0.69263
 Alpha  occ. eigenvalues --   -0.66239  -0.66129  -0.66017  -0.58949  -0.58920
 Alpha  occ. eigenvalues --   -0.57400  -0.57395  -0.56697  -0.50930  -0.45354
 Alpha  occ. eigenvalues --   -0.45349  -0.44923  -0.44915  -0.44804  -0.43486
 Alpha  occ. eigenvalues --   -0.42672  -0.42631  -0.40869  -0.40830  -0.37889
 Alpha  occ. eigenvalues --   -0.34036  -0.33597  -0.32301  -0.32294  -0.31338
 Alpha  occ. eigenvalues --   -0.31320  -0.30502  -0.28133  -0.28033  -0.19367
 Alpha  occ. eigenvalues --   -0.19350
 Alpha virt. eigenvalues --    0.04461   0.04980   0.04987   0.06126   0.06131
 Alpha virt. eigenvalues --    0.07496   0.08417   0.10516   0.10544   0.10588
 Alpha virt. eigenvalues --    0.10727   0.10985   0.11585   0.11748   0.12149

 Mulliken charges:
               1
     1  C   -1.291784
     2  C   -0.468338
     3  C   -0.885860
     4  F    0.995660
     5  C   -0.557705
     6  F    0.944349
     7  C   -1.088225
     8  F    1.038509
     9  C   -1.387639
    10  F    0.948511
    11  F    1.041511
    12  F    1.000528
    13  C   -1.720787
    14  H    1.769709
    15  C   -1.426221
    16  C   -1.764117
    17  H    1.674284
    18  C   -1.988503
    19  C   -1.817669
    20  H    1.746587
    21  H    1.651306
    22  C   -1.695496
    23  H    1.640060
    24  H    1.641330
 Sum of Mulliken charges =  -0.00000

 Dipole moment (field-independent basis, Debye):
    X=              0.6496    Y=              0.0058    Z=             -0.0349  Tot=              0.6506

 Test job not archived.
 1\1\GINC-SE187\SP\RHF\Aug-CC-pVDZ\C12H6F6\OHZDE\09-Apr-2025\0\\#t hf a
 ug-cc-pvdz iop(5/13=1,5/36=2,99/5=2) pseudo=read geom=check guess=(rea
 d,tcheck) scf=(maxcycle=1)\\title\\0,1\C,0,-1.05492,1.38134,-0.46157\C
 ,0,-0.21985,0.74322,-1.36181\C,0,-1.8503,0.63831,0.39257\F,0,-1.07636,
 2.70339,-0.40254\C,0,-0.17808,-0.63935,-1.40641\F,0,0.545,1.45496,-2.1
 7284\C,0,-1.80849,-0.74408,0.34809\F,0,-2.63364,1.24984,1.26796\C,0,-0
 .97186,-1.38232,-0.55041\F,0,0.62544,-1.25007,-2.26137\F,0,-2.5528,-1.
 4566,1.18018\F,0,-0.91673,-2.70456,-0.57861\C,0,1.46596417,-0.57481163

 Normal termination of Gaussian 16 at Wed Apr  9 03:11:45 2025.
