 Gaussian 16, Revision C.01,

 ----------------------------------------------------------------------
 #t hf aug-cc-pvdz symm=none int=(grid=ultrafine) guess=(read,tcheck) s
 table=(opt,rrhf)
 ----------------------------------------------------------------------
 -----
 title
 -----
 Symbolic Z-matrix:
 Charge =  0 Multiplicity = 1

 SCF Done:  E(RHF) =  -524.449012997     A.U. after   13 cycles
 Normal termination of Gaussian 16 at Wed Apr  9 03:02:35 2025.
 Gaussian 16:  ES64L-G16RevC.01  3-Jul-2019

 ----------------------------------------------------------------------
 #t hf aug-cc-pvdz iop(5/13=1,5/36=2,99/5=2) pseudo=read geom=check gue
 ss=(read,tcheck) scf=(maxcycle=1)
 ----------------------------------------------------------------------
 -----
 title
 -----
 Structure from the checkpoint file:  "F-set_cf3co2h_cf3co2h_090_dimer_mol2.chk"
 Charge =  0 Multiplicity = 1

                         Standard orientation:
 ---------------------------------------------------------------------
 Center     Atomic      Atomic             Coordinates (Angstroms)
 Number     Number       Type             X           Y           Z
 ---------------------------------------------------------------------
      1          6           0       -0.940661    0.159470   -0.000010
      2          8           0       -1.522232   -1.034079   -0.000020
      3          8           0       -1.492330    1.212811   -0.000010
      4          1           0       -2.476532   -0.903338    0.000080
      5          6           0        0.602029   -0.001141   -0.000010
      6          9           0        0.996798   -0.672462    1.081430
      7          9           0        0.996698   -0.674082   -1.080470
      8          9           0        1.187040    1.182488   -0.000930
 ---------------------------------------------------------------------

 SCF Done:  E(RHF) =  -526.368195217     A.U. after    2 cycles

 The electronic state is 1-A.
 Alpha  occ. eigenvalues --  -29.33343 -29.33310 -29.33105 -21.16749 -21.10417
 Alpha  occ. eigenvalues --  -11.62956 -11.55346  -1.88075  -1.71126  -1.44330
 Alpha  occ. eigenvalues --   -0.96668  -0.91838  -0.91216  -0.73566  -0.64731
 Alpha  occ. eigenvalues --   -0.59776  -0.53809  -0.49620  -0.46122  -0.45402
 Alpha  occ. eigenvalues --   -0.40483  -0.38828  -0.37682  -0.36991  -0.29315
 Alpha  occ. eigenvalues --   -0.27963  -0.26594  -0.23254
 Alpha virt. eigenvalues --    0.03729   0.09401   0.10694   0.11109   0.12449
 Alpha virt. eigenvalues --    0.12639   0.12750   0.14043   0.17087   0.18463
 Alpha virt. eigenvalues --    0.19870   0.20151   0.20901   0.23843   0.24191

 Mulliken charges:
               1
     1  C    3.493236
     2  O   -2.574705
     3  O   -2.614050
     4  H    0.809233
     5  C   -0.694172
     6  F    0.486389
     7  F    0.486211
     8  F    0.607859
 Sum of Mulliken charges =  -0.00000

 Dipole moment (field-independent basis, Debye):
    X=              1.2152    Y=             -1.2548    Z=              0.0002  Tot=              1.7468

 Test job not archived.
 1\1\GINC-SE458\SP\RHF\Aug-CC-pVDZ\C2H1F3O2\OHZDE\09-Apr-2025\0\\#t hf
 aug-cc-pvdz iop(5/13=1,5/36=2,99/5=2) pseudo=read geom=check guess=(re
 ad,tcheck) scf=(maxcycle=1)\\title\\0,1\C,0,-0.94066,0.15947,-0.00001\
 O,0,-1.52223,-1.03408,-0.00002\O,0,-1.49233,1.21281,-0.00001\H,0,-2.47
 653,-0.90334,0.00008\C,0,0.60203,-0.00114,-0.00001\F,0,0.9968,-0.67246
 ,1.08143\F,0,0.9967,-0.67408,-1.08047\F,0,1.18704,1.18249,-0.00093\\Ve
 rsion=ES64L-G16RevC.01\State=1-A\HF=-526.3681952\RMSD=1.554e-01\Dipole
 =0.478078,-0.4936945,0.0000622\Quadrupole=2.2152891,-1.9687998,-0.2464

 Normal termination of Gaussian 16 at Wed Apr  9 03:02:37 2025.
