 Gaussian 16, Revision C.01,

 ----------------------------------------------------------------------
 #t hf aug-cc-pvdz symm=none int=(grid=ultrafine) guess=(read,tcheck) s
 table=(opt,rrhf)
 ----------------------------------------------------------------------
 -----
 title
 -----
 Symbolic Z-matrix:
 Charge =  0 Multiplicity = 1

 SCF Done:  E(RHF) =  -179.254315611     A.U. after   11 cycles
 Normal termination of Gaussian 16 at Wed Apr  9 03:03:32 2025.
 Gaussian 16:  ES64L-G16RevC.01  3-Jul-2019

 ----------------------------------------------------------------------
 #t hf aug-cc-pvdz iop(5/13=1,5/36=2,99/5=2) pseudo=read geom=check gue
 ss=(read,tcheck) scf=(maxcycle=1)
 ----------------------------------------------------------------------
 -----
 title
 -----
 Structure from the checkpoint file:  "F-set_ch4_ch3f_090_dimer_mol1.chk"
 Charge =  0 Multiplicity = 1

                         Standard orientation:
 ---------------------------------------------------------------------
 Center     Atomic      Atomic             Coordinates (Angstroms)
 Number     Number       Type             X           Y           Z
 ---------------------------------------------------------------------
      1          6           0        0.995852   -1.734380    0.000000
      2          1           0        1.255337   -2.790422    0.000000
      3          1           0        0.408054   -1.503618    0.885270
      4          1           0        0.408054   -1.503618   -0.885270
      5          1           0        1.906878   -1.139466    0.000000
      6          6           0        0.000000    1.266882    0.000000
      7          9           0       -1.209560    0.603767    0.000000
      8          1           0        0.559128    0.983834    0.891170
      9          1           0        0.559128    0.983834   -0.891170
     10          1           0       -0.185652    2.340543    0.000000
 ---------------------------------------------------------------------

 SCF Done:  E(RHF) =  -180.039125572     A.U. after    2 cycles

 The electronic state is 1-A'.
 Alpha  occ. eigenvalues --  -29.24988 -11.42833 -11.35472  -1.14775  -1.02891
 Alpha  occ. eigenvalues --   -0.66271  -0.62774  -0.62672  -0.53790  -0.53513
 Alpha  occ. eigenvalues --   -0.53435  -0.37077  -0.24627  -0.24545
 Alpha virt. eigenvalues --    0.03600   0.04607   0.06199   0.06339   0.07161
 Alpha virt. eigenvalues --    0.07828   0.08746   0.12601   0.13644   0.14438
 Alpha virt. eigenvalues --    0.16638   0.17509   0.17684   0.20389   0.22142

 Mulliken charges:
               1
     1  C   -5.138175
     2  H    1.211062
     3  H    1.326109
     4  H    1.326109
     5  H    1.251597
     6  C   -4.233613
     7  F    0.132037
     8  H    1.352917
     9  H    1.352917
    10  H    1.419040
 Sum of Mulliken charges =   0.00000

 Dipole moment (field-independent basis, Debye):
    X=             -0.7735    Y=             -0.3605    Z=             -0.0000  Tot=              0.8534

 Test job not archived.
 1\1\GINC-SE249\SP\RHF\Aug-CC-pVDZ\C2H7F1\OHZDE\09-Apr-2025\0\\#t hf au
 g-cc-pvdz iop(5/13=1,5/36=2,99/5=2) pseudo=read geom=check guess=(read
 ,tcheck) scf=(maxcycle=1)\\title\\0,1\C,0,-1.01183,-1.97786,0.\H,0,-1.
 23943,-3.04123,0.\H,0,-0.43124,-1.72952,-0.88527\H,0,-0.43124,-1.72952
 ,0.88527\H,0,-1.94034,-1.41062,0.\C,0,-0.1067118,1.052001,0.\F,0,1.122
 2482,0.425571,0.\H,0,-0.6570718,0.752261,-0.89117\H,0,-0.6570718,0.752
 261,0.89117\H,0,0.0465582,2.130761,0.\\Version=ES64L-G16RevC.01\State=
 1-A'\HF=-180.0391256\RMSD=6.341e-02\Dipole=0.3084538,-0.1326165,0.\Qua

 Normal termination of Gaussian 16 at Wed Apr  9 03:03:35 2025.
