 Gaussian 16, Revision C.01,

 ----------------------------------------------------------------------
 #t hf aug-cc-pvdz symm=none int=(grid=ultrafine) guess=(read,tcheck) s
 table=(opt,rrhf)
 ----------------------------------------------------------------------
 -----
 title
 -----
 Symbolic Z-matrix:
 Charge =  0 Multiplicity = 1

 SCF Done:  E(RHF) =  -254.948179130     A.U. after   13 cycles
 Normal termination of Gaussian 16 at Wed Apr  9 03:02:22 2025.
 Gaussian 16:  ES64L-G16RevC.01  3-Jul-2019

 ----------------------------------------------------------------------
 #t hf aug-cc-pvdz iop(5/13=1,5/36=2,99/5=2) pseudo=read geom=check gue
 ss=(read,tcheck) scf=(maxcycle=1)
 ----------------------------------------------------------------------
 -----
 title
 -----
 Structure from the checkpoint file:  "F-set_c2h4_c2h3f_090_dimer_mol1.chk"
 Charge =  0 Multiplicity = 1

                         Standard orientation:
 ---------------------------------------------------------------------
 Center     Atomic      Atomic             Coordinates (Angstroms)
 Number     Number       Type             X           Y           Z
 ---------------------------------------------------------------------
      1          6           0       -0.686019   -1.849256    0.660810
      2          6           0       -0.686019   -1.849256   -0.660810
      3          1           0       -0.026502   -1.201357    1.223580
      4          1           0       -1.340470   -2.497400    1.229250
      5          1           0       -0.026502   -1.201357   -1.223580
      6          1           0       -1.340470   -2.497400   -1.229250
      7          6           0       -0.686019    1.565173    0.000000
      8          6           0        0.626450    1.629268    0.000000
      9          1           0       -1.207761    0.618967    0.000000
     10          1           0       -1.254092    2.482278    0.000000
     11          1           0        1.218019    2.534604    0.000000
     12          9           0        1.396380    0.531788    0.000000
 ---------------------------------------------------------------------

 SCF Done:  E(RHF) =  -256.067970761     A.U. after    2 cycles

 The electronic state is 1-A'.
 Alpha  occ. eigenvalues --  -29.28389 -11.46850 -11.40099 -11.38699 -11.36547
 Alpha  occ. eigenvalues --   -1.22376  -1.13385  -0.91985  -0.81969  -0.72151
 Alpha  occ. eigenvalues --   -0.63885  -0.62774  -0.55489  -0.54444  -0.50005
 Alpha  occ. eigenvalues --   -0.47571  -0.39373  -0.35918  -0.27590  -0.24348
 Alpha virt. eigenvalues --    0.04087   0.04994   0.05515   0.05767   0.07245
 Alpha virt. eigenvalues --    0.07835   0.08283   0.09912   0.12214   0.12527
 Alpha virt. eigenvalues --    0.13507   0.14917   0.15033   0.15272   0.15975

 Mulliken charges:
               1
     1  C   -2.684801
     2  C   -2.684801
     3  H    1.361404
     4  H    1.276585
     5  H    1.361404
     6  H    1.276585
     7  C   -3.119210
     8  C   -1.644265
     9  H    1.697107
    10  H    1.285593
    11  H    1.463951
    12  F    0.410448
 Sum of Mulliken charges =  -0.00000

 Dipole moment (field-independent basis, Debye):
    X=              1.6521    Y=             -1.0965    Z=              0.0000  Tot=              1.9828

 Test job not archived.
 1\1\GINC-SE120\SP\RHF\Aug-CC-pVDZ\C4H7F1\OHZDE\09-Apr-2025\0\\#t hf au
 g-cc-pvdz iop(5/13=1,5/36=2,99/5=2) pseudo=read geom=check guess=(read
 ,tcheck) scf=(maxcycle=1)\\title\\0,1\C,0,-0.68996,-2.09115,0.66081\C,
 0,-0.68996,-2.09115,-0.66081\H,0,-0.04386,-1.42987,1.22358\H,0,-1.3309
 9,-2.75257,1.22925\H,0,-0.04386,-1.42987,-1.22358\H,0,-1.33099,-2.7525
 7,-1.22925\C,0,-0.75993767,1.32256217,0.\C,0,0.55094233,1.41354217,0.\
 H,0,-1.26217767,0.36586217,0.\H,0,-1.34668767,2.22783217,0.\H,0,1.1238
 3233,2.33081217,0.\F,0,1.34320233,0.33207217,0.\\Version=ES64L-G16RevC

 Normal termination of Gaussian 16 at Wed Apr  9 03:02:26 2025.
