 Gaussian 16, Revision C.01,

 ----------------------------------------------------------------------
 #t hf aug-cc-pvdz symm=none int=(grid=ultrafine) guess=(read,tcheck) s
 table=(opt,rrhf)
 ----------------------------------------------------------------------
 -----
 title
 -----
 Symbolic Z-matrix:
 Charge =  0 Multiplicity = 1

 SCF Done:  E(RHF) =  -666.422582323     A.U. after   14 cycles
 Normal termination of Gaussian 16 at Wed Apr  9 03:03:41 2025.
 Gaussian 16:  ES64L-G16RevC.01  3-Jul-2019

 ----------------------------------------------------------------------
 #t hf aug-cc-pvdz iop(5/13=1,5/36=2,99/5=2) pseudo=read geom=check gue
 ss=(read,tcheck) scf=(maxcycle=1)
 ----------------------------------------------------------------------
 -----
 title
 -----
 Structure from the checkpoint file:  "F-set_c6h6_cf4_100_dimer_mol1.chk"
 Charge =  0 Multiplicity = 1

                         Standard orientation:
 ---------------------------------------------------------------------
 Center     Atomic      Atomic             Coordinates (Angstroms)
 Number     Number       Type             X           Y           Z
 ---------------------------------------------------------------------
      1          6           0       -2.237109   -1.167210   -0.601279
      2          6           0       -1.763689   -1.231980    0.700391
      3          6           0       -2.454769    0.064810   -1.199259
      4          1           0       -2.435359   -2.077560   -1.150429
      5          6           0       -1.508059   -0.064710    1.404061
      6          1           0       -1.590859   -2.192560    1.166101
      7          6           0       -2.198518    1.232000   -0.495899
      8          1           0       -2.822709    0.115320   -2.214959
      9          6           0       -1.725218    1.167290    0.805841
     10          1           0       -1.135899   -0.115270    2.418241
     11          1           0       -2.366458    2.192820   -0.962949
     12          1           0       -1.522098    2.077350    1.353551
     13          6           0        1.976711   -0.000031   -0.102889
     14          9           0        3.212671   -0.002461   -0.570459
     15          9           0        1.129441   -0.000491   -1.108599
     16          9           0        1.793592    1.078279    0.633611
     17          9           0        1.790661   -1.075451    0.637071
 ---------------------------------------------------------------------

 SCF Done:  E(RHF) =  -669.039148976     A.U. after    2 cycles

 The electronic state is 1-A.
 Alpha  occ. eigenvalues --  -29.33633 -29.33631 -29.33573 -29.33418 -11.63633
 Alpha  occ. eigenvalues --  -11.51640 -11.42229 -11.42187 -11.39766 -11.39728
 Alpha  occ. eigenvalues --  -11.35703  -1.52041  -1.33973  -1.08961  -1.08951
 Alpha  occ. eigenvalues --   -0.96297  -0.96199  -0.95978  -0.85689  -0.85687
 Alpha  occ. eigenvalues --   -0.72263  -0.65310  -0.58110  -0.58108  -0.55876
 Alpha  occ. eigenvalues --   -0.50982  -0.50240  -0.46924  -0.46856  -0.46597
 Alpha  occ. eigenvalues --   -0.44535  -0.44517  -0.44202  -0.44129  -0.33609
 Alpha  occ. eigenvalues --   -0.33364  -0.32282  -0.31638  -0.30853  -0.23617
 Alpha  occ. eigenvalues --   -0.23589  -0.23513
 Alpha virt. eigenvalues --    0.03940   0.04895   0.04960   0.06257   0.06288
 Alpha virt. eigenvalues --    0.07448   0.10919   0.11248   0.11470   0.12258
 Alpha virt. eigenvalues --    0.12547   0.13524   0.14081   0.14152   0.14722

 Mulliken charges:
               1
     1  C   -2.130115
     2  C   -1.136740
     3  C   -0.945863
     4  H    1.537985
     5  C   -1.890051
     6  H    1.575297
     7  C   -2.152264
     8  H    1.572214
     9  C   -1.099553
    10  H    1.597571
    11  H    1.535463
    12  H    1.581773
    13  C   -2.107430
    14  F    0.461675
    15  F    0.699836
    16  F    0.451091
    17  F    0.449110
 Sum of Mulliken charges =  -0.00000

 Dipole moment (field-independent basis, Debye):
    X=             -0.0382    Y=             -0.0009    Z=             -0.0782  Tot=              0.0870

 Test job not archived.
 1\1\GINC-SE403\SP\RHF\Aug-CC-pVDZ\C7H6F4\OHZDE\09-Apr-2025\0\\#t hf au
 g-cc-pvdz iop(5/13=1,5/36=2,99/5=2) pseudo=read geom=check guess=(read
 ,tcheck) scf=(maxcycle=1)\\title\\0,1\C,0,2.23711,-1.16721,0.60128\C,0
 ,1.76369,-1.23198,-0.70039\C,0,2.45477,0.06481,1.19926\H,0,2.43536,-2.
 07756,1.15043\C,0,1.50806,-0.06471,-1.40406\H,0,1.59086,-2.19256,-1.16
 61\C,0,2.19852,1.232,0.4959\H,0,2.82271,0.11532,2.21496\C,0,1.72522,1.
 16729,-0.80584\H,0,1.1359,-0.11527,-2.41824\H,0,2.36646,2.19282,0.9629
 5\H,0,1.5221,2.07735,-1.35355\C,0,-1.97671,-0.00003,0.10289\F,0,-3.212

 Normal termination of Gaussian 16 at Wed Apr  9 03:03:49 2025.
