 Gaussian 16, Revision C.01,

 ----------------------------------------------------------------------
 #t hf aug-cc-pvdz symm=none int=(grid=ultrafine) guess=(read,tcheck) s
 table=(opt,rrhf)
 ----------------------------------------------------------------------
 -----
 title
 -----
 Symbolic Z-matrix:
 Charge =  0 Multiplicity = 1

 SCF Done:  E(RHF) =  -278.117265301     A.U. after   10 cycles
 Normal termination of Gaussian 16 at Wed Apr  9 03:03:33 2025.
 Gaussian 16:  ES64L-G16RevC.01  3-Jul-2019

 ----------------------------------------------------------------------
 #t hf aug-cc-pvdz iop(5/13=1,5/36=2,99/5=2) pseudo=read geom=check gue
 ss=(read,tcheck) scf=(maxcycle=1)
 ----------------------------------------------------------------------
 -----
 title
 -----
 Structure from the checkpoint file:  "F-set_ch3f_ch3f_100_dimer_mol1.chk"
 Charge =  0 Multiplicity = 1

                         Standard orientation:
 ---------------------------------------------------------------------
 Center     Atomic      Atomic             Coordinates (Angstroms)
 Number     Number       Type             X           Y           Z
 ---------------------------------------------------------------------
      1          6           0       -1.667286    1.011264    0.000000
      2          1           0       -0.636246    1.361492    0.000000
      3          1           0       -2.182806    1.361493    0.892907
      4          1           0       -2.182806    1.361493   -0.892907
      5          9           0       -1.667286   -0.371736    0.000000
      6          6           0        1.667286   -1.011264    0.000000
      7          1           0        0.636246   -1.361492    0.000000
      8          9           0        1.667286    0.371736    0.000000
      9          1           0        2.182806   -1.361493   -0.892907
     10          1           0        2.182806   -1.361493    0.892907
 ---------------------------------------------------------------------

 SCF Done:  E(RHF) =  -279.215488700     A.U. after    2 cycles

 The electronic state is 1-AG.
 Alpha  occ. eigenvalues --  -29.24920 -29.24915 -11.42332 -11.42234  -1.14288
 Alpha  occ. eigenvalues --   -1.13990  -0.66373  -0.65470  -0.63081  -0.62177
 Alpha  occ. eigenvalues --   -0.62090  -0.60707  -0.37835  -0.36701  -0.25533
 Alpha  occ. eigenvalues --   -0.24820  -0.24454  -0.23831
 Alpha virt. eigenvalues --    0.04458   0.04545   0.05978   0.06269   0.07868
 Alpha virt. eigenvalues --    0.08292   0.12840   0.14568   0.14955   0.15039
 Alpha virt. eigenvalues --    0.15793   0.17742   0.17802   0.19771   0.24437

 Mulliken charges:
               1
     1  C   -4.110431
     2  H    1.277304
     3  H    1.334612
     4  H    1.334612
     5  F    0.163903
     6  C   -4.110431
     7  H    1.277304
     8  F    0.163903
     9  H    1.334612
    10  H    1.334612
 Sum of Mulliken charges =   0.00000

 Dipole moment (field-independent basis, Debye):
    X=              0.0000    Y=              0.0000    Z=              0.0000  Tot=              0.0000

 Test job not archived.
 1\1\GINC-SE227\SP\RHF\Aug-CC-pVDZ\C2H6F2\OHZDE\09-Apr-2025\0\\#t hf au
 g-cc-pvdz iop(5/13=1,5/36=2,99/5=2) pseudo=read geom=check guess=(read
 ,tcheck) scf=(maxcycle=1)\\title\\0,1\C,0,-1.667286,1.011264,0.\H,0,-0
 .636246,1.361492,0.\H,0,-2.182806,1.361493,0.892907\H,0,-2.182806,1.36
 1493,-0.892907\F,0,-1.667286,-0.371736,0.\C,0,1.667286,-1.011264,0.\H,
 0,0.636246,-1.361492,0.\F,0,1.667286,0.371736,0.\H,0,2.182806,-1.36149
 3,-0.892907\H,0,2.182806,-1.361493,0.892907\\Version=ES64L-G16RevC.01\
 State=1-AG\HF=-279.2154887\RMSD=5.070e-02\Dipole=0.,0.,0.\Quadrupole=0

 Normal termination of Gaussian 16 at Wed Apr  9 03:03:34 2025.
