 Gaussian 16, Revision C.01,

 ----------------------------------------------------------------------
 #t hf aug-cc-pvdz symm=none int=(grid=ultrafine) guess=(read,tcheck) s
 table=(opt,rrhf)
 ----------------------------------------------------------------------
 -----
 title
 -----
 Symbolic Z-matrix:
 Charge =  0 Multiplicity = 1

 SCF Done:  E(RHF) =  -1054.59247366     A.U. after   13 cycles

 1\1\GINC-SE113\Stability\RHF\Aug-CC-pVDZ\C12H6F6\OHZDE\09-Apr-2025\0\\
 #t hf aug-cc-pvdz symm=none int=(grid=ultrafine) guess=(read,tcheck) s
 table=(opt,rrhf)\\title\\0,1\C,0,-1.05492,1.38134,-0.46157\C,0,-0.2198
 5,0.74322,-1.36181\C,0,-1.8503,0.63831,0.39257\F,0,-1.07636,2.70339,-0
 .40254\C,0,-0.17808,-0.63935,-1.40641\F,0,0.545,1.45496,-2.17284\C,0,-
 1.80849,-0.74408,0.34809\F,0,-2.63364,1.24984,1.26796\C,0,-0.97186,-1.
 38232,-0.55041\F,0,0.62544,-1.25007,-2.26137\F,0,-2.5528,-1.4566,1.180
 18\F,0,-0.91673,-2.70456,-0.57861\C,0,2.09866083,-0.57449812,2.3952947

 Normal termination of Gaussian 16 at Wed Apr  9 03:08:27 2025.
 Gaussian 16:  ES64L-G16RevC.01  3-Jul-2019

 ----------------------------------------------------------------------
 #t hf aug-cc-pvdz iop(5/13=1,5/36=2,99/5=2) pseudo=read geom=check gue
 ss=(read,tcheck) scf=(maxcycle=1)
 ----------------------------------------------------------------------
 -----
 title
 -----
 Structure from the checkpoint file:  "F-set_c6h6_c6f6_125_dimer_mol1.chk"
 Charge =  0 Multiplicity = 1

                         Standard orientation:
 ---------------------------------------------------------------------
 Center     Atomic      Atomic             Coordinates (Angstroms)
 Number     Number       Type             X           Y           Z
 ---------------------------------------------------------------------
      1          6           0       -1.406889   -1.381472    0.266401
      2          6           0       -0.804858   -0.742653    1.336186
      3          6           0       -1.981452   -0.639107   -0.749989
      4          9           0       -1.413612   -2.703555    0.204657
      5          6           0       -0.775019    0.639951    1.388607
      6          9           0       -0.249943   -1.453759    2.303521
      7          6           0       -1.951546    0.743318   -0.697676
      8          9           0       -2.538978   -1.251305   -1.783563
      9          6           0       -1.347592    1.382256    0.370781
     10          9           0       -0.193106    1.251339    2.407019
     11          9           0       -2.481578    1.455202   -1.680703
     12          9           0       -1.300921    2.704529    0.410398
     13          6           0        2.325237    0.574383   -1.777594
     14          1           0        1.849587    1.023533   -2.639189
     15          6           0        2.875306    1.379957   -0.790706
     16          6           0        2.384682   -0.805742   -1.659906
     17          1           0        2.826766    2.456898   -0.882090
     18          6           0        3.483314    0.804385    0.314580
     19          6           0        2.993407   -1.381434   -0.554438
     20          1           0        1.955135   -1.433613   -2.428747
     21          1           0        3.907088    1.431526    1.086654
     22          6           0        3.541783   -0.576641    0.432867
     23          1           0        3.035503   -2.457795   -0.460414
     24          1           0        4.010927   -1.025811    1.297149
 ---------------------------------------------------------------------

 SCF Done:  E(RHF) =  -1058.73073341     A.U. after    2 cycles

 The electronic state is 1-A.
 Alpha  occ. eigenvalues --  -29.33288 -29.33185 -29.33162 -29.33138 -29.33080
 Alpha  occ. eigenvalues --  -29.33033 -11.62446 -11.54967 -11.54727 -11.52379
 Alpha  occ. eigenvalues --  -11.52100 -11.52087 -11.47170 -11.42970 -11.42900
 Alpha  occ. eigenvalues --  -11.40468 -11.40417 -11.36336  -1.50103  -1.34369
 Alpha  occ. eigenvalues --   -1.30370  -1.30344  -1.10960  -1.10943  -1.09505
 Alpha  occ. eigenvalues --   -1.09480  -0.93041  -0.92964  -0.86256  -0.86248
 Alpha  occ. eigenvalues --   -0.79050  -0.77624  -0.77604  -0.72757  -0.69480
 Alpha  occ. eigenvalues --   -0.66398  -0.66377  -0.65858  -0.58688  -0.58663
 Alpha  occ. eigenvalues --   -0.57500  -0.57461  -0.56460  -0.50654  -0.45126
 Alpha  occ. eigenvalues --   -0.45121  -0.45037  -0.45032  -0.44990  -0.43592
 Alpha  occ. eigenvalues --   -0.42802  -0.42771  -0.40880  -0.40879  -0.37990
 Alpha  occ. eigenvalues --   -0.33505  -0.33442  -0.32477  -0.32465  -0.31522
 Alpha  occ. eigenvalues --   -0.31502  -0.30681  -0.28422  -0.28309  -0.19504
 Alpha  occ. eigenvalues --   -0.19488
 Alpha virt. eigenvalues --    0.04165   0.04953   0.04971   0.06136   0.06152
 Alpha virt. eigenvalues --    0.07447   0.08201   0.10479   0.10511   0.10831
 Alpha virt. eigenvalues --    0.10867   0.11314   0.11471   0.11736   0.12183

 Mulliken charges:
               1
     1  C   -1.261018
     2  C   -0.730238
     3  C   -0.974927
     4  F    1.054296
     5  C   -0.740665
     6  F    1.027065
     7  C   -1.107490
     8  F    1.074497
     9  C   -1.321599
    10  F    1.036117
    11  F    1.067587
    12  F    1.048049
    13  C   -1.843046
    14  H    1.717399
    15  C   -1.486711
    16  C   -1.782885
    17  H    1.660061
    18  C   -1.831755
    19  C   -1.605296
    20  H    1.714716
    21  H    1.649208
    22  C   -1.616491
    23  H    1.633820
    24  H    1.619308
 Sum of Mulliken charges =  -0.00000

 Dipole moment (field-independent basis, Debye):
    X=              0.6628    Y=              0.0029    Z=             -0.0193  Tot=              0.6631

 Test job not archived.
 1\1\GINC-SE113\SP\RHF\Aug-CC-pVDZ\C12H6F6\OHZDE\09-Apr-2025\0\\#t hf a
 ug-cc-pvdz iop(5/13=1,5/36=2,99/5=2) pseudo=read geom=check guess=(rea
 d,tcheck) scf=(maxcycle=1)\\title\\0,1\C,0,-1.05492,1.38134,-0.46157\C
 ,0,-0.21985,0.74322,-1.36181\C,0,-1.8503,0.63831,0.39257\F,0,-1.07636,
 2.70339,-0.40254\C,0,-0.17808,-0.63935,-1.40641\F,0,0.545,1.45496,-2.1
 7284\C,0,-1.80849,-0.74408,0.34809\F,0,-2.63364,1.24984,1.26796\C,0,-0
 .97186,-1.38232,-0.55041\F,0,0.62544,-1.25007,-2.26137\F,0,-2.5528,-1.
 4566,1.18018\F,0,-0.91673,-2.70456,-0.57861\C,0,2.09866083,-0.57449812

 Normal termination of Gaussian 16 at Wed Apr  9 03:08:56 2025.
