 Gaussian 16, Revision C.01,

 ----------------------------------------------------------------------
 #t hf aug-cc-pvdz symm=none int=(grid=ultrafine) guess=(read,tcheck) s
 table=(opt,rrhf)
 ----------------------------------------------------------------------
 -----
 title
 -----
 Symbolic Z-matrix:
 Charge =  0 Multiplicity = 1

 SCF Done:  E(RHF) =  -1054.58550779     A.U. after   14 cycles

 1\1\GINC-SE222\Stability\RHF\Aug-CC-pVDZ\C12H6F6\OHZDE\09-Apr-2025\0\\
 #t hf aug-cc-pvdz symm=none int=(grid=ultrafine) guess=(read,tcheck) s
 table=(opt,rrhf)\\title\\0,1\C,0,-1.05492,1.38134,-0.46157\C,0,-0.2198
 5,0.74322,-1.36181\C,0,-1.8503,0.63831,0.39257\F,0,-1.07636,2.70339,-0
 .40254\C,0,-0.17808,-0.63935,-1.40641\F,0,0.545,1.45496,-2.17284\C,0,-
 1.80849,-0.74408,0.34809\F,0,-2.63364,1.24984,1.26796\C,0,-0.97186,-1.
 38232,-0.55041\F,0,0.62544,-1.25007,-2.26137\F,0,-2.5528,-1.4566,1.180
 18\F,0,-0.91673,-2.70456,-0.57861\C,0,1.14961583,-0.57496837,1.9243370

 Normal termination of Gaussian 16 at Wed Apr  9 03:10:59 2025.
 Gaussian 16:  ES64L-G16RevC.01  3-Jul-2019

 ----------------------------------------------------------------------
 #t hf aug-cc-pvdz iop(5/13=1,5/36=2,99/5=2) pseudo=read geom=check gue
 ss=(read,tcheck) scf=(maxcycle=1)
 ----------------------------------------------------------------------
 -----
 title
 -----
 Structure from the checkpoint file:  "F-set_c6h6_c6f6_095_dimer_mol1.chk"
 Charge =  0 Multiplicity = 1

                         Standard orientation:
 ---------------------------------------------------------------------
 Center     Atomic      Atomic             Coordinates (Angstroms)
 Number     Number       Type             X           Y           Z
 ---------------------------------------------------------------------
      1          6           0       -0.966687   -1.381302    0.515274
      2          6           0       -0.062305   -0.743392    1.346017
      3          6           0       -1.827650   -0.638073   -0.272527
      4          9           0       -0.992940   -2.703342    0.457992
      5          6           0       -0.016932    0.639167    1.387299
      6          9           0        0.764787   -1.455323    2.093288
      7          6           0       -1.782247    0.744307   -0.231368
      8          9           0       -2.678480   -1.249402   -1.082628
      9          6           0       -0.876448    1.382337    0.597516
     10          9           0        0.852382    1.249686    2.175423
     11          9           0       -2.590546    1.457018   -1.001272
     12          9           0       -0.819076    2.704567    0.621376
     13          6           0        1.040498    0.575048   -2.038855
     14          1           0        0.321407    1.024927   -2.710302
     15          6           0        1.869869    1.379785   -1.270730
     16          6           0        1.132751   -0.805174   -1.946090
     17          1           0        1.795974    2.456803   -1.342021
     18          6           0        2.790280    0.803279   -0.408699
     19          6           0        2.053900   -1.381800   -1.084108
     20          1           0        0.485662   -1.432393   -2.544188
     21          1           0        3.432882    1.429768    0.194263
     22          6           0        2.881790   -0.577843   -0.315062
     23          1           0        2.122488   -2.458237   -1.008309
     24          1           0        3.595529   -1.027741    0.360957
 ---------------------------------------------------------------------

 SCF Done:  E(RHF) =  -1058.73441345     A.U. after    2 cycles

 The electronic state is 1-A.
 Alpha  occ. eigenvalues --  -29.33038 -29.32936 -29.32912 -29.32889 -29.32805
 Alpha  occ. eigenvalues --  -29.32746 -11.63529 -11.55323 -11.54979 -11.53422
 Alpha  occ. eigenvalues --  -11.52167 -11.51981 -11.46760 -11.43855 -11.43652
 Alpha  occ. eigenvalues --  -11.41144 -11.41082 -11.36692  -1.49591  -1.34759
 Alpha  occ. eigenvalues --   -1.30143  -1.30115  -1.10791  -1.10742  -1.10019
 Alpha  occ. eigenvalues --   -1.09978  -0.92662  -0.92654  -0.86766  -0.86751
 Alpha  occ. eigenvalues --   -0.78663  -0.77218  -0.77193  -0.73136  -0.69192
 Alpha  occ. eigenvalues --   -0.66452  -0.65997  -0.65875  -0.59179  -0.59140
 Alpha  occ. eigenvalues --   -0.57500  -0.57454  -0.56843  -0.51029  -0.45530
 Alpha  occ. eigenvalues --   -0.45526  -0.44871  -0.44850  -0.44694  -0.43465
 Alpha  occ. eigenvalues --   -0.42624  -0.42580  -0.41035  -0.40947  -0.37898
 Alpha  occ. eigenvalues --   -0.34344  -0.33449  -0.32224  -0.32214  -0.31246
 Alpha  occ. eigenvalues --   -0.31231  -0.30423  -0.28053  -0.27660  -0.19377
 Alpha  occ. eigenvalues --   -0.19294
 Alpha virt. eigenvalues --    0.04631   0.04980   0.04987   0.06113   0.06118
 Alpha virt. eigenvalues --    0.07519   0.08592   0.10350   0.10497   0.10564
 Alpha virt. eigenvalues --    0.10722   0.10949   0.11607   0.11729   0.12062

 Mulliken charges:
               1
     1  C   -1.286640
     2  C   -0.420881
     3  C   -0.844976
     4  F    0.996982
     5  C   -0.573055
     6  F    0.938115
     7  C   -1.053834
     8  F    1.044113
     9  C   -1.357188
    10  F    0.947268
    11  F    1.051479
    12  F    0.999554
    13  C   -1.665553
    14  H    1.845430
    15  C   -1.540969
    16  C   -1.825755
    17  H    1.693653
    18  C   -1.950047
    19  C   -1.996991
    20  H    1.816850
    21  H    1.650989
    22  C   -1.744889
    23  H    1.639068
    24  H    1.637279
 Sum of Mulliken charges =   0.00000

 Dipole moment (field-independent basis, Debye):
    X=              0.5904    Y=              0.0072    Z=              0.0150  Tot=              0.5907

 Test job not archived.
 1\1\GINC-SE222\SP\RHF\Aug-CC-pVDZ\C12H6F6\OHZDE\09-Apr-2025\0\\#t hf a
 ug-cc-pvdz iop(5/13=1,5/36=2,99/5=2) pseudo=read geom=check guess=(rea
 d,tcheck) scf=(maxcycle=1)\\title\\0,1\C,0,-1.05492,1.38134,-0.46157\C
 ,0,-0.21985,0.74322,-1.36181\C,0,-1.8503,0.63831,0.39257\F,0,-1.07636,
 2.70339,-0.40254\C,0,-0.17808,-0.63935,-1.40641\F,0,0.545,1.45496,-2.1
 7284\C,0,-1.80849,-0.74408,0.34809\F,0,-2.63364,1.24984,1.26796\C,0,-0
 .97186,-1.38232,-0.55041\F,0,0.62544,-1.25007,-2.26137\F,0,-2.5528,-1.
 4566,1.18018\F,0,-0.91673,-2.70456,-0.57861\C,0,1.14961583,-0.57496837

 Normal termination of Gaussian 16 at Wed Apr  9 03:11:32 2025.
