 Gaussian 16, Revision C.01,

 ----------------------------------------------------------------------
 #t hf aug-cc-pvdz symm=none int=(grid=ultrafine) guess=(read,tcheck) s
 table=(opt,rrhf)
 ----------------------------------------------------------------------
 -----
 title
 -----
 Symbolic Z-matrix:
 Charge =  0 Multiplicity = 1

 SCF Done:  E(RHF) =  -1048.85379454     A.U. after   13 cycles
 Normal termination of Gaussian 16 at Wed Apr  9 03:04:05 2025.
 Gaussian 16:  ES64L-G16RevC.01  3-Jul-2019

 ----------------------------------------------------------------------
 #t hf aug-cc-pvdz iop(5/13=1,5/36=2,99/5=2) pseudo=read geom=check gue
 ss=(read,tcheck) scf=(maxcycle=1)
 ----------------------------------------------------------------------
 -----
 title
 -----
 Structure from the checkpoint file:  "F-set_cf3co2h_cf3co2h_090_dimer_mol1.chk"
 Charge =  0 Multiplicity = 1

                         Standard orientation:
 ---------------------------------------------------------------------
 Center     Atomic      Atomic             Coordinates (Angstroms)
 Number     Number       Type             X           Y           Z
 ---------------------------------------------------------------------
      1          6           0        0.003856    1.629099   -0.000009
      2          8           0        1.202670    1.134781    0.000121
      3          8           0       -1.038989    1.020472    0.000041
      4          6           0        0.026269    3.180338   -0.000049
      5          1           0        1.169371    0.142639    0.000091
      6          9           0        0.661360    3.625502    1.081531
      7          9           0        0.663370    3.625505   -1.080449
      8          9           0       -1.202670    3.663361   -0.001199
      9          6           0       -0.003856   -1.629099   -0.000009
     10          8           0       -1.202670   -1.134781    0.000121
     11          8           0        1.038989   -1.020472    0.000041
     12          6           0       -0.026269   -3.180338   -0.000049
     13          1           0       -1.169371   -0.142639    0.000091
     14          9           0        1.202670   -3.663361   -0.001199
     15          9           0       -0.661360   -3.625502    1.081531
     16          9           0       -0.663370   -3.625505   -1.080449
 ---------------------------------------------------------------------

 SCF Done:  E(RHF) =  -1052.69537040     A.U. after    2 cycles

 The electronic state is 1-A.
 Alpha  occ. eigenvalues --  -29.34089 -29.34089 -29.34086 -29.34085 -29.33996
 Alpha  occ. eigenvalues --  -29.33994 -21.12531 -21.12412 -21.11985 -21.11961
 Alpha  occ. eigenvalues --  -11.65194 -11.65131 -11.58748 -11.57882  -1.95634
 Alpha  occ. eigenvalues --   -1.86182  -1.81915  -1.69927  -1.45673  -1.44950
 Alpha  occ. eigenvalues --   -1.03835  -0.94835  -0.93224  -0.92833  -0.92773
 Alpha  occ. eigenvalues --   -0.91942  -0.81111  -0.79968  -0.70571  -0.64861
 Alpha  occ. eigenvalues --   -0.63372  -0.60544  -0.57752  -0.50925  -0.50525
 Alpha  occ. eigenvalues --   -0.47153  -0.46847  -0.46524  -0.46494  -0.46133
 Alpha  occ. eigenvalues --   -0.42647  -0.42593  -0.39894  -0.39751  -0.38756
 Alpha  occ. eigenvalues --   -0.38074  -0.37332  -0.35001  -0.32446  -0.28774
 Alpha  occ. eigenvalues --   -0.28766  -0.28474  -0.26660  -0.26482  -0.24018
 Alpha  occ. eigenvalues --   -0.23994
 Alpha virt. eigenvalues --    0.05013   0.07923   0.08511   0.08817   0.09082
 Alpha virt. eigenvalues --    0.10760   0.10772   0.11062   0.11585   0.11872
 Alpha virt. eigenvalues --    0.12767   0.13813   0.16378   0.16704   0.16826

 Mulliken charges:
               1
     1  C    2.020616
     2  O   -3.295994
     3  O   -3.760875
     4  C    1.235816
     5  H    2.730727
     6  F    0.309209
     7  F    0.308962
     8  F    0.451540
     9  C    2.020616
    10  O   -3.295994
    11  O   -3.760875
    12  C    1.235816
    13  H    2.730727
    14  F    0.451540
    15  F    0.309209
    16  F    0.308962
 Sum of Mulliken charges =  -0.00000

 Dipole moment (field-independent basis, Debye):
    X=              0.0000    Y=              0.0000    Z=              0.0004  Tot=              0.0004

 Test job not archived.
 1\1\GINC-SE074\SP\RHF\Aug-CC-pVDZ\C4H2F6O4\OHZDE\09-Apr-2025\0\\#t hf
 aug-cc-pvdz iop(5/13=1,5/36=2,99/5=2) pseudo=read geom=check guess=(re
 ad,tcheck) scf=(maxcycle=1)\\title\\0,1\C,0,-0.00078,1.87956,-0.00001\
 O,0,1.20457,1.4014,0.00012\O,0,-1.03535,1.25697,0.00004\C,0,0.00078,3.
 43096,-0.00005\H,0,1.18461,0.4089,0.00009\F,0,0.62983,3.88462,1.08153\
 F,0,0.63184,3.88465,-1.08045\F,0,-1.23454,3.89742,-0.0012\C,0,0.035304
 ,-1.378448,-0.00001\O,0,-1.170046,-0.900288,0.00012\O,0,1.069874,-0.75
 5858,0.00004\C,0,0.033744,-2.929848,-0.00005\H,0,-1.150086,0.092212,0.

 Normal termination of Gaussian 16 at Wed Apr  9 03:04:11 2025.
