 Gaussian 16, Revision C.01,

 ----------------------------------------------------------------------
 #t hf aug-cc-pvdz symm=none int=(grid=ultrafine) guess=(read,tcheck) s
 table=(opt,rrhf)
 ----------------------------------------------------------------------
 -----
 title
 -----
 Symbolic Z-matrix:
 Charge =  0 Multiplicity = 1

 SCF Done:  E(RHF) =  -1048.89430441     A.U. after   13 cycles
 Normal termination of Gaussian 16 at Wed Apr  9 03:04:19 2025.
 Gaussian 16:  ES64L-G16RevC.01  3-Jul-2019

 ----------------------------------------------------------------------
 #t hf aug-cc-pvdz iop(5/13=1,5/36=2,99/5=2) pseudo=read geom=check gue
 ss=(read,tcheck) scf=(maxcycle=1)
 ----------------------------------------------------------------------
 -----
 title
 -----
 Structure from the checkpoint file:  "F-set_cf3co2h_cf3co2h_150_dimer_mol1.chk"
 Charge =  0 Multiplicity = 1

                         Standard orientation:
 ---------------------------------------------------------------------
 Center     Atomic      Atomic             Coordinates (Angstroms)
 Number     Number       Type             X           Y           Z
 ---------------------------------------------------------------------
      1          6           0        0.016348    3.133465   -0.000009
      2          8           0        1.231961    2.682035    0.000121
      3          8           0       -1.004224    2.488183    0.000041
      4          6           0       -0.016348    4.684521   -0.000049
      5          1           0        1.233921    1.689337    0.000091
      6          9           0        0.602532    5.151960    1.081531
      7          9           0        0.604541    5.152034   -1.080449
      8          9           0       -1.261666    5.123592   -0.001199
      9          6           0       -0.016348   -3.133465   -0.000009
     10          8           0       -1.231961   -2.682035    0.000121
     11          8           0        1.004224   -2.488183    0.000041
     12          6           0        0.016348   -4.684521   -0.000049
     13          1           0       -1.233921   -1.689337    0.000091
     14          9           0        1.261666   -5.123592   -0.001199
     15          9           0       -0.602532   -5.151960    1.081531
     16          9           0       -0.604541   -5.152034   -1.080449
 ---------------------------------------------------------------------

 SCF Done:  E(RHF) =  -1052.73872686     A.U. after    2 cycles

 The electronic state is 1-A.
 Alpha  occ. eigenvalues --  -29.33628 -29.33628 -29.33595 -29.33595 -29.33320
 Alpha  occ. eigenvalues --  -29.33319 -21.17661 -21.17660 -21.10154 -21.10143
 Alpha  occ. eigenvalues --  -11.63383 -11.63294 -11.55657 -11.55641  -1.88993
 Alpha  occ. eigenvalues --   -1.88992  -1.70950  -1.70945  -1.44589  -1.44585
 Alpha  occ. eigenvalues --   -0.97055  -0.97017  -0.92226  -0.92222  -0.91409
 Alpha  occ. eigenvalues --   -0.91406  -0.74748  -0.74697  -0.65268  -0.65212
 Alpha  occ. eigenvalues --   -0.60579  -0.60561  -0.53569  -0.53533  -0.49914
 Alpha  occ. eigenvalues --   -0.49862  -0.46411  -0.46408  -0.45682  -0.45681
 Alpha  occ. eigenvalues --   -0.40610  -0.40605  -0.38985  -0.38957  -0.37699
 Alpha  occ. eigenvalues --   -0.37675  -0.37344  -0.37331  -0.30004  -0.29692
 Alpha  occ. eigenvalues --   -0.28303  -0.28298  -0.26782  -0.26701  -0.23530
 Alpha  occ. eigenvalues --   -0.23530
 Alpha virt. eigenvalues --    0.04269   0.05257   0.07881   0.08802   0.09290
 Alpha virt. eigenvalues --    0.10693   0.11456   0.11963   0.12184   0.12327
 Alpha virt. eigenvalues --    0.12549   0.13880   0.14272   0.14727   0.15402

 Mulliken charges:
               1
     1  C    3.093505
     2  O   -2.718480
     3  O   -2.627834
     4  C   -0.085746
     5  H    0.905226
     6  F    0.431257
     7  F    0.430968
     8  F    0.571104
     9  C    3.093505
    10  O   -2.718480
    11  O   -2.627834
    12  C   -0.085746
    13  H    0.905226
    14  F    0.571104
    15  F    0.431257
    16  F    0.430968
 Sum of Mulliken charges =  -0.00000

 Dipole moment (field-independent basis, Debye):
    X=             -0.0000    Y=              0.0000    Z=              0.0003  Tot=              0.0003

 Test job not archived.
 1\1\GINC-SE208\SP\RHF\Aug-CC-pVDZ\C4H2F6O4\OHZDE\09-Apr-2025\0\\#t hf
 aug-cc-pvdz iop(5/13=1,5/36=2,99/5=2) pseudo=read geom=check guess=(re
 ad,tcheck) scf=(maxcycle=1)\\title\\0,1\C,0,-0.00078,1.87956,-0.00001\
 O,0,1.20457,1.4014,0.00012\O,0,-1.03535,1.25697,0.00004\C,0,0.00078,3.
 43096,-0.00005\H,0,1.18461,0.4089,0.00009\F,0,0.62983,3.88462,1.08153\
 F,0,0.63184,3.88465,-1.08045\F,0,-1.23454,3.89742,-0.0012\C,0,-0.17184
 ,-4.38512,-0.00001\O,0,-1.37719,-3.90696,0.00012\O,0,0.86273,-3.76253,
 0.00004\C,0,-0.1734,-5.93652,-0.00005\H,0,-1.35723,-2.91446,0.00009\F,

 Normal termination of Gaussian 16 at Wed Apr  9 03:04:24 2025.
