 Gaussian 16, Revision C.01,

 ----------------------------------------------------------------------
 #t hf aug-cc-pvdz symm=none int=(grid=ultrafine) guess=(read,tcheck) s
 table=(opt,rrhf)
 ----------------------------------------------------------------------
 -----
 title
 -----
 Symbolic Z-matrix:
 Charge =  0 Multiplicity = 1

 SCF Done:  E(RHF) =  -435.694669141     A.U. after    9 cycles
 Normal termination of Gaussian 16 at Wed Apr  9 03:02:32 2025.
 Gaussian 16:  ES64L-G16RevC.01  3-Jul-2019

 ----------------------------------------------------------------------
 #t hf aug-cc-pvdz iop(5/13=1,5/36=2,99/5=2) pseudo=read geom=check gue
 ss=(read,tcheck) scf=(maxcycle=1)
 ----------------------------------------------------------------------
 -----
 title
 -----
 Structure from the checkpoint file:  "F-set_c6h6_cf4_090_dimer_mol3.chk"
 Charge =  0 Multiplicity = 1

                         Standard orientation:
 ---------------------------------------------------------------------
 Center     Atomic      Atomic             Coordinates (Angstroms)
 Number     Number       Type             X           Y           Z
 ---------------------------------------------------------------------
      1          6           0        0.000000    0.000000    0.000000
      2          9           0        0.761170    0.761170    0.761170
      3          9           0       -0.761170   -0.761170    0.761170
      4          9           0        0.761170   -0.761170   -0.761170
      5          9           0       -0.761170    0.761170   -0.761170
 ---------------------------------------------------------------------

 SCF Done:  E(RHF) =  -437.187043960     A.U. after    2 cycles

 The electronic state is 1-A1.
 Alpha  occ. eigenvalues --  -29.34502 -29.34502 -29.34502 -29.34411 -11.64369
 Alpha  occ. eigenvalues --   -1.52947  -0.97032  -0.97032  -0.97032  -0.51840
 Alpha  occ. eigenvalues --   -0.47521  -0.47521  -0.47521  -0.44945  -0.44945
 Alpha  occ. eigenvalues --   -0.32944  -0.32944  -0.32944  -0.24457  -0.24457
 Alpha  occ. eigenvalues --   -0.24457
 Alpha virt. eigenvalues --    0.11334   0.11334   0.11334   0.15371   0.21104
 Alpha virt. eigenvalues --    0.21104   0.21104   0.21251   0.22714   0.22714
 Alpha virt. eigenvalues --    0.33502   0.33502   0.33502   0.36285   0.36285

 Mulliken charges:
               1
     1  C   -2.471081
     2  F    0.617770
     3  F    0.617770
     4  F    0.617770
     5  F    0.617770
 Sum of Mulliken charges =   0.00000

 Dipole moment (field-independent basis, Debye):
    X=             -0.0000    Y=              0.0000    Z=             -0.0000  Tot=              0.0000

 Test job not archived.
 1\1\GINC-SE114\SP\RHF\Aug-CC-pVDZ\C1F4\OHZDE\09-Apr-2025\0\\#t hf aug-
 cc-pvdz iop(5/13=1,5/36=2,99/5=2) pseudo=read geom=check guess=(read,t
 check) scf=(maxcycle=1)\\title\\0,1\C,0,0.,0.,0.\F,0,0.76117,0.76117,0
 .76117\F,0,-0.76117,-0.76117,0.76117\F,0,0.76117,-0.76117,-0.76117\F,0
 ,-0.76117,0.76117,-0.76117\\Version=ES64L-G16RevC.01\State=1-A1\HF=-43
 7.187044\RMSD=2.391e-02\Dipole=0.,0.,0.\Quadrupole=0.,0.,0.,0.,0.,0.\P
 G=TD [O(C1),4C3(F1)]\\@

 Normal termination of Gaussian 16 at Wed Apr  9 03:02:33 2025.
