 Gaussian 16, Revision C.01,

 ----------------------------------------------------------------------
 #t hf aug-cc-pvdz symm=none int=(grid=ultrafine) guess=(read,tcheck) s
 table=(opt,rrhf)
 ----------------------------------------------------------------------
 -----
 title
 -----
 Symbolic Z-matrix:
 Charge =  0 Multiplicity = 1

 SCF Done:  E(RHF) =  -666.421232347     A.U. after   14 cycles
 Normal termination of Gaussian 16 at Wed Apr  9 03:03:49 2025.
 Gaussian 16:  ES64L-G16RevC.01  3-Jul-2019

 ----------------------------------------------------------------------
 #t hf aug-cc-pvdz iop(5/13=1,5/36=2,99/5=2) pseudo=read geom=check gue
 ss=(read,tcheck) scf=(maxcycle=1)
 ----------------------------------------------------------------------
 -----
 title
 -----
 Structure from the checkpoint file:  "F-set_c6h6_cf4_095_dimer_mol1.chk"
 Charge =  0 Multiplicity = 1

                         Standard orientation:
 ---------------------------------------------------------------------
 Center     Atomic      Atomic             Coordinates (Angstroms)
 Number     Number       Type             X           Y           Z
 ---------------------------------------------------------------------
      1          6           0       -2.141973   -1.167205   -0.592542
      2          6           0       -1.660141   -1.231981    0.706037
      3          6           0       -2.363494    0.064817   -1.189097
      4          1           0       -2.343773   -2.077553   -1.140401
      5          6           0       -1.399961   -0.064714    1.408043
      6          1           0       -1.484304   -2.192563    1.170616
      7          6           0       -2.102697    1.232004   -0.487405
      8          1           0       -2.737998    0.115332   -2.202395
      9          6           0       -1.620985    1.167289    0.811245
     10          1           0       -1.021248   -0.115278    2.419794
     11          1           0       -2.273653    2.192826   -0.953356
     12          1           0       -1.414323    2.077346    1.357633
     13          6           0        1.877022   -0.000033   -0.109930
     14          9           0        3.109931   -0.002464   -0.585487
     15          9           0        1.023263   -0.000487   -1.110137
     16          9           0        1.698674    1.078275    0.627743
     17          9           0        1.695761   -1.075455    0.631214
 ---------------------------------------------------------------------

 SCF Done:  E(RHF) =  -669.038003365     A.U. after    2 cycles

 The electronic state is 1-A.
 Alpha  occ. eigenvalues --  -29.33568 -29.33534 -29.33483 -29.33275 -11.63599
 Alpha  occ. eigenvalues --  -11.51646 -11.42223 -11.42152 -11.39763 -11.39727
 Alpha  occ. eigenvalues --  -11.35668  -1.51997  -1.33918  -1.08989  -1.08982
 Alpha  occ. eigenvalues --   -0.96244  -0.96145  -0.95935  -0.85688  -0.85683
 Alpha  occ. eigenvalues --   -0.72266  -0.65302  -0.58095  -0.58091  -0.55853
 Alpha  occ. eigenvalues --   -0.50895  -0.50368  -0.46926  -0.46827  -0.46593
 Alpha  occ. eigenvalues --   -0.44552  -0.44480  -0.44207  -0.44096  -0.33733
 Alpha  occ. eigenvalues --   -0.33524  -0.32210  -0.31367  -0.30443  -0.23548
 Alpha  occ. eigenvalues --   -0.23510  -0.23431
 Alpha virt. eigenvalues --    0.03986   0.04873   0.04942   0.06269   0.06300
 Alpha virt. eigenvalues --    0.07456   0.10887   0.11134   0.11365   0.12232
 Alpha virt. eigenvalues --    0.12465   0.13235   0.13951   0.14084   0.14714

 Mulliken charges:
               1
     1  C   -2.199869
     2  C   -1.035866
     3  C   -0.871611
     4  H    1.535753
     5  C   -2.082954
     6  H    1.564971
     7  C   -2.232263
     8  H    1.576156
     9  C   -0.983606
    10  H    1.584985
    11  H    1.532526
    12  H    1.571297
    13  C   -2.018724
    14  F    0.459321
    15  F    0.733968
    16  F    0.436091
    17  F    0.429824
 Sum of Mulliken charges =   0.00000

 Dipole moment (field-independent basis, Debye):
    X=              0.0927    Y=             -0.0016    Z=             -0.0928  Tot=              0.1312

 Test job not archived.
 1\1\GINC-SE336\SP\RHF\Aug-CC-pVDZ\C7H6F4\OHZDE\09-Apr-2025\0\\#t hf au
 g-cc-pvdz iop(5/13=1,5/36=2,99/5=2) pseudo=read geom=check guess=(read
 ,tcheck) scf=(maxcycle=1)\\title\\0,1\C,0,2.23711,-1.16721,0.60128\C,0
 ,1.76369,-1.23198,-0.70039\C,0,2.45477,0.06481,1.19926\H,0,2.43536,-2.
 07756,1.15043\C,0,1.50806,-0.06471,-1.40406\H,0,1.59086,-2.19256,-1.16
 61\C,0,2.19852,1.232,0.4959\H,0,2.82271,0.11532,2.21496\C,0,1.72522,1.
 16729,-0.80584\H,0,1.1359,-0.11527,-2.41824\H,0,2.36646,2.19282,0.9629
 5\H,0,1.5221,2.07735,-1.35355\C,0,-1.77867613,-0.00002725,0.0926798\F,

 Normal termination of Gaussian 16 at Wed Apr  9 03:03:58 2025.
