 Gaussian 16, Revision C.01,

 ----------------------------------------------------------------------
 #t hf aug-cc-pvdz symm=none int=(grid=ultrafine) guess=(read,tcheck) s
 table=(opt,rrhf)
 ----------------------------------------------------------------------
 -----
 title
 -----
 Symbolic Z-matrix:
 Charge =  0 Multiplicity = 1

 SCF Done:  E(RHF) =  -823.861294811     A.U. after   11 cycles
 Normal termination of Gaussian 16 at Wed Apr  9 03:03:04 2025.
 Gaussian 16:  ES64L-G16RevC.01  3-Jul-2019

 ----------------------------------------------------------------------
 #t hf aug-cc-pvdz iop(5/13=1,5/36=2,99/5=2) pseudo=read geom=check gue
 ss=(read,tcheck) scf=(maxcycle=1)
 ----------------------------------------------------------------------
 -----
 title
 -----
 Structure from the checkpoint file:  "F-set_c6f6_c6f6_090_dimer_mol2.chk"
 Charge =  0 Multiplicity = 1

                         Standard orientation:
 ---------------------------------------------------------------------
 Center     Atomic      Atomic             Coordinates (Angstroms)
 Number     Number       Type             X           Y           Z
 ---------------------------------------------------------------------
      1          6           0        1.384930    0.000502    0.000000
      2          6           0        0.692460    0.000452    1.199440
      3          6           0        0.692460    0.000452   -1.199440
      4          6           0       -0.692470    0.000311    1.199450
      5          6           0       -1.384910    0.000151   -0.000000
      6          6           0       -0.692470    0.000311   -1.199450
      7          9           0        1.353790   -0.000178    2.344730
      8          9           0       -1.353790   -0.000129    2.344700
      9          9           0       -2.707380   -0.000359   -0.000000
     10          9           0       -1.353790   -0.000129   -2.344700
     11          9           0        1.353790   -0.000178   -2.344730
     12          9           0        2.707380   -0.000478    0.000000
 ---------------------------------------------------------------------

 SCF Done:  E(RHF) =  -826.872514339     A.U. after    2 cycles

 The electronic state is 1-A'.
 Alpha  occ. eigenvalues --  -29.33795 -29.33689 -29.33689 -29.33640 -29.33640
 Alpha  occ. eigenvalues --  -29.33631 -11.62277 -11.54963 -11.54963 -11.52540
 Alpha  occ. eigenvalues --  -11.52539 -11.47730  -1.50788  -1.30946  -1.30946
 Alpha  occ. eigenvalues --   -1.11567  -1.11567  -0.93651  -0.93623  -0.79650
 Alpha  occ. eigenvalues --   -0.78197  -0.78194  -0.70052  -0.66986  -0.66986
 Alpha  occ. eigenvalues --   -0.58048  -0.58048  -0.45553  -0.45529  -0.45528
 Alpha  occ. eigenvalues --   -0.44047  -0.43259  -0.43259  -0.41437  -0.41437
 Alpha  occ. eigenvalues --   -0.38552  -0.33014  -0.33012  -0.32011  -0.32011
 Alpha  occ. eigenvalues --   -0.31147  -0.29006  -0.28858  -0.20002  -0.20001
 Alpha virt. eigenvalues --    0.07831   0.10103   0.10103   0.11334   0.11334
 Alpha virt. eigenvalues --    0.11382   0.11873   0.11873   0.12105   0.13514
 Alpha virt. eigenvalues --    0.13700   0.13700   0.14115   0.14880   0.14880

 Mulliken charges:
               1
     1  C   -1.178914
     2  C   -1.172370
     3  C   -1.172370
     4  C   -1.178192
     5  C   -1.172997
     6  C   -1.178192
     7  F    1.175358
     8  F    1.175834
     9  F    1.175112
    10  F    1.175834
    11  F    1.175358
    12  F    1.175537
 Sum of Mulliken charges =  -0.00000

 Dipole moment (field-independent basis, Debye):
    X=             -0.0001    Y=             -0.0070    Z=             -0.0000  Tot=              0.0070

 Test job not archived.
 1\1\GINC-SE108\SP\RHF\Aug-CC-pVDZ\C6F6\OHZDE\09-Apr-2025\0\\#t hf aug-
 cc-pvdz iop(5/13=1,5/36=2,99/5=2) pseudo=read geom=check guess=(read,t
 check) scf=(maxcycle=1)\\title\\0,1\C,0,-1.38493,-0.0005,0.\C,0,-0.692
 46,-0.00045,1.19944\C,0,-0.69246,-0.00045,-1.19944\C,0,0.69247,-0.0003
 1,1.19945\C,0,1.38491,-0.00015,0.\C,0,0.69247,-0.00031,-1.19945\F,0,-1
 .35379,0.00018,2.34473\F,0,1.35379,0.00013,2.3447\F,0,2.70738,0.00036,
 0.\F,0,1.35379,0.00013,-2.3447\F,0,-1.35379,0.00018,-2.34473\F,0,-2.70
 738,0.00048,0.\\Version=ES64L-G16RevC.01\State=1-A'\HF=-826.8725143\RM

 Normal termination of Gaussian 16 at Wed Apr  9 03:03:12 2025.
