 Gaussian 16, Revision C.01,

 ----------------------------------------------------------------------
 #t hf aug-cc-pvdz symm=none int=(grid=ultrafine) guess=(read,tcheck) s
 table=(opt,rrhf)
 ----------------------------------------------------------------------
 -----
 title
 -----
 Symbolic Z-matrix:
 Charge =  0 Multiplicity = 1

 SCF Done:  E(RHF) =  -411.706196709     A.U. after   11 cycles
 Normal termination of Gaussian 16 at Wed Apr  9 03:03:15 2025.
 Gaussian 16:  ES64L-G16RevC.01  3-Jul-2019

 ----------------------------------------------------------------------
 #t hf aug-cc-pvdz iop(5/13=1,5/36=2,99/5=2) pseudo=read geom=check gue
 ss=(read,tcheck) scf=(maxcycle=1)
 ----------------------------------------------------------------------
 -----
 title
 -----
 Structure from the checkpoint file:  "F-set_cf3oh_cf3oh_090_dimer_mol2.chk"
 Charge =  0 Multiplicity = 1

                         Standard orientation:
 ---------------------------------------------------------------------
 Center     Atomic      Atomic             Coordinates (Angstroms)
 Number     Number       Type             X           Y           Z
 ---------------------------------------------------------------------
      1          6           0        0.005389    0.022228   -0.000278
      2          8           0        1.280373    0.441066   -0.000458
      3          1           0        1.867283   -0.317436    0.001152
      4          9           0       -0.283011   -0.723506    1.075792
      5          9           0       -0.783866    1.079857   -0.002338
      6          9           0       -0.282301   -0.727956   -1.072988
 ---------------------------------------------------------------------

 SCF Done:  E(RHF) =  -413.171969756     A.U. after    2 cycles

 The electronic state is 1-A.
 Alpha  occ. eigenvalues --  -29.32350 -29.31934 -29.31881 -21.14420 -11.61150
 Alpha  occ. eigenvalues --   -1.86594  -1.33672  -0.94415  -0.92510  -0.77195
 Alpha  occ. eigenvalues --   -0.55612  -0.49120  -0.46688  -0.44563  -0.44307
 Alpha  occ. eigenvalues --   -0.37756  -0.33935  -0.32924  -0.26599  -0.25108
 Alpha  occ. eigenvalues --   -0.22347
 Alpha virt. eigenvalues --    0.04235   0.11064   0.11777   0.12109   0.16747
 Alpha virt. eigenvalues --    0.18496   0.19603   0.21411   0.21798   0.22594
 Alpha virt. eigenvalues --    0.22734   0.29299   0.29411   0.31494   0.33702

 Mulliken charges:
               1
     1  C    0.023440
     2  O   -2.742714
     3  H    0.698926
     4  F    0.675556
     5  F    0.668674
     6  F    0.676119
 Sum of Mulliken charges =  -0.00000

 Dipole moment (field-independent basis, Debye):
    X=             -1.4350    Y=             -1.0291    Z=              0.0016  Tot=              1.7659

 Test job not archived.
 1\1\GINC-SE095\SP\RHF\Aug-CC-pVDZ\C1H1F3O1\OHZDE\09-Apr-2025\0\\#t hf
 aug-cc-pvdz iop(5/13=1,5/36=2,99/5=2) pseudo=read geom=check guess=(re
 ad,tcheck) scf=(maxcycle=1)\\title\\0,1\C,0,-0.00539,-0.02223,-0.00028
 \O,0,-1.28038,-0.44105,-0.00046\H,0,-1.86728,0.31746,0.00115\F,0,0.283
 02,0.7235,1.07579\F,0,0.78385,-1.07987,-0.00234\F,0,0.28231,0.72795,-1
 .07299\\Version=ES64L-G16RevC.01\State=1-A\HF=-413.1719698\RMSD=3.242e
 -02\Dipole=0.564581,0.40486,0.0006478\Quadrupole=0.3543306,0.0604626,-
 0.4147932,-1.9834589,-0.0044145,-0.0006192\PG=C01 [X(C1H1F3O1)]\\@

 Normal termination of Gaussian 16 at Wed Apr  9 03:03:17 2025.
