 Gaussian 16, Revision C.01,

 ----------------------------------------------------------------------
 #t hf aug-cc-pvdz symm=none int=(grid=ultrafine) guess=(read,tcheck) s
 table=(opt,rrhf)
 ----------------------------------------------------------------------
 -----
 title
 -----
 Symbolic Z-matrix:
 Charge =  0 Multiplicity = 1

 SCF Done:  E(RHF) =  -1048.91060891     A.U. after   13 cycles
 Normal termination of Gaussian 16 at Wed Apr  9 03:04:32 2025.
 Gaussian 16:  ES64L-G16RevC.01  3-Jul-2019

 ----------------------------------------------------------------------
 #t hf aug-cc-pvdz iop(5/13=1,5/36=2,99/5=2) pseudo=read geom=check gue
 ss=(read,tcheck) scf=(maxcycle=1)
 ----------------------------------------------------------------------
 -----
 title
 -----
 Structure from the checkpoint file:  "F-set_cf3co2h_cf3co2h_110_dimer_mol1.chk"
 Charge =  0 Multiplicity = 1

                         Standard orientation:
 ---------------------------------------------------------------------
 Center     Atomic      Atomic             Coordinates (Angstroms)
 Number     Number       Type             X           Y           Z
 ---------------------------------------------------------------------
      1          6           0        0.003828    2.130176   -0.000009
      2          8           0        1.211997    1.659185    0.000121
      3          8           0       -1.027025    1.501452    0.000041
      4          6           0       -0.003828    3.681558   -0.000049
      5          1           0        1.197933    0.666584    0.000091
      6          9           0        0.622516    4.138947    1.081531
      7          9           0        0.624526    4.138989   -1.080449
      8          9           0       -1.241897    4.140672   -0.001199
      9          6           0       -0.003828   -2.130176   -0.000009
     10          8           0       -1.211997   -1.659185    0.000121
     11          8           0        1.027025   -1.501452    0.000041
     12          6           0        0.003828   -3.681558   -0.000049
     13          1           0       -1.197933   -0.666584    0.000091
     14          9           0        1.241897   -4.140672   -0.001199
     15          9           0       -0.622516   -4.138947    1.081531
     16          9           0       -0.624526   -4.138989   -1.080449
 ---------------------------------------------------------------------

 SCF Done:  E(RHF) =  -1052.75286143     A.U. after    2 cycles

 The electronic state is 1-A.
 Alpha  occ. eigenvalues --  -29.33964 -29.33963 -29.33938 -29.33935 -29.33739
 Alpha  occ. eigenvalues --  -29.33738 -21.17363 -21.17351 -21.11251 -21.11240
 Alpha  occ. eigenvalues --  -11.64346 -11.64119 -11.56786 -11.56690  -1.89636
 Alpha  occ. eigenvalues --   -1.89053  -1.72335  -1.71842  -1.45042  -1.44994
 Alpha  occ. eigenvalues --   -0.97705  -0.97176  -0.92627  -0.92610  -0.92061
 Alpha  occ. eigenvalues --   -0.91755  -0.75099  -0.74763  -0.67674  -0.64537
 Alpha  occ. eigenvalues --   -0.61181  -0.60956  -0.56111  -0.53007  -0.50232
 Alpha  occ. eigenvalues --   -0.50059  -0.46734  -0.46636  -0.46105  -0.45972
 Alpha  occ. eigenvalues --   -0.41500  -0.41100  -0.39813  -0.39390  -0.38297
 Alpha  occ. eigenvalues --   -0.38080  -0.37790  -0.37377  -0.31281  -0.29664
 Alpha  occ. eigenvalues --   -0.28640  -0.28634  -0.27406  -0.27256  -0.23862
 Alpha  occ. eigenvalues --   -0.23856
 Alpha virt. eigenvalues --    0.05050   0.07414   0.08673   0.08854   0.09237
 Alpha virt. eigenvalues --    0.11201   0.11369   0.11747   0.12265   0.12289
 Alpha virt. eigenvalues --    0.12803   0.14456   0.15896   0.16096   0.16740

 Mulliken charges:
               1
     1  C    2.321066
     2  O   -3.080989
     3  O   -2.693242
     4  C    0.952794
     5  H    1.331525
     6  F    0.342870
     7  F    0.342574
     8  F    0.483404
     9  C    2.321066
    10  O   -3.080989
    11  O   -2.693242
    12  C    0.952794
    13  H    1.331525
    14  F    0.483404
    15  F    0.342870
    16  F    0.342574
 Sum of Mulliken charges =  -0.00000

 Dipole moment (field-independent basis, Debye):
    X=             -0.0000    Y=              0.0000    Z=              0.0003  Tot=              0.0003

 Test job not archived.
 1\1\GINC-SE149\SP\RHF\Aug-CC-pVDZ\C4H2F6O4\OHZDE\09-Apr-2025\0\\#t hf
 aug-cc-pvdz iop(5/13=1,5/36=2,99/5=2) pseudo=read geom=check guess=(re
 ad,tcheck) scf=(maxcycle=1)\\title\\0,1\C,0,-0.00078,1.87956,-0.00001\
 O,0,1.20457,1.4014,0.00012\O,0,-1.03535,1.25697,0.00004\C,0,0.00078,3.
 43096,-0.00005\H,0,1.18461,0.4089,0.00009\F,0,0.62983,3.88462,1.08153\
 F,0,0.63184,3.88465,-1.08045\F,0,-1.23454,3.89742,-0.0012\C,0,-0.03374
 4,-2.380672,-0.00001\O,0,-1.239094,-1.902512,0.00012\O,0,1.000826,-1.7
 58082,0.00004\C,0,-0.035304,-3.932072,-0.00005\H,0,-1.219134,-0.910012

 Normal termination of Gaussian 16 at Wed Apr  9 03:05:10 2025.
