 Gaussian 16, Revision C.01,

 ----------------------------------------------------------------------
 #t hf aug-cc-pvdz symm=none int=(grid=ultrafine) guess=(read,tcheck) s
 table=(opt,rrhf)
 ----------------------------------------------------------------------
 -----
 title
 -----
 Symbolic Z-matrix:
 Charge =  0 Multiplicity = 1

 SCF Done:  E(RHF) =  -1054.57819709     A.U. after   14 cycles

 1\1\GINC-SE149\Stability\RHF\Aug-CC-pVDZ\C12H6F6\OHZDE\09-Apr-2025\0\\
 #t hf aug-cc-pvdz symm=none int=(grid=ultrafine) guess=(read,tcheck) s
 table=(opt,rrhf)\\title\\0,1\C,0,-1.05492,1.38134,-0.46157\C,0,-0.2198
 5,0.74322,-1.36181\C,0,-1.8503,0.63831,0.39257\F,0,-1.07636,2.70339,-0
 .40254\C,0,-0.17808,-0.63935,-1.40641\F,0,0.545,1.45496,-2.17284\C,0,-
 1.80849,-0.74408,0.34809\F,0,-2.63364,1.24984,1.26796\C,0,-0.97186,-1.
 38232,-0.55041\F,0,0.62544,-1.25007,-2.26137\F,0,-2.5528,-1.4566,1.180
 18\F,0,-0.91673,-2.70456,-0.57861\C,0,0.99144167,-0.57504675,1.8458440

 Normal termination of Gaussian 16 at Wed Apr  9 03:10:36 2025.
 Gaussian 16:  ES64L-G16RevC.01  3-Jul-2019

 ----------------------------------------------------------------------
 #t hf aug-cc-pvdz iop(5/13=1,5/36=2,99/5=2) pseudo=read geom=check gue
 ss=(read,tcheck) scf=(maxcycle=1)
 ----------------------------------------------------------------------
 -----
 title
 -----
 Structure from the checkpoint file:  "F-set_c6h6_c6f6_090_dimer_mol1.chk"
 Charge =  0 Multiplicity = 1

                         Standard orientation:
 ---------------------------------------------------------------------
 Center     Atomic      Atomic             Coordinates (Angstroms)
 Number     Number       Type             X           Y           Z
 ---------------------------------------------------------------------
      1          6           0       -0.870802   -1.381261    0.567546
      2          6           0        0.105346   -0.743597    1.312859
      3          6           0       -1.799593   -0.637798   -0.138774
      4          9           0       -0.902355   -2.703290    0.512721
      5          6           0        0.154497    0.638950    1.350020
      6          9           0        0.996731   -1.455750    1.981894
      7          6           0       -1.750422    0.744569   -0.101738
      8          9           0       -2.720531   -1.248892   -0.868388
      9          6           0       -0.773033    1.382354    0.641595
     10          9           0        1.091848    1.249235    2.056070
     11          9           0       -2.625147    1.457503   -0.795018
     12          9           0       -0.713522    2.704572    0.660311
     13          6           0        0.754075    0.575239   -2.053731
     14          1           0       -0.022916    1.025314   -2.657088
     15          6           0        1.649864    1.379749   -1.363949
     16          6           0        0.854148   -0.805010   -1.969889
     17          1           0        1.569975    2.456787   -1.428108
     18          6           0        2.644621    0.802991   -0.589080
     19          6           0        1.849636   -1.381888   -1.195136
     20          1           0        0.155348   -1.432053   -2.506867
     21          1           0        3.339395    1.429304   -0.046852
     22          6           0        2.744033   -0.578157   -0.504303
     23          1           0        1.924649   -2.458346   -1.126006
     24          1           0        3.516109   -1.028252    0.104094
 ---------------------------------------------------------------------

 SCF Done:  E(RHF) =  -1058.73248770     A.U. after    2 cycles

 The electronic state is 1-A.
 Alpha  occ. eigenvalues --  -29.33008 -29.32918 -29.32880 -29.32846 -29.32790
 Alpha  occ. eigenvalues --  -29.32728 -11.63915 -11.55591 -11.55159 -11.53708
 Alpha  occ. eigenvalues --  -11.52185 -11.51920 -11.46691 -11.44143 -11.43846
 Alpha  occ. eigenvalues --  -11.41265 -11.41155 -11.36737  -1.49503  -1.34851
 Alpha  occ. eigenvalues --   -1.30165  -1.30136  -1.10898  -1.10835  -1.10124
 Alpha  occ. eigenvalues --   -1.10063  -0.92648  -0.92632  -0.86939  -0.86912
 Alpha  occ. eigenvalues --   -0.78611  -0.77165  -0.77135  -0.73268  -0.69273
 Alpha  occ. eigenvalues --   -0.66649  -0.65943  -0.65770  -0.59375  -0.59319
 Alpha  occ. eigenvalues --   -0.57612  -0.57528  -0.56935  -0.51058  -0.45658
 Alpha  occ. eigenvalues --   -0.45655  -0.44855  -0.44818  -0.44621  -0.43473
 Alpha  occ. eigenvalues --   -0.42617  -0.42573  -0.41183  -0.41062  -0.37912
 Alpha  occ. eigenvalues --   -0.34451  -0.33245  -0.32201  -0.32185  -0.31210
 Alpha  occ. eigenvalues --   -0.31197  -0.30398  -0.28026  -0.27396  -0.19420
 Alpha  occ. eigenvalues --   -0.19277
 Alpha virt. eigenvalues --    0.04726   0.04976   0.04985   0.06108   0.06115
 Alpha virt. eigenvalues --    0.07529   0.08673   0.10269   0.10439   0.10541
 Alpha virt. eigenvalues --    0.10667   0.11041   0.11613   0.11714   0.12000

 Mulliken charges:
               1
     1  C   -1.241300
     2  C   -0.418529
     3  C   -0.853613
     4  F    1.007242
     5  C   -0.628251
     6  F    0.959442
     7  C   -1.050450
     8  F    1.054923
     9  C   -1.303065
    10  F    0.976991
    11  F    1.058820
    12  F    1.011223
    13  C   -1.717473
    14  H    1.895018
    15  C   -1.626840
    16  C   -1.933180
    17  H    1.709554
    18  C   -1.893781
    19  C   -2.065626
    20  H    1.867351
    21  H    1.658441
    22  C   -1.750874
    23  H    1.647327
    24  H    1.636649
 Sum of Mulliken charges =  -0.00000

 Dipole moment (field-independent basis, Debye):
    X=              0.5488    Y=              0.0095    Z=              0.0886  Tot=              0.5560

 Test job not archived.
 1\1\GINC-SE149\SP\RHF\Aug-CC-pVDZ\C12H6F6\OHZDE\09-Apr-2025\0\\#t hf a
 ug-cc-pvdz iop(5/13=1,5/36=2,99/5=2) pseudo=read geom=check guess=(rea
 d,tcheck) scf=(maxcycle=1)\\title\\0,1\C,0,-1.05492,1.38134,-0.46157\C
 ,0,-0.21985,0.74322,-1.36181\C,0,-1.8503,0.63831,0.39257\F,0,-1.07636,
 2.70339,-0.40254\C,0,-0.17808,-0.63935,-1.40641\F,0,0.545,1.45496,-2.1
 7284\C,0,-1.80849,-0.74408,0.34809\F,0,-2.63364,1.24984,1.26796\C,0,-0
 .97186,-1.38232,-0.55041\F,0,0.62544,-1.25007,-2.26137\F,0,-2.5528,-1.
 4566,1.18018\F,0,-0.91673,-2.70456,-0.57861\C,0,0.99144167,-0.57504675

 Normal termination of Gaussian 16 at Wed Apr  9 03:11:09 2025.
