 Gaussian 16, Revision C.01,

 ----------------------------------------------------------------------
 #t hf aug-cc-pvdz symm=none int=(grid=ultrafine) guess=(read,tcheck) s
 table=(opt,rrhf)
 ----------------------------------------------------------------------
 -----
 title
 -----
 Symbolic Z-matrix:
 Charge =  0 Multiplicity = 1

 SCF Done:  E(RHF) =  -179.256729933     A.U. after   11 cycles
 Normal termination of Gaussian 16 at Wed Apr  9 03:03:31 2025.
 Gaussian 16:  ES64L-G16RevC.01  3-Jul-2019

 ----------------------------------------------------------------------
 #t hf aug-cc-pvdz iop(5/13=1,5/36=2,99/5=2) pseudo=read geom=check gue
 ss=(read,tcheck) scf=(maxcycle=1)
 ----------------------------------------------------------------------
 -----
 title
 -----
 Structure from the checkpoint file:  "F-set_ch4_ch3f_100_dimer_mol1.chk"
 Charge =  0 Multiplicity = 1

                         Standard orientation:
 ---------------------------------------------------------------------
 Center     Atomic      Atomic             Coordinates (Angstroms)
 Number     Number       Type             X           Y           Z
 ---------------------------------------------------------------------
      1          6           0        1.011827   -1.977862    0.000000
      2          1           0        1.239425   -3.041232    0.000000
      3          1           0        0.431237   -1.729521    0.885270
      4          1           0        0.431237   -1.729521   -0.885270
      5          1           0        1.940337   -1.410623    0.000000
      6          6           0       -0.000000    1.385369    0.000000
      7          9           0       -1.228961    0.758941    0.000000
      8          1           0        0.550360    1.085629    0.891170
      9          1           0        0.550360    1.085629   -0.891170
     10          1           0       -0.153269    2.464129    0.000000
 ---------------------------------------------------------------------

 SCF Done:  E(RHF) =  -180.040743855     A.U. after    2 cycles

 The electronic state is 1-A'.
 Alpha  occ. eigenvalues --  -29.25045 -11.42890 -11.35504  -1.14678  -1.02926
 Alpha  occ. eigenvalues --   -0.66213  -0.62633  -0.62555  -0.53712  -0.53568
 Alpha  occ. eigenvalues --   -0.53475  -0.37113  -0.24636  -0.24617
 Alpha virt. eigenvalues --    0.03476   0.04553   0.06200   0.06337   0.07167
 Alpha virt. eigenvalues --    0.07818   0.08537   0.12679   0.13906   0.14375
 Alpha virt. eigenvalues --    0.16596   0.17186   0.17383   0.20234   0.22167

 Mulliken charges:
               1
     1  C   -5.102786
     2  H    1.217574
     3  H    1.305010
     4  H    1.305010
     5  H    1.252731
     6  C   -4.238160
     7  F    0.154238
     8  H    1.344562
     9  H    1.344562
    10  H    1.417258
 Sum of Mulliken charges =   0.00000

 Dipole moment (field-independent basis, Debye):
    X=             -0.7481    Y=             -0.3525    Z=              0.0000  Tot=              0.8270

 Test job not archived.
 1\1\GINC-SE342\SP\RHF\Aug-CC-pVDZ\C2H7F1\OHZDE\09-Apr-2025\0\\#t hf au
 g-cc-pvdz iop(5/13=1,5/36=2,99/5=2) pseudo=read geom=check guess=(read
 ,tcheck) scf=(maxcycle=1)\\title\\0,1\C,0,-1.01183,-1.97786,0.\H,0,-1.
 23943,-3.04123,0.\H,0,-0.43124,-1.72952,-0.88527\H,0,-0.43124,-1.72952
 ,0.88527\H,0,-1.94034,-1.41062,0.\C,0,0.,1.38537,0.\F,0,1.22896,0.7589
 4,0.\H,0,-0.55036,1.08563,-0.89117\H,0,-0.55036,1.08563,0.89117\H,0,0.
 15327,2.46413,0.\\Version=ES64L-G16RevC.01\State=1-A'\HF=-180.0407439\
 RMSD=5.956e-02\Dipole=0.2943316,-0.138696,0.\Quadrupole=0.1820499,-0.4

 Normal termination of Gaussian 16 at Wed Apr  9 03:03:33 2025.
