 Gaussian 16, Revision C.01,

 ----------------------------------------------------------------------
 #t hf aug-cc-pvdz symm=none int=(grid=ultrafine) guess=(read,tcheck) s
 table=(opt,rrhf)
 ----------------------------------------------------------------------
 -----
 title
 -----
 Symbolic Z-matrix:
 Charge =  0 Multiplicity = 1

 SCF Done:  E(RHF) =  -179.255916090     A.U. after   11 cycles
 Normal termination of Gaussian 16 at Wed Apr  9 03:03:32 2025.
 Gaussian 16:  ES64L-G16RevC.01  3-Jul-2019

 ----------------------------------------------------------------------
 #t hf aug-cc-pvdz iop(5/13=1,5/36=2,99/5=2) pseudo=read geom=check gue
 ss=(read,tcheck) scf=(maxcycle=1)
 ----------------------------------------------------------------------
 -----
 title
 -----
 Structure from the checkpoint file:  "F-set_ch4_ch3f_095_dimer_mol1.chk"
 Charge =  0 Multiplicity = 1

                         Standard orientation:
 ---------------------------------------------------------------------
 Center     Atomic      Atomic             Coordinates (Angstroms)
 Number     Number       Type             X           Y           Z
 ---------------------------------------------------------------------
      1          6           0        1.004309   -1.856466    0.000000
      2          1           0        1.247167   -2.916456    0.000000
      3          1           0        0.420211   -1.616495    0.885270
      4          1           0        0.420211   -1.616495   -0.885270
      5          1           0        1.924572   -1.275942    0.000000
      6          6           0        0.000000    1.325976    0.000000
      7          9           0       -1.219831    0.681951    0.000000
      8          1           0        0.554610    1.034176    0.891170
      9          1           0        0.554610    1.034176   -0.891170
     10          1           0       -0.168756    2.402422    0.000000
 ---------------------------------------------------------------------

 SCF Done:  E(RHF) =  -180.040106749     A.U. after    2 cycles

 The electronic state is 1-A'.
 Alpha  occ. eigenvalues --  -29.25021 -11.42870 -11.35497  -1.14702  -1.02918
 Alpha  occ. eigenvalues --   -0.66232  -0.62674  -0.62593  -0.53746  -0.53528
 Alpha  occ. eigenvalues --   -0.53497  -0.37097  -0.24618  -0.24605
 Alpha virt. eigenvalues --    0.03534   0.04580   0.06205   0.06339   0.07165
 Alpha virt. eigenvalues --    0.07822   0.08639   0.12651   0.13779   0.14395
 Alpha virt. eigenvalues --    0.16627   0.17347   0.17511   0.20319   0.22159

 Mulliken charges:
               1
     1  C   -5.123996
     2  H    1.214544
     3  H    1.315451
     4  H    1.315451
     5  H    1.254836
     6  C   -4.236171
     7  F    0.142006
     8  H    1.349090
     9  H    1.349090
    10  H    1.419700
 Sum of Mulliken charges =  -0.00000

 Dipole moment (field-independent basis, Debye):
    X=             -0.7595    Y=             -0.3569    Z=             -0.0000  Tot=              0.8392

 Test job not archived.
 1\1\GINC-SE322\SP\RHF\Aug-CC-pVDZ\C2H7F1\OHZDE\09-Apr-2025\0\\#t hf au
 g-cc-pvdz iop(5/13=1,5/36=2,99/5=2) pseudo=read geom=check guess=(read
 ,tcheck) scf=(maxcycle=1)\\title\\0,1\C,0,-1.01183,-1.97786,0.\H,0,-1.
 23943,-3.04123,0.\H,0,-0.43124,-1.72952,-0.88527\H,0,-0.43124,-1.72952
 ,0.88527\H,0,-1.94034,-1.41062,0.\C,0,-0.0533559,1.2186855,0.\F,0,1.17
 56041,0.5922555,0.\H,0,-0.6037159,0.9189455,-0.89117\H,0,-0.6037159,0.
 9189455,0.89117\H,0,0.0999141,2.2974455,0.\\Version=ES64L-G16RevC.01\S
 tate=1-A'\HF=-180.0401067\RMSD=6.131e-02\Dipole=0.3007953,-0.1360911,0

 Normal termination of Gaussian 16 at Wed Apr  9 03:03:35 2025.
