 Gaussian 16, Revision C.01,

 ----------------------------------------------------------------------
 #t hf aug-cc-pvdz symm=none int=(grid=ultrafine) guess=(read,tcheck) s
 table=(opt,rrhf)
 ----------------------------------------------------------------------
 -----
 title
 -----
 Symbolic Z-matrix:
 Charge =  0 Multiplicity = 1

 SCF Done:  E(RHF) =  -823.412665370     A.U. after   11 cycles
 Normal termination of Gaussian 16 at Wed Apr  9 03:03:52 2025.
 Gaussian 16:  ES64L-G16RevC.01  3-Jul-2019

 ----------------------------------------------------------------------
 #t hf aug-cc-pvdz iop(5/13=1,5/36=2,99/5=2) pseudo=read geom=check gue
 ss=(read,tcheck) scf=(maxcycle=1)
 ----------------------------------------------------------------------
 -----
 title
 -----
 Structure from the checkpoint file:  "F-set_cf3oh_cf3oh_150_dimer_mol1.chk"
 Charge =  0 Multiplicity = 1

                         Standard orientation:
 ---------------------------------------------------------------------
 Center     Atomic      Atomic             Coordinates (Angstroms)
 Number     Number       Type             X           Y           Z
 ---------------------------------------------------------------------
      1          6           0        3.093415    0.035231    0.002160
      2          8           0        2.540807    1.194378   -0.352648
      3          9           0        2.811785   -0.953365   -0.877519
      4          9           0        4.404565    0.173640    0.058169
      5          9           0        2.661767   -0.401828    1.195041
      6          1           0        1.587875    1.067430   -0.454581
      7          8           0       -1.987388   -0.003731   -0.801757
      8          6           0       -3.078488    0.011382    0.000352
      9          1           0       -1.834958   -0.888673   -1.144108
     10          9           0       -2.974643   -0.871046    0.993426
     11          9           0       -4.188972   -0.279600   -0.676004
     12          9           0       -3.188927    1.222908    0.508984
 ---------------------------------------------------------------------

 SCF Done:  E(RHF) =  -826.345857003     A.U. after    2 cycles

 The electronic state is 1-A.
 Alpha  occ. eigenvalues --  -29.33228 -29.33033 -29.32855 -29.32514 -29.31893
 Alpha  occ. eigenvalues --  -29.31698 -21.15015 -21.14680 -11.61921 -11.61406
 Alpha  occ. eigenvalues --   -1.87067  -1.86851  -1.34827  -1.33428  -0.95370
 Alpha  occ. eigenvalues --   -0.94456  -0.93690  -0.92317  -0.78096  -0.77150
 Alpha  occ. eigenvalues --   -0.56389  -0.55818  -0.50023  -0.49148  -0.47420
 Alpha  occ. eigenvalues --   -0.46854  -0.45577  -0.45249  -0.44595  -0.44253
 Alpha  occ. eigenvalues --   -0.38484  -0.37969  -0.34532  -0.34216  -0.34078
 Alpha  occ. eigenvalues --   -0.32711  -0.27605  -0.26599  -0.26129  -0.25022
 Alpha  occ. eigenvalues --   -0.23289  -0.22348
 Alpha virt. eigenvalues --    0.04386   0.06256   0.10486   0.10935   0.11439
 Alpha virt. eigenvalues --    0.11929   0.12256   0.13683   0.14966   0.15936
 Alpha virt. eigenvalues --    0.17056   0.19005   0.19883   0.20099   0.21449

 Mulliken charges:
               1
     1  C    0.227650
     2  O   -2.961265
     3  F    0.611560
     4  F    0.679465
     5  F    0.644028
     6  H    0.788475
     7  O   -2.754106
     8  C    0.075306
     9  H    0.726055
    10  F    0.670653
    11  F    0.667041
    12  F    0.625137
 Sum of Mulliken charges =  -0.00000

 Dipole moment (field-independent basis, Debye):
    X=             -1.3740    Y=             -2.2151    Z=              1.4235  Tot=              2.9701

 Test job not archived.
 1\1\GINC-SE040\SP\RHF\Aug-CC-pVDZ\C2H2F6O2\OHZDE\09-Apr-2025\0\\#t hf
 aug-cc-pvdz iop(5/13=1,5/36=2,99/5=2) pseudo=read geom=check guess=(re
 ad,tcheck) scf=(maxcycle=1)\\title\\0,1\C,0,2.13896,0.0375,0.00421\O,0
 ,1.55972,1.18917,-0.33198\F,0,1.89162,-0.93932,-0.89863\F,0,3.44546,0.
 20858,0.07631\F,0,1.70749,-0.43559,1.18333\H,0,0.61144,1.03978,-0.4461
 4\O,0,-2.9311925,-0.11599167,-0.8515675\C,0,-4.0299225,-0.14600167,-0.
 0603675\H,0,-2.7524725,-0.98929167,-1.2106875\F,0,-3.9125825,-1.046151
 67,0.9151425\F,0,-5.1259325,-0.45132167,-0.7537975\F,0,-4.1767725,1.05

 Normal termination of Gaussian 16 at Wed Apr  9 03:03:58 2025.
