 Gaussian 16, Revision C.01,

 ----------------------------------------------------------------------
 #t hf aug-cc-pvdz symm=none int=(grid=ultrafine) guess=(read,tcheck) s
 table=(opt,rrhf)
 ----------------------------------------------------------------------
 -----
 title
 -----
 Symbolic Z-matrix:
 Charge =  0 Multiplicity = 1

 SCF Done:  E(RHF) =  -254.951944740     A.U. after   12 cycles
 Normal termination of Gaussian 16 at Wed Apr  9 03:02:36 2025.
 Gaussian 16:  ES64L-G16RevC.01  3-Jul-2019

 ----------------------------------------------------------------------
 #t hf aug-cc-pvdz iop(5/13=1,5/36=2,99/5=2) pseudo=read geom=check gue
 ss=(read,tcheck) scf=(maxcycle=1)
 ----------------------------------------------------------------------
 -----
 title
 -----
 Structure from the checkpoint file:  "F-set_c2h4_c2h3f_100_dimer_mol1.chk"
 Charge =  0 Multiplicity = 1

                         Standard orientation:
 ---------------------------------------------------------------------
 Center     Atomic      Atomic             Coordinates (Angstroms)
 Number     Number       Type             X           Y           Z
 ---------------------------------------------------------------------
      1          6           0       -0.689962   -2.091148    0.660810
      2          6           0       -0.689962   -2.091148   -0.660810
      3          1           0       -0.043861   -1.429868    1.223580
      4          1           0       -1.330991   -2.752568    1.229250
      5          1           0       -0.043861   -1.429868   -1.223580
      6          1           0       -1.330991   -2.752568   -1.229250
      7          6           0       -0.689962    1.702932    0.000000
      8          6           0        0.620919    1.793912    0.000000
      9          1           0       -1.192202    0.746232    0.000000
     10          1           0       -1.276711    2.608202    0.000000
     11          1           0        1.193809    2.711182    0.000000
     12          9           0        1.413179    0.712442    0.000000
 ---------------------------------------------------------------------

 SCF Done:  E(RHF) =  -256.068365538     A.U. after    2 cycles

 The electronic state is 1-A'.
 Alpha  occ. eigenvalues --  -29.28450 -11.46913 -11.40172 -11.38836 -11.36685
 Alpha  occ. eigenvalues --   -1.22366  -1.13379  -0.92020  -0.81868  -0.71997
 Alpha  occ. eigenvalues --   -0.63973  -0.62906  -0.55540  -0.54333  -0.49363
 Alpha  occ. eigenvalues --   -0.48050  -0.39381  -0.35923  -0.27680  -0.24357
 Alpha virt. eigenvalues --    0.04067   0.04884   0.05512   0.05785   0.07216
 Alpha virt. eigenvalues --    0.07845   0.08309   0.09832   0.12166   0.12314
 Alpha virt. eigenvalues --    0.13376   0.14749   0.15017   0.15417   0.15945

 Mulliken charges:
               1
     1  C   -2.636434
     2  C   -2.636434
     3  H    1.337708
     4  H    1.292291
     5  H    1.337708
     6  H    1.292291
     7  C   -3.054064
     8  C   -1.641909
     9  H    1.467859
    10  H    1.298962
    11  H    1.455609
    12  F    0.486413
 Sum of Mulliken charges =  -0.00000

 Dipole moment (field-independent basis, Debye):
    X=              1.6363    Y=             -1.1008    Z=              0.0000  Tot=              1.9721

 Test job not archived.
 1\1\GINC-SE059\SP\RHF\Aug-CC-pVDZ\C4H7F1\OHZDE\09-Apr-2025\0\\#t hf au
 g-cc-pvdz iop(5/13=1,5/36=2,99/5=2) pseudo=read geom=check guess=(read
 ,tcheck) scf=(maxcycle=1)\\title\\0,1\C,0,-0.68996,-2.09115,0.66081\C,
 0,-0.68996,-2.09115,-0.66081\H,0,-0.04386,-1.42987,1.22358\H,0,-1.3309
 9,-2.75257,1.22925\H,0,-0.04386,-1.42987,-1.22358\H,0,-1.33099,-2.7525
 7,-1.22925\C,0,-0.68996,1.70293,0.\C,0,0.62092,1.79391,0.\H,0,-1.1922,
 0.74623,0.\H,0,-1.27671,2.6082,0.\H,0,1.19381,2.71118,0.\F,0,1.41318,0
 .71244,0.\\Version=ES64L-G16RevC.01\State=1-A'\HF=-256.0683655\RMSD=3.

 Normal termination of Gaussian 16 at Wed Apr  9 03:02:39 2025.
