 Gaussian 16, Revision C.01,

 ----------------------------------------------------------------------
 #t hf aug-cc-pvdz symm=none int=(grid=ultrafine) guess=(read,tcheck) s
 table=(opt,rrhf)
 ----------------------------------------------------------------------
 -----
 title
 -----
 Symbolic Z-matrix:
 Charge =  0 Multiplicity = 1

 SCF Done:  E(RHF) =  -1048.90354218     A.U. after   13 cycles
 Normal termination of Gaussian 16 at Wed Apr  9 03:04:38 2025.
 Gaussian 16:  ES64L-G16RevC.01  3-Jul-2019

 ----------------------------------------------------------------------
 #t hf aug-cc-pvdz iop(5/13=1,5/36=2,99/5=2) pseudo=read geom=check gue
 ss=(read,tcheck) scf=(maxcycle=1)
 ----------------------------------------------------------------------
 -----
 title
 -----
 Structure from the checkpoint file:  "F-set_cf3co2h_cf3co2h_095_dimer_mol1.chk"
 Charge =  0 Multiplicity = 1

                         Standard orientation:
 ---------------------------------------------------------------------
 Center     Atomic      Atomic             Coordinates (Angstroms)
 Number     Number       Type             X           Y           Z
 ---------------------------------------------------------------------
      1          6           0       -0.003426    1.754304   -0.000009
      2          8           0        1.200285    1.272035    0.000121
      3          8           0       -1.040114    1.135247    0.000041
      4          6           0        0.003426    3.305690   -0.000049
      5          1           0        1.176940    0.279609    0.000091
      6          9           0        0.634020    3.757201    1.081531
      7          9           0        0.636030    3.757224   -1.080449
      8          9           0       -1.230295    3.776361   -0.001199
      9          6           0        0.003426   -1.754304   -0.000009
     10          8           0       -1.200285   -1.272035    0.000121
     11          8           0        1.040114   -1.135247    0.000041
     12          6           0       -0.003426   -3.305690   -0.000049
     13          1           0       -1.176940   -0.279609    0.000091
     14          9           0        1.230295   -3.776361   -0.001199
     15          9           0       -0.634020   -3.757201    1.081531
     16          9           0       -0.636030   -3.757224   -1.080449
 ---------------------------------------------------------------------

 SCF Done:  E(RHF) =  -1052.75609050     A.U. after    2 cycles

 The electronic state is 1-A.
 Alpha  occ. eigenvalues --  -29.34094 -29.34094 -29.34078 -29.34077 -29.33957
 Alpha  occ. eigenvalues --  -29.33956 -21.14763 -21.14715 -21.11786 -21.11777
 Alpha  occ. eigenvalues --  -11.64873 -11.64872 -11.58034 -11.57567  -1.91985
 Alpha  occ. eigenvalues --   -1.87626  -1.77048  -1.71386  -1.45522  -1.44981
 Alpha  occ. eigenvalues --   -1.00831  -0.95781  -0.92806  -0.92784  -0.92768
 Alpha  occ. eigenvalues --   -0.91876  -0.77645  -0.76667  -0.71602  -0.63036
 Alpha  occ. eigenvalues --   -0.62256  -0.60780  -0.59564  -0.51116  -0.50481
 Alpha  occ. eigenvalues --   -0.48051  -0.47006  -0.46577  -0.46421  -0.46093
 Alpha  occ. eigenvalues --   -0.42811  -0.41346  -0.40401  -0.39626  -0.38718
 Alpha  occ. eigenvalues --   -0.38033  -0.37940  -0.36150  -0.32259  -0.28785
 Alpha  occ. eigenvalues --   -0.28766  -0.28632  -0.27548  -0.27205  -0.24007
 Alpha  occ. eigenvalues --   -0.23987
 Alpha virt. eigenvalues --    0.05065   0.07860   0.08731   0.08775   0.09254
 Alpha virt. eigenvalues --    0.10923   0.10930   0.11536   0.11775   0.12025
 Alpha virt. eigenvalues --    0.12613   0.13815   0.16288   0.16631   0.16844

 Mulliken charges:
               1
     1  C    1.943353
     2  O   -3.230380
     3  O   -3.393623
     4  C    1.279237
     5  H    2.303836
     6  F    0.317809
     7  F    0.317546
     8  F    0.462221
     9  C    1.943353
    10  O   -3.230380
    11  O   -3.393623
    12  C    1.279237
    13  H    2.303836
    14  F    0.462221
    15  F    0.317809
    16  F    0.317546
 Sum of Mulliken charges =  -0.00000

 Dipole moment (field-independent basis, Debye):
    X=             -0.0000    Y=             -0.0000    Z=              0.0004  Tot=              0.0004

 Test job not archived.
 1\1\GINC-SE021\SP\RHF\Aug-CC-pVDZ\C4H2F6O4\OHZDE\09-Apr-2025\0\\#t hf
 aug-cc-pvdz iop(5/13=1,5/36=2,99/5=2) pseudo=read geom=check guess=(re
 ad,tcheck) scf=(maxcycle=1)\\title\\0,1\C,0,-0.00078,1.87956,-0.00001\
 O,0,1.20457,1.4014,0.00012\O,0,-1.03535,1.25697,0.00004\C,0,0.00078,3.
 43096,-0.00005\H,0,1.18461,0.4089,0.00009\F,0,0.62983,3.88462,1.08153\
 F,0,0.63184,3.88465,-1.08045\F,0,-1.23454,3.89742,-0.0012\C,0,0.018042
 ,-1.629004,-0.00001\O,0,-1.187308,-1.150844,0.00012\O,0,1.052612,-1.00
 6414,0.00004\C,0,0.016482,-3.180404,-0.00005\H,0,-1.167348,-0.158344,0

 Normal termination of Gaussian 16 at Wed Apr  9 03:05:10 2025.
