 Gaussian 16, Revision C.01,

 ----------------------------------------------------------------------
 #t hf aug-cc-pvdz symm=none int=(grid=ultrafine) guess=(read,tcheck) s
 table=(opt,rrhf)
 ----------------------------------------------------------------------
 -----
 title
 -----
 Symbolic Z-matrix:
 Charge =  0 Multiplicity = 1

 SCF Done:  E(RHF) =  -278.116264239     A.U. after   10 cycles
 Normal termination of Gaussian 16 at Wed Apr  9 03:03:33 2025.
 Gaussian 16:  ES64L-G16RevC.01  3-Jul-2019

 ----------------------------------------------------------------------
 #t hf aug-cc-pvdz iop(5/13=1,5/36=2,99/5=2) pseudo=read geom=check gue
 ss=(read,tcheck) scf=(maxcycle=1)
 ----------------------------------------------------------------------
 -----
 title
 -----
 Structure from the checkpoint file:  "F-set_ch3f_ch3f_095_dimer_mol1.chk"
 Charge =  0 Multiplicity = 1

                         Standard orientation:
 ---------------------------------------------------------------------
 Center     Atomic      Atomic             Coordinates (Angstroms)
 Number     Number       Type             X           Y           Z
 ---------------------------------------------------------------------
      1          6           0       -1.583922    0.964024    0.000000
      2          1           0       -0.552882    1.314252    0.000000
      3          1           0       -2.099442    1.314253    0.892907
      4          1           0       -2.099442    1.314253   -0.892907
      5          9           0       -1.583922   -0.418976    0.000000
      6          6           0        1.583922   -0.964024    0.000000
      7          1           0        0.552882   -1.314252    0.000000
      8          9           0        1.583922    0.418976    0.000000
      9          1           0        2.099442   -1.314253   -0.892907
     10          1           0        2.099442   -1.314253    0.892907
 ---------------------------------------------------------------------

 SCF Done:  E(RHF) =  -279.212922641     A.U. after    2 cycles

 The electronic state is 1-AG.
 Alpha  occ. eigenvalues --  -29.24922 -29.24916 -11.42184 -11.42121  -1.14425
 Alpha  occ. eigenvalues --   -1.13807  -0.66705  -0.65635  -0.63354  -0.62165
 Alpha  occ. eigenvalues --   -0.62012  -0.60144  -0.38136  -0.36550  -0.26035
 Alpha  occ. eigenvalues --   -0.24929  -0.24500  -0.23391
 Alpha virt. eigenvalues --    0.04495   0.04605   0.05973   0.06257   0.07892
 Alpha virt. eigenvalues --    0.08302   0.12782   0.14443   0.15091   0.15221
 Alpha virt. eigenvalues --    0.15939   0.17766   0.17848   0.19922   0.24396

 Mulliken charges:
               1
     1  C   -4.114260
     2  H    1.284370
     3  H    1.327789
     4  H    1.327789
     5  F    0.174312
     6  C   -4.114260
     7  H    1.284370
     8  F    0.174312
     9  H    1.327789
    10  H    1.327789
 Sum of Mulliken charges =  -0.00000

 Dipole moment (field-independent basis, Debye):
    X=             -0.0000    Y=              0.0000    Z=             -0.0000  Tot=              0.0000

 Test job not archived.
 1\1\GINC-SE129\SP\RHF\Aug-CC-pVDZ\C2H6F2\OHZDE\09-Apr-2025\0\\#t hf au
 g-cc-pvdz iop(5/13=1,5/36=2,99/5=2) pseudo=read geom=check guess=(read
 ,tcheck) scf=(maxcycle=1)\\title\\0,1\C,0,-1.667286,1.011264,0.\H,0,-0
 .636246,1.361492,0.\H,0,-2.182806,1.361493,0.892907\H,0,-2.182806,1.36
 1493,-0.892907\F,0,-1.667286,-0.371736,0.\C,0,1.5005574,-0.91678388,0.
 \H,0,0.4695174,-1.26701188,0.\F,0,1.5005574,0.46621612,0.\H,0,2.016077
 4,-1.26701288,-0.892907\H,0,2.0160774,-1.26701288,0.892907\\Version=ES
 64L-G16RevC.01\State=1-AG\HF=-279.2129226\RMSD=5.199e-02\Dipole=0.,0.,

 Normal termination of Gaussian 16 at Wed Apr  9 03:03:34 2025.
