 Gaussian 16, Revision C.01,

 ----------------------------------------------------------------------
 #t hf aug-cc-pvdz symm=none int=(grid=ultrafine) guess=(read,tcheck) s
 table=(opt,rrhf)
 ----------------------------------------------------------------------
 -----
 title
 -----
 Symbolic Z-matrix:
 Charge =  0 Multiplicity = 1

 SCF Done:  E(RHF) =  -369.786918629     A.U. after   14 cycles
 Normal termination of Gaussian 16 at Wed Apr  9 03:03:11 2025.
 Gaussian 16:  ES64L-G16RevC.01  3-Jul-2019

 ----------------------------------------------------------------------
 #t hf aug-cc-pvdz iop(5/13=1,5/36=2,99/5=2) pseudo=read geom=check gue
 ss=(read,tcheck) scf=(maxcycle=1)
 ----------------------------------------------------------------------
 -----
 title
 -----
 Structure from the checkpoint file:  "F-set_c6h6_ch3f_105_dimer_mol1.chk"
 Charge =  0 Multiplicity = 1

                         Standard orientation:
 ---------------------------------------------------------------------
 Center     Atomic      Atomic             Coordinates (Angstroms)
 Number     Number       Type             X           Y           Z
 ---------------------------------------------------------------------
      1          6           0        1.334937   -0.671899   -1.201598
      2          6           0        1.170917    0.705211   -1.199558
      3          6           0        1.413877   -1.362508   -0.001318
      4          1           0        1.400607   -1.207314   -2.138758
      5          6           0        1.085817    1.391804    0.002652
      6          1           0        1.109818    1.243778   -2.135388
      7          6           0        1.328958   -0.676076    1.200952
      8          1           0        1.541075   -2.436328   -0.002858
      9          6           0        1.164958    0.701035    1.202872
     10          1           0        0.959678    2.465976    0.004212
     11          1           0        1.389957   -1.214712    2.136582
     12          1           0        1.099278    1.236399    2.140252
     13          6           0       -2.358609    0.262513    0.000766
     14          1           0       -2.286603    0.873440    0.899776
     15          1           0       -1.558168   -0.475612   -0.009564
     16          1           0       -2.290350    0.894410   -0.883924
     17          9           0       -3.578936   -0.386724   -0.004324
 ---------------------------------------------------------------------

 SCF Done:  E(RHF) =  -371.466260925     A.U. after    2 cycles

 The electronic state is 1-A.
 Alpha  occ. eigenvalues --  -29.24004 -11.52425 -11.42997 -11.42983 -11.41784
 Alpha  occ. eigenvalues --  -11.40645 -11.40548 -11.36514  -1.34826  -1.13300
 Alpha  occ. eigenvalues --   -1.09808  -1.09806  -0.86475  -0.86470  -0.73025
 Alpha  occ. eigenvalues --   -0.66055  -0.65001  -0.61371  -0.61327  -0.58892
 Alpha  occ. eigenvalues --   -0.58888  -0.56639  -0.51009  -0.45279  -0.45274
 Alpha  occ. eigenvalues --   -0.36176  -0.33809  -0.33691  -0.23622  -0.23571
 Alpha virt. eigenvalues --    0.03166   0.04508   0.04518   0.05865   0.05868
 Alpha virt. eigenvalues --    0.06414   0.07049   0.07142   0.08697   0.10606
 Alpha virt. eigenvalues --    0.10771   0.11635   0.13687   0.13815   0.14147

 Mulliken charges:
               1
     1  C   -1.873890
     2  C   -1.481448
     3  C   -1.142757
     4  H    1.529579
     5  C   -1.611807
     6  H    1.565056
     7  C   -1.879824
     8  H    1.510117
     9  C   -1.476702
    10  H    1.597429
    11  H    1.529742
    12  H    1.565661
    13  C   -4.334891
    14  H    1.346065
    15  H    1.619874
    16  H    1.344590
    17  F    0.193206
 Sum of Mulliken charges =  -0.00000

 Dipole moment (field-independent basis, Debye):
    X=             -0.2284    Y=             -0.4121    Z=             -0.0032  Tot=              0.4712

 Test job not archived.
 1\1\GINC-SE461\SP\RHF\Aug-CC-pVDZ\C7H9F1\OHZDE\09-Apr-2025\0\\#t hf au
 g-cc-pvdz iop(5/13=1,5/36=2,99/5=2) pseudo=read geom=check guess=(read
 ,tcheck) scf=(maxcycle=1)\\title\\0,1\C,0,1.28077,-0.67224,-1.2016\C,0
 ,1.12048,0.70531,-1.19956\C,0,1.35784,-1.36306,-0.00132\H,0,1.34499,-1
 .20783,-2.13876\C,0,1.03724,1.39213,0.00265\H,0,1.06084,1.24404,-2.135
 39\C,0,1.27478,-0.6764,1.20095\H,0,1.48213,-2.43722,-0.00286\C,0,1.114
 51,0.70115,1.20287\H,0,0.91401,2.46664,0.00421\H,0,1.33432,-1.2152,2.1
 3658\H,0,1.05028,1.23669,2.14025\C,0,-2.41023223,0.27217066,0.00076408

 Normal termination of Gaussian 16 at Wed Apr  9 03:03:17 2025.
