 Gaussian 16, Revision C.01,

 ----------------------------------------------------------------------
 #t hf aug-cc-pvdz symm=none int=(grid=ultrafine) guess=(read,tcheck) s
 table=(opt,rrhf)
 ----------------------------------------------------------------------
 -----
 title
 -----
 Symbolic Z-matrix:
 Charge =  0 Multiplicity = 1

 SCF Done:  E(RHF) =  -666.423202914     A.U. after   14 cycles
 Normal termination of Gaussian 16 at Wed Apr  9 03:03:39 2025.
 Gaussian 16:  ES64L-G16RevC.01  3-Jul-2019

 ----------------------------------------------------------------------
 #t hf aug-cc-pvdz iop(5/13=1,5/36=2,99/5=2) pseudo=read geom=check gue
 ss=(read,tcheck) scf=(maxcycle=1)
 ----------------------------------------------------------------------
 -----
 title
 -----
 Structure from the checkpoint file:  "F-set_c6h6_cf4_105_dimer_mol1.chk"
 Charge =  0 Multiplicity = 1

                         Standard orientation:
 ---------------------------------------------------------------------
 Center     Atomic      Atomic             Coordinates (Angstroms)
 Number     Number       Type             X           Y           Z
 ---------------------------------------------------------------------
      1          6           0       -2.332863   -1.167216   -0.608802
      2          6           0       -1.866495   -1.231977    0.695412
      3          6           0       -2.547285    0.064800   -1.207958
      4          1           0       -2.528137   -2.077570   -1.159011
      5          6           0       -1.614679   -0.064703    1.400448
      6          1           0       -1.696187   -2.192554    1.162056
      7          6           0       -2.294847    1.231995   -0.503229
      8          1           0       -2.909723    0.115304   -2.225635
      9          6           0       -1.828600    1.167293    0.801054
     10          1           0       -1.248013   -0.115256    2.416628
     11          1           0       -2.460258    2.192812   -0.971187
     12          1           0       -1.628448    2.077357    1.349850
     13          6           0        2.076282   -0.000030   -0.096758
     14          9           0        3.314755   -0.002461   -0.557631
     15          9           0        1.234468   -0.000497   -1.107039
     16          9           0        1.889177    1.078285    0.638734
     17          9           0        1.886232   -1.075445    0.642191
 ---------------------------------------------------------------------

 SCF Done:  E(RHF) =  -669.039412003     A.U. after    2 cycles

 The electronic state is 1-A.
 Alpha  occ. eigenvalues --  -29.33719 -29.33704 -29.33651 -29.33543 -11.63684
 Alpha  occ. eigenvalues --  -11.51626 -11.42230 -11.42205 -11.39757 -11.39724
 Alpha  occ. eigenvalues --  -11.35720  -1.52101  -1.34000  -1.08944  -1.08934
 Alpha  occ. eigenvalues --   -0.96361  -0.96264  -0.96038  -0.85692  -0.85691
 Alpha  occ. eigenvalues --   -0.72261  -0.65315  -0.58121  -0.58119  -0.55891
 Alpha  occ. eigenvalues --   -0.51060  -0.50174  -0.46945  -0.46902  -0.46641
 Alpha  occ. eigenvalues --   -0.44539  -0.44536  -0.44217  -0.44179  -0.33454
 Alpha  occ. eigenvalues --   -0.33220  -0.32354  -0.31852  -0.31178  -0.23692
 Alpha  occ. eigenvalues --   -0.23663  -0.23589
 Alpha virt. eigenvalues --    0.03898   0.04915   0.04976   0.06247   0.06279
 Alpha virt. eigenvalues --    0.07441   0.10958   0.11330   0.11557   0.12264
 Alpha virt. eigenvalues --    0.12593   0.13786   0.14199   0.14218   0.14724

 Mulliken charges:
               1
     1  C   -2.035241
     2  C   -1.236220
     3  C   -1.037579
     4  H    1.537844
     5  C   -1.746895
     6  H    1.581209
     7  C   -2.049799
     8  H    1.565283
     9  C   -1.208410
    10  H    1.602729
    11  H    1.536075
    12  H    1.588662
    13  C   -2.175162
    14  F    0.470045
    15  F    0.669647
    16  F    0.468414
    17  F    0.469398
 Sum of Mulliken charges =  -0.00000

 Dipole moment (field-independent basis, Debye):
    X=             -0.1129    Y=             -0.0006    Z=             -0.0696  Tot=              0.1326

 Test job not archived.
 1\1\GINC-SE250\SP\RHF\Aug-CC-pVDZ\C7H6F4\OHZDE\09-Apr-2025\0\\#t hf au
 g-cc-pvdz iop(5/13=1,5/36=2,99/5=2) pseudo=read geom=check guess=(read
 ,tcheck) scf=(maxcycle=1)\\title\\0,1\C,0,2.23711,-1.16721,0.60128\C,0
 ,1.76369,-1.23198,-0.70039\C,0,2.45477,0.06481,1.19926\H,0,2.43536,-2.
 07756,1.15043\C,0,1.50806,-0.06471,-1.40406\H,0,1.59086,-2.19256,-1.16
 61\C,0,2.19852,1.232,0.4959\H,0,2.82271,0.11532,2.21496\C,0,1.72522,1.
 16729,-0.80584\H,0,1.1359,-0.11527,-2.41824\H,0,2.36646,2.19282,0.9629
 5\H,0,1.5221,2.07735,-1.35355\C,0,-2.17474387,-0.00003275,0.1131002\F,

 Normal termination of Gaussian 16 at Wed Apr  9 03:03:48 2025.
