 Gaussian 16, Revision C.01,

 ----------------------------------------------------------------------
 #t hf aug-cc-pvdz symm=none int=(grid=ultrafine) guess=(read,tcheck) s
 table=(opt,rrhf)
 ----------------------------------------------------------------------
 -----
 title
 -----
 Symbolic Z-matrix:
 Charge =  0 Multiplicity = 1

 SCF Done:  E(RHF) =  -823.416981555     A.U. after   11 cycles
 Normal termination of Gaussian 16 at Wed Apr  9 03:03:57 2025.
 Gaussian 16:  ES64L-G16RevC.01  3-Jul-2019

 ----------------------------------------------------------------------
 #t hf aug-cc-pvdz iop(5/13=1,5/36=2,99/5=2) pseudo=read geom=check gue
 ss=(read,tcheck) scf=(maxcycle=1)
 ----------------------------------------------------------------------
 -----
 title
 -----
 Structure from the checkpoint file:  "F-set_cf3oh_cf3oh_110_dimer_mol1.chk"
 Charge =  0 Multiplicity = 1

                         Standard orientation:
 ---------------------------------------------------------------------
 Center     Atomic      Atomic             Coordinates (Angstroms)
 Number     Number       Type             X           Y           Z
 ---------------------------------------------------------------------
      1          6           0        2.329756    0.036916    0.003659
      2          8           0        1.757603    1.190639   -0.337587
      3          9           0        2.073203   -0.943312   -0.892894
      4          9           0        3.637601    0.199325    0.071284
      5          9           0        1.898216   -0.426411    1.186625
      6          1           0        0.808004    1.047190   -0.448353
      7          8           0       -1.218978    0.027777   -0.794627
      8          6           0       -2.315740    0.009929   -0.000334
      9          1           0       -1.047291   -0.848784   -1.149204
     10          9           0       -2.201997   -0.885418    0.980010
     11          9           0       -3.415716   -0.291732   -0.689068
     12          9           0       -2.452842    1.211238    0.525745
 ---------------------------------------------------------------------

 SCF Done:  E(RHF) =  -826.347770889     A.U. after    2 cycles

 The electronic state is 1-A.
 Alpha  occ. eigenvalues --  -29.34073 -29.33720 -29.33613 -29.32312 -29.31805
 Alpha  occ. eigenvalues --  -29.31701 -21.16439 -21.13904 -11.62931 -11.61202
 Alpha  occ. eigenvalues --   -1.88360  -1.86513  -1.35799  -1.33201  -0.96322
 Alpha  occ. eigenvalues --   -0.94597  -0.94178  -0.92123  -0.79278  -0.76716
 Alpha  occ. eigenvalues --   -0.58606  -0.54901  -0.50676  -0.49211  -0.48394
 Alpha  occ. eigenvalues --   -0.46690  -0.46265  -0.46028  -0.44570  -0.44134
 Alpha  occ. eigenvalues --   -0.39226  -0.38003  -0.35365  -0.34929  -0.33967
 Alpha  occ. eigenvalues --   -0.32466  -0.28373  -0.26912  -0.26466  -0.24930
 Alpha  occ. eigenvalues --   -0.23964  -0.22322
 Alpha virt. eigenvalues --    0.04968   0.07010   0.10158   0.10999   0.11529
 Alpha virt. eigenvalues --    0.12100   0.12661   0.13572   0.16763   0.17753
 Alpha virt. eigenvalues --    0.18050   0.19432   0.19819   0.21017   0.21686

 Mulliken charges:
               1
     1  C    0.201351
     2  O   -3.074486
     3  F    0.535942
     4  F    0.718078
     5  F    0.607594
     6  H    0.966419
     7  O   -2.729658
     8  C    0.276024
     9  H    0.707303
    10  F    0.618651
    11  F    0.613615
    12  F    0.559166
 Sum of Mulliken charges =  -0.00000

 Dipole moment (field-independent basis, Debye):
    X=             -1.7970    Y=             -2.3256    Z=              1.4828  Tot=              3.2919

 Test job not archived.
 1\1\GINC-SE106\SP\RHF\Aug-CC-pVDZ\C2H2F6O2\OHZDE\09-Apr-2025\0\\#t hf
 aug-cc-pvdz iop(5/13=1,5/36=2,99/5=2) pseudo=read geom=check guess=(re
 ad,tcheck) scf=(maxcycle=1)\\title\\0,1\C,0,2.13896,0.0375,0.00421\O,0
 ,1.55972,1.18917,-0.33198\F,0,1.89162,-0.93932,-0.89863\F,0,3.44546,0.
 20858,0.07631\F,0,1.70749,-0.43559,1.18333\H,0,0.61144,1.03978,-0.4461
 4\O,0,-1.4074785,0.00834567,-0.8037375\C,0,-2.5062085,-0.02166433,-0.0
 125375\H,0,-1.2287585,-0.86495433,-1.1628575\F,0,-2.3888685,-0.9218143
 3,0.9629725\F,0,-3.6022185,-0.32698433,-0.7059675\F,0,-2.6530585,1.175

 Normal termination of Gaussian 16 at Wed Apr  9 03:04:03 2025.
