 Gaussian 16, Revision C.01,

 ----------------------------------------------------------------------
 #t hf aug-cc-pvdz symm=none int=(grid=ultrafine) guess=(read,tcheck) s
 table=(opt,rrhf)
 ----------------------------------------------------------------------
 -----
 title
 -----
 Symbolic Z-matrix:
 Charge =  0 Multiplicity = 1

 SCF Done:  E(RHF) =  -1054.59242694     A.U. after   14 cycles

 1\1\GINC-SE112\Stability\RHF\Aug-CC-pVDZ\C12H6F6\OHZDE\09-Apr-2025\0\\
 #t hf aug-cc-pvdz symm=none int=(grid=ultrafine) guess=(read,tcheck) s
 table=(opt,rrhf)\\title\\0,1\C,0,-1.05492,1.38134,-0.46157\C,0,-0.2198
 5,0.74322,-1.36181\C,0,-1.8503,0.63831,0.39257\F,0,-1.07636,2.70339,-0
 .40254\C,0,-0.17808,-0.63935,-1.40641\F,0,0.545,1.45496,-2.17284\C,0,-
 1.80849,-0.74408,0.34809\F,0,-2.63364,1.24984,1.26796\C,0,-0.97186,-1.
 38232,-0.55041\F,0,0.62544,-1.25007,-2.26137\F,0,-2.5528,-1.4566,1.180
 18\F,0,-0.91673,-2.70456,-0.57861\C,0,1.62413833,-0.57473325,2.1598159

 Normal termination of Gaussian 16 at Wed Apr  9 03:11:23 2025.
 Gaussian 16:  ES64L-G16RevC.01  3-Jul-2019

 ----------------------------------------------------------------------
 #t hf aug-cc-pvdz iop(5/13=1,5/36=2,99/5=2) pseudo=read geom=check gue
 ss=(read,tcheck) scf=(maxcycle=1)
 ----------------------------------------------------------------------
 -----
 title
 -----
 Structure from the checkpoint file:  "F-set_c6h6_c6f6_110_dimer_mol1.chk"
 Charge =  0 Multiplicity = 1

                         Standard orientation:
 ---------------------------------------------------------------------
 Center     Atomic      Atomic             Coordinates (Angstroms)
 Number     Number       Type             X           Y           Z
 ---------------------------------------------------------------------
      1          6           0       -1.209294   -1.381400    0.366483
      2          6           0       -0.490840   -0.742944    1.362058
      3          6           0       -1.894221   -0.638690   -0.578786
      4          9           0       -1.223134   -2.703466    0.305567
      5          6           0       -0.455065    0.639643    1.411128
      6          9           0        0.169061   -1.454378    2.260796
      7          6           0       -1.858392    0.743716   -0.529830
      8          9           0       -2.564382   -1.250542   -1.543369
      9          6           0       -1.138177    1.382293    0.464208
     10          9           0        0.237625    1.250684    2.357906
     11          9           0       -2.495329    1.455930   -1.446955
     12          9           0       -1.087125    2.704549    0.498651
     13          6           0        1.770271    0.574639   -1.907574
     14          1           0        1.200963    1.024080   -2.710204
     15          6           0        2.427813    1.379879   -0.988498
     16          6           0        1.842318   -0.805525   -1.797636
     17          1           0        2.369505    2.456851   -1.073595
     18          6           0        3.155984    0.803935    0.041390
     19          6           0        2.571222   -1.381589   -0.767648
     20          1           0        1.329051   -1.433136   -2.513534
     21          1           0        3.663878    1.430817    0.761149
     22          6           0        3.227127   -0.577129    0.152033
     23          1           0        2.623424   -2.457981   -0.679203
     24          1           0        3.790273   -1.026589    0.958064
 ---------------------------------------------------------------------

 SCF Done:  E(RHF) =  -1058.73323547     A.U. after    2 cycles

 The electronic state is 1-A.
 Alpha  occ. eigenvalues --  -29.33164 -29.33060 -29.33033 -29.33012 -29.32930
 Alpha  occ. eigenvalues --  -29.32876 -11.62775 -11.55032 -11.54743 -11.52782
 Alpha  occ. eigenvalues --  -11.52134 -11.52063 -11.46968 -11.43283 -11.43192
 Alpha  occ. eigenvalues --  -11.40777 -11.40722 -11.36508  -1.49859  -1.34520
 Alpha  occ. eigenvalues --   -1.30223  -1.30193  -1.10812  -1.10788  -1.09714
 Alpha  occ. eigenvalues --   -1.09691  -0.92835  -0.92804  -0.86446  -0.86437
 Alpha  occ. eigenvalues --   -0.78863  -0.77431  -0.77411  -0.72914  -0.69328
 Alpha  occ. eigenvalues --   -0.66240  -0.66196  -0.66008  -0.58869  -0.58842
 Alpha  occ. eigenvalues --   -0.57408  -0.57389  -0.56632  -0.50870  -0.45285
 Alpha  occ. eigenvalues --   -0.45279  -0.44953  -0.44948  -0.44853  -0.43509
 Alpha  occ. eigenvalues --   -0.42704  -0.42665  -0.40842  -0.40819  -0.37901
 Alpha  occ. eigenvalues --   -0.33878  -0.33589  -0.32346  -0.32338  -0.31386
 Alpha  occ. eigenvalues --   -0.31367  -0.30547  -0.28178  -0.28162  -0.19389
 Alpha  occ. eigenvalues --   -0.19383
 Alpha virt. eigenvalues --    0.04384   0.04976   0.04986   0.06131   0.06139
 Alpha virt. eigenvalues --    0.07484   0.08342   0.10520   0.10564   0.10635
 Alpha virt. eigenvalues --    0.10709   0.11079   0.11565   0.11748   0.12155

 Mulliken charges:
               1
     1  C   -1.277049
     2  C   -0.522727
     3  C   -0.919400
     4  F    1.006146
     5  C   -0.591154
     6  F    0.964394
     7  C   -1.102943
     8  F    1.044513
     9  C   -1.372538
    10  F    0.969202
    11  F    1.041809
    12  F    1.009980
    13  C   -1.785416
    14  H    1.749625
    15  C   -1.405723
    16  C   -1.773069
    17  H    1.671462
    18  C   -1.971403
    19  C   -1.737647
    20  H    1.732420
    21  H    1.654255
    22  C   -1.668880
    23  H    1.643677
    24  H    1.640466
 Sum of Mulliken charges =  -0.00000

 Dipole moment (field-independent basis, Debye):
    X=              0.6668    Y=              0.0050    Z=             -0.0371  Tot=              0.6678

 Test job not archived.
 1\1\GINC-SE112\SP\RHF\Aug-CC-pVDZ\C12H6F6\OHZDE\09-Apr-2025\0\\#t hf a
 ug-cc-pvdz iop(5/13=1,5/36=2,99/5=2) pseudo=read geom=check guess=(rea
 d,tcheck) scf=(maxcycle=1)\\title\\0,1\C,0,-1.05492,1.38134,-0.46157\C
 ,0,-0.21985,0.74322,-1.36181\C,0,-1.8503,0.63831,0.39257\F,0,-1.07636,
 2.70339,-0.40254\C,0,-0.17808,-0.63935,-1.40641\F,0,0.545,1.45496,-2.1
 7284\C,0,-1.80849,-0.74408,0.34809\F,0,-2.63364,1.24984,1.26796\C,0,-0
 .97186,-1.38232,-0.55041\F,0,0.62544,-1.25007,-2.26137\F,0,-2.5528,-1.
 4566,1.18018\F,0,-0.91673,-2.70456,-0.57861\C,0,1.62413833,-0.57473325

 Normal termination of Gaussian 16 at Wed Apr  9 03:11:54 2025.
