 Gaussian 16, Revision C.01,

 ----------------------------------------------------------------------
 #t hf aug-cc-pvdz symm=none int=(grid=ultrafine) guess=(read,tcheck) s
 table=(opt,rrhf)
 ----------------------------------------------------------------------
 -----
 title
 -----
 Symbolic Z-matrix:
 Charge =  0 Multiplicity = 1

 SCF Done:  E(RHF) =  -666.423506340     A.U. after   12 cycles
 Normal termination of Gaussian 16 at Wed Apr  9 03:03:29 2025.
 Gaussian 16:  ES64L-G16RevC.01  3-Jul-2019

 ----------------------------------------------------------------------
 #t hf aug-cc-pvdz iop(5/13=1,5/36=2,99/5=2) pseudo=read geom=check gue
 ss=(read,tcheck) scf=(maxcycle=1)
 ----------------------------------------------------------------------
 -----
 title
 -----
 Structure from the checkpoint file:  "F-set_c6h6_cf4_125_dimer_mol1.chk"
 Charge =  0 Multiplicity = 1

                         Standard orientation:
 ---------------------------------------------------------------------
 Center     Atomic      Atomic             Coordinates (Angstroms)
 Number     Number       Type             X           Y           Z
 ---------------------------------------------------------------------
      1          6           0       -2.720001   -1.167231   -0.630796
      2          6           0       -2.272967   -1.231974    0.680171
      3          6           0       -2.925546    0.064777   -1.233073
      4          1           0       -2.907114   -2.077592   -1.183821
      5          6           0       -2.031608   -0.064689    1.388839
      6          1           0       -2.109573   -2.192544    1.149295
      7          6           0       -2.683561    1.231981   -0.524703
      8          1           0       -3.272897    0.115266   -2.255998
      9          6           0       -2.236648    1.167299    0.786332
     10          1           0       -1.680007   -0.115228    2.410329
     11          1           0       -2.842039    2.192792   -0.995068
     12          1           0       -2.044637    2.077370    1.338015
     13          6           0        2.473885   -0.000025   -0.078465
     14          9           0        3.719037   -0.002456   -0.520977
     15          9           0        1.647101   -0.000509   -1.101082
     16          9           0        2.275921    1.078298    0.654166
     17          9           0        2.272934   -1.075432    0.657607
 ---------------------------------------------------------------------

 SCF Done:  E(RHF) =  -669.039401853     A.U. after    2 cycles

 The electronic state is 1-A.
 Alpha  occ. eigenvalues --  -29.33990 -29.33979 -29.33938 -29.33838 -11.63906
 Alpha  occ. eigenvalues --  -11.51540 -11.42200 -11.42186 -11.39696 -11.39678
 Alpha  occ. eigenvalues --  -11.35716  -1.52363  -1.33992  -1.08916  -1.08912
 Alpha  occ. eigenvalues --   -0.96611  -0.96509  -0.96307  -0.85690  -0.85686
 Alpha  occ. eigenvalues --   -0.72231  -0.65310  -0.58119  -0.58117  -0.55888
 Alpha  occ. eigenvalues --   -0.51289  -0.50098  -0.47099  -0.47093  -0.46903
 Alpha  occ. eigenvalues --   -0.44540  -0.44536  -0.44409  -0.44396  -0.32983
 Alpha  occ. eigenvalues --   -0.32881  -0.32597  -0.32361  -0.31969  -0.23963
 Alpha  occ. eigenvalues --   -0.23907  -0.23858
 Alpha virt. eigenvalues --    0.03741   0.04971   0.05015   0.06223   0.06255
 Alpha virt. eigenvalues --    0.07421   0.11151   0.11464   0.11723   0.12088
 Alpha virt. eigenvalues --    0.12598   0.13869   0.14302   0.14348   0.14738

 Mulliken charges:
               1
     1  C   -1.645739
     2  C   -1.485211
     3  C   -1.406866
     4  H    1.524493
     5  C   -1.533337
     6  H    1.555649
     7  C   -1.646811
     8  H    1.528949
     9  C   -1.476888
    10  H    1.572919
    11  H    1.526124
    12  H    1.565764
    13  C   -2.251759
    14  F    0.535596
    15  F    0.613589
    16  F    0.510742
    17  F    0.512787
 Sum of Mulliken charges =  -0.00000

 Dipole moment (field-independent basis, Debye):
    X=             -0.1613    Y=             -0.0003    Z=             -0.0487  Tot=              0.1685

 Test job not archived.
 1\1\GINC-SE453\SP\RHF\Aug-CC-pVDZ\C7H6F4\OHZDE\09-Apr-2025\0\\#t hf au
 g-cc-pvdz iop(5/13=1,5/36=2,99/5=2) pseudo=read geom=check guess=(read
 ,tcheck) scf=(maxcycle=1)\\title\\0,1\C,0,2.23711,-1.16721,0.60128\C,0
 ,1.76369,-1.23198,-0.70039\C,0,2.45477,0.06481,1.19926\H,0,2.43536,-2.
 07756,1.15043\C,0,1.50806,-0.06471,-1.40406\H,0,1.59086,-2.19256,-1.16
 61\C,0,2.19852,1.232,0.4959\H,0,2.82271,0.11532,2.21496\C,0,1.72522,1.
 16729,-0.80584\H,0,1.1359,-0.11527,-2.41824\H,0,2.36646,2.19282,0.9629
 5\H,0,1.5221,2.07735,-1.35355\C,0,-2.96687933,-0.00004375,0.153941\F,0

 Normal termination of Gaussian 16 at Wed Apr  9 03:03:37 2025.
