 Gaussian 16, Revision C.01,

 ----------------------------------------------------------------------
 #t hf aug-cc-pvdz symm=none int=(grid=ultrafine) guess=(read,tcheck) s
 table=(opt,rrhf)
 ----------------------------------------------------------------------
 -----
 title
 -----
 Symbolic Z-matrix:
 Charge =  0 Multiplicity = 1

 SCF Done:  E(RHF) =  -823.409145341     A.U. after   11 cycles
 Normal termination of Gaussian 16 at Wed Apr  9 03:03:40 2025.
 Gaussian 16:  ES64L-G16RevC.01  3-Jul-2019

 ----------------------------------------------------------------------
 #t hf aug-cc-pvdz iop(5/13=1,5/36=2,99/5=2) pseudo=read geom=check gue
 ss=(read,tcheck) scf=(maxcycle=1)
 ----------------------------------------------------------------------
 -----
 title
 -----
 Structure from the checkpoint file:  "F-set_cf3oh_cf3oh_090_dimer_mol1.chk"
 Charge =  0 Multiplicity = 1

                         Standard orientation:
 ---------------------------------------------------------------------
 Center     Atomic      Atomic             Coordinates (Angstroms)
 Number     Number       Type             X           Y           Z
 ---------------------------------------------------------------------
      1          6           0        1.948241    0.038184    0.004868
      2          8           0        1.360515    1.187257   -0.325429
      3          9           0        1.712016   -0.934489   -0.905396
      4          9           0        3.253025    0.219635    0.082476
      5          9           0        1.516877   -0.446501    1.179309
      6          1           0        0.413893    1.030761   -0.443756
      7          8           0       -0.833939    0.053364   -0.788189
      8          6           0       -1.934963    0.008823   -0.000873
      9          1           0       -0.646764   -0.815953   -1.152627
     10          9           0       -1.813310   -0.896942    0.968894
     11          9           0       -3.026112   -0.300877   -0.700003
     12          9           0       -2.093541    1.201195    0.539315
 ---------------------------------------------------------------------

 SCF Done:  E(RHF) =  -826.337353317     A.U. after    2 cycles

 The electronic state is 1-A.
 Alpha  occ. eigenvalues --  -29.35015 -29.34446 -29.34392 -29.31827 -29.31762
 Alpha  occ. eigenvalues --  -29.31316 -21.17440 -21.11496 -11.64104 -11.60618
 Alpha  occ. eigenvalues --   -1.91179  -1.85028  -1.37200  -1.32779  -0.97612
 Alpha  occ. eigenvalues --   -0.95716  -0.93908  -0.91808  -0.80826  -0.77111
 Alpha  occ. eigenvalues --   -0.63116  -0.52957  -0.51393  -0.50181  -0.48124
 Alpha  occ. eigenvalues --   -0.47367  -0.46621  -0.46260  -0.44433  -0.43859
 Alpha  occ. eigenvalues --   -0.39870  -0.38742  -0.36200  -0.33828  -0.33185
 Alpha  occ. eigenvalues --   -0.31804  -0.29131  -0.27637  -0.26198  -0.24846
 Alpha  occ. eigenvalues --   -0.24448  -0.22196
 Alpha virt. eigenvalues --    0.05131   0.07263   0.09724   0.10932   0.11385
 Alpha virt. eigenvalues --    0.12046   0.12454   0.13411   0.17384   0.17676
 Alpha virt. eigenvalues --    0.18373   0.20084   0.20759   0.21201   0.22249

 Mulliken charges:
               1
     1  C    0.312899
     2  O   -3.132958
     3  F    0.461555
     4  F    0.740036
     5  F    0.553229
     6  H    1.268016
     7  O   -2.752915
     8  C    0.165459
     9  H    0.661567
    10  F    0.580274
    11  F    0.638227
    12  F    0.504611
 Sum of Mulliken charges =  -0.00000

 Dipole moment (field-independent basis, Debye):
    X=             -2.0508    Y=             -2.4983    Z=              1.5407  Tot=              3.5806

 Test job not archived.
 1\1\GINC-SE036\SP\RHF\Aug-CC-pVDZ\C2H2F6O2\OHZDE\09-Apr-2025\0\\#t hf
 aug-cc-pvdz iop(5/13=1,5/36=2,99/5=2) pseudo=read geom=check guess=(re
 ad,tcheck) scf=(maxcycle=1)\\title\\0,1\C,0,2.13896,0.0375,0.00421\O,0
 ,1.55972,1.18917,-0.33198\F,0,1.89162,-0.93932,-0.89863\F,0,3.44546,0.
 20858,0.07631\F,0,1.70749,-0.43559,1.18333\H,0,0.61144,1.03978,-0.4461
 4\O,0,-0.6456215,0.07051433,-0.7798225\C,0,-1.7443515,0.04050433,0.011
 3775\H,0,-0.4669015,-0.80278567,-1.1389425\F,0,-1.6270115,-0.85964567,
 0.9868875\F,0,-2.8403615,-0.26481567,-0.6820525\F,0,-1.8912015,1.23779

 Normal termination of Gaussian 16 at Wed Apr  9 03:03:48 2025.
