 Gaussian 16, Revision C.01,

 ----------------------------------------------------------------------
 #t hf aug-cc-pvdz symm=none int=(grid=ultrafine) guess=(read,tcheck) s
 table=(opt,rrhf)
 ----------------------------------------------------------------------
 -----
 title
 -----
 Symbolic Z-matrix:
 Charge =  0 Multiplicity = 1

 SCF Done:  E(RHF) =  -515.808506819     A.U. after   12 cycles
 Normal termination of Gaussian 16 at Wed Apr  9 03:03:35 2025.
 Gaussian 16:  ES64L-G16RevC.01  3-Jul-2019

 ----------------------------------------------------------------------
 #t hf aug-cc-pvdz iop(5/13=1,5/36=2,99/5=2) pseudo=read geom=check gue
 ss=(read,tcheck) scf=(maxcycle=1)
 ----------------------------------------------------------------------
 -----
 title
 -----
 Structure from the checkpoint file:  "FH51_38_mol3.chk"
 Charge =  0 Multiplicity = 1

                         Standard orientation:
 ---------------------------------------------------------------------
 Center     Atomic      Atomic             Coordinates (Angstroms)
 Number     Number       Type             X           Y           Z
 ---------------------------------------------------------------------
      1          6           0        2.417695    0.078530    0.000010
      2          1           0        2.595804    0.701662    0.889047
      3          1           0        2.595797    0.703848   -0.887554
      4          1           0        3.169410   -0.723076   -0.000828
      5          6           0        0.999223   -0.498935   -0.000709
      6          1           0        0.857123   -1.142352   -0.883865
      7          1           0        0.857232   -1.144328    0.880971
      8          6           0       -0.068214    0.595584    0.000695
      9          1           0        0.032939    1.229847   -0.891255
     10          1           0        0.033348    1.228544    0.893677
     11         16           0       -1.736596   -0.179735    0.000409
     12          1           0       -2.448351    0.970548   -0.006719
 ---------------------------------------------------------------------

 SCF Done:  E(RHF) =  -516.660436893     A.U. after    2 cycles

 The electronic state is 1-A.
 Alpha  occ. eigenvalues --  -75.68031 -13.13218 -13.07109 -13.00387 -11.42407
 Alpha  occ. eigenvalues --  -11.39674 -11.36022  -8.01861  -1.25169  -1.09904
 Alpha  occ. eigenvalues --   -0.94881  -0.83846  -0.65087  -0.58382  -0.57152
 Alpha  occ. eigenvalues --   -0.55352  -0.48432  -0.47336  -0.43816  -0.37757
 Alpha  occ. eigenvalues --   -0.23409
 Alpha virt. eigenvalues --    0.03486   0.04209   0.05637   0.05741   0.06136
 Alpha virt. eigenvalues --    0.06907   0.07000   0.07394   0.10683   0.11116
 Alpha virt. eigenvalues --    0.12720   0.14351   0.15076   0.16588   0.16898

 Mulliken charges:
               1
     1  C   -3.649665
     2  H    1.257052
     3  H    1.257498
     4  H    1.154909
     5  C   -2.839194
     6  H    1.465127
     7  H    1.464746
     8  C   -3.379637
     9  H    1.382639
    10  H    1.384540
    11  S   -0.335543
    12  H    0.837527
 Sum of Mulliken charges =  -0.00000

 Dipole moment (field-independent basis, Debye):
    X=              0.8987    Y=             -0.7379    Z=              0.0039  Tot=              1.1628

 Test job not archived.
 1\1\GINC-SE073\SP\RHF\Aug-CC-pVDZ\C3H8S1\OHZDE\09-Apr-2025\0\\#t hf au
 g-cc-pvdz iop(5/13=1,5/36=2,99/5=2) pseudo=read geom=check guess=(read
 ,tcheck) scf=(maxcycle=1)\\title\\0,1\C,0,-5.02272319,-1.01258348,0.00
 055031\H,0,-4.68287386,-2.05837716,-0.03440472\H,0,-4.68158996,-0.5192
 976,-0.92184329\H,0,-6.12156661,-1.01893913,-0.01175941\C,0,-4.4917038
 9,-0.29534915,1.24518677\H,0,-4.87082051,0.73891291,1.27191014\H,0,-4.
 87202128,-0.79007801,2.15329223\C,0,-2.96364099,-0.27178569,1.28837156
 \H,0,-2.56398205,0.25062694,0.40777323\H,0,-2.5648839,-1.29611844,1.29

 Normal termination of Gaussian 16 at Wed Apr  9 03:03:38 2025.
