 Gaussian 16, Revision C.01,

 ----------------------------------------------------------------------
 #t hf aug-cc-pvdz symm=none int=(grid=ultrafine) guess=(read,tcheck) s
 table=(opt,rrhf)
 ----------------------------------------------------------------------
 -----
 title
 -----
 Symbolic Z-matrix:
 Charge =  0 Multiplicity = 1

 SCF Done:  E(RHF) =  -629.660977238     A.U. after   14 cycles
 Normal termination of Gaussian 16 at Wed Apr  9 03:04:00 2025.
 Gaussian 16:  ES64L-G16RevC.01  3-Jul-2019

 ----------------------------------------------------------------------
 #t hf aug-cc-pvdz iop(5/13=1,5/36=2,99/5=2) pseudo=read geom=check gue
 ss=(read,tcheck) scf=(maxcycle=1)
 ----------------------------------------------------------------------
 -----
 title
 -----
 Structure from the checkpoint file:  "FH51_10_mol3.chk"
 Charge =  0 Multiplicity = 1

                         Standard orientation:
 ---------------------------------------------------------------------
 Center     Atomic      Atomic             Coordinates (Angstroms)
 Number     Number       Type             X           Y           Z
 ---------------------------------------------------------------------
      1          6           0        1.373240   -0.796266    0.221679
      2          1           0        1.190556   -0.930870    1.298639
      3          1           0        1.286817   -1.770491   -0.284852
      4          6           0        2.714868   -0.123234   -0.044481
      5          1           0        2.743130    0.873060    0.416651
      6          1           0        3.532792   -0.721319    0.380992
      7          1           0        2.901582   -0.009928   -1.121760
      8          6           0       -1.369654   -0.805936    0.210472
      9          1           0       -1.183860   -0.958062    1.284519
     10          1           0       -1.286924   -1.771622   -0.312252
     11          6           0       -2.710146   -0.124962   -0.040602
     12          1           0       -2.900218    0.005526   -1.115477
     13          1           0       -3.528522   -0.726618    0.378927
     14          1           0       -2.732777    0.864290    0.435616
     15         16           0        0.000420    0.256964   -0.417829
     16          8           0       -0.009892    1.517125    0.405233
 ---------------------------------------------------------------------

 SCF Done:  E(RHF) =  -631.040827897     A.U. after    2 cycles

 The electronic state is 1-A.
 Alpha  occ. eigenvalues --  -75.77225 -20.99091 -13.31969 -13.22822 -13.15938
 Alpha  occ. eigenvalues --  -11.43170 -11.42099 -11.37922 -11.37619  -8.11495
 Alpha  occ. eigenvalues --   -1.67320  -1.24007  -1.15908  -1.01178  -0.90164
 Alpha  occ. eigenvalues --   -0.83974  -0.65617  -0.63230  -0.62697  -0.57682
 Alpha  occ. eigenvalues --   -0.55466  -0.52023  -0.50614  -0.50100  -0.45074
 Alpha  occ. eigenvalues --   -0.44856  -0.36654  -0.31420  -0.24893
 Alpha virt. eigenvalues --    0.03560   0.03693   0.05026   0.05160   0.06238
 Alpha virt. eigenvalues --    0.06450   0.07158   0.07516   0.08029   0.09064
 Alpha virt. eigenvalues --    0.10201   0.11621   0.12776   0.13203   0.14544

 Mulliken charges:
               1
     1  C   -3.604980
     2  H    1.502489
     3  H    1.525680
     4  C   -3.845502
     5  H    1.359178
     6  H    1.072838
     7  H    1.308269
     8  C   -3.614682
     9  H    1.496851
    10  H    1.528423
    11  C   -3.838858
    12  H    1.311625
    13  H    1.073382
    14  H    1.361918
    15  S    3.712287
    16  O   -2.348919
 Sum of Mulliken charges =   0.00000

 Dipole moment (field-independent basis, Debye):
    X=              0.0128    Y=             -1.4231    Z=             -0.7619  Tot=              1.6142

 Test job not archived.
 1\1\GINC-SE339\SP\RHF\Aug-CC-pVDZ\C4H10O1S1\OHZDE\09-Apr-2025\0\\#t hf
  aug-cc-pvdz iop(5/13=1,5/36=2,99/5=2) pseudo=read geom=check guess=(r
 ead,tcheck) scf=(maxcycle=1)\\title\\0,1\C,0,0.87780338,0.42478559,0.0
 3193616\H,0,1.08605893,1.03733057,-0.85843079\H,0,1.16859595,0.9861781
 5,0.93384343\C,0,1.55908788,-0.93664584,-0.04637343\H,0,1.19733591,-1.
 49773979,-0.91835533\H,0,2.64673878,-0.81388699,-0.14475442\H,0,1.3649
 1039,-1.53623726,0.85419022\C,0,-1.36135175,2.00896883,0.04737956\H,0,
 -0.84386836,2.42062089,-0.8323886\H,0,-0.94105295,2.4604961,0.95957761

 Normal termination of Gaussian 16 at Wed Apr  9 03:04:05 2025.
