 Gaussian 16, Revision C.01,

 ----------------------------------------------------------------------
 #t hf aug-cc-pvdz symm=none int=(grid=ultrafine) guess=(read,tcheck) s
 table=(opt,rrhf)
 ----------------------------------------------------------------------
 -----
 title
 -----
 Symbolic Z-matrix:
 Charge =  0 Multiplicity = 1

 SCF Done:  E(RHF) =  -779.391596826     A.U. after   13 cycles
 Normal termination of Gaussian 16 at Wed Apr  9 03:04:35 2025.
 Gaussian 16:  ES64L-G16RevC.01  3-Jul-2019

 ----------------------------------------------------------------------
 #t hf aug-cc-pvdz iop(5/13=1,5/36=2,99/5=2) pseudo=read geom=check gue
 ss=(read,tcheck) scf=(maxcycle=1)
 ----------------------------------------------------------------------
 -----
 title
 -----
 Structure from the checkpoint file:  "FH51_4_mol3.chk"
 Charge =  0 Multiplicity = 1

                         Standard orientation:
 ---------------------------------------------------------------------
 Center     Atomic      Atomic             Coordinates (Angstroms)
 Number     Number       Type             X           Y           Z
 ---------------------------------------------------------------------
      1          6           0        3.866330   -0.375305    0.043963
      2          1           0        3.854507   -1.137872   -0.748927
      3          1           0        3.860525   -0.899892    1.010857
      4          1           0        4.816088    0.171686   -0.033913
      5          6           0        2.670412    0.571552   -0.080184
      6          1           0        2.727873    1.345115    0.703691
      7          1           0        2.720154    1.106239   -1.043302
      8          6           0        1.324079   -0.158589    0.028202
      9          1           0        1.256055   -0.672983    0.998973
     10          1           0        1.263843   -0.933665   -0.752442
     11          6           0        0.145214    0.800589   -0.117746
     12          1           0        0.106429    1.280105   -1.106170
     13          1           0        0.163232    1.594195    0.645121
     14          8           0       -2.478206    1.046207   -0.144273
     15          8           0       -1.518404   -0.999229   -1.156329
     16          1           0       -1.457705   -1.897915   -0.774961
     17         16           0       -1.471504    0.043537    0.106977
     18          8           0       -1.478782   -0.757115    1.318605
 ---------------------------------------------------------------------

 SCF Done:  E(RHF) =  -781.404606311     A.U. after    2 cycles

 The electronic state is 1-A.
 Alpha  occ. eigenvalues --  -75.91950 -21.13229 -21.06194 -21.05828 -13.54327
 Alpha  occ. eigenvalues --  -13.45214 -13.37543 -11.46087 -11.43730 -11.40313
 Alpha  occ. eigenvalues --  -11.37227  -8.26914  -1.89387  -1.71923  -1.66453
 Alpha  occ. eigenvalues --   -1.27687  -1.13506  -0.99727  -0.89076  -0.85459
 Alpha  occ. eigenvalues --   -0.70150  -0.66027  -0.63457  -0.62095  -0.61090
 Alpha  occ. eigenvalues --   -0.56627  -0.55090  -0.52609  -0.49669  -0.48288
 Alpha  occ. eigenvalues --   -0.47657  -0.45892  -0.42512  -0.38977  -0.38193
 Alpha  occ. eigenvalues --   -0.36768  -0.35519
 Alpha virt. eigenvalues --    0.03150   0.04371   0.04681   0.05271   0.05504
 Alpha virt. eigenvalues --    0.05729   0.06610   0.07021   0.08535   0.09449
 Alpha virt. eigenvalues --    0.09818   0.11497   0.13044   0.13332   0.13878

 Mulliken charges:
               1
     1  C   -4.092654
     2  H    1.290799
     3  H    1.299720
     4  H    1.083364
     5  C   -2.746235
     6  H    1.394933
     7  H    1.400175
     8  C   -2.522067
     9  H    1.607594
    10  H    1.592275
    11  C   -3.793922
    12  H    1.497845
    13  H    1.512276
    14  O   -2.573701
    15  O   -2.453191
    16  H    0.735350
    17  S    7.282925
    18  O   -2.515487
 Sum of Mulliken charges =  -0.00000

 Dipole moment (field-independent basis, Debye):
    X=              2.6005    Y=             -0.6421    Z=             -1.0060  Tot=              2.8613

 Test job not archived.
 1\1\GINC-SE456\SP\RHF\Aug-CC-pVDZ\C4H10O3S1\OHZDE\09-Apr-2025\0\\#t hf
  aug-cc-pvdz iop(5/13=1,5/36=2,99/5=2) pseudo=read geom=check guess=(r
 ead,tcheck) scf=(maxcycle=1)\\title\\0,1\C,0,-5.73872102,-0.06181559,0
 .00503313\H,0,-5.41512052,-1.11326141,-0.00319632\H,0,-5.38568145,0.40
 274179,-0.92752136\H,0,-6.83732357,-0.05114033,-0.01119703\C,0,-5.1960
 2778,0.67525451,1.23156534\H,0,-5.56520423,1.71442258,1.23224176\H,0,-
 5.59160946,0.20838859,2.14890481\C,0,-3.66159286,0.68413755,1.28540318
 \H,0,-3.25979935,1.17306727,0.38477264\H,0,-3.28898574,-0.35265267,1.2

 Normal termination of Gaussian 16 at Wed Apr  9 03:05:12 2025.
