 Gaussian 16, Revision C.01,

 ----------------------------------------------------------------------
 #t hf aug-cc-pvdz symm=none int=(grid=ultrafine) guess=(read,tcheck) s
 table=(opt,rrhf)
 ----------------------------------------------------------------------
 -----
 title
 -----
 Symbolic Z-matrix:
 Charge =  0 Multiplicity = 1

 SCF Done:  E(RHF) =  -704.530590458     A.U. after   14 cycles
 Normal termination of Gaussian 16 at Wed Apr  9 03:04:13 2025.
 Gaussian 16:  ES64L-G16RevC.01  3-Jul-2019

 ----------------------------------------------------------------------
 #t hf aug-cc-pvdz iop(5/13=1,5/36=2,99/5=2) pseudo=read geom=check gue
 ss=(read,tcheck) scf=(maxcycle=1)
 ----------------------------------------------------------------------
 -----
 title
 -----
 Structure from the checkpoint file:  "FH51_4_mol1.chk"
 Charge =  0 Multiplicity = 1

                         Standard orientation:
 ---------------------------------------------------------------------
 Center     Atomic      Atomic             Coordinates (Angstroms)
 Number     Number       Type             X           Y           Z
 ---------------------------------------------------------------------
      1          6           0        3.709637    0.273230   -0.178168
      2          1           0        3.692264    1.328169    0.133807
      3          1           0        3.771896    0.252797   -1.276593
      4          1           0        4.631539   -0.176219    0.216595
      5          6           0        2.469381   -0.472115    0.320345
      6          1           0        2.530446   -1.532968    0.024381
      7          1           0        2.449936   -0.463452    1.422797
      8          6           0        1.160155    0.128625   -0.211244
      9          1           0        1.176805    0.114486   -1.314611
     10          1           0        1.088400    1.185643    0.087744
     11          6           0       -0.069636   -0.621295    0.292990
     12          1           0       -0.208495   -0.545550    1.382268
     13          1           0       -0.045461   -1.687284    0.018659
     14         16           0       -1.648593   -0.037768   -0.427694
     15          8           0       -2.710214   -0.887105    0.158898
     16          8           0       -1.554131    1.419673    0.437534
     17          1           0       -2.212301    2.017450    0.033075
 ---------------------------------------------------------------------

 SCF Done:  E(RHF) =  -706.216016447     A.U. after    2 cycles

 The electronic state is 1-A.
 Alpha  occ. eigenvalues --  -75.82696 -21.10592 -21.02439 -13.38237 -13.25523
 Alpha  occ. eigenvalues --  -13.21700 -11.44234 -11.42188 -11.39143 -11.36278
 Alpha  occ. eigenvalues --   -8.16636  -1.78126  -1.65866  -1.26378  -1.12399
 Alpha  occ. eigenvalues --   -0.99817  -0.89151  -0.84334  -0.68780  -0.63360
 Alpha  occ. eigenvalues --   -0.60549  -0.59027  -0.57171  -0.53411  -0.51533
 Alpha  occ. eigenvalues --   -0.48854  -0.47797  -0.46689  -0.46118  -0.43700
 Alpha  occ. eigenvalues --   -0.35099  -0.33483  -0.26537
 Alpha virt. eigenvalues --    0.03587   0.04315   0.05205   0.05267   0.05677
 Alpha virt. eigenvalues --    0.05903   0.06309   0.06899   0.08722   0.09581
 Alpha virt. eigenvalues --    0.09897   0.10252   0.12552   0.13083   0.13976

 Mulliken charges:
               1
     1  C   -3.865407
     2  H    1.296058
     3  H    1.284405
     4  H    1.091180
     5  C   -2.824370
     6  H    1.404107
     7  H    1.393899
     8  C   -2.773411
     9  H    1.516671
    10  H    1.606451
    11  C   -3.901620
    12  H    1.528240
    13  H    1.513969
    14  S    4.552786
    15  O   -2.494750
    16  O   -2.305579
    17  H    0.977372
 Sum of Mulliken charges =  -0.00000

 Dipole moment (field-independent basis, Debye):
    X=              1.7449    Y=              1.2292    Z=             -0.8294  Tot=              2.2899

 Test job not archived.
 1\1\GINC-SE070\SP\RHF\Aug-CC-pVDZ\C4H10O2S1\OHZDE\09-Apr-2025\0\\#t hf
  aug-cc-pvdz iop(5/13=1,5/36=2,99/5=2) pseudo=read geom=check guess=(r
 ead,tcheck) scf=(maxcycle=1)\\title\\0,1\C,0,-5.79093711,-0.03263023,-
 0.00381635\H,0,-5.44448242,-1.07405809,-0.08077654\H,0,-5.47977405,0.4
 8945911,-0.92111218\H,0,-6.8896491,-0.04715549,0.01534334\C,0,-5.22157
 261,0.64969102,1.24219765\H,0,-5.61280391,1.67860775,1.31292339\H,0,-5
 .57513839,0.12593789,2.14581721\C,0,-3.68665748,0.68856024,1.25067745\
 H,0,-3.33269255,1.21804586,0.34942778\H,0,-3.28901443,-0.33607789,1.18

 Normal termination of Gaussian 16 at Wed Apr  9 03:04:19 2025.
