 Gaussian 16, Revision C.01,

 ----------------------------------------------------------------------
 #t hf aug-cc-pvdz symm=none int=(grid=ultrafine) guess=(read,tcheck) s
 table=(opt,rrhf)
 ----------------------------------------------------------------------
 -----
 title
 -----
 Symbolic Z-matrix:
 Charge =  0 Multiplicity = 1

 SCF Done:  E(RHF) =  -475.577383601     A.U. after   12 cycles
 Normal termination of Gaussian 16 at Wed Apr  9 03:03:30 2025.
 Gaussian 16:  ES64L-G16RevC.01  3-Jul-2019

 ----------------------------------------------------------------------
 #t hf aug-cc-pvdz iop(5/13=1,5/36=2,99/5=2) pseudo=read geom=check gue
 ss=(read,tcheck) scf=(maxcycle=1)
 ----------------------------------------------------------------------
 -----
 title
 -----
 Structure from the checkpoint file:  "G2RC_1_mol2.chk"
 Charge =  0 Multiplicity = 1

                         Standard orientation:
 ---------------------------------------------------------------------
 Center     Atomic      Atomic             Coordinates (Angstroms)
 Number     Number       Type             X           Y           Z
 ---------------------------------------------------------------------
      1         16           0       -0.000000   -0.000000    0.875007
      2          6           0       -0.000000    0.738651   -0.807188
      3          6           0       -0.000000   -0.738651   -0.807188
      4          1           0       -0.912678    1.250597   -1.078463
      5          1           0        0.912678    1.250597   -1.078463
      6          1           0        0.912678   -1.250597   -1.078463
      7          1           0       -0.912678   -1.250597   -1.078463
 ---------------------------------------------------------------------

 SCF Done:  E(RHF) =  -476.201156838     A.U. after    2 cycles

 The electronic state is 1-A1.
 Alpha  occ. eigenvalues --  -75.67196 -13.10186 -13.05545 -12.99424 -11.43842
 Alpha  occ. eigenvalues --  -11.40770  -8.01149  -1.31055  -0.91546  -0.88557
 Alpha  occ. eigenvalues --   -0.67664  -0.60600  -0.53662  -0.39118  -0.35658
 Alpha  occ. eigenvalues --   -0.22520
 Alpha virt. eigenvalues --    0.03324   0.04552   0.05282   0.06627   0.06945
 Alpha virt. eigenvalues --    0.11424   0.12089   0.13822   0.13952   0.15319
 Alpha virt. eigenvalues --    0.15506   0.15780   0.19311   0.20105   0.20299

 Mulliken charges:
               1
     1  S    0.865189
     2  C   -2.774613
     3  C   -2.774613
     4  H    1.171009
     5  H    1.171009
     6  H    1.171009
     7  H    1.171009
 Sum of Mulliken charges =   0.00000

 Dipole moment (field-independent basis, Debye):
    X=             -0.0000    Y=             -0.0000    Z=              0.6980  Tot=              0.6980

 Test job not archived.
 1\1\GINC-SE459\SP\RHF\Aug-CC-pVDZ\C2H4S1\OHZDE\09-Apr-2025\0\\#t hf au
 g-cc-pvdz iop(5/13=1,5/36=2,99/5=2) pseudo=read geom=check guess=(read
 ,tcheck) scf=(maxcycle=1)\\title\\0,1\S,0,0.,0.,1.59689538\C,0,0.,-0.7
 3865087,-0.08529881\C,0,0.,0.73865087,-0.08529881\H,0,0.91267842,-1.25
 059718,-0.35657444\H,0,-0.91267842,-1.25059718,-0.35657444\H,0,-0.9126
 7842,1.25059718,-0.35657444\H,0,0.91267842,1.25059718,-0.35657444\\Ver
 sion=ES64L-G16RevC.01\State=1-A1\HF=-476.2011568\RMSD=3.555e-01\Dipole
 =0.,0.,0.2746035\Quadrupole=-1.5225636,0.7840538,0.7385097,0.,0.,0.\PG

 Normal termination of Gaussian 16 at Wed Apr  9 03:03:32 2025.
