 Gaussian 16, Revision C.01,

 ----------------------------------------------------------------------
 #t hf aug-cc-pvdz symm=none int=(grid=ultrafine) guess=(read,tcheck) s
 table=(opt,rrhf)
 ----------------------------------------------------------------------
 -----
 title
 -----
 Symbolic Z-matrix:
 Charge =  0 Multiplicity = 1

 SCF Done:  E(RHF) =  -551.581387464     A.U. after   13 cycles
 Normal termination of Gaussian 16 at Wed Apr  9 03:03:34 2025.
 Gaussian 16:  ES64L-G16RevC.01  3-Jul-2019

 ----------------------------------------------------------------------
 #t hf aug-cc-pvdz iop(5/13=1,5/36=2,99/5=2) pseudo=read geom=check gue
 ss=(read,tcheck) scf=(maxcycle=1)
 ----------------------------------------------------------------------
 -----
 title
 -----
 Structure from the checkpoint file:  "G2RC_1_mol1.chk"
 Charge =  0 Multiplicity = 1

                         Standard orientation:
 ---------------------------------------------------------------------
 Center     Atomic      Atomic             Coordinates (Angstroms)
 Number     Number       Type             X           Y           Z
 ---------------------------------------------------------------------
      1          6           0        0.260593   -0.789122    1.367157
      2         16           0        0.260593    0.432025    0.000000
      3          8           0       -1.103933    1.072881    0.000000
      4          6           0        0.260593   -0.789122   -1.367157
      5          1           0        0.202761   -0.216938    2.289958
      6          1           0        1.181202   -1.370511    1.342974
      7          1           0       -0.616539   -1.425543    1.265106
      8          1           0        1.181202   -1.370511   -1.342974
      9          1           0       -0.616539   -1.425543   -1.265106
     10          1           0        0.202761   -0.216938   -2.289958
 ---------------------------------------------------------------------

 SCF Done:  E(RHF) =  -552.560717301     A.U. after    2 cycles

 The electronic state is 1-A'.
 Alpha  occ. eigenvalues --  -75.78297 -20.99512 -13.32325 -13.20820 -13.16347
 Alpha  occ. eigenvalues --  -11.41000 -11.40446  -8.12463  -1.67484  -1.19590
 Alpha  occ. eigenvalues --   -1.05209  -0.88861  -0.63247  -0.62175  -0.60608
 Alpha  occ. eigenvalues --   -0.59020  -0.49632  -0.46655  -0.37366  -0.32394
 Alpha  occ. eigenvalues --   -0.25659
 Alpha virt. eigenvalues --    0.02835   0.04019   0.05258   0.05978   0.07183
 Alpha virt. eigenvalues --    0.07459   0.08268   0.11788   0.12813   0.12945
 Alpha virt. eigenvalues --    0.14221   0.15133   0.16541   0.17223   0.17891

 Mulliken charges:
               1
     1  C   -4.566581
     2  S    3.103263
     3  O   -2.274575
     4  C   -4.566581
     5  H    1.392912
     6  H    1.394718
     7  H    1.364607
     8  H    1.394718
     9  H    1.364607
    10  H    1.392912
 Sum of Mulliken charges =  -0.00000

 Dipole moment (field-independent basis, Debye):
    X=              1.6599    Y=             -0.8061    Z=             -0.0000  Tot=              1.8453

 Test job not archived.
 1\1\GINC-SE457\SP\RHF\Aug-CC-pVDZ\C2H6O1S1\OHZDE\09-Apr-2025\0\\#t hf
 aug-cc-pvdz iop(5/13=1,5/36=2,99/5=2) pseudo=read geom=check guess=(re
 ad,tcheck) scf=(maxcycle=1)\\title\\0,1\C,0,-0.22605287,0.02049785,-1.
 36715672\S,0,0.80173249,0.67993458,0.\O,0,2.07797632,-0.12245588,0.\C,
 0,-0.22605287,0.02049785,1.36715672\H,0,0.28675928,0.28081005,-2.28995
 764\H,0,-1.21252429,0.48137459,-1.34297371\H,0,-0.28803653,-1.06142184
 ,-1.26510605\H,0,-1.21252429,0.48137459,1.34297371\H,0,-0.28803653,-1.
 06142184,1.26510605\H,0,0.28675928,0.28081005,2.28995764\\Version=ES64

 Normal termination of Gaussian 16 at Wed Apr  9 03:03:36 2025.
