 Gaussian 16, Revision C.01,

 ----------------------------------------------------------------------
 #t hf aug-cc-pvdz symm=none int=(grid=ultrafine) guess=(read,tcheck) s
 table=(opt,rrhf)
 ----------------------------------------------------------------------
 -----
 title
 -----
 Symbolic Z-matrix:
 Charge =  0 Multiplicity = 1

 SCF Done:  E(RHF) =  -547.205009657     A.U. after   12 cycles
 Normal termination of Gaussian 16 at Wed Apr  9 03:03:30 2025.
 Gaussian 16:  ES64L-G16RevC.01  3-Jul-2019

 ----------------------------------------------------------------------
 #t hf aug-cc-pvdz iop(5/13=1,5/36=2,99/5=2) pseudo=read geom=check gue
 ss=(read,tcheck) scf=(maxcycle=1)
 ----------------------------------------------------------------------
 -----
 title
 -----
 Structure from the checkpoint file:  "G2RC_18_mol1.chk"
 Charge =  0 Multiplicity = 1

                         Standard orientation:
 ---------------------------------------------------------------------
 Center     Atomic      Atomic             Coordinates (Angstroms)
 Number     Number       Type             X           Y           Z
 ---------------------------------------------------------------------
      1         16           0        0.000000    0.000000    0.373226
      2          8           0       -0.000000    1.248914   -0.373226
      3          8           0       -0.000000   -1.248914   -0.373226
 ---------------------------------------------------------------------

 SCF Done:  E(RHF) =  -548.038526861     A.U. after    2 cycles

 The electronic state is 1-A1.
 Alpha  occ. eigenvalues --  -75.90316 -21.12811 -21.12787 -13.51451 -13.33171
 Alpha  occ. eigenvalues --  -13.19460  -8.24900  -1.85994  -1.68968  -0.93225
 Alpha  occ. eigenvalues --   -0.57446  -0.56680  -0.50834  -0.40983  -0.40707
 Alpha  occ. eigenvalues --   -0.35016
 Alpha virt. eigenvalues --    0.06137   0.07949   0.08411   0.08433   0.12941
 Alpha virt. eigenvalues --    0.19327   0.20745   0.21064   0.23689   0.25442
 Alpha virt. eigenvalues --    0.27374   0.27949   0.30604   0.33621   0.34479

 Mulliken charges:
               1
     1  S    3.693037
     2  O   -1.846519
     3  O   -1.846519
 Sum of Mulliken charges =  -0.00000

 Dipole moment (field-independent basis, Debye):
    X=              0.0000    Y=              0.0000    Z=              1.7351  Tot=              1.7351

 Test job not archived.
 1\1\GINC-SE455\SP\RHF\Aug-CC-pVDZ\O2S1\OHZDE\09-Apr-2025\0\\#t hf aug-
 cc-pvdz iop(5/13=1,5/36=2,99/5=2) pseudo=read geom=check guess=(read,t
 check) scf=(maxcycle=1)\\title\\0,1\S,0,0.,0.,0.49763437\O,0,-1.248914
 13,0.,-0.24881718\O,0,1.24891413,0.,-0.24881718\\Version=ES64L-G16RevC
 .01\State=1-A1\HF=-548.0385269\RMSD=7.553e-02\Dipole=0.,0.,0.6826239\Q
 uadrupole=-2.0933242,1.9215856,0.1717386,0.,0.,0.\PG=C02V [C2(S1),SGV(
 O2)]\\@

 Normal termination of Gaussian 16 at Wed Apr  9 03:03:31 2025.
