 Gaussian 16, Revision C.01,

 ----------------------------------------------------------------------
 #t hf aug-cc-pvdz symm=none int=(grid=ultrafine) guess=(read,tcheck) s
 table=(opt,rrhf)
 ----------------------------------------------------------------------
 -----
 title
 -----
 Symbolic Z-matrix:
 Charge =  0 Multiplicity = 1

 SCF Done:  E(RHF) =  -344.824726448     A.U. after   15 cycles

 1\1\GINC-SE362\Stability\RHF\Aug-CC-pVDZ\C5H10O2\OHZDE\09-Apr-2025\0\\
 #t hf aug-cc-pvdz symm=none int=(grid=ultrafine) guess=(read,tcheck) s
 table=(opt,rrhf)\\title\\0,1\C,0,-1.9409908,-0.59873334,-0.48868421\C,
 0,-0.77634202,0.23450655,-0.02279254\O,0,-0.88703934,1.51679549,-0.184
 46553\C,0,0.03633774,-0.22632286,1.20858722\C,0,1.48333956,-0.34527279
 ,0.70969283\C,0,1.46324548,0.34353497,-0.65964592\O,0,1.39097434,1.631
 32152,-0.70051498\H,0,-1.67632662,-1.652742,-0.57326059\H,0,-2.7420057
 ,-0.50510934,0.24968201\H,0,-2.31156472,-0.22848093,-1.44313741\H,0,0.

 Normal termination of Gaussian 16 at Wed Apr  9 03:34:30 2025.
 Gaussian 16:  ES64L-G16RevC.01  3-Jul-2019

 ----------------------------------------------------------------------
 #t hf aug-cc-pvdz iop(5/13=1,5/36=2,99/5=2) pseudo=read geom=check gue
 ss=(read,tcheck) scf=(maxcycle=1)
 ----------------------------------------------------------------------
 -----
 title
 -----
 Structure from the checkpoint file:  "Grambow2020_wb97xd3_007097_forward_mol1.chk"
 Charge =  0 Multiplicity = 1

                         Standard orientation:
 ---------------------------------------------------------------------
 Center     Atomic      Atomic             Coordinates (Angstroms)
 Number     Number       Type             X           Y           Z
 ---------------------------------------------------------------------
      1          6           0       -2.197523    0.073958    0.609490
      2          6           0       -0.863436   -0.081639   -0.071504
      3          8           0       -0.661022   -1.205251   -0.687282
      4          6           0       -0.180517    1.161349   -0.686085
      5          6           0        1.192096    1.240839   -0.003096
      6          6           0        1.332690   -0.109282    0.709192
      7          8           0        1.574314   -1.158755   -0.001803
      8          1           0       -2.196476    0.903197    1.316947
      9          1           0       -2.948347    0.279925   -0.158244
     10          1           0       -2.472082   -0.849669    1.116365
     11          1           0        0.024477   -0.167843    0.993427
     12          1           0        0.483164   -1.348026   -0.580715
     13          1           0       -0.110720    0.998582   -1.762045
     14          1           0       -0.775101    2.061424   -0.522361
     15          1           0        1.218088    2.046880    0.733472
     16          1           0        2.020378    1.386820   -0.697333
     17          1           0        1.750422   -0.110599    1.725189
 ---------------------------------------------------------------------

 SCF Done:  E(RHF) =  -346.467432009     A.U. after    2 cycles

 The electronic state is 1-A.
 Alpha  occ. eigenvalues --  -21.03604 -21.01605 -11.55243 -11.49039 -11.43687
 Alpha  occ. eigenvalues --  -11.40346 -11.38301  -1.77649  -1.66318  -1.25342
 Alpha  occ. eigenvalues --   -1.10508  -0.98053  -0.89512  -0.77085  -0.74144
 Alpha  occ. eigenvalues --   -0.67639  -0.62887  -0.59005  -0.57925  -0.55463
 Alpha  occ. eigenvalues --   -0.53464  -0.50302  -0.48772  -0.45031  -0.40533
 Alpha  occ. eigenvalues --   -0.34618  -0.30759  -0.25825
 Alpha virt. eigenvalues --    0.03651   0.04576   0.04750   0.05047   0.05296
 Alpha virt. eigenvalues --    0.05637   0.07024   0.07084   0.08906   0.09303
 Alpha virt. eigenvalues --    0.11944   0.12850   0.13199   0.13354   0.14119

 Mulliken charges:
               1
     1  C   -4.149732
     2  C    3.329386
     3  O   -3.675455
     4  C   -3.398725
     5  C   -2.891594
     6  C    0.154918
     7  O   -3.157092
     8  H    1.170287
     9  H    1.205665
    10  H    1.218452
    11  H    1.982702
    12  H    1.291522
    13  H    1.336903
    14  H    1.527766
    15  H    1.333814
    16  H    1.369689
    17  H    1.351493
 Sum of Mulliken charges =   0.00000

 Dipole moment (field-independent basis, Debye):
    X=             -0.9503    Y=              1.7923    Z=              0.5307  Tot=              2.0969

 Test job not archived.
 1\1\GINC-SE362\SP\RHF\Aug-CC-pVDZ\C5H10O2\OHZDE\09-Apr-2025\0\\#t hf a
 ug-cc-pvdz iop(5/13=1,5/36=2,99/5=2) pseudo=read geom=check guess=(rea
 d,tcheck) scf=(maxcycle=1)\\title\\0,1\C,0,-1.9409908,-0.59873334,-0.4
 8868421\C,0,-0.77634202,0.23450655,-0.02279254\O,0,-0.88703934,1.51679
 549,-0.18446553\C,0,0.03633774,-0.22632286,1.20858722\C,0,1.48333956,-
 0.34527279,0.70969283\C,0,1.46324548,0.34353497,-0.65964592\O,0,1.3909
 7434,1.63132152,-0.70051498\H,0,-1.67632662,-1.652742,-0.57326059\H,0,
 -2.7420057,-0.50510934,0.24968201\H,0,-2.31156472,-0.22848093,-1.44313

 Normal termination of Gaussian 16 at Wed Apr  9 03:34:36 2025.
