 Gaussian 16, Revision C.01,

 ----------------------------------------------------------------------
 #t hf aug-cc-pvdz symm=none int=(grid=ultrafine) guess=(read,tcheck) s
 table=(opt,rrhf)
 ----------------------------------------------------------------------
 -----
 title
 -----
 Symbolic Z-matrix:
 Charge =  0 Multiplicity = 1

 SCF Done:  E(RHF) =  -306.873183395     A.U. after   15 cycles

 1\1\GINC-SE054\Stability\RHF\Aug-CC-pVDZ\C4H10O2\OHZDE\09-Apr-2025\0\\
 #t hf aug-cc-pvdz symm=none int=(grid=ultrafine) guess=(read,tcheck) s
 table=(opt,rrhf)\\title\\0,1\C,0,2.65088233,-0.42905988,-0.79927562\O,
 0,1.70414682,-0.31717827,0.24708269\C,0,0.38695949,-0.09572339,-0.2518
 6809\C,0,-0.50997263,-0.04872449,0.97023735\C,0,-2.26036481,0.99298452
 ,-0.13131683\O,0,-1.00137174,-1.28967701,1.22204146\H,0,2.4383558,-1.2
 9062879,-1.46040474\H,0,2.68526457,0.48387896,-1.42460656\H,0,3.630163
 01,-0.57353936,-0.32663299\H,0,0.09986406,-0.90949797,-0.95098577\H,0,

 Normal termination of Gaussian 16 at Wed Apr  9 03:08:02 2025.
 Gaussian 16:  ES64L-G16RevC.01  3-Jul-2019

 ----------------------------------------------------------------------
 #t hf aug-cc-pvdz iop(5/13=1,5/36=2,99/5=2) pseudo=read geom=check gue
 ss=(read,tcheck) scf=(maxcycle=1)
 ----------------------------------------------------------------------
 -----
 title
 -----
 Structure from the checkpoint file:  "Grambow2020_b97d3_006575_forward_mol1.chk"
 Charge =  0 Multiplicity = 1

                         Standard orientation:
 ---------------------------------------------------------------------
 Center     Atomic      Atomic             Coordinates (Angstroms)
 Number     Number       Type             X           Y           Z
 ---------------------------------------------------------------------
      1          6           0        2.685313   -0.346822    0.146973
      2          8           0        1.519630    0.245524   -0.395245
      3          6           0        0.332513   -0.325826    0.149999
      4          6           0       -0.815539    0.437128   -0.482549
      5          6           0       -2.404728   -1.164457    0.038852
      6          8           0       -1.160798    1.482130    0.313445
      7          1           0        2.759493   -0.191177    1.240057
      8          1           0        2.724576   -1.435792   -0.048677
      9          1           0        3.541762    0.133513   -0.341933
     10          1           0        0.336450   -0.234714    1.256842
     11          1           0        0.256219   -1.398617   -0.103831
     12          1           0       -1.715749   -0.283096   -0.861744
     13          1           0       -3.423799   -0.790734   -0.114841
     14          1           0       -2.119675   -1.113142    1.093160
     15          1           0       -2.242797   -2.158567   -0.389350
     16          1           0       -1.772497    2.050946   -0.194937
 ---------------------------------------------------------------------

 SCF Done:  E(RHF) =  -308.303728565     A.U. after    2 cycles

 The electronic state is 1-A.
 Alpha  occ. eigenvalues --  -21.11063 -21.04350 -11.45406 -11.40457 -11.39632
 Alpha  occ. eigenvalues --  -11.37764  -1.77176  -1.72494  -1.09814  -1.01573
 Alpha  occ. eigenvalues --   -0.93400  -0.81652  -0.69314  -0.62669  -0.60439
 Alpha  occ. eigenvalues --   -0.59751  -0.56111  -0.55680  -0.53841  -0.50715
 Alpha  occ. eigenvalues --   -0.46892  -0.40005  -0.38844  -0.29782  -0.25844
 Alpha virt. eigenvalues --    0.03773   0.05012   0.05290   0.05552   0.05912
 Alpha virt. eigenvalues --    0.06208   0.07032   0.07744   0.08978   0.09478
 Alpha virt. eigenvalues --    0.11903   0.12179   0.12688   0.14093   0.14731

 Mulliken charges:
               1
     1  C   -3.016960
     2  O   -2.735710
     3  C   -1.120610
     4  C   -0.092624
     5  C   -4.485378
     6  O   -2.630639
     7  H    1.294434
     8  H    1.324257
     9  H    1.274689
    10  H    1.738646
    11  H    1.710986
    12  H    2.339715
    13  H    1.084151
    14  H    1.346772
    15  H    1.166796
    16  H    0.801474
 Sum of Mulliken charges =  -0.00000

 Dipole moment (field-independent basis, Debye):
    X=             -0.3666    Y=              0.3774    Z=              0.6453  Tot=              0.8327

 Test job not archived.
 1\1\GINC-SE054\SP\RHF\Aug-CC-pVDZ\C4H10O2\OHZDE\09-Apr-2025\0\\#t hf a
 ug-cc-pvdz iop(5/13=1,5/36=2,99/5=2) pseudo=read geom=check guess=(rea
 d,tcheck) scf=(maxcycle=1)\\title\\0,1\C,0,2.65088233,-0.42905988,-0.7
 9927562\O,0,1.70414682,-0.31717827,0.24708269\C,0,0.38695949,-0.095723
 39,-0.25186809\C,0,-0.50997263,-0.04872449,0.97023735\C,0,-2.26036481,
 0.99298452,-0.13131683\O,0,-1.00137174,-1.28967701,1.22204146\H,0,2.43
 83558,-1.29062879,-1.46040474\H,0,2.68526457,0.48387896,-1.42460656\H,
 0,3.63016301,-0.57353936,-0.32663299\H,0,0.09986406,-0.90949797,-0.950

 Normal termination of Gaussian 16 at Wed Apr  9 03:08:07 2025.
