 Gaussian 16, Revision C.01,

 ----------------------------------------------------------------------
 #t hf aug-cc-pvdz symm=none int=(grid=ultrafine) guess=(read,tcheck) s
 table=(opt,rrhf)
 ----------------------------------------------------------------------
 -----
 title
 -----
 Symbolic Z-matrix:
 Charge =  0 Multiplicity = 1

 SCF Done:  E(RHF) =  -318.702193049     A.U. after   17 cycles
 Normal termination of Gaussian 16 at Wed Apr  9 18:58:50 2025.
 Gaussian 16:  ES64L-G16RevC.01  3-Jul-2019

 ----------------------------------------------------------------------
 #t hf aug-cc-pvdz iop(5/13=1,5/36=2,99/5=2) pseudo=read geom=check gue
 ss=(read,tcheck) scf=(maxcycle=1)
 ----------------------------------------------------------------------
 -----
 title
 -----
 Structure from the checkpoint file:  "Grambow2020_wb97xd3_007958_reverse_mol1.chk"
 Charge =  0 Multiplicity = 1

                         Standard orientation:
 ---------------------------------------------------------------------
 Center     Atomic      Atomic             Coordinates (Angstroms)
 Number     Number       Type             X           Y           Z
 ---------------------------------------------------------------------
      1          6           0        2.120416   -0.558744   -0.450713
      2          6           0        1.444229    0.716240   -0.012702
      3          6           0       -0.482141    1.172617    0.340583
      4          6           0       -1.513369    0.696260   -0.492776
      5          7           0       -1.559208   -0.628160   -0.324449
      6          7           0       -0.621054   -1.094336    0.469776
      7          7           0        0.023487   -0.006245    0.889272
      8          1           0        3.089061   -0.286465   -0.881662
      9          1           0        2.272816   -1.245202    0.379747
     10          1           0        1.548648   -1.070144   -1.225660
     11          1           0        1.894025    1.215183    0.833479
     12          1           0        1.337729    1.402806   -0.847299
     13          1           0       -2.215814    1.207168   -1.130665
     14          1           0       -2.243857   -1.280402   -0.676484
 ---------------------------------------------------------------------

 SCF Done:  E(RHF) =  -320.223135852     A.U. after    2 cycles

 The electronic state is 1-A.
 Alpha  occ. eigenvalues --  -15.86058 -15.77035 -15.75042 -11.47612 -11.42466
 Alpha  occ. eigenvalues --  -11.38338 -11.34871  -1.69096  -1.34029  -1.18443
 Alpha  occ. eigenvalues --   -1.12810  -0.93067  -0.84936  -0.80828  -0.72768
 Alpha  occ. eigenvalues --   -0.66411  -0.65021  -0.57429  -0.56729  -0.53804
 Alpha  occ. eigenvalues --   -0.50865  -0.47092  -0.40518  -0.38277  -0.32184
 Alpha  occ. eigenvalues --   -0.29903
 Alpha virt. eigenvalues --    0.03141   0.04607   0.05259   0.05976   0.06521
 Alpha virt. eigenvalues --    0.06691   0.07231   0.09883   0.10518   0.11674
 Alpha virt. eigenvalues --    0.12442   0.12707   0.13159   0.14259   0.15215

 Mulliken charges:
               1
     1  C   -3.732982
     2  C   -2.464121
     3  C   -0.563511
     4  C    1.005820
     5  N   -2.024636
     6  N   -0.787572
     7  N   -0.477282
     8  H    1.081744
     9  H    1.352367
    10  H    1.317425
    11  H    1.311177
    12  H    1.513234
    13  H    1.506772
    14  H    0.961565
 Sum of Mulliken charges =   0.00000

 Dipole moment (field-independent basis, Debye):
    X=             -0.6084    Y=             -1.9442    Z=             -3.0691  Tot=              3.6837

 Test job not archived.
 1\1\GINC-SE116\SP\RHF\Aug-CC-pVDZ\C4H7N3\OHZDE\09-Apr-2025\0\\#t hf au
 g-cc-pvdz iop(5/13=1,5/36=2,99/5=2) pseudo=read geom=check guess=(read
 ,tcheck) scf=(maxcycle=1)\\title\\0,1\C,0,-1.58950003,0.95682755,0.055
 8831\C,0,-1.15673145,-0.44615342,0.40088036\C,0,0.64847092,-1.33098717
 ,0.44889199\C,0,1.6139872,-1.08184024,-0.546365\N,0,1.98306269,0.19467
 752,-0.40921627\N,0,1.31295826,0.84360823,0.51711769\N,0,0.51538543,-0
 .08001501,1.05204568\H,0,-2.65058272,0.91808221,-0.21006394\H,0,-1.448
 97855,1.64297626,0.88869098\H,0,-1.04840243,1.34221803,-0.80880113\H,0

 Normal termination of Gaussian 16 at Wed Apr  9 18:58:54 2025.
