 Gaussian 16, Revision C.01,

 ----------------------------------------------------------------------
 #t hf aug-cc-pvdz symm=none int=(grid=ultrafine) guess=(read,tcheck) s
 table=(opt,rrhf)
 ----------------------------------------------------------------------
 -----
 title
 -----
 Symbolic Z-matrix:
 Charge =  0 Multiplicity = 1

 SCF Done:  E(RHF) =  -323.669983623     A.U. after   17 cycles
 Normal termination of Gaussian 16 at Wed Apr  9 18:16:25 2025.
 Gaussian 16:  ES64L-G16RevC.01  3-Jul-2019

 ----------------------------------------------------------------------
 #t hf aug-cc-pvdz iop(5/13=1,5/36=2,99/5=2) pseudo=read geom=check gue
 ss=(read,tcheck) scf=(maxcycle=1)
 ----------------------------------------------------------------------
 -----
 title
 -----
 Structure from the checkpoint file:  "Grambow2020_wb97xd3_006826_forward_mol1.chk"
 Charge =  0 Multiplicity = 1

                         Standard orientation:
 ---------------------------------------------------------------------
 Center     Atomic      Atomic             Coordinates (Angstroms)
 Number     Number       Type             X           Y           Z
 ---------------------------------------------------------------------
      1          6           0        2.352269   -0.640116   -0.265206
      2          6           0        1.171628    0.056588    0.384745
      3          6           0        0.667083    1.371214   -0.221936
      4          6           0       -0.792130    1.248552    0.182522
      5          6           0       -0.146028   -0.626031    0.251729
      6          7           0       -0.863441   -1.550320    0.072348
      7          8           0       -2.358645   -0.230506   -0.239710
      8          1           0        3.245020   -0.017573   -0.180327
      9          1           0        2.159167   -0.822804   -1.323307
     10          1           0        2.556520   -1.598113    0.213372
     11          1           0        1.349304    0.194207    1.455735
     12          1           0        1.147123    2.292669    0.123230
     13          1           0        0.759934    1.328284   -1.309019
     14          1           0       -1.514195    1.793172   -0.406524
     15          1           0       -0.985696    1.320899    1.247035
     16          1           0       -3.320862   -0.255696   -0.400069
 ---------------------------------------------------------------------

 SCF Done:  E(RHF) =  -325.210449155     A.U. after    2 cycles

 The electronic state is 1-A.
 Alpha  occ. eigenvalues --  -20.99449 -15.78913 -11.50744 -11.46894 -11.42747
 Alpha  occ. eigenvalues --  -11.41369 -11.38952  -1.53462  -1.36209  -1.24231
 Alpha  occ. eigenvalues --   -1.09940  -0.94266  -0.89161  -0.73165  -0.66535
 Alpha  occ. eigenvalues --   -0.63297  -0.60223  -0.57705  -0.55248  -0.53845
 Alpha  occ. eigenvalues --   -0.51997  -0.48123  -0.46128  -0.43323  -0.33281
 Alpha  occ. eigenvalues --   -0.26663  -0.26447
 Alpha virt. eigenvalues --    0.03162   0.04285   0.04717   0.05235   0.05554
 Alpha virt. eigenvalues --    0.06018   0.06122   0.07602   0.08048   0.09021
 Alpha virt. eigenvalues --    0.10572   0.12096   0.12394   0.13371   0.13792

 Mulliken charges:
               1
     1  C   -3.998687
     2  C   -1.254975
     3  C   -2.771628
     4  C   -2.522170
     5  C    3.319729
     6  N   -2.622842
     7  O   -1.615458
     8  H    1.212649
     9  H    1.248120
    10  H    1.172255
    11  H    1.510441
    12  H    1.273247
    13  H    1.503766
    14  H    1.221786
    15  H    1.305379
    16  H    1.018387
 Sum of Mulliken charges =  -0.00000

 Dipole moment (field-independent basis, Debye):
    X=              2.3202    Y=              2.5234    Z=              0.3514  Tot=              3.4459

 Test job not archived.
 1\1\GINC-SE116\SP\RHF\Aug-CC-pVDZ\C5H9N1O1\OHZDE\09-Apr-2025\0\\#t hf
 aug-cc-pvdz iop(5/13=1,5/36=2,99/5=2) pseudo=read geom=check guess=(re
 ad,tcheck) scf=(maxcycle=1)\\title\\0,1\C,0,-1.81667521,-1.22519023,-0
 .29335572\C,0,-0.62366497,-0.34709862,-0.62111448\C,0,-0.55171016,1.05
 638939,-0.00799669\C,0,0.96062242,1.1878244,0.05124264\C,0,0.68202924,
 -0.77419976,-0.04437621\N,0,1.45019126,-1.54638384,0.41911974\O,0,2.54
 059774,0.03262444,1.04575386\H,0,-2.72904445,-0.77834855,-0.6929608\H,
 0,-1.9312392,-1.33515983,0.7860061\H,0,-1.70469248,-2.21943438,-0.7263

 Normal termination of Gaussian 16 at Wed Apr  9 18:16:30 2025.
