 Gaussian 16, Revision C.01,

 ----------------------------------------------------------------------
 #t hf aug-cc-pvdz symm=none int=(grid=ultrafine) guess=(read,tcheck) s
 table=(opt,rrhf)
 ----------------------------------------------------------------------
 -----
 title
 -----
 Symbolic Z-matrix:
 Charge =  0 Multiplicity = 1

 SCF Done:  E(RHF) =  -305.347776372     A.U. after   20 cycles
 Normal termination of Gaussian 16 at Wed Apr  9 19:02:53 2025.
 Gaussian 16:  ES64L-G16RevC.01  3-Jul-2019

 ----------------------------------------------------------------------
 #t hf aug-cc-pvdz iop(5/13=1,5/36=2,99/5=2) pseudo=read geom=check gue
 ss=(read,tcheck) scf=(maxcycle=1)
 ----------------------------------------------------------------------
 -----
 title
 -----
 Structure from the checkpoint file:  "Grambow2020_wb97xd3_008024_reverse_mol2.chk"
 Charge =  0 Multiplicity = 1

                         Standard orientation:
 ---------------------------------------------------------------------
 Center     Atomic      Atomic             Coordinates (Angstroms)
 Number     Number       Type             X           Y           Z
 ---------------------------------------------------------------------
      1          8           0        2.538822    0.429036    0.036962
      2          6           0        1.585819   -0.541576   -0.305097
      3          6           0        0.278374   -0.301479    0.433425
      4          6           0       -0.466839    0.931313    0.047686
      5          6           0       -1.812177    0.920568   -0.085866
      6          6           0       -0.911814   -1.040017    0.039182
      7          6           0       -2.132236   -0.486850   -0.083489
      8          1           0        2.155661    1.289239   -0.159462
      9          1           0        1.385540   -0.562560   -1.381813
     10          1           0        1.992496   -1.509513   -0.012891
     11          1           0        0.393818   -0.311705    1.518962
     12          1           0       -2.426812    1.789085   -0.281044
     13          1           0       -3.058040   -1.018587   -0.254497
 ---------------------------------------------------------------------

 SCF Done:  E(RHF) =  -306.746022647     A.U. after    2 cycles

 The electronic state is 1-A.
 Alpha  occ. eigenvalues --  -21.07188 -11.49511 -11.47513 -11.43636 -11.43264
 Alpha  occ. eigenvalues --  -11.43157 -11.39281  -1.72177  -1.39978  -1.11880
 Alpha  occ. eigenvalues --   -0.97803  -0.94636  -0.77944  -0.73142  -0.68530
 Alpha  occ. eigenvalues --   -0.62812  -0.59376  -0.57524  -0.56731  -0.49798
 Alpha  occ. eigenvalues --   -0.45464  -0.40968  -0.32306  -0.30525  -0.29912
 Alpha virt. eigenvalues --    0.03331   0.03643   0.05155   0.05512   0.06377
 Alpha virt. eigenvalues --    0.06965   0.07242   0.08318   0.09332   0.11260
 Alpha virt. eigenvalues --    0.12002   0.12430   0.12861   0.13815   0.14690

 Mulliken charges:
               1
     1  O   -2.666172
     2  C   -0.738639
     3  C   -3.979000
     4  C    0.435303
     5  C   -0.601414
     6  C    1.007614
     7  C   -1.148671
     8  H    0.792783
     9  H    1.432684
    10  H    1.305155
    11  H    1.496806
    12  H    1.377755
    13  H    1.285797
 Sum of Mulliken charges =  -0.00000

 Dipole moment (field-independent basis, Debye):
    X=             -1.6207    Y=             -0.1685    Z=              0.6508  Tot=              1.7546

 Test job not archived.
 1\1\GINC-SE105\SP\RHF\Aug-CC-pVDZ\C6H6O1\OHZDE\09-Apr-2025\0\\#t hf au
 g-cc-pvdz iop(5/13=1,5/36=2,99/5=2) pseudo=read geom=check guess=(read
 ,tcheck) scf=(maxcycle=1)\\title\\0,1\O,0,2.31298996,-1.13300121,-0.18
 879489\C,0,1.69802447,-0.02766148,0.41729734\C,0,0.35545313,0.26936403
 ,-0.23212664\C,0,-0.70650299,-0.75658909,-0.02335759\C,0,-1.98458306,-
 0.39641428,0.23094626\C,0,-0.55264102,1.21307084,0.40206354\C,0,-1.877
 26281,1.0122452,0.52663056\H,0,1.70046235,-1.87211135,-0.12658882\H,0,
 1.54623348,-0.17698346,1.49178838\H,0,2.36167719,0.8257849,0.27994392\

 Normal termination of Gaussian 16 at Wed Apr  9 19:02:56 2025.
