 Gaussian 16, Revision C.01,

 ----------------------------------------------------------------------
 #t hf aug-cc-pvdz symm=none int=(grid=ultrafine) guess=(read,tcheck) s
 table=(opt,rrhf)
 ----------------------------------------------------------------------
 -----
 title
 -----
 Symbolic Z-matrix:
 Charge =  0 Multiplicity = 1

 SCF Done:  E(RHF) =  -317.561418745     A.U. after   20 cycles
 Normal termination of Gaussian 16 at Wed Apr  9 19:25:55 2025.
 Gaussian 16:  ES64L-G16RevC.01  3-Jul-2019

 ----------------------------------------------------------------------
 #t hf aug-cc-pvdz iop(5/13=1,5/36=2,99/5=2) pseudo=read geom=check gue
 ss=(read,tcheck) scf=(maxcycle=1)
 ----------------------------------------------------------------------
 -----
 title
 -----
 Structure from the checkpoint file:  "Grambow2020_wb97xd3_008971_reverse_mol2.chk"
 Charge =  0 Multiplicity = 1

                         Standard orientation:
 ---------------------------------------------------------------------
 Center     Atomic      Atomic             Coordinates (Angstroms)
 Number     Number       Type             X           Y           Z
 ---------------------------------------------------------------------
      1          7           0        2.301379   -0.296041   -0.004432
      2          6           0        1.040861   -0.167558   -0.004046
      3          6           0       -0.073507   -1.189714    0.002226
      4          7           0       -1.361683   -0.996104    0.005302
      5          6           0       -1.884946    0.210210    0.001571
      6          7           0       -0.970017    1.225325   -0.005419
      7          6           0        0.196916    0.953707   -0.007702
      8          1           0        2.486867    2.019472    0.030560
      9          1           0        2.606748   -1.260775    0.002303
     10          1           0        0.299041   -2.209033    0.008937
     11          1           0       -2.939462    0.422168    0.004985
     12          1           0        2.083106    2.656033    0.032759
 ---------------------------------------------------------------------

 SCF Done:  E(RHF) =  -319.036071873     A.U. after    2 cycles

 The electronic state is 1-A.
 Alpha  occ. eigenvalues --  -15.84009 -15.78392 -15.72203 -11.54580 -11.51582
 Alpha  occ. eigenvalues --  -11.45817 -11.45474  -1.58524  -1.35697  -1.34065
 Alpha  occ. eigenvalues --   -1.12187  -0.94518  -0.89681  -0.73840  -0.70977
 Alpha  occ. eigenvalues --   -0.65117  -0.64731  -0.61944  -0.56932  -0.52237
 Alpha  occ. eigenvalues --   -0.48250  -0.46249  -0.43454  -0.37816  -0.26715
 Alpha virt. eigenvalues --    0.03286   0.04613   0.05227   0.06126   0.06898
 Alpha virt. eigenvalues --    0.08494   0.09223   0.09674   0.09813   0.10765
 Alpha virt. eigenvalues --    0.11911   0.12934   0.13492   0.14479   0.14700

 Mulliken charges:
               1
     1  N   -3.580086
     2  C    3.480450
     3  C    0.016841
     4  N   -3.401183
     5  C    0.745607
     6  N   -3.361305
     7  C    2.704066
     8  H   -0.038892
     9  H    0.753434
    10  H    1.345151
    11  H    1.487011
    12  H   -0.151094
 Sum of Mulliken charges =  -0.00000

 Dipole moment (field-independent basis, Debye):
    X=             -1.6936    Y=             -0.1002    Z=              0.0132  Tot=              1.6967

 Test job not archived.
 1\1\GINC-SE219\SP\RHF\Aug-CC-pVDZ\C4H5N3\OHZDE\09-Apr-2025\0\\#t hf au
 g-cc-pvdz iop(5/13=1,5/36=2,99/5=2) pseudo=read geom=check guess=(read
 ,tcheck) scf=(maxcycle=1)\\title\\0,1\N,0,-2.01495892,0.22418492,0.017
 11438\C,0,-0.74870596,0.19391245,0.05029144\C,0,0.27262096,1.24853713,
 0.41266829\N,0,1.57194433,1.15739675,0.43117732\C,0,2.19712123,0.04640
 991,0.10888587\N,0,1.37380644,-0.98667693,-0.24109761\C,0,0.18846214,-
 0.8124897,-0.22964484\H,0,-2.00112791,-2.00784481,-0.62715629\H,0,-2.4
 0242898,1.11987676,0.28471538\H,0,-0.18645034,2.19136928,0.6922584\H,0

 Normal termination of Gaussian 16 at Wed Apr  9 19:25:59 2025.
