 Gaussian 16, Revision C.01,

 ----------------------------------------------------------------------
 #t hf aug-cc-pvdz symm=none int=(grid=ultrafine) guess=(read,tcheck) s
 table=(opt,rrhf)
 ----------------------------------------------------------------------
 -----
 title
 -----
 Symbolic Z-matrix:
 Charge =  0 Multiplicity = 1

 SCF Done:  E(RHF) =  -307.719278684     A.U. after   15 cycles

 1\1\GINC-SE054\Stability\RHF\Aug-CC-pVDZ\C6H10O1\OHZDE\09-Apr-2025\0\\
 #t hf aug-cc-pvdz symm=none int=(grid=ultrafine) guess=(read,tcheck) s
 table=(opt,rrhf)\\title\\0,1\C,0,1.81904832,-0.68663919,-0.14941599\C,
 0,0.93810226,0.09132012,0.76593526\C,0,-0.02508327,1.62577623,-0.41185
 305\C,0,-1.20176077,0.82268525,0.12628798\O,0,-1.75892245,-0.0613354,-
 0.8483859\C,0,-1.20465567,-1.20977067,-0.18040081\C,0,-0.51627764,-0.3
 2949489,0.87501634\H,0,2.05223291,-1.5942937,0.42352336\H,0,2.76648018
 ,-0.18192719,-0.34003469\H,0,1.38849414,-1.02260887,-1.10173683\H,0,0.

 Normal termination of Gaussian 16 at Wed Apr  9 19:16:16 2025.
 Gaussian 16:  ES64L-G16RevC.01  3-Jul-2019

 ----------------------------------------------------------------------
 #t hf aug-cc-pvdz iop(5/13=1,5/36=2,99/5=2) pseudo=read geom=check gue
 ss=(read,tcheck) scf=(maxcycle=1)
 ----------------------------------------------------------------------
 -----
 title
 -----
 Structure from the checkpoint file:  "Grambow2020_wb97xd3_008494_forward_mol1.chk"
 Charge =  0 Multiplicity = 1

                         Standard orientation:
 ---------------------------------------------------------------------
 Center     Atomic      Atomic             Coordinates (Angstroms)
 Number     Number       Type             X           Y           Z
 ---------------------------------------------------------------------
      1          6           0        2.101713   -0.440007   -0.417814
      2          6           0        1.255067    0.163532    0.648997
      3          6           0       -0.014454    1.639013   -0.289479
      4          6           0       -1.016584    0.664258    0.314433
      5          8           0       -1.582739   -0.218090   -0.656567
      6          6           0       -0.822830   -1.329397   -0.146807
      7          6           0       -0.117055   -0.439686    0.889026
      8          1           0        2.505796   -1.346469    0.052841
      9          1           0        2.954471    0.188888   -0.674704
     10          1           0        1.600017   -0.765401   -1.338459
     11          1           0        1.020354    1.438165    0.368107
     12          1           0       -0.126356    2.688911   -0.015061
     13          1           0        0.100749    1.518182   -1.363124
     14          1           0       -1.782305    1.125762    0.941482
     15          1           0       -0.207024   -1.795864   -0.920489
     16          1           0       -1.478782   -2.088401    0.289416
     17          1           0       -0.240153   -0.765329    1.922399
 ---------------------------------------------------------------------

 SCF Done:  E(RHF) =  -309.194934344     A.U. after    2 cycles

 The electronic state is 1-A.
 Alpha  occ. eigenvalues --  -21.03552 -11.52379 -11.44887 -11.41586 -11.40860
 Alpha  occ. eigenvalues --  -11.38750 -11.36495  -1.77783  -1.26665  -1.08858
 Alpha  occ. eigenvalues --   -1.05607  -0.93110  -0.85660  -0.73233  -0.70642
 Alpha  occ. eigenvalues --   -0.66093  -0.61067  -0.59113  -0.56968  -0.55721
 Alpha  occ. eigenvalues --   -0.51152  -0.49436  -0.44934  -0.40576  -0.37198
 Alpha  occ. eigenvalues --   -0.30044  -0.26093
 Alpha virt. eigenvalues --    0.03859   0.04774   0.04848   0.05556   0.05940
 Alpha virt. eigenvalues --    0.06035   0.06430   0.07037   0.08287   0.09489
 Alpha virt. eigenvalues --    0.10353   0.10624   0.12499   0.13116   0.13821

 Mulliken charges:
               1
     1  C   -3.911969
     2  C   -1.684313
     3  C   -3.633931
     4  C    1.088526
     5  O   -3.032195
     6  C   -1.165566
     7  C   -2.439143
     8  H    1.254779
     9  H    1.219566
    10  H    1.595593
    11  H    2.370481
    12  H    1.013857
    13  H    1.451489
    14  H    1.594105
    15  H    1.510136
    16  H    1.448791
    17  H    1.319795
 Sum of Mulliken charges =  -0.00000

 Dipole moment (field-independent basis, Debye):
    X=             -0.5648    Y=              0.1542    Z=             -0.6433  Tot=              0.8698

 Test job not archived.
 1\1\GINC-SE054\SP\RHF\Aug-CC-pVDZ\C6H10O1\OHZDE\09-Apr-2025\0\\#t hf a
 ug-cc-pvdz iop(5/13=1,5/36=2,99/5=2) pseudo=read geom=check guess=(rea
 d,tcheck) scf=(maxcycle=1)\\title\\0,1\C,0,1.81904832,-0.68663919,-0.1
 4941599\C,0,0.93810226,0.09132012,0.76593526\C,0,-0.02508327,1.6257762
 3,-0.41185305\C,0,-1.20176077,0.82268525,0.12628798\O,0,-1.75892245,-0
 .0613354,-0.8483859\C,0,-1.20465567,-1.20977067,-0.18040081\C,0,-0.516
 27764,-0.32949489,0.87501634\H,0,2.05223291,-1.5942937,0.42352336\H,0,
 2.76648018,-0.18192719,-0.34003469\H,0,1.38849414,-1.02260887,-1.10173

 Normal termination of Gaussian 16 at Wed Apr  9 19:16:22 2025.
