 Gaussian 16, Revision C.01,

 ----------------------------------------------------------------------
 #t hf aug-cc-pvdz symm=none int=(grid=ultrafine) guess=(read,tcheck) s
 table=(opt,rrhf)
 ----------------------------------------------------------------------
 -----
 title
 -----
 Symbolic Z-matrix:
 Charge =  0 Multiplicity = 1

 SCF Done:  E(RHF) =  -344.784580808     A.U. after   15 cycles

 1\1\GINC-SE396\Stability\RHF\Aug-CC-pVDZ\C5H10O2\OHZDE\09-Apr-2025\0\\
 #t hf aug-cc-pvdz symm=none int=(grid=ultrafine) guess=(read,tcheck) s
 table=(opt,rrhf)\\title\\0,1\C,0,-2.34935841,-0.56114424,-0.3661786\C,
 0,-1.14201002,0.32679769,-0.63040748\C,0,0.16417083,-0.26984934,-0.125
 92722\O,0,0.32956591,-1.50622902,-0.8138629\C,0,1.34343605,0.67288206,
 -0.37506477\C,0,2.46872714,0.58347393,0.46848133\O,0,2.19518343,1.0016
 1137,1.64193542\H,0,-3.26308951,-0.09413738,-0.73777183\H,0,-2.2380772
 9,-1.52806358,-0.85646788\H,0,-2.47937113,-0.74015822,0.70433316\H,0,-

 Normal termination of Gaussian 16 at Wed Apr  9 03:45:40 2025.
 Gaussian 16:  ES64L-G16RevC.01  3-Jul-2019

 ----------------------------------------------------------------------
 #t hf aug-cc-pvdz iop(5/13=1,5/36=2,99/5=2) pseudo=read geom=check gue
 ss=(read,tcheck) scf=(maxcycle=1)
 ----------------------------------------------------------------------
 -----
 title
 -----
 Structure from the checkpoint file:  "Grambow2020_wb97xd3_007831_forward_mol1.chk"
 Charge =  0 Multiplicity = 1

                         Standard orientation:
 ---------------------------------------------------------------------
 Center     Atomic      Atomic             Coordinates (Angstroms)
 Number     Number       Type             X           Y           Z
 ---------------------------------------------------------------------
      1          6           0       -2.714880   -0.542491   -0.322381
      2          6           0       -1.450735   -0.581703    0.523992
      3          6           0       -0.283975    0.167078   -0.104176
      4          8           0       -0.710330    1.518322   -0.251170
      5          6           0        0.975445    0.066966    0.759142
      6          6           0        2.233002    0.185888    0.134439
      7          8           0        2.478354   -0.829757   -0.596949
      8          1           0       -3.522623   -1.094740    0.160997
      9          1           0       -3.049534    0.482986   -0.477635
     10          1           0       -2.545385   -0.992911   -1.303879
     11          1           0       -1.642939   -0.143048    1.508225
     12          1           0       -1.137316   -1.614341    0.693694
     13          1           0       -0.079527   -0.259266   -1.096375
     14          1           0       -0.015919    2.014535   -0.686489
     15          1           0        1.462194   -1.174930    0.077437
     16          1           0        0.835904    0.538354    1.730368
     17          1           0        2.997817    0.960412    0.232515
 ---------------------------------------------------------------------

 SCF Done:  E(RHF) =  -346.405252631     A.U. after    2 cycles

 The electronic state is 1-A.
 Alpha  occ. eigenvalues --  -21.08870 -21.06284 -11.51748 -11.46603 -11.40283
 Alpha  occ. eigenvalues --  -11.37407 -11.34732  -1.77653  -1.71086  -1.20411
 Alpha  occ. eigenvalues --   -1.10415  -0.95872  -0.85911  -0.80731  -0.72691
 Alpha  occ. eigenvalues --   -0.66065  -0.60703  -0.56600  -0.54949  -0.53715
 Alpha  occ. eigenvalues --   -0.51709  -0.48132  -0.46459  -0.45032  -0.41301
 Alpha  occ. eigenvalues --   -0.38602  -0.33238  -0.26214
 Alpha virt. eigenvalues --    0.03415   0.04917   0.05249   0.05581   0.06254
 Alpha virt. eigenvalues --    0.06617   0.06900   0.07242   0.08489   0.08767
 Alpha virt. eigenvalues --    0.10001   0.10516   0.12016   0.13193   0.13579

 Mulliken charges:
               1
     1  C   -4.078897
     2  C   -3.016577
     3  C    1.116580
     4  O   -3.100092
     5  C   -2.540480
     6  C    0.853300
     7  O   -2.514910
     8  H    1.072574
     9  H    1.350611
    10  H    1.268045
    11  H    1.423537
    12  H    1.409121
    13  H    1.726166
    14  H    0.799701
    15  H    1.468183
    16  H    1.376988
    17  H    1.386150
 Sum of Mulliken charges =  -0.00000

 Dipole moment (field-independent basis, Debye):
    X=              1.2712    Y=              0.5230    Z=             -0.4891  Tot=              1.4590

 Test job not archived.
 1\1\GINC-SE396\SP\RHF\Aug-CC-pVDZ\C5H10O2\OHZDE\09-Apr-2025\0\\#t hf a
 ug-cc-pvdz iop(5/13=1,5/36=2,99/5=2) pseudo=read geom=check guess=(rea
 d,tcheck) scf=(maxcycle=1)\\title\\0,1\C,0,-2.34935841,-0.56114424,-0.
 3661786\C,0,-1.14201002,0.32679769,-0.63040748\C,0,0.16417083,-0.26984
 934,-0.12592722\O,0,0.32956591,-1.50622902,-0.8138629\C,0,1.34343605,0
 .67288206,-0.37506477\C,0,2.46872714,0.58347393,0.46848133\O,0,2.19518
 343,1.00161137,1.64193542\H,0,-3.26308951,-0.09413738,-0.73777183\H,0,
 -2.23807729,-1.52806358,-0.85646788\H,0,-2.47937113,-0.74015822,0.7043

 Normal termination of Gaussian 16 at Wed Apr  9 03:45:45 2025.
