 Gaussian 16, Revision C.01,

 ----------------------------------------------------------------------
 #t hf aug-cc-pvdz symm=none int=(grid=ultrafine) guess=(read,tcheck) s
 table=(opt,rrhf)
 ----------------------------------------------------------------------
 -----
 title
 -----
 Symbolic Z-matrix:
 Charge =  0 Multiplicity = 1

 SCF Done:  E(RHF) =  -271.223199608     A.U. after   12 cycles

 1\1\GINC-SE125\Stability\RHF\Aug-CC-pVDZ\C5H12O1\OHZDE\09-Apr-2025\0\\
 #t hf aug-cc-pvdz symm=none int=(grid=ultrafine) guess=(read,tcheck) s
 table=(opt,rrhf)\\title\\0,1\C,0,-2.56701018,0.01235703,0.23115335\C,0
 ,-1.2764908,-0.18552234,-0.57159214\C,0,-0.00847621,0.16120108,0.22578
 738\O,0,0.07556851,-0.60832102,1.43748687\C,0,1.26657857,0.01618367,-0
 .62100767\C,0,2.54095951,0.41062675,0.13397422\H,0,-3.44866294,-0.2981
 0488,-0.34674333\H,0,-2.5333257,-0.57156824,1.15973423\H,0,-2.69690301
 ,1.06933898,0.50671761\H,0,-1.19902516,-1.23424641,-0.9102235\H,0,-1.3

 Normal termination of Gaussian 16 at Wed Apr  9 16:24:11 2025.
 Gaussian 16:  ES64L-G16RevC.01  3-Jul-2019

 ----------------------------------------------------------------------
 #t hf aug-cc-pvdz iop(5/13=1,5/36=2,99/5=2) pseudo=read geom=check gue
 ss=(read,tcheck) scf=(maxcycle=1)
 ----------------------------------------------------------------------
 -----
 title
 -----
 Structure from the checkpoint file:  "Grambow2020_b97d3_006797_forward_mol2.chk"
 Charge =  0 Multiplicity = 1

                         Standard orientation:
 ---------------------------------------------------------------------
 Center     Atomic      Atomic             Coordinates (Angstroms)
 Number     Number       Type             X           Y           Z
 ---------------------------------------------------------------------
      1          6           0        2.562206   -0.032719    0.257609
      2          6           0        1.276045   -0.695095   -0.248400
      3          6           0        0.000211    0.023114    0.220977
      4          8           0       -0.000666    1.404496   -0.178054
      5          6           0       -1.275487   -0.696967   -0.245858
      6          6           0       -2.562188   -0.032558    0.256728
      7          1           0        3.454256   -0.535122   -0.141767
      8          1           0        2.591707    1.023036   -0.040512
      9          1           0        2.614569   -0.070478    1.355722
     10          1           0        1.274102   -0.722238   -1.352824
     11          1           0        1.234768   -1.745157    0.082861
     12          1           0        0.001516    0.069555    1.321410
     13          1           0       -0.004293    1.405322   -1.154965
     14          1           0       -1.272766   -0.728673   -1.350147
     15          1           0       -1.233570   -1.745538    0.089850
     16          1           0       -3.453742   -0.541583   -0.135196
     17          1           0       -2.610946   -0.059783    1.355341
     18          1           0       -2.594989    1.020046   -0.051680
 ---------------------------------------------------------------------

 SCF Done:  E(RHF) =  -272.561546533     A.U. after    2 cycles

 The electronic state is 1-A.
 Alpha  occ. eigenvalues --  -21.05774 -11.44508 -11.41689 -11.38596 -11.36435
 Alpha  occ. eigenvalues --  -11.34592  -1.70110  -1.21442  -1.12349  -0.97358
 Alpha  occ. eigenvalues --   -0.87121  -0.81740  -0.64787  -0.61989  -0.59538
 Alpha  occ. eigenvalues --   -0.59082  -0.54721  -0.51911  -0.50292  -0.48207
 Alpha  occ. eigenvalues --   -0.47331  -0.45848  -0.43076  -0.38150  -0.30621
 Alpha virt. eigenvalues --    0.04112   0.04942   0.05105   0.05579   0.05855
 Alpha virt. eigenvalues --    0.06088   0.06390   0.06427   0.08323   0.08486
 Alpha virt. eigenvalues --    0.09240   0.09375   0.11454   0.13757   0.14495

 Mulliken charges:
               1
     1  C   -4.154419
     2  C   -3.037474
     3  C    1.788322
     4  O   -2.889536
     5  C   -3.038446
     6  C   -4.154213
     7  H    1.076830
     8  H    1.375764
     9  H    1.238061
    10  H    1.405545
    11  H    1.372369
    12  H    1.929039
    13  H    0.620235
    14  H    1.406106
    15  H    1.371451
    16  H    1.076204
    17  H    1.238391
    18  H    1.375771
 Sum of Mulliken charges =  -0.00000

 Dipole moment (field-independent basis, Debye):
    X=             -0.0036    Y=             -0.4826    Z=             -0.2689  Tot=              0.5525

 Test job not archived.
 1\1\GINC-SE125\SP\RHF\Aug-CC-pVDZ\C5H12O1\OHZDE\09-Apr-2025\0\\#t hf a
 ug-cc-pvdz iop(5/13=1,5/36=2,99/5=2) pseudo=read geom=check guess=(rea
 d,tcheck) scf=(maxcycle=1)\\title\\0,1\C,0,-2.56701018,0.01235703,0.23
 115335\C,0,-1.2764908,-0.18552234,-0.57159214\C,0,-0.00847621,0.161201
 08,0.22578738\O,0,0.07556851,-0.60832102,1.43748687\C,0,1.26657857,0.0
 1618367,-0.62100767\C,0,2.54095951,0.41062675,0.13397422\H,0,-3.448662
 94,-0.29810488,-0.34674333\H,0,-2.5333257,-0.57156824,1.15973423\H,0,-
 2.69690301,1.06933898,0.50671761\H,0,-1.19902516,-1.23424641,-0.910223

 Normal termination of Gaussian 16 at Wed Apr  9 16:24:18 2025.
