 Gaussian 16, Revision C.01,

 ----------------------------------------------------------------------
 #t hf aug-cc-pvdz symm=none int=(grid=ultrafine) guess=(read,tcheck) s
 table=(opt,rrhf)
 ----------------------------------------------------------------------
 -----
 title
 -----
 Symbolic Z-matrix:
 Charge =  0 Multiplicity = 1

 SCF Done:  E(RHF) =  -305.689173015     A.U. after   14 cycles
 Normal termination of Gaussian 16 at Wed Apr  9 17:57:30 2025.
 Gaussian 16:  ES64L-G16RevC.01  3-Jul-2019

 ----------------------------------------------------------------------
 #t hf aug-cc-pvdz iop(5/13=1,5/36=2,99/5=2) pseudo=read geom=check gue
 ss=(read,tcheck) scf=(maxcycle=1)
 ----------------------------------------------------------------------
 -----
 title
 -----
 Structure from the checkpoint file:  "Grambow2020_wb97xd3_006279_forward_mol1.chk"
 Charge =  0 Multiplicity = 1

                         Standard orientation:
 ---------------------------------------------------------------------
 Center     Atomic      Atomic             Coordinates (Angstroms)
 Number     Number       Type             X           Y           Z
 ---------------------------------------------------------------------
      1          6           0        1.518505   -0.517199   -0.666646
      2          6           0        0.892052   -0.389663    0.584189
      3          6           0        0.316717    1.006536    0.701361
      4          8           0       -0.444379    1.062991   -0.533221
      5          6           0       -1.387588   -0.312404   -0.434105
      6          8           0       -0.874085   -0.989671    0.539178
      7          1           0        1.918514   -1.469771   -0.984655
      8          1           0        0.320172    0.442006   -1.094225
      9          1           0        2.093203    0.349912   -0.991221
     10          1           0        1.064458   -0.995752    1.464825
     11          1           0       -0.334438    1.156868    1.556435
     12          1           0        1.071850    1.790080    0.635591
     13          1           0       -2.395897    0.085723   -0.280857
     14          1           0       -1.228275   -0.669246   -1.462347
 ---------------------------------------------------------------------

 SCF Done:  E(RHF) =  -307.115988985     A.U. after    2 cycles

 The electronic state is 1-A.
 Alpha  occ. eigenvalues --  -21.09588 -21.00889 -11.49195 -11.47208 -11.44384
 Alpha  occ. eigenvalues --  -11.33753  -1.83526  -1.64795  -1.18833  -1.00543
 Alpha  occ. eigenvalues --   -0.90202  -0.82300  -0.73537  -0.67861  -0.65759
 Alpha  occ. eigenvalues --   -0.58620  -0.52278  -0.51358  -0.50829  -0.48186
 Alpha  occ. eigenvalues --   -0.43771  -0.34854  -0.28745  -0.23433
 Alpha virt. eigenvalues --    0.03856   0.05229   0.05241   0.05344   0.06136
 Alpha virt. eigenvalues --    0.06331   0.06573   0.08038   0.09751   0.12176
 Alpha virt. eigenvalues --    0.12688   0.13552   0.14013   0.14906   0.15700

 Mulliken charges:
               1
     1  C   -3.185385
     2  C   -1.086582
     3  C   -1.591495
     4  O   -2.537016
     5  C   -0.157698
     6  O   -2.363597
     7  H    1.208050
     8  H    1.881411
     9  H    0.940283
    10  H    1.349182
    11  H    1.539244
    12  H    1.296936
    13  H    1.403230
    14  H    1.303437
 Sum of Mulliken charges =   0.00000

 Dipole moment (field-independent basis, Debye):
    X=             -0.8255    Y=              2.0130    Z=              1.0195  Tot=              2.4027

 Test job not archived.
 1\1\GINC-SE135\SP\RHF\Aug-CC-pVDZ\C4H8O2\OHZDE\09-Apr-2025\0\\#t hf au
 g-cc-pvdz iop(5/13=1,5/36=2,99/5=2) pseudo=read geom=check guess=(read
 ,tcheck) scf=(maxcycle=1)\\title\\0,1\C,0,-1.51254876,0.21387358,0.145
 26813\C,0,-0.45238917,-0.48102164,0.75064253\C,0,0.36959371,-1.1535657
 7,-0.3292375\O,0,0.6110837,-0.01635745,-1.1981957\C,0,1.25479294,1.108
 17972,-0.1435704\O,0,1.02754627,0.62008208,1.03106706\H,0,-2.16906242,
 0.83593915,0.73734558\H,0,-0.40717548,0.43202752,-0.98143441\H,0,-1.99
 810751,-0.30398369,-0.68151111\H,0,-0.3910062,-0.80821131,1.78106355\H

 Normal termination of Gaussian 16 at Wed Apr  9 17:57:34 2025.
