 Gaussian 16, Revision C.01,

 ----------------------------------------------------------------------
 #t hf aug-cc-pvdz symm=none int=(grid=ultrafine) guess=(read,tcheck) s
 table=(opt,rrhf)
 ----------------------------------------------------------------------
 -----
 title
 -----
 Symbolic Z-matrix:
 Charge =  0 Multiplicity = 1

 SCF Done:  E(RHF) =  -234.068360737     A.U. after   14 cycles
 Normal termination of Gaussian 16 at Wed Apr  9 16:34:14 2025.
 Gaussian 16:  ES64L-G16RevC.01  3-Jul-2019

 ----------------------------------------------------------------------
 #t hf aug-cc-pvdz iop(5/13=1,5/36=2,99/5=2) pseudo=read geom=check gue
 ss=(read,tcheck) scf=(maxcycle=1)
 ----------------------------------------------------------------------
 -----
 title
 -----
 Structure from the checkpoint file:  "Grambow2020_b97d3_006828_forward_mol1.chk"
 Charge =  0 Multiplicity = 1

                         Standard orientation:
 ---------------------------------------------------------------------
 Center     Atomic      Atomic             Coordinates (Angstroms)
 Number     Number       Type             X           Y           Z
 ---------------------------------------------------------------------
      1          6           0        1.865821   -0.837461    0.311635
      2          6           0        0.600875   -0.005364    0.116864
      3          6           0        0.909403    1.448900   -0.233569
      4          6           0       -0.444614   -0.664050   -0.816449
      5          6           0       -1.787212   -0.066292   -0.341175
      6          6           0       -1.588079   -0.070407    1.168386
      7          1           0        2.569074   -0.354630    1.004589
      8          1           0        1.625774   -1.838475    0.694024
      9          1           0        2.373956   -0.955389   -0.659560
     10          1           0        1.505381    1.927880    0.555642
     11          1           0       -0.003059    2.039748   -0.384276
     12          1           0        1.495069    1.486859   -1.166055
     13          1           0       -0.230524   -0.495864   -1.882387
     14          1           0       -0.446365   -1.746584   -0.629520
     15          1           0       -2.629585   -0.731568   -0.597230
     16          1           0       -1.967412    0.907663   -0.831360
     17          1           0        0.035948   -0.059311    1.137533
     18          1           0       -1.665419    0.987722    1.524443
 ---------------------------------------------------------------------

 SCF Done:  E(RHF) =  -235.276869793     A.U. after    2 cycles

 The electronic state is 1-A.
 Alpha  occ. eigenvalues --  -11.44725 -11.42552 -11.40145 -11.39163 -11.37531
 Alpha  occ. eigenvalues --  -11.35608  -1.31025  -1.12195  -1.00731  -0.94722
 Alpha  occ. eigenvalues --   -0.86002  -0.74910  -0.65464  -0.62701  -0.60348
 Alpha  occ. eigenvalues --   -0.57676  -0.53956  -0.53740  -0.50518  -0.48176
 Alpha  occ. eigenvalues --   -0.45282  -0.41769  -0.41355  -0.31583
 Alpha virt. eigenvalues --    0.04031   0.05275   0.05329   0.05387   0.05686
 Alpha virt. eigenvalues --    0.05827   0.06020   0.06467   0.07325   0.08818
 Alpha virt. eigenvalues --    0.09041   0.09489   0.10416   0.12725   0.13320

 Mulliken charges:
               1
     1  C   -4.294314
     2  C   -0.292072
     3  C   -4.005968
     4  C   -3.249173
     5  C   -2.923980
     6  C   -2.103713
     7  H    1.222068
     8  H    1.243053
     9  H    1.306214
    10  H    1.200965
    11  H    1.444282
    12  H    1.238714
    13  H    1.330948
    14  H    1.494136
    15  H    1.339037
    16  H    1.388695
    17  H    2.451125
    18  H    1.209984
 Sum of Mulliken charges =  -0.00000

 Dipole moment (field-independent basis, Debye):
    X=              0.9946    Y=              1.0253    Z=             -1.6381  Tot=              2.1734

 Test job not archived.
 1\1\GINC-SE113\SP\RHF\Aug-CC-pVDZ\C6H12\OHZDE\09-Apr-2025\0\\#t hf aug
 -cc-pvdz iop(5/13=1,5/36=2,99/5=2) pseudo=read geom=check guess=(read,
 tcheck) scf=(maxcycle=1)\\title\\0,1\C,0,-1.60675043,-0.96746235,0.706
 74537\C,0,-0.48871644,-0.18715593,0.02006422\C,0,-1.00874708,1.0409845
 1,-0.72432453\C,0,0.72483527,0.10574162,0.93630218\C,0,1.90452801,0.24
 149021,-0.05145574\C,0,1.58761884,-0.87540188,-1.03662909\H,0,-2.43502
 19,-1.18502244,0.01789856\H,0,-1.23301567,-1.91439331,1.11847118\H,0,-
 2.00755215,-0.36704797,1.53992391\H,0,-1.73876599,0.75657201,-1.494810

 Normal termination of Gaussian 16 at Wed Apr  9 16:34:20 2025.
