 Gaussian 16, Revision C.01,

 ----------------------------------------------------------------------
 #t hf aug-cc-pvdz symm=none int=(grid=ultrafine) guess=(read,tcheck) s
 table=(opt,rrhf)
 ----------------------------------------------------------------------
 -----
 title
 -----
 Symbolic Z-matrix:
 Charge =  0 Multiplicity = 1

 SCF Done:  E(RHF) =  -357.260350375     A.U. after   16 cycles
 Normal termination of Gaussian 16 at Wed Apr  9 03:58:22 2025.
 Gaussian 16:  ES64L-G16RevC.01  3-Jul-2019

 ----------------------------------------------------------------------
 #t hf aug-cc-pvdz iop(5/13=1,5/36=2,99/5=2) pseudo=read geom=check gue
 ss=(read,tcheck) scf=(maxcycle=1)
 ----------------------------------------------------------------------
 -----
 title
 -----
 Structure from the checkpoint file:  "Grambow2020_wb97xd3_008752_reverse_mol2.chk"
 Charge =  0 Multiplicity = 1

                         Standard orientation:
 ---------------------------------------------------------------------
 Center     Atomic      Atomic             Coordinates (Angstroms)
 Number     Number       Type             X           Y           Z
 ---------------------------------------------------------------------
      1          8           0        1.609007   -0.497167   -0.005729
      2          6           0        2.462698    0.489818    0.007939
      3          6           0        0.272309   -0.171688   -0.001154
      4          7           0       -0.570303   -1.154960    0.001789
      5          8           0       -1.799164   -0.557400    0.002020
      6          6           0       -1.645848    0.770559   -0.000492
      7          6           0       -0.338893    1.103341   -0.002232
      8          1           0        3.433212   -0.048465   -0.003957
      9          1           0       -2.555114    1.349590    0.000313
     10          1           0        0.133678    2.067946   -0.003576
 ---------------------------------------------------------------------

 SCF Done:  E(RHF) =  -358.799107417     A.U. after    2 cycles

 The electronic state is 1-A.
 Alpha  occ. eigenvalues --  -21.16611 -21.14399 -15.78442 -11.50579 -11.49123
 Alpha  occ. eigenvalues --  -11.44636 -11.41361  -1.94213  -1.86251  -1.27964
 Alpha  occ. eigenvalues --   -1.18265  -0.93415  -0.87001  -0.78423  -0.71651
 Alpha  occ. eigenvalues --   -0.65272  -0.64124  -0.56716  -0.53340  -0.52516
 Alpha  occ. eigenvalues --   -0.46575  -0.43592  -0.37622  -0.34691  -0.34578
 Alpha virt. eigenvalues --    0.03170   0.05120   0.05526   0.06562   0.09366
 Alpha virt. eigenvalues --    0.10183   0.11112   0.11152   0.11990   0.12048
 Alpha virt. eigenvalues --    0.13254   0.14427   0.14568   0.15146   0.16162

 Mulliken charges:
               1
     1  O   -2.959313
     2  C   -1.252334
     3  C    4.549874
     4  N   -1.083027
     5  O   -2.940483
     6  C    0.748429
     7  C   -1.583930
     8  H    1.777727
     9  H    1.408200
    10  H    1.334856
 Sum of Mulliken charges =   0.00000

 Dipole moment (field-independent basis, Debye):
    X=             -1.2912    Y=              0.4026    Z=             -0.0294  Tot=              1.3529

 Test job not archived.
 1\1\GINC-SE459\SP\RHF\Aug-CC-pVDZ\C4H3N1O2\OHZDE\09-Apr-2025\0\\#t hf
 aug-cc-pvdz iop(5/13=1,5/36=2,99/5=2) pseudo=read geom=check guess=(re
 ad,tcheck) scf=(maxcycle=1)\\title\\0,1\O,0,-1.34613126,-0.63039865,-0
 .8793674\C,0,-2.13426596,0.40716405,-0.95299815\C,0,-0.14773325,-0.463
 76327,-0.22454367\N,0,0.63751434,-1.49191405,-0.16867519\O,0,1.7300339
 1,-1.05536666,0.52630978\C,0,1.55749889,0.22679772,0.86286865\C,0,0.37
 063119,0.68540059,0.41575935\H,0,-3.00050928,-0.00416599,-1.51176417\H
 ,0,2.36272649,0.68050737,1.41766388\H,0,-0.07999007,1.6560599,0.508220

 Normal termination of Gaussian 16 at Wed Apr  9 03:58:26 2025.
