 Gaussian 16, Revision C.01,

 ----------------------------------------------------------------------
 #t hf aug-cc-pvdz symm=none int=(grid=ultrafine) guess=(read,tcheck) s
 table=(opt,rrhf)
 ----------------------------------------------------------------------
 -----
 title
 -----
 Symbolic Z-matrix:
 Charge =  0 Multiplicity = 1

 SCF Done:  E(RHF) =  -306.722141688     A.U. after   15 cycles
 Normal termination of Gaussian 16 at Wed Apr  9 03:59:45 2025.
 Gaussian 16:  ES64L-G16RevC.01  3-Jul-2019

 ----------------------------------------------------------------------
 #t hf aug-cc-pvdz iop(5/13=1,5/36=2,99/5=2) pseudo=read geom=check gue
 ss=(read,tcheck) scf=(maxcycle=1)
 ----------------------------------------------------------------------
 -----
 title
 -----
 Structure from the checkpoint file:  "Grambow2020_wb97xd3_008782_reverse_mol2.chk"
 Charge =  0 Multiplicity = 1

                         Standard orientation:
 ---------------------------------------------------------------------
 Center     Atomic      Atomic             Coordinates (Angstroms)
 Number     Number       Type             X           Y           Z
 ---------------------------------------------------------------------
      1          8           0       -1.314562   -1.673131   -0.259230
      2          6           0       -0.847510   -0.611952    0.083782
      3          6           0        0.510123   -0.556401    0.769426
      4          6           0        1.611284   -0.427455   -0.245077
      5          6           0        2.523142    0.531217   -0.253542
      6          6           0       -1.148831    1.868079    0.046387
      7          6           0       -1.589986    0.642895   -0.204052
      8          1           0        0.564212    0.256297    1.494859
      9          1           0        0.615083   -1.503285    1.303090
     10          1           0        1.631249   -1.197764   -1.011454
     11          1           0       -0.183080    2.054301    0.499971
     12          1           0        2.535322    1.314278    0.498064
     13          1           0        3.298453    0.565086   -1.008725
     14          1           0       -1.740518    2.738943   -0.208426
     15          1           0       -2.553557    0.478892   -0.675086
 ---------------------------------------------------------------------

 SCF Done:  E(RHF) =  -308.155992283     A.U. after    2 cycles

 The electronic state is 1-A.
 Alpha  occ. eigenvalues --  -21.05188 -11.50227 -11.44094 -11.43803 -11.40843
 Alpha  occ. eigenvalues --  -11.39800 -11.38015  -1.71280  -1.24552  -1.16942
 Alpha  occ. eigenvalues --   -1.03411  -0.90200  -0.81248  -0.74686  -0.67777
 Alpha  occ. eigenvalues --   -0.63128  -0.61296  -0.58189  -0.56018  -0.51412
 Alpha  occ. eigenvalues --   -0.50633  -0.47661  -0.44712  -0.36652  -0.35235
 Alpha  occ. eigenvalues --   -0.28315
 Alpha virt. eigenvalues --    0.03404   0.04674   0.05296   0.05563   0.06003
 Alpha virt. eigenvalues --    0.06733   0.07095   0.07680   0.09318   0.10133
 Alpha virt. eigenvalues --    0.11896   0.12657   0.12825   0.13675   0.14522

 Mulliken charges:
               1
     1  O   -3.602415
     2  C    3.769125
     3  C   -4.209410
     4  C   -0.136557
     5  C   -3.380436
     6  C   -2.594805
     7  C   -1.199459
     8  H    1.458896
     9  H    1.219650
    10  H    1.384619
    11  H    1.712266
    12  H    1.461121
    13  H    1.335364
    14  H    1.360876
    15  H    1.421163
 Sum of Mulliken charges =  -0.00000

 Dipole moment (field-independent basis, Debye):
    X=              0.5723    Y=              1.5130    Z=              0.3432  Tot=              1.6536

 Test job not archived.
 1\1\GINC-SE403\SP\RHF\Aug-CC-pVDZ\C6H8O1\OHZDE\09-Apr-2025\0\\#t hf au
 g-cc-pvdz iop(5/13=1,5/36=2,99/5=2) pseudo=read geom=check guess=(read
 ,tcheck) scf=(maxcycle=1)\\title\\0,1\O,0,0.03469133,-2.18588984,1.290
 24203\C,0,0.34014606,-1.27755894,0.55299871\C,0,-0.6399239,-0.78086555
 ,-0.50014773\C,0,-1.51652469,0.30313349,0.06102424\C,0,-1.65423112,1.5
 1071451,-0.46184799\C,0,2.08269687,0.43171235,0.01946868\C,0,1.6649040
 9,-0.62193795,0.70771506\H,0,-0.12722909,-0.42955672,-1.39646436\H,0,-
 1.25339877,-1.64334706,-0.76881007\H,0,-2.06536787,0.03920903,0.961148

 Normal termination of Gaussian 16 at Wed Apr  9 03:59:50 2025.
