 Gaussian 16, Revision C.01,

 ----------------------------------------------------------------------
 #t hf aug-cc-pvdz symm=none int=(grid=ultrafine) guess=(read,tcheck) s
 table=(opt,rrhf)
 ----------------------------------------------------------------------
 -----
 title
 -----
 Symbolic Z-matrix:
 Charge =  0 Multiplicity = 1

 SCF Done:  E(RHF) =  -306.887336006     A.U. after   14 cycles

 1\1\GINC-SE454\Stability\RHF\Aug-CC-pVDZ\C4H10O2\OHZDE\09-Apr-2025\0\\
 #t hf aug-cc-pvdz symm=none int=(grid=ultrafine) guess=(read,tcheck) s
 table=(opt,rrhf)\\title\\0,1\C,0,-1.54080329,-0.78573611,0.16862384\C,
 0,-0.45542303,0.23856857,-0.17827192\C,0,0.61864863,-0.34095768,-1.082
 17831\O,0,1.71138645,0.39264045,-1.39065099\C,0,0.18527771,0.87666935,
 1.07152674\O,0,1.06293242,1.93628004,0.76917762\H,0,-1.98547241,-1.225
 26581,-0.73529\H,0,-1.12886959,-1.60314645,0.77862636\H,0,-2.34566707,
 -0.31067651,0.74432126\H,0,-0.8834107,1.05547596,-0.78745302\H,0,0.235

 Normal termination of Gaussian 16 at Wed Apr  9 17:20:29 2025.
 Gaussian 16:  ES64L-G16RevC.01  3-Jul-2019

 ----------------------------------------------------------------------
 #t hf aug-cc-pvdz iop(5/13=1,5/36=2,99/5=2) pseudo=read geom=check gue
 ss=(read,tcheck) scf=(maxcycle=1)
 ----------------------------------------------------------------------
 -----
 title
 -----
 Structure from the checkpoint file:  "Grambow2020_b97d3_007106_reverse_mol1.chk"
 Charge =  0 Multiplicity = 1

                         Standard orientation:
 ---------------------------------------------------------------------
 Center     Atomic      Atomic             Coordinates (Angstroms)
 Number     Number       Type             X           Y           Z
 ---------------------------------------------------------------------
      1          6           0        2.137655   -0.068926   -0.023435
      2          6           0        0.641345   -0.066744   -0.353036
      3          6           0       -0.029357    1.245715    0.013214
      4          8           0       -1.369798    1.376068   -0.103508
      5          6           0       -0.113414   -1.249533    0.288070
      6          8           0       -1.451390   -1.355269   -0.139840
      7          1           0        2.655989    0.779436   -0.492040
      8          1           0        2.300633   -0.010844    1.062851
      9          1           0        2.607813   -0.992982   -0.383972
     10          1           0        0.492097   -0.129318   -1.446389
     11          1           0        0.588283    2.146139   -0.189377
     12          1           0        0.224233    1.219487    1.455396
     13          1           0       -0.706759    1.394070    1.118944
     14          1           0        0.397260   -2.188849    0.031186
     15          1           0       -0.022179   -1.123618    1.391717
     16          1           0       -1.785236   -0.422988   -0.150414
 ---------------------------------------------------------------------

 SCF Done:  E(RHF) =  -308.342643320     A.U. after    2 cycles

 The electronic state is 1-A.
 Alpha  occ. eigenvalues --  -21.04184 -21.01753 -11.53571 -11.45092 -11.42266
 Alpha  occ. eigenvalues --  -11.38904  -1.71685  -1.67097  -1.23781  -0.99692
 Alpha  occ. eigenvalues --   -0.96490  -0.86229  -0.73558  -0.67661  -0.60928
 Alpha  occ. eigenvalues --   -0.59306  -0.58404  -0.53780  -0.52455  -0.49832
 Alpha  occ. eigenvalues --   -0.46934  -0.40057  -0.32375  -0.29489  -0.27652
 Alpha virt. eigenvalues --    0.03465   0.04565   0.04732   0.05201   0.05350
 Alpha virt. eigenvalues --    0.05844   0.06932   0.07565   0.08222   0.09502
 Alpha virt. eigenvalues --    0.11460   0.11771   0.13360   0.14407   0.14718

 Mulliken charges:
               1
     1  C   -3.565055
     2  C   -2.195704
     3  C    0.552384
     4  O   -2.592217
     5  C   -0.689320
     6  O   -2.943813
     7  H    1.197600
     8  H    1.368371
     9  H    1.174415
    10  H    1.734041
    11  H    1.401414
    12  H   -0.111084
    13  H    0.876753
    14  H    1.367927
    15  H    1.340353
    16  H    1.083937
 Sum of Mulliken charges =   0.00000

 Dipole moment (field-independent basis, Debye):
    X=              1.9488    Y=              0.6240    Z=             -0.1980  Tot=              2.0558

 Test job not archived.
 1\1\GINC-SE454\SP\RHF\Aug-CC-pVDZ\C4H10O2\OHZDE\09-Apr-2025\0\\#t hf a
 ug-cc-pvdz iop(5/13=1,5/36=2,99/5=2) pseudo=read geom=check guess=(rea
 d,tcheck) scf=(maxcycle=1)\\title\\0,1\C,0,-1.54080329,-0.78573611,0.1
 6862384\C,0,-0.45542303,0.23856857,-0.17827192\C,0,0.61864863,-0.34095
 768,-1.08217831\O,0,1.71138645,0.39264045,-1.39065099\C,0,0.18527771,0
 .87666935,1.07152674\O,0,1.06293242,1.93628004,0.76917762\H,0,-1.98547
 241,-1.22526581,-0.73529\H,0,-1.12886959,-1.60314645,0.77862636\H,0,-2
 .34566707,-0.31067651,0.74432126\H,0,-0.8834107,1.05547596,-0.78745302

 Normal termination of Gaussian 16 at Wed Apr  9 17:20:34 2025.
