 Gaussian 16, Revision C.01,

 ----------------------------------------------------------------------
 #t hf aug-cc-pvdz symm=none int=(grid=ultrafine) guess=(read,tcheck) s
 table=(opt,rrhf)
 ----------------------------------------------------------------------
 -----
 title
 -----
 Symbolic Z-matrix:
 Charge =  0 Multiplicity = 1

 SCF Done:  E(RHF) =  -336.226362456     A.U. after   18 cycles
 Normal termination of Gaussian 16 at Wed Apr  9 03:46:13 2025.
 Gaussian 16:  ES64L-G16RevC.01  3-Jul-2019

 ----------------------------------------------------------------------
 #t hf aug-cc-pvdz iop(5/13=1,5/36=2,99/5=2) pseudo=read geom=check gue
 ss=(read,tcheck) scf=(maxcycle=1)
 ----------------------------------------------------------------------
 -----
 title
 -----
 Structure from the checkpoint file:  "Grambow2020_wb97xd3_007924_forward_mol1.chk"
 Charge =  0 Multiplicity = 1

                         Standard orientation:
 ---------------------------------------------------------------------
 Center     Atomic      Atomic             Coordinates (Angstroms)
 Number     Number       Type             X           Y           Z
 ---------------------------------------------------------------------
      1          7           0        2.379732   -0.102911    0.482057
      2          6           0        1.297413    0.286230   -0.142505
      3          8           0        0.219269   -1.050208   -0.413289
      4          6           0        0.380123    1.221958   -0.409394
      5          6           0       -0.439197    0.076898   -0.294307
      6          6           0       -1.828635    0.025865    0.110929
      7          7           0       -2.931088   -0.011861    0.425148
      8          1           0        2.877981    0.551772    1.061025
      9          1           0        2.769139   -1.012411    0.306518
 ---------------------------------------------------------------------

 SCF Done:  E(RHF) =  -337.706396291     A.U. after    2 cycles

 The electronic state is 1-A.
 Alpha  occ. eigenvalues --  -21.10695 -15.85696 -15.79942 -11.58323 -11.55641
 Alpha  occ. eigenvalues --  -11.46280 -11.38126  -1.81921  -1.44240  -1.33538
 Alpha  occ. eigenvalues --   -1.20223  -1.00330  -0.83262  -0.77965  -0.65229
 Alpha  occ. eigenvalues --   -0.61595  -0.60298  -0.56918  -0.51123  -0.47752
 Alpha  occ. eigenvalues --   -0.46185  -0.43274  -0.34811  -0.29968
 Alpha virt. eigenvalues --    0.02024   0.04470   0.06101   0.07744   0.08854
 Alpha virt. eigenvalues --    0.09796   0.10786   0.11189   0.11799   0.12368
 Alpha virt. eigenvalues --    0.13200   0.13904   0.14458   0.15516   0.16445

 Mulliken charges:
               1
     1  N   -3.288450
     2  C    3.819607
     3  O   -2.782722
     4  C   -2.353659
     5  C    4.144141
     6  C    1.539362
     7  N   -2.424059
     8  H    0.597146
     9  H    0.748634
 Sum of Mulliken charges =   0.00000

 Dipole moment (field-independent basis, Debye):
    X=              5.6585    Y=             -3.5969    Z=              1.1155  Tot=              6.7971

 Test job not archived.
 1\1\GINC-SE437\SP\RHF\Aug-CC-pVDZ\C4H2N2O1\OHZDE\09-Apr-2025\0\\#t hf
 aug-cc-pvdz iop(5/13=1,5/36=2,99/5=2) pseudo=read geom=check guess=(re
 ad,tcheck) scf=(maxcycle=1)\\title\\0,1\N,0,-1.86817382,0.21705102,0.3
 3042013\C,0,-0.68746976,0.47923715,0.83053976\O,0,0.11450025,-0.978852
 57,1.3331349\C,0,0.41697304,1.23187265,0.87506336\C,0,0.97716034,-0.06
 159008,0.96906301\C,0,2.29472596,-0.48343602,0.54078193\N,0,3.34123753
 ,-0.81410024,0.20756408\H,0,-2.26390594,0.83961527,-0.35359423\H,0,-2.
 4199496,-0.53809017,0.69777305\\Version=ES64L-G16RevC.01\State=1-A\HF=

 Normal termination of Gaussian 16 at Wed Apr  9 03:46:16 2025.
