 Gaussian 16, Revision C.01,

 ----------------------------------------------------------------------
 #t hf aug-cc-pvdz symm=none int=(grid=ultrafine) guess=(read,tcheck) s
 table=(opt,rrhf)
 ----------------------------------------------------------------------
 -----
 title
 -----
 Symbolic Z-matrix:
 Charge =  0 Multiplicity = 1

 SCF Done:  E(RHF) =  -360.717591664     A.U. after   15 cycles
 Normal termination of Gaussian 16 at Wed Apr  9 18:47:48 2025.
 Gaussian 16:  ES64L-G16RevC.01  3-Jul-2019

 ----------------------------------------------------------------------
 #t hf aug-cc-pvdz iop(5/13=1,5/36=2,99/5=2) pseudo=read geom=check gue
 ss=(read,tcheck) scf=(maxcycle=1)
 ----------------------------------------------------------------------
 -----
 title
 -----
 Structure from the checkpoint file:  "Grambow2020_wb97xd3_007662_reverse_mol1.chk"
 Charge =  0 Multiplicity = 1

                         Standard orientation:
 ---------------------------------------------------------------------
 Center     Atomic      Atomic             Coordinates (Angstroms)
 Number     Number       Type             X           Y           Z
 ---------------------------------------------------------------------
      1          6           0       -1.948884   -0.677441   -0.754445
      2          8           0       -1.852596    0.235007    0.313221
      3          6           0       -0.637662    0.136137    1.006997
      4          6           0        0.550887    0.565304    0.203057
      5          7           0        1.657793   -0.146774    0.049024
      6          8           0        1.489780   -1.532432   -0.110477
      7          6           0        0.830421    1.775600   -0.471898
      8          1           0       -2.937269   -0.553582   -1.193859
      9          1           0       -1.191158   -0.482885   -1.523388
     10          1           0       -1.832170   -1.711417   -0.407163
     11          1           0       -0.477832   -0.879924    1.387091
     12          1           0       -0.716218    0.818228    1.858411
     13          1           0        2.309452   -1.903708    0.226905
     14          1           0        0.825871    1.692787   -1.555687
     15          1           0        2.073115    0.898208   -0.562193
     16          1           0        0.475612    2.731518   -0.097509
 ---------------------------------------------------------------------

 SCF Done:  E(RHF) =  -362.381617583     A.U. after    2 cycles

 The electronic state is 1-A.
 Alpha  occ. eigenvalues --  -21.10809 -21.05217 -15.78341 -11.48431 -11.42888
 Alpha  occ. eigenvalues --  -11.40000 -11.36274  -1.79889  -1.76069  -1.35027
 Alpha  occ. eigenvalues --   -1.06876  -0.99693  -0.94851  -0.76348  -0.69792
 Alpha  occ. eigenvalues --   -0.66681  -0.63949  -0.61604  -0.59168  -0.55440
 Alpha  occ. eigenvalues --   -0.53561  -0.51334  -0.47922  -0.43807  -0.38811
 Alpha  occ. eigenvalues --   -0.32922  -0.29759  -0.28845
 Alpha virt. eigenvalues --    0.03860   0.05174   0.05630   0.05725   0.05942
 Alpha virt. eigenvalues --    0.06413   0.06966   0.07049   0.09258   0.11095
 Alpha virt. eigenvalues --    0.12150   0.12801   0.13935   0.14168   0.14481

 Mulliken charges:
               1
     1  C   -2.868626
     2  O   -2.755715
     3  C   -1.287980
     4  C    2.624943
     5  N   -1.129721
     6  O   -2.392107
     7  C   -3.433110
     8  H    1.245778
     9  H    1.585208
    10  H    1.345193
    11  H    1.638590
    12  H    1.260323
    13  H    0.834086
    14  H    0.997104
    15  H    1.112130
    16  H    1.223907
 Sum of Mulliken charges =  -0.00000

 Dipole moment (field-independent basis, Debye):
    X=             -0.2335    Y=             -1.8998    Z=              0.3334  Tot=              1.9429

 Test job not archived.
 1\1\GINC-SE220\SP\RHF\Aug-CC-pVDZ\C4H9N1O2\OHZDE\09-Apr-2025\0\\#t hf
 aug-cc-pvdz iop(5/13=1,5/36=2,99/5=2) pseudo=read geom=check guess=(re
 ad,tcheck) scf=(maxcycle=1)\\title\\0,1\C,0,2.09683462,0.10891098,0.12
 620519\O,0,1.3484128,-0.2845401,1.25172953\C,0,0.06395392,0.2782462,1.
 2762543\C,0,-0.8347003,-0.226041,0.18939327\N,0,-1.53203193,0.54309396
 ,-0.6341242\O,0,-0.89214045,1.70752528,-1.09058336\C,0,-1.22328606,-1.
 53878257,-0.16306931\H,0,3.08402265,-0.3394687,0.22492745\H,0,1.639253
 39,-0.24108369,-0.8072812\H,0,2.19642148,1.20015001,0.07507598\H,0,0.1

 Normal termination of Gaussian 16 at Wed Apr  9 18:47:53 2025.
