 Gaussian 16, Revision C.01,

 ----------------------------------------------------------------------
 #t hf aug-cc-pvdz symm=none int=(grid=ultrafine) guess=(read,tcheck) s
 table=(opt,rrhf)
 ----------------------------------------------------------------------
 -----
 title
 -----
 Symbolic Z-matrix:
 Charge =  0 Multiplicity = 1

 SCF Done:  E(RHF) =  -305.654903893     A.U. after   15 cycles
 Normal termination of Gaussian 16 at Wed Apr  9 17:51:30 2025.
 Gaussian 16:  ES64L-G16RevC.01  3-Jul-2019

 ----------------------------------------------------------------------
 #t hf aug-cc-pvdz iop(5/13=1,5/36=2,99/5=2) pseudo=read geom=check gue
 ss=(read,tcheck) scf=(maxcycle=1)
 ----------------------------------------------------------------------
 -----
 title
 -----
 Structure from the checkpoint file:  "Grambow2020_wb97xd3_006214_forward_mol1.chk"
 Charge =  0 Multiplicity = 1

                         Standard orientation:
 ---------------------------------------------------------------------
 Center     Atomic      Atomic             Coordinates (Angstroms)
 Number     Number       Type             X           Y           Z
 ---------------------------------------------------------------------
      1          6           0        2.270332    0.140580   -0.158543
      2          8           0        1.070689   -0.559620   -0.362088
      3          6           0        0.055030   -0.201686    0.580305
      4          6           0       -0.599338    1.099207    0.300907
      5          6           0       -1.270197   -0.751834    0.455477
      6          8           0       -1.874380    0.092908   -0.614579
      7          1           0        2.697843   -0.073277    0.830371
      8          1           0        2.137651    1.228769   -0.243415
      9          1           0        2.975337   -0.180340   -0.924306
     10          1           0        0.443437   -0.265935    1.605622
     11          1           0       -0.349438    1.680482   -0.584337
     12          1           0       -1.065933    1.639173    1.112592
     13          1           0       -1.544784   -1.797745    0.446031
     14          1           0       -1.599553   -0.215033   -1.498094
 ---------------------------------------------------------------------

 SCF Done:  E(RHF) =  -307.053454762     A.U. after    2 cycles

 The electronic state is 1-A.
 Alpha  occ. eigenvalues --  -21.09484 -21.04001 -11.52711 -11.44452 -11.40438
 Alpha  occ. eigenvalues --  -11.33624  -1.77897  -1.71227  -1.18086  -0.99214
 Alpha  occ. eigenvalues --   -0.92732  -0.79639  -0.70001  -0.67209  -0.61685
 Alpha  occ. eigenvalues --   -0.60795  -0.56827  -0.55290  -0.50640  -0.42307
 Alpha  occ. eigenvalues --   -0.38829  -0.35116  -0.30483  -0.23429
 Alpha virt. eigenvalues --    0.03358   0.04791   0.05194   0.05284   0.05859
 Alpha virt. eigenvalues --    0.06249   0.07101   0.07396   0.09436   0.11895
 Alpha virt. eigenvalues --    0.12050   0.13399   0.13871   0.14524   0.14970

 Mulliken charges:
               1
     1  C   -3.047954
     2  O   -3.272886
     3  C    0.774188
     4  C   -2.448399
     5  C   -0.190670
     6  O   -2.173448
     7  H    1.320860
     8  H    1.357348
     9  H    1.238365
    10  H    1.748078
    11  H    1.370873
    12  H    1.343186
    13  H    1.235903
    14  H    0.744556
 Sum of Mulliken charges =  -0.00000

 Dipole moment (field-independent basis, Debye):
    X=              1.0896    Y=              2.0928    Z=             -1.4773  Tot=              2.7838

 Test job not archived.
 1\1\GINC-SE162\SP\RHF\Aug-CC-pVDZ\C4H8O2\OHZDE\09-Apr-2025\0\\#t hf au
 g-cc-pvdz iop(5/13=1,5/36=2,99/5=2) pseudo=read geom=check guess=(read
 ,tcheck) scf=(maxcycle=1)\\title\\0,1\C,0,1.58663156,-0.58295229,-1.14
 291069\O,0,0.37979975,0.13253609,-1.09301674\C,0,-0.51566341,-0.363057
 82,-0.09285862\C,0,-0.16250404,0.03976186,1.28974625\C,0,-1.75961389,0
 .3168805,0.16158757\O,0,-1.33581586,1.46283758,1.01646972\H,0,1.418073
 85,-1.63847322,-1.39572463\H,0,2.13378002,-0.54484556,-0.18994751\H,0,
 2.20838546,-0.13058101,-1.91440034\H,0,-0.64210488,-1.44920865,-0.1955

 Normal termination of Gaussian 16 at Wed Apr  9 17:51:34 2025.
