 Gaussian 16, Revision C.01,

 ----------------------------------------------------------------------
 #t hf aug-cc-pvdz symm=none int=(grid=ultrafine) guess=(read,tcheck) s
 table=(opt,rrhf)
 ----------------------------------------------------------------------
 -----
 title
 -----
 Symbolic Z-matrix:
 Charge =  0 Multiplicity = 1

 SCF Done:  E(RHF) =  -307.799894435     A.U. after   13 cycles

 1\1\GINC-SE226\Stability\RHF\Aug-CC-pVDZ\C6H10O1\OHZDE\09-Apr-2025\0\\
 #t hf aug-cc-pvdz symm=none int=(grid=ultrafine) guess=(read,tcheck) s
 table=(opt,rrhf)\\title\\0,1\C,0,2.07470398,0.37411408,0.6823099\C,0,0
 .83663681,0.14014713,0.28937149\C,0,-0.05593348,-1.05348022,0.23935162
 \C,0,-1.29210271,-0.75197379,1.03855106\C,0,-1.18245957,-0.18679672,-0
 .33570292\C,0,-0.23659829,1.0138022,-0.36486178\O,0,-0.6177227,2.23205
 811,0.2094293\H,0,2.70462261,-0.41425526,1.07725655\H,0,2.49694836,1.3
 6993146,0.61438037\H,0,0.53057879,-1.13977078,-2.62929303\H,0,0.224371

 Normal termination of Gaussian 16 at Wed Apr  9 18:52:53 2025.
 Gaussian 16:  ES64L-G16RevC.01  3-Jul-2019

 ----------------------------------------------------------------------
 #t hf aug-cc-pvdz iop(5/13=1,5/36=2,99/5=2) pseudo=read geom=check gue
 ss=(read,tcheck) scf=(maxcycle=1)
 ----------------------------------------------------------------------
 -----
 title
 -----
 Structure from the checkpoint file:  "Grambow2020_wb97xd3_007734_reverse_mol2.chk"
 Charge =  0 Multiplicity = 1

                         Standard orientation:
 ---------------------------------------------------------------------
 Center     Atomic      Atomic             Coordinates (Angstroms)
 Number     Number       Type             X           Y           Z
 ---------------------------------------------------------------------
      1          6           0       -1.889804   -1.043527   -0.446392
      2          6           0       -0.704300   -0.570230   -0.110950
      3          6           0        0.697885   -1.074608   -0.169349
      4          6           0        1.511715   -0.112219   -0.987413
      5          6           0        1.198095    0.247744    0.424002
      6          6           0       -0.247271    0.725629    0.563587
      7          8           0       -0.634827    1.972224    0.058596
      8          1           0       -2.007523   -2.033382   -0.871404
      9          1           0       -2.783861   -0.448976   -0.298986
     10          1           0        0.439851   -1.575553    2.705201
     11          1           0        1.035176   -2.080240    0.038568
     12          1           0        1.052895    0.406660   -1.823107
     13          1           0        2.537222   -0.409409   -1.167792
     14          1           0        0.433530   -1.784846    3.420587
     15          1           0        1.977191    0.398973    1.158119
     16          1           0       -0.548031    0.721138    1.613306
     17          1           0       -0.455753    1.991111   -0.884171
 ---------------------------------------------------------------------

 SCF Done:  E(RHF) =  -309.283200342     A.U. after    2 cycles

 The electronic state is 1-A.
 Alpha  occ. eigenvalues --  -21.07136 -11.51439 -11.45669 -11.42217 -11.40560
 Alpha  occ. eigenvalues --  -11.38857 -11.36773  -1.72224  -1.40291  -1.11682
 Alpha  occ. eigenvalues --   -0.99719  -0.89302  -0.83034  -0.76041  -0.68705
 Alpha  occ. eigenvalues --   -0.64120  -0.62017  -0.60034  -0.57632  -0.55392
 Alpha  occ. eigenvalues --   -0.50476  -0.49338  -0.45485  -0.39778  -0.36206
 Alpha  occ. eigenvalues --   -0.32485  -0.30112
 Alpha virt. eigenvalues --    0.03950   0.04999   0.05120   0.05246   0.05462
 Alpha virt. eigenvalues --    0.06266   0.06509   0.07366   0.08226   0.09679
 Alpha virt. eigenvalues --    0.10761   0.12251   0.12529   0.13167   0.14315

 Mulliken charges:
               1
     1  C   -4.198601
     2  C    3.504197
     3  C   -2.231467
     4  C   -3.119534
     5  C   -1.459682
     6  C    0.793698
     7  O   -3.469900
     8  H    1.436542
     9  H    1.452199
    10  H   -0.409140
    11  H    1.137181
    12  H    1.278350
    13  H    1.354285
    14  H    0.318227
    15  H    1.312741
    16  H    1.539740
    17  H    0.761164
 Sum of Mulliken charges =   0.00000

 Dipole moment (field-independent basis, Debye):
    X=              1.0136    Y=             -0.5783    Z=             -0.1766  Tot=              1.1803

 Test job not archived.
 1\1\GINC-SE226\SP\RHF\Aug-CC-pVDZ\C6H10O1\OHZDE\09-Apr-2025\0\\#t hf a
 ug-cc-pvdz iop(5/13=1,5/36=2,99/5=2) pseudo=read geom=check guess=(rea
 d,tcheck) scf=(maxcycle=1)\\title\\0,1\C,0,2.07470398,0.37411408,0.682
 3099\C,0,0.83663681,0.14014713,0.28937149\C,0,-0.05593348,-1.05348022,
 0.23935162\C,0,-1.29210271,-0.75197379,1.03855106\C,0,-1.18245957,-0.1
 8679672,-0.33570292\C,0,-0.23659829,1.0138022,-0.36486178\O,0,-0.61772
 27,2.23205811,0.2094293\H,0,2.70462261,-0.41425526,1.07725655\H,0,2.49
 694836,1.36993146,0.61438037\H,0,0.53057879,-1.13977078,-2.62929303\H,

 Normal termination of Gaussian 16 at Wed Apr  9 18:52:59 2025.
