 Gaussian 16, Revision C.01,

 ----------------------------------------------------------------------
 #t hf aug-cc-pvdz symm=none int=(grid=ultrafine) guess=(read,tcheck) s
 table=(opt,rrhf)
 ----------------------------------------------------------------------
 -----
 title
 -----
 Symbolic Z-matrix:
 Charge =  0 Multiplicity = 1

 SCF Done:  E(RHF) =  -321.511525458     A.U. after   15 cycles
 Normal termination of Gaussian 16 at Wed Apr  9 19:09:42 2025.
 Gaussian 16:  ES64L-G16RevC.01  3-Jul-2019

 ----------------------------------------------------------------------
 #t hf aug-cc-pvdz iop(5/13=1,5/36=2,99/5=2) pseudo=read geom=check gue
 ss=(read,tcheck) scf=(maxcycle=1)
 ----------------------------------------------------------------------
 -----
 title
 -----
 Structure from the checkpoint file:  "Grambow2020_wb97xd3_008184_reverse_mol2.chk"
 Charge =  0 Multiplicity = 1

                         Standard orientation:
 ---------------------------------------------------------------------
 Center     Atomic      Atomic             Coordinates (Angstroms)
 Number     Number       Type             X           Y           Z
 ---------------------------------------------------------------------
      1          8           0        3.115319   -0.469872   -0.077962
      2          6           0       -0.018437   -1.482439    0.007361
      3          6           0       -0.610427   -0.286526    0.008413
      4          6           0       -2.029157   -0.090904    0.001388
      5          6           0       -3.213447    0.081791   -0.003825
      6          6           0        0.212001    0.898132    0.009803
      7          7           0        0.896583    1.820080    0.007178
      8          1           0        2.793114    0.432100   -0.174258
      9          1           0       -0.614770   -2.385464    0.000057
     10          1           0        1.063245   -1.553526    0.010915
     11          1           0        3.783837   -0.428757    0.606973
     12          1           0       -4.267265    0.233745   -0.009075
 ---------------------------------------------------------------------

 SCF Done:  E(RHF) =  -322.961171184     A.U. after    2 cycles

 The electronic state is 1-A.
 Alpha  occ. eigenvalues --  -21.09763 -15.77122 -11.51085 -11.45858 -11.45469
 Alpha  occ. eigenvalues --  -11.43097 -11.42592  -1.66419  -1.35297  -1.24120
 Alpha  occ. eigenvalues --   -1.08935  -0.93431  -0.80354  -0.70920  -0.64963
 Alpha  occ. eigenvalues --   -0.63674  -0.58980  -0.54016  -0.52965  -0.47299
 Alpha  occ. eigenvalues --   -0.45438  -0.43818  -0.40020  -0.35547  -0.34290
 Alpha virt. eigenvalues --    0.02756   0.04828   0.05324   0.06825   0.07375
 Alpha virt. eigenvalues --    0.08020   0.08957   0.10079   0.11105   0.11369
 Alpha virt. eigenvalues --    0.11759   0.13195   0.13757   0.13861   0.14777

 Mulliken charges:
               1
     1  O   -2.051073
     2  C   -4.413051
     3  C    2.597861
     4  C    3.451690
     5  C   -3.473778
     6  C    0.308102
     7  N   -2.317572
     8  H    1.132218
     9  H    1.492443
    10  H    1.785626
    11  H    0.851188
    12  H    0.636345
 Sum of Mulliken charges =  -0.00000

 Dipole moment (field-independent basis, Debye):
    X=             -1.3276    Y=             -2.3987    Z=              0.5162  Tot=              2.7898

 Test job not archived.
 1\1\GINC-SE035\SP\RHF\Aug-CC-pVDZ\C5H5N1O1\OHZDE\09-Apr-2025\0\\#t hf
 aug-cc-pvdz iop(5/13=1,5/36=2,99/5=2) pseudo=read geom=check guess=(re
 ad,tcheck) scf=(maxcycle=1)\\title\\0,1\O,0,-1.83520025,-1.89800608,-1
 .49318685\C,0,-0.8764584,0.22446927,0.83681523\C,0,0.34408671,0.491294
 08,0.3680539\C,0,1.25369186,1.41750709,0.97291703\C,0,2.0203137,2.1892
 0026,1.47208971\C,0,0.79373279,-0.17958922,-0.82674229\N,0,1.11825994,
 -0.72850655,-1.78173934\H,0,-1.01820697,-1.70732445,-1.96520935\H,0,-1
 .23804426,0.72019544,1.72823663\H,0,-1.51183611,-0.48854373,0.32397207

 Normal termination of Gaussian 16 at Wed Apr  9 19:09:46 2025.
