 Gaussian 16, Revision C.01,

 ----------------------------------------------------------------------
 #t hf aug-cc-pvdz symm=none int=(grid=ultrafine) guess=(read,tcheck) s
 table=(opt,rrhf)
 ----------------------------------------------------------------------
 -----
 title
 -----
 Symbolic Z-matrix:
 Charge =  0 Multiplicity = 1

 SCF Done:  E(RHF) =  -317.630388516     A.U. after   18 cycles
 Normal termination of Gaussian 16 at Wed Apr  9 18:59:35 2025.
 Gaussian 16:  ES64L-G16RevC.01  3-Jul-2019

 ----------------------------------------------------------------------
 #t hf aug-cc-pvdz iop(5/13=1,5/36=2,99/5=2) pseudo=read geom=check gue
 ss=(read,tcheck) scf=(maxcycle=1)
 ----------------------------------------------------------------------
 -----
 title
 -----
 Structure from the checkpoint file:  "Grambow2020_wb97xd3_007977_forward_mol1.chk"
 Charge =  0 Multiplicity = 1

                         Standard orientation:
 ---------------------------------------------------------------------
 Center     Atomic      Atomic             Coordinates (Angstroms)
 Number     Number       Type             X           Y           Z
 ---------------------------------------------------------------------
      1          7           0       -2.202358   -0.028835    0.104354
      2          6           0       -0.845276   -0.077903    0.001848
      3          7           0       -0.261309    1.196544    0.046652
      4          6           0        1.021469    1.265728   -0.092968
      5          6           0        1.910016    0.141345    0.103546
      6          6           0        1.184011   -1.119469    0.022643
      7          7           0       -0.227611   -1.187452   -0.179981
      8          1           0       -2.703637   -0.868662   -0.122543
      9          1           0       -2.642829    0.852739   -0.085303
     10          1           0        1.439652    2.253416   -0.278626
     11          1           0        1.398813   -1.491402    1.049474
     12          1           0        1.725634   -1.866101   -0.570598
 ---------------------------------------------------------------------

 SCF Done:  E(RHF) =  -319.066635754     A.U. after    2 cycles

 The electronic state is 1-A.
 Alpha  occ. eigenvalues --  -15.77888 -15.77211 -15.71283 -11.47957 -11.46061
 Alpha  occ. eigenvalues --  -11.43232 -11.39470  -1.53913  -1.34175  -1.30714
 Alpha  occ. eigenvalues --   -1.11806  -0.95129  -0.87506  -0.74273  -0.71002
 Alpha  occ. eigenvalues --   -0.63741  -0.60519  -0.58410  -0.53975  -0.53282
 Alpha  occ. eigenvalues --   -0.52187  -0.43056  -0.35112  -0.32333  -0.31656
 Alpha virt. eigenvalues --    0.01966   0.03651   0.04959   0.05986   0.06308
 Alpha virt. eigenvalues --    0.06870   0.09365   0.10242   0.11227   0.12389
 Alpha virt. eigenvalues --    0.12838   0.13049   0.13919   0.14856   0.15404

 Mulliken charges:
               1
     1  N   -2.757175
     2  C    4.185712
     3  N   -2.909447
     4  C    0.909550
     5  C   -1.180917
     6  C   -1.436504
     7  N   -2.643551
     8  H    0.642533
     9  H    0.623604
    10  H    1.731904
    11  H    1.361400
    12  H    1.472891
 Sum of Mulliken charges =  -0.00000

 Dipole moment (field-independent basis, Debye):
    X=             -2.2129    Y=              0.3040    Z=             -0.7347  Tot=              2.3514

 Test job not archived.
 1\1\GINC-SE104\SP\RHF\Aug-CC-pVDZ\C4H5N3\OHZDE\09-Apr-2025\0\\#t hf au
 g-cc-pvdz iop(5/13=1,5/36=2,99/5=2) pseudo=read geom=check guess=(read
 ,tcheck) scf=(maxcycle=1)\\title\\0,1\N,0,2.2157519,-0.16619035,0.0123
 9959\C,0,0.86141408,-0.03236011,-0.03704089\N,0,0.19702262,-1.24010736
 ,0.22213059\C,0,-1.09317575,-1.23383012,0.15036784\C,0,-1.89285201,-0.
 030264,0.21606253\C,0,-1.08980419,1.14829252,-0.08293292\N,0,0.3102111
 ,1.08161006,-0.35471734\H,0,2.75894592,0.59241492,-0.35845155\H,0,2.58
 556836,-1.09607871,-0.06309832\H,0,-1.58570809,-2.20437008,0.13200538\

 Normal termination of Gaussian 16 at Wed Apr  9 18:59:39 2025.
