 Gaussian 16, Revision C.01,

 ----------------------------------------------------------------------
 #t hf aug-cc-pvdz symm=none int=(grid=ultrafine) guess=(read,tcheck) s
 table=(opt,rrhf)
 ----------------------------------------------------------------------
 -----
 title
 -----
 Symbolic Z-matrix:
 Charge =  0 Multiplicity = 1

 SCF Done:  E(RHF) =  -184.604805539     A.U. after   11 cycles
 Normal termination of Gaussian 16 at Wed Apr  9 16:29:36 2025.
 Gaussian 16:  ES64L-G16RevC.01  3-Jul-2019

 ----------------------------------------------------------------------
 #t hf aug-cc-pvdz iop(5/13=1,5/36=2,99/5=2) pseudo=read geom=check gue
 ss=(read,tcheck) scf=(maxcycle=1)
 ----------------------------------------------------------------------
 -----
 title
 -----
 Structure from the checkpoint file:  "Grambow2020_b97d3_006823_forward_mol2.chk"
 Charge =  0 Multiplicity = 1

                         Standard orientation:
 ---------------------------------------------------------------------
 Center     Atomic      Atomic             Coordinates (Angstroms)
 Number     Number       Type             X           Y           Z
 ---------------------------------------------------------------------
      1          7           0       -0.009090   -0.061450    1.862814
      2          6           0       -0.003361   -0.022674    0.688643
      3          6           0        0.003360    0.022658   -0.688647
      4          7           0        0.009091    0.061464   -1.862810
 ---------------------------------------------------------------------

 SCF Done:  E(RHF) =  -185.387234220     A.U. after    2 cycles

 The electronic state is 1-A.
 Alpha  occ. eigenvalues --  -15.85041 -15.84955 -11.53561 -11.50701  -1.40016
 Alpha  occ. eigenvalues --   -1.33245  -0.99683  -0.61906  -0.58228  -0.58228
 Alpha  occ. eigenvalues --   -0.57873  -0.45446  -0.45446
 Alpha virt. eigenvalues --    0.04879   0.07593   0.07593   0.08853   0.11916
 Alpha virt. eigenvalues --    0.12234   0.12234   0.12397   0.12397   0.19259
 Alpha virt. eigenvalues --    0.21664   0.24324   0.24324   0.25271   0.25271

 Mulliken charges:
               1
     1  N   -2.739200
     2  C    2.739149
     3  C    2.739288
     4  N   -2.739238
 Sum of Mulliken charges =  -0.00000

 Dipole moment (field-independent basis, Debye):
    X=             -0.0000    Y=             -0.0000    Z=             -0.0000  Tot=              0.0000

 Test job not archived.
 1\1\GINC-SE141\SP\RHF\Aug-CC-pVDZ\C2N2\OHZDE\09-Apr-2025\0\\#t hf aug-
 cc-pvdz iop(5/13=1,5/36=2,99/5=2) pseudo=read geom=check guess=(read,t
 check) scf=(maxcycle=1)\\title\\0,1\N,0,-1.8247136,-0.22906728,0.00705
 072\C,0,-0.6745655,0.0104186,0.00260448\C,0,0.6745719,0.29118373,-0.00
 260469\N,0,1.82470719,0.53069761,-0.00705051\\Version=ES64L-G16RevC.01
 \State=1-A\HF=-185.3872342\RMSD=5.199e-01\Dipole=0.0000018,-0.0000093,
 -0.0000001\Quadrupole=-3.1200101,1.456393,1.6636172,-0.9958111,0.01848
 06,0.0038471\PG=C01 [X(C2N2)]\\@

 Normal termination of Gaussian 16 at Wed Apr  9 16:29:38 2025.
