 Gaussian 16, Revision C.01,

 ----------------------------------------------------------------------
 #t hf aug-cc-pvdz symm=none int=(grid=ultrafine) guess=(read,tcheck) s
 table=(opt,rrhf)
 ----------------------------------------------------------------------
 -----
 title
 -----
 Symbolic Z-matrix:
 Charge =  0 Multiplicity = 1

 SCF Done:  E(RHF) =  -323.765969045     A.U. after   15 cycles
 Normal termination of Gaussian 16 at Wed Apr  9 19:25:15 2025.
 Gaussian 16:  ES64L-G16RevC.01  3-Jul-2019

 ----------------------------------------------------------------------
 #t hf aug-cc-pvdz iop(5/13=1,5/36=2,99/5=2) pseudo=read geom=check gue
 ss=(read,tcheck) scf=(maxcycle=1)
 ----------------------------------------------------------------------
 -----
 title
 -----
 Structure from the checkpoint file:  "Grambow2020_wb97xd3_008940_reverse_mol1.chk"
 Charge =  0 Multiplicity = 1

                         Standard orientation:
 ---------------------------------------------------------------------
 Center     Atomic      Atomic             Coordinates (Angstroms)
 Number     Number       Type             X           Y           Z
 ---------------------------------------------------------------------
      1          6           0       -2.246366   -0.747552    0.440829
      2          6           0       -1.267932   -0.016494   -0.454496
      3          6           0       -0.843636    1.414139   -0.055828
      4          7           0        0.549981    0.892153    0.106825
      5          6           0        2.604080    0.075913    0.277476
      6          6           0        0.214480   -0.311770   -0.221133
      7          8           0        1.022873   -1.255383   -0.264207
      8          1           0       -1.963785   -0.640673    1.490406
      9          1           0       -2.263136   -1.812373    0.203390
     10          1           0       -3.257021   -0.353344    0.318376
     11          1           0       -1.538133   -0.109847   -1.507853
     12          1           0       -0.934850    2.174947   -0.832474
     13          1           0       -1.279185    1.780684    0.875887
     14          1           0        2.931010    0.008403   -0.748464
     15          1           0        2.692526    1.041552    0.743046
     16          1           0        2.815967   -0.776772    0.902481
 ---------------------------------------------------------------------

 SCF Done:  E(RHF) =  -325.290990941     A.U. after    2 cycles

 The electronic state is 1-A.
 Alpha  occ. eigenvalues --  -21.01143 -15.67476 -11.49900 -11.45804 -11.43581
 Alpha  occ. eigenvalues --  -11.38377 -11.35861  -1.69668  -1.40872  -1.12536
 Alpha  occ. eigenvalues --   -1.04368  -0.94184  -0.88614  -0.68555  -0.64767
 Alpha  occ. eigenvalues --   -0.63823  -0.62028  -0.60619  -0.57594  -0.53685
 Alpha  occ. eigenvalues --   -0.50006  -0.48569  -0.45141  -0.40315  -0.33522
 Alpha  occ. eigenvalues --   -0.28610  -0.26387
 Alpha virt. eigenvalues --    0.02498   0.04867   0.05710   0.05839   0.06082
 Alpha virt. eigenvalues --    0.06219   0.06476   0.06969   0.07664   0.09092
 Alpha virt. eigenvalues --    0.11583   0.11979   0.12468   0.13496   0.14025

 Mulliken charges:
               1
     1  C   -4.243129
     2  C   -2.374144
     3  C   -1.923483
     4  N   -2.431548
     5  C   -3.962031
     6  C    6.042813
     7  O   -3.276440
     8  H    1.289976
     9  H    1.229741
    10  H    1.219656
    11  H    1.310474
    12  H    1.491407
    13  H    1.597970
    14  H    1.347612
    15  H    1.304827
    16  H    1.376299
 Sum of Mulliken charges =   0.00000

 Dipole moment (field-independent basis, Debye):
    X=              1.2361    Y=              0.0743    Z=              0.0934  Tot=              1.2418

 Test job not archived.
 1\1\GINC-SE036\SP\RHF\Aug-CC-pVDZ\C5H9N1O1\OHZDE\09-Apr-2025\0\\#t hf
 aug-cc-pvdz iop(5/13=1,5/36=2,99/5=2) pseudo=read geom=check guess=(re
 ad,tcheck) scf=(maxcycle=1)\\title\\0,1\C,0,2.19079926,-0.52861042,0.2
 3515734\C,0,1.12132464,0.44509143,-0.21374974\C,0,0.28665965,0.0863469
 8,-1.46287352\N,0,-0.91559595,0.03532985,-0.57232741\C,0,-2.66920699,0
 .02885439,0.78395291\C,0,-0.23443112,0.33145757,0.48496669\O,0,-0.7431
 5658,0.43690559,1.61449732\H,0,1.80816253,-1.55157689,0.23125079\H,0,2
 .52106435,-0.29651507,1.24884357\H,0,3.05868387,-0.48708277,-0.4258040

 Normal termination of Gaussian 16 at Wed Apr  9 19:25:20 2025.
