 Gaussian 16, Revision C.01,

 ----------------------------------------------------------------------
 #t hf aug-cc-pvdz symm=none int=(grid=ultrafine) guess=(read,tcheck) s
 table=(opt,rrhf)
 ----------------------------------------------------------------------
 -----
 title
 -----
 Symbolic Z-matrix:
 Charge =  0 Multiplicity = 1

 SCF Done:  E(RHF) =  -302.761756430     A.U. after   16 cycles
 Normal termination of Gaussian 16 at Wed Apr  9 19:24:13 2025.
 Gaussian 16:  ES64L-G16RevC.01  3-Jul-2019

 ----------------------------------------------------------------------
 #t hf aug-cc-pvdz iop(5/13=1,5/36=2,99/5=2) pseudo=read geom=check gue
 ss=(read,tcheck) scf=(maxcycle=1)
 ----------------------------------------------------------------------
 -----
 title
 -----
 Structure from the checkpoint file:  "Grambow2020_wb97xd3_008881_forward_mol1.chk"
 Charge =  0 Multiplicity = 1

                         Standard orientation:
 ---------------------------------------------------------------------
 Center     Atomic      Atomic             Coordinates (Angstroms)
 Number     Number       Type             X           Y           Z
 ---------------------------------------------------------------------
      1          6           0       -2.402808   -0.544672    0.181059
      2          7           0       -1.073838   -0.094871   -0.200834
      3          6           0       -0.656055    1.221213   -0.058708
      4          6           0        0.690350    1.210688    0.081299
      5          6           0        1.141655   -0.143209    0.029546
      6          7           0        2.488229   -0.504800    0.143017
      7          6           0        0.105095   -1.055274   -0.051594
      8          1           0       -3.160129    0.100938   -0.264936
      9          1           0       -2.526109   -1.567924   -0.167386
     10          1           0       -2.491605   -0.529292    1.266616
     11          1           0       -1.356854    2.040797   -0.104544
     12          1           0        1.315559    2.087766    0.179625
     13          1           0        3.113985    0.059771   -0.409255
     14          1           0        2.626772   -1.485583   -0.046927
     15          1           0       -0.691777   -0.641262   -1.138083
 ---------------------------------------------------------------------

 SCF Done:  E(RHF) =  -304.228796049     A.U. after    2 cycles

 The electronic state is 1-A.
 Alpha  occ. eigenvalues --  -15.80147 -15.73516 -11.47038 -11.42257 -11.41661
 Alpha  occ. eigenvalues --  -11.38398 -11.34264  -1.54852  -1.33256  -1.16433
 Alpha  occ. eigenvalues --   -1.04196  -0.98358  -0.81270  -0.75338  -0.70522
 Alpha  occ. eigenvalues --   -0.67471  -0.63829  -0.60444  -0.57134  -0.52693
 Alpha  occ. eigenvalues --   -0.51163  -0.49746  -0.42064  -0.35682  -0.32442
 Alpha  occ. eigenvalues --   -0.25780
 Alpha virt. eigenvalues --    0.03242   0.04881   0.05073   0.05712   0.06270
 Alpha virt. eigenvalues --    0.06554   0.07039   0.08155   0.10897   0.11584
 Alpha virt. eigenvalues --    0.11874   0.12636   0.13080   0.13934   0.14643

 Mulliken charges:
               1
     1  C   -3.659041
     2  N   -2.594845
     3  C   -0.125301
     4  C   -1.800185
     5  C    5.141176
     6  N   -3.547497
     7  C   -2.839281
     8  H    1.386347
     9  H    1.359858
    10  H    1.414163
    11  H    1.330084
    12  H    1.473219
    13  H    0.490903
    14  H    0.733055
    15  H    1.237345
 Sum of Mulliken charges =  -0.00000

 Dipole moment (field-independent basis, Debye):
    X=             -1.9234    Y=              2.8029    Z=             -1.1164  Tot=              3.5780

 Test job not archived.
 1\1\GINC-SE100\SP\RHF\Aug-CC-pVDZ\C5H8N2\OHZDE\09-Apr-2025\0\\#t hf au
 g-cc-pvdz iop(5/13=1,5/36=2,99/5=2) pseudo=read geom=check guess=(read
 ,tcheck) scf=(maxcycle=1)\\title\\0,1\C,0,2.25970106,0.38515621,0.1578
 7238\N,0,0.89551454,0.00944873,-0.17703536\C,0,0.37902455,-1.25312023,
 0.07982388\C,0,-0.96078644,-1.12572742,0.22541571\C,0,-1.30673242,0.24
 98844,0.05986876\N,0,-2.61990557,0.72374238,0.14885803\C,0,-0.20384623
 ,1.06808434,-0.10473697\H,0,2.95953529,-0.3532162,-0.23493425\H,0,2.45
 753751,1.36222968,-0.27784518\H,0,2.35992518,0.45551078,1.24025935\H,0

 Normal termination of Gaussian 16 at Wed Apr  9 19:24:17 2025.
