 Gaussian 16, Revision C.01,

 ----------------------------------------------------------------------
 #t hf aug-cc-pvdz symm=none int=(grid=ultrafine) guess=(read,tcheck) s
 table=(opt,rrhf)
 ----------------------------------------------------------------------
 -----
 title
 -----
 Symbolic Z-matrix:
 Charge =  0 Multiplicity = 1

 SCF Done:  E(RHF) =  -283.710608549     A.U. after   14 cycles
 Normal termination of Gaussian 16 at Wed Apr  9 17:54:17 2025.
 Gaussian 16:  ES64L-G16RevC.01  3-Jul-2019

 ----------------------------------------------------------------------
 #t hf aug-cc-pvdz iop(5/13=1,5/36=2,99/5=2) pseudo=read geom=check gue
 ss=(read,tcheck) scf=(maxcycle=1)
 ----------------------------------------------------------------------
 -----
 title
 -----
 Structure from the checkpoint file:  "Grambow2020_wb97xd3_006238_reverse_mol2.chk"
 Charge =  0 Multiplicity = 1

                         Standard orientation:
 ---------------------------------------------------------------------
 Center     Atomic      Atomic             Coordinates (Angstroms)
 Number     Number       Type             X           Y           Z
 ---------------------------------------------------------------------
      1          8           0        2.006026    0.094806   -0.000296
      2          6           0        0.679860   -0.029640   -0.000443
      3          6           0       -0.202666    1.179020    0.000322
      4          6           0       -1.542062    0.505522   -0.000561
      5          6           0       -1.315787   -0.810309   -0.000034
      6          7           0        0.062359   -1.147401    0.000051
      7          1           0       -0.018020    1.803378   -0.877992
      8          1           0       -0.018228    1.799054    0.881830
      9          1           0       -2.496626    1.008469   -0.000209
     10          1           0       -2.043955   -1.608995    0.001167
     11          1           0        2.376037   -0.796101    0.001508
 ---------------------------------------------------------------------

 SCF Done:  E(RHF) =  -284.994662594     A.U. after    2 cycles

 The electronic state is 1-A.
 Alpha  occ. eigenvalues --  -21.12451 -15.71640 -11.50067 -11.43735 -11.41915
 Alpha  occ. eigenvalues --  -11.36587  -1.79281  -1.44323  -1.13657  -1.02583
 Alpha  occ. eigenvalues --   -0.81205  -0.78035  -0.70538  -0.64086  -0.60244
 Alpha  occ. eigenvalues --   -0.52510  -0.50496  -0.49555  -0.45008  -0.41705
 Alpha  occ. eigenvalues --   -0.38866  -0.27747
 Alpha virt. eigenvalues --    0.03540   0.05413   0.05764   0.06137   0.06546
 Alpha virt. eigenvalues --    0.09664   0.10705   0.11458   0.12892   0.12988
 Alpha virt. eigenvalues --    0.13443   0.14104   0.14178   0.15258   0.16724

 Mulliken charges:
               1
     1  O   -3.473235
     2  C    5.001031
     3  C   -4.225839
     4  C   -0.301940
     5  C    0.286431
     6  N   -3.348196
     7  H    1.303823
     8  H    1.304392
     9  H    1.245714
    10  H    1.373383
    11  H    0.834435
 Sum of Mulliken charges =   0.00000

 Dipole moment (field-independent basis, Debye):
    X=              0.4195    Y=              1.4729    Z=              0.0035  Tot=              1.5315

 Test job not archived.
 1\1\GINC-SE173\SP\RHF\Aug-CC-pVDZ\C4H5N1O1\OHZDE\09-Apr-2025\0\\#t hf
 aug-cc-pvdz iop(5/13=1,5/36=2,99/5=2) pseudo=read geom=check guess=(re
 ad,tcheck) scf=(maxcycle=1)\\title\\0,1\O,0,-0.91350908,2.03549563,0.1
 8550065\C,0,-0.21907727,0.90134676,0.11017704\C,0,-0.89998212,-0.39410
 831,-0.20267461\C,0,0.28627606,-1.31015853,-0.16766826\C,0,1.35095803,
 -0.5570667,0.11854494\N,0,1.04207532,0.8167755,0.29194259\H,0,-1.40140
 664,-0.35235904,-1.17333562\H,0,-1.66288327,-0.6270801,0.54513819\H,0,
 0.261697,-2.37459586,-0.34236291\H,0,2.37839424,-0.87429723,0.2274895\

 Normal termination of Gaussian 16 at Wed Apr  9 17:54:20 2025.
