 Gaussian 16, Revision C.01,

 ----------------------------------------------------------------------
 #t hf aug-cc-pvdz symm=none int=(grid=ultrafine) guess=(read,tcheck) s
 table=(opt,rrhf)
 ----------------------------------------------------------------------
 -----
 title
 -----
 Symbolic Z-matrix:
 Charge =  0 Multiplicity = 1

 SCF Done:  E(RHF) =  -304.685648815     A.U. after   14 cycles
 Normal termination of Gaussian 16 at Wed Apr  9 03:15:51 2025.
 Gaussian 16:  ES64L-G16RevC.01  3-Jul-2019

 ----------------------------------------------------------------------
 #t hf aug-cc-pvdz iop(5/13=1,5/36=2,99/5=2) pseudo=read geom=check gue
 ss=(read,tcheck) scf=(maxcycle=1)
 ----------------------------------------------------------------------
 -----
 title
 -----
 Structure from the checkpoint file:  "Grambow2020_b97d3_006982_reverse_mol2.chk"
 Charge =  0 Multiplicity = 1

                         Standard orientation:
 ---------------------------------------------------------------------
 Center     Atomic      Atomic             Coordinates (Angstroms)
 Number     Number       Type             X           Y           Z
 ---------------------------------------------------------------------
      1          6           0       -1.667852    0.764918    0.798018
      2          6           0       -1.833136   -0.250578   -0.304779
      3          6           0        1.964148   -0.864529    0.607720
      4          6           0        1.657970    0.216113   -0.086741
      5          8           0        1.384284    1.192941   -0.689936
      6          8           0       -1.037975   -1.136207   -0.569845
      7          1           0       -0.827556    0.504946    1.450655
      8          1           0       -2.598951    0.849788    1.378296
      9          1           0       -1.481338    1.751798    0.344635
     10          1           0       -2.767624   -0.132710   -0.907964
     11          1           0        2.923603   -0.936746    1.112287
     12          1           0        1.254616   -1.686492    0.615032
 ---------------------------------------------------------------------

 SCF Done:  E(RHF) =  -306.026381733     A.U. after    2 cycles

 The electronic state is 1-A.
 Alpha  occ. eigenvalues --  -21.12639 -21.06889 -11.53896 -11.48976 -11.39491
 Alpha  occ. eigenvalues --  -11.39068  -1.75327  -1.70863  -1.11750  -1.11111
 Alpha  occ. eigenvalues --   -0.82195  -0.71830  -0.64408  -0.62420  -0.59486
 Alpha  occ. eigenvalues --   -0.57338  -0.56585  -0.54158  -0.50239  -0.46285
 Alpha  occ. eigenvalues --   -0.42412  -0.30498  -0.28524
 Alpha virt. eigenvalues --    0.03376   0.04772   0.05292   0.06274   0.07159
 Alpha virt. eigenvalues --    0.07478   0.08945   0.10996   0.11743   0.12322
 Alpha virt. eigenvalues --    0.13066   0.13705   0.14222   0.14369   0.15211

 Mulliken charges:
               1
     1  C   -4.065311
     2  C    1.270167
     3  C   -2.000121
     4  C    1.538447
     5  O   -2.343536
     6  O   -2.722361
     7  H    1.349744
     8  H    1.230854
     9  H    1.387110
    10  H    1.552016
    11  H    1.317473
    12  H    1.485517
 Sum of Mulliken charges =  -0.00000

 Dipole moment (field-independent basis, Debye):
    X=             -1.0511    Y=              1.1710    Z=              0.2331  Tot=              1.5907

 Test job not archived.
 1\1\GINC-SE115\SP\RHF\Aug-CC-pVDZ\C4H6O2\OHZDE\09-Apr-2025\0\\#t hf au
 g-cc-pvdz iop(5/13=1,5/36=2,99/5=2) pseudo=read geom=check guess=(read
 ,tcheck) scf=(maxcycle=1)\\title\\0,1\C,0,-1.57274245,-0.2665916,-0.49
 414322\C,0,-0.86316912,-1.48542859,0.04032093\C,0,1.81755607,1.2864179
 7,0.91183269\C,0,1.70747284,0.9010741,-0.34642025\O,0,1.59687622,0.572
 91269,-1.47470107\O,0,0.1238582,-1.46682401,0.75607997\H,0,-1.19988703
 ,0.64687231,-0.01856008\H,0,-2.65891353,-0.36538839,-0.34804803\H,0,-1
 .39950551,-0.20485506,-1.58063025\H,0,-1.30619869,-2.45985783,-0.28403

 Normal termination of Gaussian 16 at Wed Apr  9 03:15:55 2025.
