 Gaussian 16, Revision C.01,

 ----------------------------------------------------------------------
 #t hf aug-cc-pvdz symm=none int=(grid=ultrafine) guess=(read,tcheck) s
 table=(opt,rrhf)
 ----------------------------------------------------------------------
 -----
 title
 -----
 Symbolic Z-matrix:
 Charge =  0 Multiplicity = 1

 SCF Done:  E(RHF) =  -302.883213784     A.U. after   14 cycles
 Normal termination of Gaussian 16 at Wed Apr  9 19:03:56 2025.
 Gaussian 16:  ES64L-G16RevC.01  3-Jul-2019

 ----------------------------------------------------------------------
 #t hf aug-cc-pvdz iop(5/13=1,5/36=2,99/5=2) pseudo=read geom=check gue
 ss=(read,tcheck) scf=(maxcycle=1)
 ----------------------------------------------------------------------
 -----
 title
 -----
 Structure from the checkpoint file:  "Grambow2020_wb97xd3_008031_reverse_mol2.chk"
 Charge =  0 Multiplicity = 1

                         Standard orientation:
 ---------------------------------------------------------------------
 Center     Atomic      Atomic             Coordinates (Angstroms)
 Number     Number       Type             X           Y           Z
 ---------------------------------------------------------------------
      1          6           0        0.951266   -1.544655    0.736811
      2          6           0        1.773404   -0.815962   -0.266088
      3          6           0       -2.706535   -0.158016    0.157799
      4          7           0       -2.036050   -0.668473   -0.781798
      5          6           0        1.690885    0.479938   -0.564497
      6          6           0        0.748909    1.354613    0.063814
      7          7           0       -0.023218    2.057143    0.546087
      8          1           0        0.332054   -0.872158    1.329150
      9          1           0        0.291340   -2.253630    0.230178
     10          1           0        1.595215   -2.119090    1.406065
     11          1           0        2.504624   -1.400397   -0.816522
     12          1           0       -2.544399    0.851253    0.546248
     13          1           0       -3.495492   -0.750409    0.623241
     14          1           0       -1.342404   -0.000256   -1.118278
     15          1           0        2.326366    0.928484   -1.317133
 ---------------------------------------------------------------------

 SCF Done:  E(RHF) =  -304.313518990     A.U. after    2 cycles

 The electronic state is 1-A.
 Alpha  occ. eigenvalues --  -15.76253 -15.74137 -11.48887 -11.44923 -11.42971
 Alpha  occ. eigenvalues --  -11.41082 -11.39811  -1.33556  -1.32381  -1.23090
 Alpha  occ. eigenvalues --   -1.05079  -0.87186  -0.86691  -0.70607  -0.66621
 Alpha  occ. eigenvalues --   -0.65638  -0.59134  -0.56900  -0.54542  -0.53695
 Alpha  occ. eigenvalues --   -0.50555  -0.50364  -0.44514  -0.42310  -0.38825
 Alpha  occ. eigenvalues --   -0.35916
 Alpha virt. eigenvalues --    0.03023   0.04895   0.05075   0.05263   0.06656
 Alpha virt. eigenvalues --    0.07371   0.07658   0.07871   0.09538   0.09798
 Alpha virt. eigenvalues --    0.10726   0.12234   0.12636   0.13082   0.13673

 Mulliken charges:
               1
     1  C   -4.315924
     2  C   -0.397528
     3  C   -1.301600
     4  N   -2.470584
     5  C   -1.186156
     6  C    1.332166
     7  N   -2.293385
     8  H    1.560779
     9  H    1.229561
    10  H    1.116892
    11  H    1.420456
    12  H    1.480521
    13  H    1.447261
    14  H    0.867025
    15  H    1.510514
 Sum of Mulliken charges =  -0.00000

 Dipole moment (field-independent basis, Debye):
    X=              2.0991    Y=             -1.6508    Z=             -0.0232  Tot=              2.6705

 Test job not archived.
 1\1\GINC-SE097\SP\RHF\Aug-CC-pVDZ\C5H8N2\OHZDE\09-Apr-2025\0\\#t hf au
 g-cc-pvdz iop(5/13=1,5/36=2,99/5=2) pseudo=read geom=check guess=(read
 ,tcheck) scf=(maxcycle=1)\\title\\0,1\C,0,1.61104711,-0.48060796,0.027
 66597\C,0,0.92022804,-1.076285,1.20267578\C,0,-1.02776367,2.07733873,-
 1.43217003\N,0,-0.65049826,2.1304273,-0.22891961\C,0,-0.35158904,-1.46
 978634,1.25608041\C,0,-1.2419967,-1.34457506,0.14313581\N,0,-1.9695075
 4,-1.22274446,-0.73902106\H,0,0.99647861,-0.51163636,-0.87115875\H,0,1
 .85704521,0.56443271,0.23308801\H,0,2.54948852,-1.00532301,-0.16351024

 Normal termination of Gaussian 16 at Wed Apr  9 19:04:01 2025.
