 Gaussian 16, Revision C.01,

 ----------------------------------------------------------------------
 #t hf aug-cc-pvdz symm=none int=(grid=ultrafine) guess=(read,tcheck) s
 table=(opt,rrhf)
 ----------------------------------------------------------------------
 -----
 title
 -----
 Symbolic Z-matrix:
 Charge =  0 Multiplicity = 1

 SCF Done:  E(RHF) =  -358.349789329     A.U. after   18 cycles
 Normal termination of Gaussian 16 at Wed Apr  9 18:13:59 2025.
 Gaussian 16:  ES64L-G16RevC.01  3-Jul-2019

 ----------------------------------------------------------------------
 #t hf aug-cc-pvdz iop(5/13=1,5/36=2,99/5=2) pseudo=read geom=check gue
 ss=(read,tcheck) scf=(maxcycle=1)
 ----------------------------------------------------------------------
 -----
 title
 -----
 Structure from the checkpoint file:  "Grambow2020_wb97xd3_006783_forward_mol1.chk"
 Charge =  0 Multiplicity = 1

                         Standard orientation:
 ---------------------------------------------------------------------
 Center     Atomic      Atomic             Coordinates (Angstroms)
 Number     Number       Type             X           Y           Z
 ---------------------------------------------------------------------
      1          8           0       -1.710176   -0.287114    0.428767
      2          6           0       -0.973401   -0.063444   -0.626986
      3          6           0        0.210713   -0.989738   -0.378060
      4          6           0        1.583375   -0.338916   -0.387039
      5          7           0        0.322141   -0.464928    0.986899
      6          6           0        0.657453    0.812427    0.538797
      7          8           0       -0.175138    1.262852   -0.399325
      8          1           0       -1.463415    0.072740   -1.594565
      9          1           0        0.067753   -2.058262   -0.473814
     10          1           0        1.870160    0.305816   -1.211930
     11          1           0        2.391917   -0.925537    0.032204
     12          1           0        1.092268    1.531855    1.224007
 ---------------------------------------------------------------------

 SCF Done:  E(RHF) =  -359.933830550     A.U. after    2 cycles

 The electronic state is 1-A.
 Alpha  occ. eigenvalues --  -21.06245 -20.96672 -15.86608 -11.55432 -11.51859
 Alpha  occ. eigenvalues --  -11.48648 -11.44079  -1.86370  -1.60923  -1.47920
 Alpha  occ. eigenvalues --   -1.09167  -1.02920  -0.85952  -0.83443  -0.78125
 Alpha  occ. eigenvalues --   -0.66956  -0.63766  -0.59832  -0.55684  -0.51554
 Alpha  occ. eigenvalues --   -0.49073  -0.42865  -0.42530  -0.31111  -0.25752
 Alpha  occ. eigenvalues --   -0.23959
 Alpha virt. eigenvalues --    0.03119   0.04351   0.04792   0.05156   0.05905
 Alpha virt. eigenvalues --    0.08149   0.08630   0.10319   0.10937   0.11516
 Alpha virt. eigenvalues --    0.12128   0.13621   0.14319   0.15020   0.15522

 Mulliken charges:
               1
     1  O   -2.754384
     2  C    2.570823
     3  C   -1.801773
     4  C   -2.533433
     5  N   -1.099074
     6  C    1.658298
     7  O   -2.981208
     8  H    1.492091
     9  H    1.481698
    10  H    1.221008
    11  H    1.171536
    12  H    1.574418
 Sum of Mulliken charges =  -0.00000

 Dipole moment (field-independent basis, Debye):
    X=              2.9906    Y=             -0.1547    Z=             -1.0848  Tot=              3.1850

 Test job not archived.
 1\1\GINC-SE226\SP\RHF\Aug-CC-pVDZ\C4H5N1O2\OHZDE\09-Apr-2025\0\\#t hf
 aug-cc-pvdz iop(5/13=1,5/36=2,99/5=2) pseudo=read geom=check guess=(re
 ad,tcheck) scf=(maxcycle=1)\\title\\0,1\O,0,1.62406949,-1.33638961,0.0
 9955266\C,0,1.01051699,-0.54432009,-0.73929088\C,0,0.65717003,0.637554
 24,0.15537698\C,0,-0.81098921,1.02479549,0.20440173\N,0,0.11695047,-0.
 29156879,1.1532996\C,0,-0.90517632,-0.71342229,0.30349904\O,0,-0.46101
 969,-1.04870756,-0.90748129\H,0,1.39077031,-0.45900848,-1.76056319\H,0
 ,1.44876777,1.29624838,0.48831057\H,0,-1.36326397,1.1671452,-0.7192319

 Normal termination of Gaussian 16 at Wed Apr  9 18:14:03 2025.
