 Gaussian 16, Revision C.01,

 ----------------------------------------------------------------------
 #t hf aug-cc-pvdz symm=none int=(grid=ultrafine) guess=(read,tcheck) s
 table=(opt,rrhf)
 ----------------------------------------------------------------------
 -----
 title
 -----
 Symbolic Z-matrix:
 Charge =  0 Multiplicity = 1

 SCF Done:  E(RHF) =  -302.866209906     A.U. after   14 cycles
 Normal termination of Gaussian 16 at Wed Apr  9 18:23:14 2025.
 Gaussian 16:  ES64L-G16RevC.01  3-Jul-2019

 ----------------------------------------------------------------------
 #t hf aug-cc-pvdz iop(5/13=1,5/36=2,99/5=2) pseudo=read geom=check gue
 ss=(read,tcheck) scf=(maxcycle=1)
 ----------------------------------------------------------------------
 -----
 title
 -----
 Structure from the checkpoint file:  "Grambow2020_wb97xd3_006957_reverse_mol2.chk"
 Charge =  0 Multiplicity = 1

                         Standard orientation:
 ---------------------------------------------------------------------
 Center     Atomic      Atomic             Coordinates (Angstroms)
 Number     Number       Type             X           Y           Z
 ---------------------------------------------------------------------
      1          6           0       -1.985034   -1.266682    0.169964
      2          6           0       -1.301363   -0.000367   -0.324503
      3          6           0       -1.985676    1.267382    0.165446
      4          7           0        0.100421    0.001596    0.106757
      5          6           0        1.097392   -0.006869   -0.719409
      6          6           0        2.370600   -0.000942   -0.066057
      7          7           0        3.447071    0.003028    0.348373
      8          1           0       -3.021742   -1.289887   -0.167535
      9          1           0       -1.991222   -1.310747    1.262764
     10          1           0       -1.478274   -2.154861   -0.208730
     11          1           0       -1.990360    1.315886    1.258099
     12          1           0       -1.480412    2.154597   -0.217540
     13          1           0       -3.022974    1.288556   -0.170301
     14          1           0        0.228127    0.011420    1.118390
     15          1           0       -1.251094   -0.002461   -1.413702
 ---------------------------------------------------------------------

 SCF Done:  E(RHF) =  -304.302709269     A.U. after    2 cycles

 The electronic state is 1-A.
 Alpha  occ. eigenvalues --  -15.82381 -15.76446 -11.46448 -11.45090 -11.41868
 Alpha  occ. eigenvalues --  -11.41534 -11.38198  -1.48948  -1.30387  -1.20341
 Alpha  occ. eigenvalues --   -1.03719  -0.97235  -0.86549  -0.75430  -0.66338
 Alpha  occ. eigenvalues --   -0.63288  -0.61843  -0.56652  -0.54107  -0.53162
 Alpha  occ. eigenvalues --   -0.52701  -0.49824  -0.48007  -0.46166  -0.40506
 Alpha  occ. eigenvalues --   -0.34599
 Alpha virt. eigenvalues --    0.02919   0.04808   0.04882   0.05441   0.05759
 Alpha virt. eigenvalues --    0.06023   0.06651   0.06711   0.09173   0.09398
 Alpha virt. eigenvalues --    0.11058   0.11836   0.12844   0.12868   0.14117

 Mulliken charges:
               1
     1  C   -3.481176
     2  C   -1.492640
     3  C   -3.487147
     4  N   -2.228700
     5  C   -0.408244
     6  C    2.815660
     7  N   -2.183913
     8  H    1.222694
     9  H    1.253244
    10  H    1.323408
    11  H    1.252920
    12  H    1.321818
    13  H    1.223689
    14  H    0.860021
    15  H    2.008364
 Sum of Mulliken charges =  -0.00000

 Dipole moment (field-independent basis, Debye):
    X=             -5.3344    Y=              0.0191    Z=              1.5210  Tot=              5.5471

 Test job not archived.
 1\1\GINC-SE340\SP\RHF\Aug-CC-pVDZ\C5H8N2\OHZDE\09-Apr-2025\0\\#t hf au
 g-cc-pvdz iop(5/13=1,5/36=2,99/5=2) pseudo=read geom=check guess=(read
 ,tcheck) scf=(maxcycle=1)\\title\\0,1\C,0,-1.17029533,1.27726267,0.247
 28214\C,0,-0.37093653,0.01448546,0.53342621\C,0,-1.17231047,-1.2564058
 5,0.29226783\N,0,0.83621598,-0.0020991,-0.29933711\C,0,2.03552544,0.01
 285515,0.18852311\C,0,3.05324985,-0.01025264,-0.81729203\N,0,3.9552147
 9,-0.02669243,-1.53614324\H,0,-2.0574563,1.311555,0.88050928\H,0,-1.50
 484334,1.30506667,-0.79362871\H,0,-0.57212965,2.1680118,0.44180996\H,0

 Normal termination of Gaussian 16 at Wed Apr  9 18:23:18 2025.
