 Gaussian 16, Revision C.01,

 ----------------------------------------------------------------------
 #t hf aug-cc-pvdz symm=none int=(grid=ultrafine) guess=(read,tcheck) s
 table=(opt,rrhf)
 ----------------------------------------------------------------------
 -----
 title
 -----
 Symbolic Z-matrix:
 Charge =  0 Multiplicity = 1

 SCF Done:  E(RHF) =  -267.488683871     A.U. after   17 cycles
 Normal termination of Gaussian 16 at Wed Apr  9 03:20:54 2025.
 Gaussian 16:  ES64L-G16RevC.01  3-Jul-2019

 ----------------------------------------------------------------------
 #t hf aug-cc-pvdz iop(5/13=1,5/36=2,99/5=2) pseudo=read geom=check gue
 ss=(read,tcheck) scf=(maxcycle=1)
 ----------------------------------------------------------------------
 -----
 title
 -----
 Structure from the checkpoint file:  "Grambow2020_wb97xd3_006080_forward_mol1.chk"
 Charge =  0 Multiplicity = 1

                         Standard orientation:
 ---------------------------------------------------------------------
 Center     Atomic      Atomic             Coordinates (Angstroms)
 Number     Number       Type             X           Y           Z
 ---------------------------------------------------------------------
      1          8           0       -2.324924   -0.827271   -0.244775
      2          6           0       -2.273905    0.298799    0.042666
      3          6           0       -0.330172    0.940225   -0.114661
      4          6           0        0.454661   -0.213175    0.471612
      5          6           0        1.864024   -0.202804    0.081746
      6          6           0        3.014206   -0.170233   -0.251346
      7          1           0       -1.895828    1.300723    0.295373
      8          1           0       -0.061793    1.907081    0.322433
      9          1           0       -0.258231    0.999122   -1.202393
     10          1           0        0.394815   -0.200237    1.564160
     11          1           0        0.011139   -1.160388    0.144208
     12          1           0        4.036403   -0.144997   -0.545684
 ---------------------------------------------------------------------

 SCF Done:  E(RHF) =  -268.738031349     A.U. after    2 cycles

 The electronic state is 1-A.
 Alpha  occ. eigenvalues --  -21.13964 -11.53256 -11.44895 -11.40355 -11.39100
 Alpha  occ. eigenvalues --  -11.36979  -1.77356  -1.22393  -1.05691  -0.95784
 Alpha  occ. eigenvalues --   -0.83265  -0.72801  -0.64490  -0.62442  -0.59879
 Alpha  occ. eigenvalues --   -0.53791  -0.52757  -0.51220  -0.49027  -0.36578
 Alpha  occ. eigenvalues --   -0.35962  -0.25101
 Alpha virt. eigenvalues --    0.03480   0.04738   0.05411   0.05967   0.06714
 Alpha virt. eigenvalues --    0.07468   0.09386   0.09700   0.10721   0.10976
 Alpha virt. eigenvalues --    0.12048   0.12633   0.13781   0.14260   0.14708

 Mulliken charges:
               1
     1  O   -2.053837
     2  C    0.542961
     3  C   -3.306244
     4  C   -3.890754
     5  C    4.600644
     6  C   -4.025610
     7  H    2.137899
     8  H    1.220614
     9  H    1.328141
    10  H    1.287921
    11  H    1.416933
    12  H    0.741331
 Sum of Mulliken charges =   0.00000

 Dipole moment (field-independent basis, Debye):
    X=             -1.1736    Y=              0.1477    Z=              0.1975  Tot=              1.1992

 Test job not archived.
 1\1\GINC-SE069\SP\RHF\Aug-CC-pVDZ\C5H6O1\OHZDE\09-Apr-2025\0\\#t hf au
 g-cc-pvdz iop(5/13=1,5/36=2,99/5=2) pseudo=read geom=check guess=(read
 ,tcheck) scf=(maxcycle=1)\\title\\0,1\O,0,-2.52044909,0.7195499,-0.712
 53866\C,0,-2.49434064,-0.03994695,0.16822362\C,0,-0.57043185,-0.181833
 01,0.87016405\C,0,0.25265561,-0.19062292,-0.39966204\C,0,1.65531534,0.
 15617281,-0.17453068\C,0,2.79918057,0.44179354,0.03741925\H,0,-2.13862
 171,-0.71239767,0.9631627\H,0,-0.32070747,-1.00385781,1.5482517\H,0,-0
 .51624458,0.76552396,1.40996354\H,0,0.20876859,-1.17431499,-0.87698327

 Normal termination of Gaussian 16 at Wed Apr  9 03:20:58 2025.
