 Gaussian 16, Revision C.01,

 ----------------------------------------------------------------------
 #t hf aug-cc-pvdz symm=none int=(grid=ultrafine) guess=(read,tcheck) s
 table=(opt,rrhf)
 ----------------------------------------------------------------------
 -----
 title
 -----
 Symbolic Z-matrix:
 Charge =  0 Multiplicity = 1

 SCF Done:  E(RHF) =  -272.052679448     A.U. after   13 cycles
 Normal termination of Gaussian 16 at Wed Apr  9 03:39:51 2025.
 Gaussian 16:  ES64L-G16RevC.01  3-Jul-2019

 ----------------------------------------------------------------------
 #t hf aug-cc-pvdz iop(5/13=1,5/36=2,99/5=2) pseudo=read geom=check gue
 ss=(read,tcheck) scf=(maxcycle=1)
 ----------------------------------------------------------------------
 -----
 title
 -----
 Structure from the checkpoint file:  "Grambow2020_wb97xd3_007430_reverse_mol2.chk"
 Charge =  0 Multiplicity = 1

                         Standard orientation:
 ---------------------------------------------------------------------
 Center     Atomic      Atomic             Coordinates (Angstroms)
 Number     Number       Type             X           Y           Z
 ---------------------------------------------------------------------
      1          6           0        1.036479    1.917583    0.360656
      2          6           0        1.103139    0.756153   -0.630027
      3          6           0        0.826859   -0.588491   -0.008925
      4          6           0       -0.521376   -0.776259    0.650093
      5          6           0       -1.667132   -0.545493   -0.293471
      6          6           0       -2.626634    0.349548   -0.117857
      7          6           0        1.719782   -1.570198   -0.040821
      8          1           0        1.308193    2.854336   -0.128405
      9          1           0        1.722406    1.759747    1.195775
     10          1           0        0.030875    2.040590    0.766954
     11          1           0        0.374588    0.933456   -1.428344
     12          1           0        2.087795    0.729983   -1.101656
     13          1           0        1.514988   -2.539279    0.400437
     14          1           0       -0.618491   -0.095824    1.501695
     15          1           0       -0.578498   -1.793222    1.047695
     16          1           0       -1.680772   -1.172752   -1.182508
     17          1           0       -3.431237    0.468082   -0.833371
     18          1           0       -2.644789    0.996026    0.754007
     19          1           0        2.688241   -1.438193   -0.510171
 ---------------------------------------------------------------------

 SCF Done:  E(RHF) =  -273.441309591     A.U. after    2 cycles

 The electronic state is 1-A.
 Alpha  occ. eigenvalues --  -11.44719 -11.42453 -11.40301 -11.38519 -11.37678
 Alpha  occ. eigenvalues --  -11.36636 -11.34864  -1.29376  -1.16203  -1.07717
 Alpha  occ. eigenvalues --   -0.97979  -0.89943  -0.79919  -0.74052  -0.65402
 Alpha  occ. eigenvalues --   -0.63225  -0.60111  -0.57889  -0.56573  -0.54303
 Alpha  occ. eigenvalues --   -0.50037  -0.49394  -0.46930  -0.44951  -0.43269
 Alpha  occ. eigenvalues --   -0.34392  -0.33100
 Alpha virt. eigenvalues --    0.03868   0.04985   0.05334   0.05497   0.05681
 Alpha virt. eigenvalues --    0.05753   0.06338   0.06991   0.07160   0.08513
 Alpha virt. eigenvalues --    0.08626   0.09164   0.11237   0.11910   0.12388

 Mulliken charges:
               1
     1  C   -3.898795
     2  C   -3.810523
     3  C    3.676366
     4  C   -4.343012
     5  C   -0.329434
     6  C   -3.394278
     7  C   -5.179260
     8  H    1.148241
     9  H    1.326456
    10  H    1.543266
    11  H    1.528156
    12  H    1.440531
    13  H    1.583494
    14  H    1.448870
    15  H    1.358218
    16  H    1.480534
    17  H    1.377859
    18  H    1.480511
    19  H    1.562799
 Sum of Mulliken charges =   0.00000

 Dipole moment (field-independent basis, Debye):
    X=             -0.0644    Y=              0.2272    Z=             -0.0642  Tot=              0.2447

 Test job not archived.
 1\1\GINC-SE453\SP\RHF\Aug-CC-pVDZ\C7H12\OHZDE\09-Apr-2025\0\\#t hf aug
 -cc-pvdz iop(5/13=1,5/36=2,99/5=2) pseudo=read geom=check guess=(read,
 tcheck) scf=(maxcycle=1)\\title\\0,1\C,0,1.70666932,0.32214632,-1.1380
 4524\C,0,0.99120787,-0.86122292,-0.48799404\C,0,0.36763507,-0.53637495
 ,0.84459628\C,0,-0.68194232,0.55234046,0.86420748\C,0,-1.84285489,0.25
 740626,-0.04222524\C,0,-2.24236611,1.03038678,-1.03995967\C,0,0.714824
 56,-1.17741395,1.9539227\H,0,2.19306318,0.01366769,-2.06474762\H,0,2.4
 7120015,0.73052447,-0.47355095\H,0,1.00973453,1.12476894,-1.38608903\H

 Normal termination of Gaussian 16 at Wed Apr  9 03:39:58 2025.
