 Gaussian 16, Revision C.01,

 ----------------------------------------------------------------------
 #t hf aug-cc-pvdz symm=none int=(grid=ultrafine) guess=(read,tcheck) s
 table=(opt,rrhf)
 ----------------------------------------------------------------------
 -----
 title
 -----
 Symbolic Z-matrix:
 Charge =  0 Multiplicity = 1

 SCF Done:  E(RHF) =  -338.753415312     A.U. after   14 cycles
 Normal termination of Gaussian 16 at Wed Apr  9 03:28:14 2025.
 Gaussian 16:  ES64L-G16RevC.01  3-Jul-2019

 ----------------------------------------------------------------------
 #t hf aug-cc-pvdz iop(5/13=1,5/36=2,99/5=2) pseudo=read geom=check gue
 ss=(read,tcheck) scf=(maxcycle=1)
 ----------------------------------------------------------------------
 -----
 title
 -----
 Structure from the checkpoint file:  "Grambow2020_wb97xd3_006698_reverse_mol2.chk"
 Charge =  0 Multiplicity = 1

                         Standard orientation:
 ---------------------------------------------------------------------
 Center     Atomic      Atomic             Coordinates (Angstroms)
 Number     Number       Type             X           Y           Z
 ---------------------------------------------------------------------
      1          6           0       -2.411013   -0.546642   -0.000009
      2          6           0       -1.044729    0.016273   -0.000455
      3          6           0       -0.554101    1.253114   -0.000562
      4          7           0        0.833439    1.142811    0.001214
      5          6           0        1.188658   -0.178956    0.000303
      6          7           0        2.359942   -0.650755   -0.000628
      7          8           0        0.010608   -0.881453    0.000598
      8          1           0       -2.583827   -1.154975    0.890216
      9          1           0       -3.142140    0.260684   -0.016260
     10          1           0       -2.572908   -1.179324   -0.875067
     11          1           0       -1.065804    2.199448    0.000101
     12          1           0        1.508464    1.881471   -0.002673
     13          1           0        2.344793   -1.662820   -0.000865
 ---------------------------------------------------------------------

 SCF Done:  E(RHF) =  -340.280645641     A.U. after    2 cycles

 The electronic state is 1-A.
 Alpha  occ. eigenvalues --  -21.10352 -15.77784 -15.69840 -11.49087 -11.47156
 Alpha  occ. eigenvalues --  -11.43794 -11.39486  -1.86552  -1.42196  -1.30089
 Alpha  occ. eigenvalues --   -1.14847  -1.01339  -0.85205  -0.81651  -0.71659
 Alpha  occ. eigenvalues --   -0.64643  -0.62746  -0.57527  -0.56318  -0.55692
 Alpha  occ. eigenvalues --   -0.54027  -0.44368  -0.42281  -0.41101  -0.37650
 Alpha  occ. eigenvalues --   -0.24243
 Alpha virt. eigenvalues --    0.02958   0.04506   0.05181   0.06411   0.06590
 Alpha virt. eigenvalues --    0.06767   0.09169   0.10317   0.12213   0.12346
 Alpha virt. eigenvalues --    0.12433   0.12727   0.14264   0.14707   0.16553

 Mulliken charges:
               1
     1  C   -4.441645
     2  C    5.249617
     3  C   -1.763934
     4  N   -2.951492
     5  C    5.523203
     6  N   -3.498217
     7  O   -4.074362
     8  H    1.174771
     9  H    1.091380
    10  H    1.174478
    11  H    1.175878
    12  H    0.765132
    13  H    0.575192
 Sum of Mulliken charges =  -0.00000

 Dipole moment (field-independent basis, Debye):
    X=             -3.4669    Y=              1.5810    Z=             -0.0019  Tot=              3.8104

 Test job not archived.
 1\1\GINC-SE187\SP\RHF\Aug-CC-pVDZ\C4H6N2O1\OHZDE\09-Apr-2025\0\\#t hf
 aug-cc-pvdz iop(5/13=1,5/36=2,99/5=2) pseudo=read geom=check guess=(re
 ad,tcheck) scf=(maxcycle=1)\\title\\0,1\C,0,-2.03468965,0.50881872,-0.
 13402529\C,0,-0.65276733,-0.01381537,-0.16140942\C,0,-0.12538345,-1.23
 524511,-0.13981189\N,0,1.25744081,-1.08472961,-0.19059906\C,0,1.572563
 4,0.24618985,-0.24159556\N,0,2.72854739,0.75166333,-0.29356181\O,0,0.3
 74498,0.91375931,-0.22450188\H,0,-2.25412429,1.08362332,-1.03617984\H,
 0,-2.74029261,-0.31852844,-0.06916867\H,0,-2.18747878,1.16367823,0.726

 Normal termination of Gaussian 16 at Wed Apr  9 03:28:19 2025.
