 Gaussian 16, Revision C.01,

 ----------------------------------------------------------------------
 #t hf aug-cc-pvdz symm=none int=(grid=ultrafine) guess=(read,tcheck) s
 table=(opt,rrhf)
 ----------------------------------------------------------------------
 -----
 title
 -----
 Symbolic Z-matrix:
 Charge =  0 Multiplicity = 1

 SCF Done:  E(RHF) =  -338.596622775     A.U. after   18 cycles
 Normal termination of Gaussian 16 at Wed Apr  9 03:28:20 2025.
 Gaussian 16:  ES64L-G16RevC.01  3-Jul-2019

 ----------------------------------------------------------------------
 #t hf aug-cc-pvdz iop(5/13=1,5/36=2,99/5=2) pseudo=read geom=check gue
 ss=(read,tcheck) scf=(maxcycle=1)
 ----------------------------------------------------------------------
 -----
 title
 -----
 Structure from the checkpoint file:  "Grambow2020_wb97xd3_006693_forward_mol1.chk"
 Charge =  0 Multiplicity = 1

                         Standard orientation:
 ---------------------------------------------------------------------
 Center     Atomic      Atomic             Coordinates (Angstroms)
 Number     Number       Type             X           Y           Z
 ---------------------------------------------------------------------
      1          6           0        1.884699    0.967051   -0.284782
      2          6           0        0.880180   -0.105524   -0.507118
      3          6           0        0.945602   -1.309637    0.184495
      4          7           0       -0.101221   -0.964695    0.851012
      5          6           0       -0.918548    0.002200   -0.092173
      6          7           0       -1.100237    1.236238    0.530548
      7          8           0       -1.714822   -0.464015   -0.876841
      8          1           0        1.477335    1.940743   -0.552429
      9          1           0        2.285595    1.000734    0.732762
     10          1           0        2.721507    0.741790   -0.956892
     11          1           0        1.658635   -2.088371    0.420105
     12          1           0       -2.042924    1.577699    0.435978
     13          1           0       -0.722969    1.314193    1.461750
 ---------------------------------------------------------------------

 SCF Done:  E(RHF) =  -340.145201851     A.U. after    2 cycles

 The electronic state is 1-A.
 Alpha  occ. eigenvalues --  -20.98439 -15.78928 -15.75548 -11.53164 -11.49220
 Alpha  occ. eigenvalues --  -11.45189 -11.41217  -1.69320  -1.47901  -1.31654
 Alpha  occ. eigenvalues --   -1.14219  -0.94869  -0.88672  -0.75704  -0.69117
 Alpha  occ. eigenvalues --   -0.64093  -0.63528  -0.62314  -0.58631  -0.53309
 Alpha  occ. eigenvalues --   -0.48384  -0.45124  -0.41136  -0.36770  -0.26628
 Alpha  occ. eigenvalues --   -0.25612
 Alpha virt. eigenvalues --    0.02963   0.04445   0.05194   0.05279   0.06129
 Alpha virt. eigenvalues --    0.07224   0.07434   0.08722   0.10202   0.11874
 Alpha virt. eigenvalues --    0.12523   0.12918   0.13994   0.14429   0.14726

 Mulliken charges:
               1
     1  C   -3.541282
     2  C   -1.722192
     3  C    0.802076
     4  N   -1.905693
     5  C    6.663800
     6  N   -2.991234
     7  O   -3.602419
     8  H    1.298347
     9  H    1.294745
    10  H    1.180275
    11  H    1.344187
    12  H    0.615438
    13  H    0.563953
 Sum of Mulliken charges =   0.00000

 Dipole moment (field-independent basis, Debye):
    X=              3.6086    Y=              0.3268    Z=              1.8643  Tot=              4.0748

 Test job not archived.
 1\1\GINC-SE058\SP\RHF\Aug-CC-pVDZ\C4H6N2O1\OHZDE\09-Apr-2025\0\\#t hf
 aug-cc-pvdz iop(5/13=1,5/36=2,99/5=2) pseudo=read geom=check guess=(re
 ad,tcheck) scf=(maxcycle=1)\\title\\0,1\C,0,-1.55453619,0.51383033,-0.
 50600491\C,0,-0.63169682,-0.242169,0.38041494\C,0,-0.41254688,-1.60314
 19,0.20090361\N,0,0.7784948,-1.33997552,-0.21289699\C,0,1.19685142,0.0
 0817223,0.49419613\N,0,1.51743528,0.97009338,-0.46266093\O,0,1.7115065
 7,-0.02895107,1.59003676\H,0,-1.30158862,1.57287929,-0.51552048\H,0,-1
 .60034525,0.1351623,-1.5315585\H,0,-2.55461104,0.39747335,-0.07122609\

 Normal termination of Gaussian 16 at Wed Apr  9 03:28:24 2025.
