 Gaussian 16, Revision C.01,

 ----------------------------------------------------------------------
 #t hf aug-cc-pvdz symm=none int=(grid=ultrafine) guess=(read,tcheck) s
 table=(opt,rrhf)
 ----------------------------------------------------------------------
 -----
 title
 -----
 Symbolic Z-matrix:
 Charge =  0 Multiplicity = 1

 SCF Done:  E(RHF) =  -264.969062807     A.U. after   15 cycles
 Normal termination of Gaussian 16 at Wed Apr  9 16:53:09 2025.
 Gaussian 16:  ES64L-G16RevC.01  3-Jul-2019

 ----------------------------------------------------------------------
 #t hf aug-cc-pvdz iop(5/13=1,5/36=2,99/5=2) pseudo=read geom=check gue
 ss=(read,tcheck) scf=(maxcycle=1)
 ----------------------------------------------------------------------
 -----
 title
 -----
 Structure from the checkpoint file:  "Grambow2020_b97d3_006850_reverse_mol1.chk"
 Charge =  0 Multiplicity = 1

                         Standard orientation:
 ---------------------------------------------------------------------
 Center     Atomic      Atomic             Coordinates (Angstroms)
 Number     Number       Type             X           Y           Z
 ---------------------------------------------------------------------
      1          6           0       -2.128269    0.221273    0.029682
      2          7           0       -0.965908   -0.594635   -0.309202
      3          6           0        0.171909   -0.486271    0.390270
      4          6           0        1.310559   -1.406980    0.042299
      5          6           0        0.619385    1.692964    0.315904
      6          7           0        1.458236    1.255745   -0.415473
      7          1           0       -2.466148   -0.029818    1.042683
      8          1           0       -2.936077    0.009472   -0.678003
      9          1           0       -1.841281    1.284972    0.002294
     10          1           0       -0.848536   -0.814841   -1.296181
     11          1           0        0.033896   -0.260441    1.444139
     12          1           0        2.234060   -1.072139    0.519444
     13          1           0        1.057984   -2.416315    0.408945
     14          1           0        1.478301   -1.454576   -1.039524
 ---------------------------------------------------------------------

 SCF Done:  E(RHF) =  -266.253448649     A.U. after    2 cycles

 The electronic state is 1-A.
 Alpha  occ. eigenvalues --  -15.80335 -15.69791 -11.52924 -11.41920 -11.41112
 Alpha  occ. eigenvalues --  -11.32487  -1.47063  -1.24293  -1.14642  -1.00777
 Alpha  occ. eigenvalues --   -0.89966  -0.68594  -0.67981  -0.65307  -0.60662
 Alpha  occ. eigenvalues --   -0.57206  -0.56625  -0.53934  -0.52655  -0.47000
 Alpha  occ. eigenvalues --   -0.38763  -0.37633  -0.35818
 Alpha virt. eigenvalues --    0.03176   0.04003   0.04706   0.05535   0.06181
 Alpha virt. eigenvalues --    0.06421   0.07579   0.08098   0.10156   0.11364
 Alpha virt. eigenvalues --    0.12191   0.13184   0.13386   0.13938   0.14812

 Mulliken charges:
               1
     1  C   -3.442214
     2  N   -2.809017
     3  C    0.102004
     4  C   -3.589484
     5  C    0.370800
     6  N   -1.175985
     7  H    1.363793
     8  H    1.293451
     9  H    1.497462
    10  H    0.671881
    11  H    1.999189
    12  H    1.279635
    13  H    1.143626
    14  H    1.294858
 Sum of Mulliken charges =   0.00000

 Dipole moment (field-independent basis, Debye):
    X=             -3.1240    Y=             -5.3006    Z=             -0.3241  Tot=              6.1612

 Test job not archived.
 1\1\GINC-SE026\SP\RHF\Aug-CC-pVDZ\C4H8N2\OHZDE\09-Apr-2025\0\\#t hf au
 g-cc-pvdz iop(5/13=1,5/36=2,99/5=2) pseudo=read geom=check guess=(read
 ,tcheck) scf=(maxcycle=1)\\title\\0,1\C,0,1.9644114,0.00277648,0.32781
 9\N,0,0.59714846,-0.49936581,0.42818831\C,0,-0.34862846,-0.08007043,-0
 .42347553\C,0,-1.72064953,-0.68983573,-0.3183322\C,0,-0.24913069,2.137
 35665,-0.25630327\N,0,-1.27779417,1.90514179,0.3073194\H,0,2.39031047,
 -0.29236285,-0.63907478\H,0,2.56807591,-0.4322716,1.13066004\H,0,1.948
 93926,1.10296511,0.39038818\H,0,0.26952866,-0.71511581,1.36760895\H,0,

 Normal termination of Gaussian 16 at Wed Apr  9 16:53:13 2025.
