 Gaussian 16, Revision C.01,

 ----------------------------------------------------------------------
 #t hf aug-cc-pvdz symm=none int=(grid=ultrafine) guess=(read,tcheck) s
 table=(opt,rrhf)
 ----------------------------------------------------------------------
 -----
 title
 -----
 Symbolic Z-matrix:
 Charge =  0 Multiplicity = 1

 SCF Done:  E(RHF) =  -342.396128117     A.U. after   16 cycles
 Normal termination of Gaussian 16 at Wed Apr  9 19:16:56 2025.
 Gaussian 16:  ES64L-G16RevC.01  3-Jul-2019

 ----------------------------------------------------------------------
 #t hf aug-cc-pvdz iop(5/13=1,5/36=2,99/5=2) pseudo=read geom=check gue
 ss=(read,tcheck) scf=(maxcycle=1)
 ----------------------------------------------------------------------
 -----
 title
 -----
 Structure from the checkpoint file:  "Grambow2020_wb97xd3_008523_forward_mol1.chk"
 Charge =  0 Multiplicity = 1

                         Standard orientation:
 ---------------------------------------------------------------------
 Center     Atomic      Atomic             Coordinates (Angstroms)
 Number     Number       Type             X           Y           Z
 ---------------------------------------------------------------------
      1          8           0        2.173091    0.128207   -0.182435
      2          6           0        0.988066   -0.069623   -0.143436
      3          6           0        0.203998   -1.108104    0.548868
      4          8           0       -1.010131   -1.224018   -0.115257
      5          6           0       -1.289617   -0.027712   -0.560471
      6          6           0       -0.717418    1.258010    0.786420
      7          6           0       -0.135874    0.866394   -0.588147
      8          1           0       -0.390574   -0.011262    1.314900
      9          1           0        0.595178   -2.046099    0.913117
     10          1           0       -2.283620    0.140113   -0.948583
     11          1           0        0.024608    1.674764    1.471492
     12          1           0       -1.591255    1.902214    0.741679
     13          1           0        0.047047    1.592970   -1.370474
 ---------------------------------------------------------------------

 SCF Done:  E(RHF) =  -343.960762870     A.U. after    2 cycles

 The electronic state is 1-A.
 Alpha  occ. eigenvalues --  -21.14559 -21.04636 -11.54078 -11.50172 -11.45041
 Alpha  occ. eigenvalues --  -11.41267 -11.39750  -1.89614  -1.69876  -1.29383
 Alpha  occ. eigenvalues --   -1.07898  -0.94880  -0.85485  -0.80491  -0.72788
 Alpha  occ. eigenvalues --   -0.67453  -0.59581  -0.57581  -0.57228  -0.53868
 Alpha  occ. eigenvalues --   -0.49320  -0.45442  -0.44376  -0.37379  -0.28710
 Alpha  occ. eigenvalues --   -0.26839
 Alpha virt. eigenvalues --    0.03284   0.04505   0.04734   0.05854   0.06279
 Alpha virt. eigenvalues --    0.07375   0.09283   0.09752   0.10008   0.12250
 Alpha virt. eigenvalues --    0.12851   0.13375   0.13802   0.14083   0.14702

 Mulliken charges:
               1
     1  O   -3.676174
     2  C    4.970919
     3  C   -1.350367
     4  O   -3.579623
     5  C    1.983332
     6  C   -2.628668
     7  C   -3.636330
     8  H    1.387215
     9  H    1.452090
    10  H    1.472928
    11  H    1.148598
    12  H    1.056287
    13  H    1.399793
 Sum of Mulliken charges =  -0.00000

 Dipole moment (field-independent basis, Debye):
    X=             -2.2145    Y=             -0.0734    Z=             -1.0829  Tot=              2.4662

 Test job not archived.
 1\1\GINC-SE037\SP\RHF\Aug-CC-pVDZ\C5H6O2\OHZDE\09-Apr-2025\0\\#t hf au
 g-cc-pvdz iop(5/13=1,5/36=2,99/5=2) pseudo=read geom=check guess=(read
 ,tcheck) scf=(maxcycle=1)\\title\\0,1\O,0,1.17781971,1.99182944,0.8046
 0607\C,0,0.7622966,1.0424007,0.19561741\C,0,1.43636584,-0.19038364,-0.
 24976284\O,0,0.70879983,-0.69931274,-1.31758563\C,0,-0.53776643,-0.385
 85164,-1.0824453\C,0,-0.84325882,-0.55464968,0.83400692\C,0,-0.6934956
 1,0.67266797,-0.08916871\H,0,0.51286023,-0.90016796,0.63721354\H,0,2.5
 0403877,-0.31728954,-0.34724411\H,0,-1.29323157,-0.84848274,-1.7005742

 Normal termination of Gaussian 16 at Wed Apr  9 19:17:00 2025.
