 Gaussian 16, Revision C.01,

 ----------------------------------------------------------------------
 #t hf aug-cc-pvdz symm=none int=(grid=ultrafine) guess=(read,tcheck) s
 table=(opt,rrhf)
 ----------------------------------------------------------------------
 -----
 title
 -----
 Symbolic Z-matrix:
 Charge =  0 Multiplicity = 1

 SCF Done:  E(RHF) =  -306.544850622     A.U. after   17 cycles
 Normal termination of Gaussian 16 at Wed Apr  9 04:05:53 2025.
 Gaussian 16:  ES64L-G16RevC.01  3-Jul-2019

 ----------------------------------------------------------------------
 #t hf aug-cc-pvdz iop(5/13=1,5/36=2,99/5=2) pseudo=read geom=check gue
 ss=(read,tcheck) scf=(maxcycle=1)
 ----------------------------------------------------------------------
 -----
 title
 -----
 Structure from the checkpoint file:  "Grambow2020_wb97xd3_009277_reverse_mol1.chk"
 Charge =  0 Multiplicity = 1

                         Standard orientation:
 ---------------------------------------------------------------------
 Center     Atomic      Atomic             Coordinates (Angstroms)
 Number     Number       Type             X           Y           Z
 ---------------------------------------------------------------------
      1          6           0        1.366641   -0.427180    1.271765
      2          6           0        0.616726   -0.259515    0.002292
      3          6           0        1.351209   -0.458513   -1.271938
      4          6           0       -0.588277    0.707105   -0.005513
      5          8           0        0.009734    1.760600   -0.011092
      6          6           0       -1.949928    0.232780   -0.003144
      7          6           0       -1.824371   -1.081854    0.014157
      8          1           0        2.241489    0.229613    1.295379
      9          1           0        1.741753   -1.453173    1.309442
     10          1           0        0.744196   -0.239415    2.143836
     11          1           0       -0.737056   -1.497586    0.014063
     12          1           0        2.134227    0.299523   -1.372510
     13          1           0        1.851433   -1.428982   -1.243420
     14          1           0        0.692168   -0.409497   -2.136520
     15          1           0       -2.578084   -1.862219    0.032749
 ---------------------------------------------------------------------

 SCF Done:  E(RHF) =  -307.993443372     A.U. after    2 cycles

 The electronic state is 1-A.
 Alpha  occ. eigenvalues --  -21.07707 -11.56049 -11.49907 -11.45412 -11.43427
 Alpha  occ. eigenvalues --  -11.39386 -11.32218  -1.74917  -1.29770  -1.15850
 Alpha  occ. eigenvalues --   -1.08461  -0.91686  -0.84010  -0.71493  -0.66995
 Alpha  occ. eigenvalues --   -0.64699  -0.62488  -0.59657  -0.59318  -0.55643
 Alpha  occ. eigenvalues --   -0.55590  -0.47022  -0.46435  -0.32683  -0.31831
 Alpha  occ. eigenvalues --   -0.28692
 Alpha virt. eigenvalues --    0.02204   0.03438   0.04198   0.04815   0.05240
 Alpha virt. eigenvalues --    0.05736   0.06506   0.07514   0.07889   0.10098
 Alpha virt. eigenvalues --    0.10173   0.11581   0.12091   0.12199   0.12891

 Mulliken charges:
               1
     1  C   -4.166256
     2  C   -0.564004
     3  C   -4.174442
     4  C    5.459360
     5  O   -2.914132
     6  C   -2.697316
     7  C   -1.951364
     8  H    1.230574
     9  H    1.248369
    10  H    1.362489
    11  H    1.846492
    12  H    1.220469
    13  H    1.295983
    14  H    1.354974
    15  H    1.448803
 Sum of Mulliken charges =   0.00000

 Dipole moment (field-independent basis, Debye):
    X=              6.9498    Y=             -2.0500    Z=              0.0143  Tot=              7.2458

 Test job not archived.
 1\1\GINC-SE252\SP\RHF\Aug-CC-pVDZ\C6H8O1\OHZDE\09-Apr-2025\0\\#t hf au
 g-cc-pvdz iop(5/13=1,5/36=2,99/5=2) pseudo=read geom=check guess=(read
 ,tcheck) scf=(maxcycle=1)\\title\\0,1\C,0,-0.57115531,0.71615737,-1.40
 992336\C,0,-0.25532427,0.23975123,-0.04049475\C,0,-1.34207082,-0.39968
 888,0.74233711\C,0,0.86143389,0.96730362,0.7405091\O,0,0.26253934,1.97
 775774,1.03683368\C,0,2.16949258,0.38869207,0.92292685\C,0,2.09128705,
 -0.76917422,0.29240565\H,0,-1.41338656,1.41448712,-1.39329289\H,0,-0.8
 8815245,-0.14581083,-2.0026406\H,0,0.28505659,1.18650173,-1.88833618\H

 Normal termination of Gaussian 16 at Wed Apr  9 04:05:58 2025.
