 Gaussian 16, Revision C.01,

 ----------------------------------------------------------------------
 #t hf aug-cc-pvdz symm=none int=(grid=ultrafine) guess=(read,tcheck) s
 table=(opt,rrhf)
 ----------------------------------------------------------------------
 -----
 title
 -----
 Symbolic Z-matrix:
 Charge =  0 Multiplicity = 1

 SCF Done:  E(RHF) =  -359.580482159     A.U. after   17 cycles
 Normal termination of Gaussian 16 at Wed Apr  9 19:33:49 2025.
 Gaussian 16:  ES64L-G16RevC.01  3-Jul-2019

 ----------------------------------------------------------------------
 #t hf aug-cc-pvdz iop(5/13=1,5/36=2,99/5=2) pseudo=read geom=check gue
 ss=(read,tcheck) scf=(maxcycle=1)
 ----------------------------------------------------------------------
 -----
 title
 -----
 Structure from the checkpoint file:  "Grambow2020_wb97xd3_009406_forward_mol1.chk"
 Charge =  0 Multiplicity = 1

                         Standard orientation:
 ---------------------------------------------------------------------
 Center     Atomic      Atomic             Coordinates (Angstroms)
 Number     Number       Type             X           Y           Z
 ---------------------------------------------------------------------
      1          8           0       -1.792126    0.106030   -0.576966
      2          6           0       -0.907730    0.332998    0.486025
      3          6           0       -0.099671   -0.975297    0.708884
      4          8           0        0.187916   -1.599266   -0.420857
      5          6           0        1.609426   -0.167033   -0.109181
      6          7           0        1.291227    0.954447   -0.395639
      7          6           0        0.050123    1.498746    0.153440
      8          1           0       -1.374762   -0.606453   -1.090727
      9          1           0       -1.490622    0.587976    1.374805
     10          1           0        0.963228   -0.562172    1.200755
     11          1           0       -0.461586   -1.585404    1.555080
     12          1           0        2.343431   -0.948054   -0.189679
     13          1           0        0.320156    2.081945    1.038766
     14          1           0       -0.417641    2.160440   -0.571963
 ---------------------------------------------------------------------

 SCF Done:  E(RHF) =  -361.220603799     A.U. after    2 cycles

 The electronic state is 1-A.
 Alpha  occ. eigenvalues --  -21.05201 -20.97762 -15.78381 -11.56230 -11.51138
 Alpha  occ. eigenvalues --  -11.46871 -11.40883  -1.73924  -1.64378  -1.44862
 Alpha  occ. eigenvalues --   -1.12192  -1.02918  -0.87582  -0.84048  -0.73734
 Alpha  occ. eigenvalues --   -0.67483  -0.65421  -0.62292  -0.54971  -0.54526
 Alpha  occ. eigenvalues --   -0.49931  -0.45944  -0.43671  -0.39552  -0.31988
 Alpha  occ. eigenvalues --   -0.27146  -0.24641
 Alpha virt. eigenvalues --    0.03417   0.04438   0.05032   0.05295   0.05793
 Alpha virt. eigenvalues --    0.07088   0.08384   0.09126   0.09506   0.11331
 Alpha virt. eigenvalues --    0.12364   0.12741   0.13835   0.14053   0.14567

 Mulliken charges:
               1
     1  O   -3.191066
     2  C    1.718975
     3  C   -0.702548
     4  O   -2.517549
     5  C    1.205540
     6  N   -3.104943
     7  C   -2.714452
     8  H    0.721105
     9  H    1.716264
    10  H    1.700060
    11  H    1.246860
    12  H    1.180755
    13  H    1.390743
    14  H    1.350256
 Sum of Mulliken charges =  -0.00000

 Dipole moment (field-independent basis, Debye):
    X=              1.6729    Y=              0.7974    Z=              1.3684  Tot=              2.3037

 Test job not archived.
 1\1\GINC-SE362\SP\RHF\Aug-CC-pVDZ\C4H7N1O2\OHZDE\09-Apr-2025\0\\#t hf
 aug-cc-pvdz iop(5/13=1,5/36=2,99/5=2) pseudo=read geom=check guess=(re
 ad,tcheck) scf=(maxcycle=1)\\title\\0,1\O,0,-1.27014103,-0.78257725,1.
 29140499\C,0,-0.97338262,-0.06842715,0.12283996\C,0,0.02231619,1.06122
 624,0.50589336\O,0,0.8916519,0.68731757,1.42936843\C,0,1.60569684,0.09
 422396,-0.38928665\N,0,1.1172403,-0.90518458,-0.84052729\C,0,-0.338913
 94,-0.99982219,-0.93405117\H,0,-0.50106631,-0.63351267,1.86766946\H,0,
 -1.90215184,0.3482741,-0.27522265\H,0,0.64398015,1.25100817,-0.5523502

 Normal termination of Gaussian 16 at Wed Apr  9 19:33:53 2025.
