 Gaussian 16, Revision C.01,

 ----------------------------------------------------------------------
 #t hf aug-cc-pvdz symm=none int=(grid=ultrafine) guess=(read,tcheck) s
 table=(opt,rrhf)
 ----------------------------------------------------------------------
 -----
 title
 -----
 Symbolic Z-matrix:
 Charge =  0 Multiplicity = 1

 SCF Done:  E(RHF) =  -354.523160400     A.U. after   17 cycles
 Normal termination of Gaussian 16 at Wed Apr  9 18:36:17 2025.
 Gaussian 16:  ES64L-G16RevC.01  3-Jul-2019

 ----------------------------------------------------------------------
 #t hf aug-cc-pvdz iop(5/13=1,5/36=2,99/5=2) pseudo=read geom=check gue
 ss=(read,tcheck) scf=(maxcycle=1)
 ----------------------------------------------------------------------
 -----
 title
 -----
 Structure from the checkpoint file:  "Grambow2020_wb97xd3_007321_forward_mol1.chk"
 Charge =  0 Multiplicity = 1

                         Standard orientation:
 ---------------------------------------------------------------------
 Center     Atomic      Atomic             Coordinates (Angstroms)
 Number     Number       Type             X           Y           Z
 ---------------------------------------------------------------------
      1          8           0        1.275143   -0.059144    1.068458
      2          6           0        1.738009   -0.039832   -0.232063
      3          6           0        0.329614    0.049101   -0.781972
      4          7           0       -0.396484   -1.113604   -0.443073
      5          7           0       -1.418699   -0.668975    0.142453
      6          6           0       -1.250877    0.732966    0.382113
      7          7           0       -0.355157    1.152390   -0.578077
      8          1           0       -0.291309    0.566320    1.191877
      9          1           0        2.243233   -0.967127   -0.531035
     10          1           0        2.334858    0.836901   -0.504555
     11          1           0       -2.068685   -1.310165    0.575933
     12          1           0       -2.127338    1.305126    0.662531
 ---------------------------------------------------------------------

 SCF Done:  E(RHF) =  -356.123498234     A.U. after    2 cycles

 The electronic state is 1-A.
 Alpha  occ. eigenvalues --  -20.96327 -15.90767 -15.86114 -15.75548 -11.50195
 Alpha  occ. eigenvalues --  -11.45754 -11.40309  -1.74757  -1.59563  -1.37615
 Alpha  occ. eigenvalues --   -1.22099  -0.97877  -0.93792  -0.82037  -0.77622
 Alpha  occ. eigenvalues --   -0.75250  -0.64811  -0.57676  -0.55920  -0.51984
 Alpha  occ. eigenvalues --   -0.50623  -0.45217  -0.40550  -0.34583  -0.26056
 Alpha  occ. eigenvalues --   -0.24255
 Alpha virt. eigenvalues --    0.02433   0.04222   0.06045   0.06827   0.07366
 Alpha virt. eigenvalues --    0.07493   0.08558   0.09570   0.11114   0.11888
 Alpha virt. eigenvalues --    0.12993   0.13617   0.14387   0.14802   0.15142

 Mulliken charges:
               1
     1  O   -2.108790
     2  C   -0.496100
     3  C    2.856790
     4  N   -1.379634
     5  N   -1.452719
     6  C   -0.788874
     7  N   -2.766610
     8  H    1.304859
     9  H    1.419804
    10  H    1.361368
    11  H    0.852027
    12  H    1.197879
 Sum of Mulliken charges =   0.00000

 Dipole moment (field-independent basis, Debye):
    X=             -4.0909    Y=             -1.7010    Z=              1.1463  Tot=              4.5763

 Test job not archived.
 1\1\GINC-SE115\SP\RHF\Aug-CC-pVDZ\C3H5N3O1\OHZDE\09-Apr-2025\0\\#t hf
 aug-cc-pvdz iop(5/13=1,5/36=2,99/5=2) pseudo=read geom=check guess=(re
 ad,tcheck) scf=(maxcycle=1)\\title\\0,1\O,0,-1.24921176,0.98428802,0.1
 7247861\C,0,-1.7446491,-0.26503257,-0.1432946\C,0,-0.35044541,-0.81442
 471,-0.3629512\N,0,0.26808304,-0.1470139,-1.44273766\N,0,1.34497256,0.
 28333156,-0.952258\C,0,1.32156233,0.09931487,0.46782341\N,0,0.44418244
 ,-0.94328088,0.67613246\H,0,0.3736464,0.9206653,0.64417061\H,0,-2.3461
 8417,-0.2785605,-1.06116337\H,0,-2.26061092,-0.78456842,0.67095851\H,0

 Normal termination of Gaussian 16 at Wed Apr  9 18:36:21 2025.
