 Gaussian 16, Revision C.01,

 ----------------------------------------------------------------------
 #t hf aug-cc-pvdz symm=none int=(grid=ultrafine) guess=(read,tcheck) s
 table=(opt,rrhf)
 ----------------------------------------------------------------------
 -----
 title
 -----
 Symbolic Z-matrix:
 Charge =  0 Multiplicity = 1

 SCF Done:  E(RHF) =  -322.600078620     A.U. after   15 cycles
 Normal termination of Gaussian 16 at Wed Apr  9 18:40:33 2025.
 Gaussian 16:  ES64L-G16RevC.01  3-Jul-2019

 ----------------------------------------------------------------------
 #t hf aug-cc-pvdz iop(5/13=1,5/36=2,99/5=2) pseudo=read geom=check gue
 ss=(read,tcheck) scf=(maxcycle=1)
 ----------------------------------------------------------------------
 -----
 title
 -----
 Structure from the checkpoint file:  "Grambow2020_wb97xd3_007392_reverse_mol1.chk"
 Charge =  0 Multiplicity = 1

                         Standard orientation:
 ---------------------------------------------------------------------
 Center     Atomic      Atomic             Coordinates (Angstroms)
 Number     Number       Type             X           Y           Z
 ---------------------------------------------------------------------
      1          6           0       -1.796240   -0.188143    0.801847
      2          6           0       -0.786212    0.996477   -0.250283
      3          6           0        0.699107    1.296905   -0.214183
      4          8           0        1.460166    0.291598    0.438266
      5          6           0        1.161475   -0.975688    0.066990
      6          7           0        0.069191   -1.399304   -0.385075
      7          6           0       -1.067176   -0.511213   -0.434860
      8          1           0       -1.087180   -0.373763    1.627656
      9          1           0       -1.307876    1.290681    0.731397
     10          1           0       -1.332671    1.598512   -0.970805
     11          1           0        0.916194    2.225113    0.310573
     12          1           0        1.054102    1.388474   -1.247175
     13          1           0        2.004925   -1.642309    0.224158
     14          1           0       -1.678878   -0.734395   -1.303483
 ---------------------------------------------------------------------

 SCF Done:  E(RHF) =  -324.075198171     A.U. after    2 cycles

 The electronic state is 1-A.
 Alpha  occ. eigenvalues --  -21.09718 -15.72915 -11.49803 -11.46471 -11.45418
 Alpha  occ. eigenvalues --  -11.42493 -11.38582  -1.82609  -1.40637  -1.25712
 Alpha  occ. eigenvalues --   -1.04478  -0.95141  -0.84895  -0.77327  -0.71372
 Alpha  occ. eigenvalues --   -0.65281  -0.63837  -0.58902  -0.56718  -0.56074
 Alpha  occ. eigenvalues --   -0.50721  -0.46100  -0.43466  -0.35609  -0.33767
 Alpha  occ. eigenvalues --   -0.29673
 Alpha virt. eigenvalues --    0.03241   0.04949   0.05088   0.05589   0.05950
 Alpha virt. eigenvalues --    0.06621   0.07494   0.09211   0.10264   0.11695
 Alpha virt. eigenvalues --    0.12608   0.13061   0.13354   0.13846   0.14016

 Mulliken charges:
               1
     1  C   -1.399007
     2  C   -1.713894
     3  C   -1.629148
     4  O   -3.218680
     5  C    2.086246
     6  N   -3.119725
     7  C   -0.700281
     8  H    1.069039
     9  H    1.498439
    10  H    1.229288
    11  H    1.267460
    12  H    1.376588
    13  H    1.767935
    14  H    1.485740
 Sum of Mulliken charges =   0.00000

 Dipole moment (field-independent basis, Debye):
    X=              2.5368    Y=              2.3390    Z=             -0.7608  Tot=              3.5334

 Test job not archived.
 1\1\GINC-SE045\SP\RHF\Aug-CC-pVDZ\C5H7N1O1\OHZDE\09-Apr-2025\0\\#t hf
 aug-cc-pvdz iop(5/13=1,5/36=2,99/5=2) pseudo=read geom=check guess=(re
 ad,tcheck) scf=(maxcycle=1)\\title\\0,1\C,0,-1.53638244,-1.09028992,0.
 28270856\C,0,-0.77693242,0.44976935,-0.48012371\C,0,0.36570298,1.31300
 217,0.01681242\O,0,1.18839588,0.66079328,0.97250207\C,0,1.5523556,-0.6
 002667,0.6403325\N,0,0.93518564,-1.39919811,-0.10646463\C,0,-0.3672991
 7,-1.03403939,-0.60916268\H,0,-1.13645966,-1.02080201,1.3095558\H,0,-1
 .67078959,0.46237188,0.24323295\H,0,-1.23559197,0.82109202,-1.3922454\

 Normal termination of Gaussian 16 at Wed Apr  9 18:40:38 2025.
