 Gaussian 16, Revision C.01,

 ----------------------------------------------------------------------
 #t hf aug-cc-pvdz symm=none int=(grid=ultrafine) guess=(read,tcheck) s
 table=(opt,rrhf)
 ----------------------------------------------------------------------
 -----
 title
 -----
 Symbolic Z-matrix:
 Charge =  0 Multiplicity = 1

 SCF Done:  E(RHF) =  -373.258172998     A.U. after   20 cycles
 Normal termination of Gaussian 16 at Wed Apr  9 03:27:59 2025.
 Gaussian 16:  ES64L-G16RevC.01  3-Jul-2019

 ----------------------------------------------------------------------
 #t hf aug-cc-pvdz iop(5/13=1,5/36=2,99/5=2) pseudo=read geom=check gue
 ss=(read,tcheck) scf=(maxcycle=1)
 ----------------------------------------------------------------------
 -----
 title
 -----
 Structure from the checkpoint file:  "Grambow2020_wb97xd3_006708_forward_mol1.chk"
 Charge =  0 Multiplicity = 1

                         Standard orientation:
 ---------------------------------------------------------------------
 Center     Atomic      Atomic             Coordinates (Angstroms)
 Number     Number       Type             X           Y           Z
 ---------------------------------------------------------------------
      1          8           0       -2.412353   -0.666876   -0.333324
      2          6           0       -1.748341    0.091682    0.299539
      3          6           0       -0.241311    0.336683    0.059970
      4          7           0        0.464891   -0.783900    0.000545
      5          6           0        1.861710   -0.789614    0.188719
      6          7           0        2.246119    0.271208   -0.277495
      7          8           0        0.108831    1.496929   -0.041604
      8          1           0       -2.159949    0.774234    1.065542
      9          1           0        2.378703   -1.658326    0.583159
 ---------------------------------------------------------------------

 SCF Done:  E(RHF) =  -374.807208468     A.U. after    2 cycles

 The electronic state is 1-A.
 Alpha  occ. eigenvalues --  -21.08537 -21.05580 -15.90684 -15.78110 -11.53262
 Alpha  occ. eigenvalues --  -11.51948 -11.47995  -1.75484  -1.71076  -1.50818
 Alpha  occ. eigenvalues --   -1.26790  -0.98802  -0.90929  -0.77591  -0.66793
 Alpha  occ. eigenvalues --   -0.64776  -0.61448  -0.57772  -0.56092  -0.50589
 Alpha  occ. eigenvalues --   -0.44918  -0.43406  -0.35562  -0.32063  -0.27526
 Alpha virt. eigenvalues --    0.00979   0.02533   0.05294   0.07369   0.08694
 Alpha virt. eigenvalues --    0.09981   0.10780   0.11195   0.12182   0.12487
 Alpha virt. eigenvalues --    0.13935   0.14290   0.14828   0.15712   0.16468

 Mulliken charges:
               1
     1  O   -2.540549
     2  C    0.699705
     3  C    4.417030
     4  N   -2.664170
     5  C    1.552529
     6  N   -1.763231
     7  O   -2.851458
     8  H    1.553356
     9  H    1.596786
 Sum of Mulliken charges =  -0.00000

 Dipole moment (field-independent basis, Debye):
    X=              3.0331    Y=             -1.4835    Z=              1.4010  Tot=              3.6556

 Test job not archived.
 1\1\GINC-SE403\SP\RHF\Aug-CC-pVDZ\C3H2N2O2\OHZDE\09-Apr-2025\0\\#t hf
 aug-cc-pvdz iop(5/13=1,5/36=2,99/5=2) pseudo=read geom=check guess=(re
 ad,tcheck) scf=(maxcycle=1)\\title\\0,1\O,0,-2.23247643,1.29368389,0.0
 9014712\C,0,-1.80425649,0.18960938,-0.03020711\C,0,-0.35891647,-0.2259
 9455,0.32591748\N,0,0.55774875,0.56731312,-0.21106265\C,0,1.89937548,0
 .15903029,-0.35208816\N,0,2.11365344,-0.5559685,0.61400194\O,0,-0.2370
 269,-1.20565495,1.03619528\H,0,-2.42316,-0.67932546,-0.31998464\H,0,2.
 53285662,0.5505898,-1.14133326\\Version=ES64L-G16RevC.01\State=1-A\HF=

 Normal termination of Gaussian 16 at Wed Apr  9 03:28:02 2025.
