 Gaussian 16, Revision C.01,

 ----------------------------------------------------------------------
 #t hf aug-cc-pvdz symm=none int=(grid=ultrafine) guess=(read,tcheck) s
 table=(opt,rrhf)
 ----------------------------------------------------------------------
 -----
 title
 -----
 Symbolic Z-matrix:
 Charge =  0 Multiplicity = 1

 SCF Done:  E(RHF) =  -359.801743699     A.U. after   13 cycles
 Normal termination of Gaussian 16 at Wed Apr  9 19:10:57 2025.
 Gaussian 16:  ES64L-G16RevC.01  3-Jul-2019

 ----------------------------------------------------------------------
 #t hf aug-cc-pvdz iop(5/13=1,5/36=2,99/5=2) pseudo=read geom=check gue
 ss=(read,tcheck) scf=(maxcycle=1)
 ----------------------------------------------------------------------
 -----
 title
 -----
 Structure from the checkpoint file:  "Grambow2020_wb97xd3_008267_forward_mol2.chk"
 Charge =  0 Multiplicity = 1

                         Standard orientation:
 ---------------------------------------------------------------------
 Center     Atomic      Atomic             Coordinates (Angstroms)
 Number     Number       Type             X           Y           Z
 ---------------------------------------------------------------------
      1          6           0        1.992161   -0.673084   -0.581430
      2          6           0        1.079333   -0.128456    0.496990
      3          6           0        0.605990    1.311996    0.236550
      4          7           0       -0.675972    1.051356   -0.370296
      5          6           0       -1.149842   -0.189219   -0.029093
      6          8           0       -2.251442   -0.625525   -0.189617
      7          8           0       -0.135253   -0.890575    0.535226
      8          1           0        1.536347   -0.550735   -1.566160
      9          1           0        2.180823   -1.733731   -0.416575
     10          1           0        2.947425   -0.144446   -0.571407
     11          1           0        1.543583   -0.224924    1.478806
     12          1           0        1.281560    1.839162   -0.439113
     13          1           0        0.518407    1.885534    1.164965
     14          1           0       -1.348640    1.771027   -0.561423
 ---------------------------------------------------------------------

 SCF Done:  E(RHF) =  -361.398443112     A.U. after    2 cycles

 The electronic state is 1-A.
 Alpha  occ. eigenvalues --  -21.08544 -21.02802 -15.76791 -11.51400 -11.49744
 Alpha  occ. eigenvalues --  -11.43850 -11.38508  -1.86354  -1.66837  -1.40508
 Alpha  occ. eigenvalues --   -1.17514  -1.01852  -0.87479  -0.83185  -0.72259
 Alpha  occ. eigenvalues --   -0.67833  -0.62127  -0.60234  -0.57048  -0.54963
 Alpha  occ. eigenvalues --   -0.52910  -0.50467  -0.48242  -0.41931  -0.34744
 Alpha  occ. eigenvalues --   -0.31163  -0.29441
 Alpha virt. eigenvalues --    0.03103   0.04682   0.04959   0.05154   0.05315
 Alpha virt. eigenvalues --    0.06223   0.06888   0.10102   0.11021   0.12044
 Alpha virt. eigenvalues --    0.12886   0.13536   0.13632   0.13987   0.14597

 Mulliken charges:
               1
     1  C   -3.632896
     2  C   -0.260627
     3  C   -2.200740
     4  N   -2.435871
     5  C    5.963488
     6  O   -3.264150
     7  O   -3.152986
     8  H    1.253933
     9  H    1.276678
    10  H    1.184134
    11  H    1.698240
    12  H    1.507022
    13  H    1.362496
    14  H    0.701279
 Sum of Mulliken charges =  -0.00000

 Dipole moment (field-independent basis, Debye):
    X=              2.9113    Y=              2.2314    Z=              0.4873  Tot=              3.7003

 Test job not archived.
 1\1\GINC-SE115\SP\RHF\Aug-CC-pVDZ\C4H7N1O2\OHZDE\09-Apr-2025\0\\#t hf
 aug-cc-pvdz iop(5/13=1,5/36=2,99/5=2) pseudo=read geom=check guess=(re
 ad,tcheck) scf=(maxcycle=1)\\title\\0,1\C,0,-1.46358399,-0.93137097,0.
 08575143\C,0,-0.36937393,-0.22598985,-0.68755578\C,0,0.00292412,1.1520
 4768,-0.11380399\N,0,1.14484077,0.79156478,0.68975084\C,0,1.71100909,-
 0.38090582,0.25990721\O,0,2.77003074,-0.84263768,0.56801426\O,0,0.8488
 6631,-0.97816163,-0.60017601\H,0,-1.21673462,-0.97008559,1.14876377\H,
 0,-1.5864786,-1.9511424,-0.27853893\H,0,-2.41179195,-0.40324469,-0.032

 Normal termination of Gaussian 16 at Wed Apr  9 19:11:01 2025.
