 Gaussian 16, Revision C.01,

 ----------------------------------------------------------------------
 #t hf aug-cc-pvdz symm=none int=(grid=ultrafine) guess=(read,tcheck) s
 table=(opt,rrhf)
 ----------------------------------------------------------------------
 -----
 title
 -----
 Symbolic Z-matrix:
 Charge =  0 Multiplicity = 1

 SCF Done:  E(RHF) =  -306.503305620     A.U. after   16 cycles
 Normal termination of Gaussian 16 at Wed Apr  9 19:14:06 2025.
 Gaussian 16:  ES64L-G16RevC.01  3-Jul-2019

 ----------------------------------------------------------------------
 #t hf aug-cc-pvdz iop(5/13=1,5/36=2,99/5=2) pseudo=read geom=check gue
 ss=(read,tcheck) scf=(maxcycle=1)
 ----------------------------------------------------------------------
 -----
 title
 -----
 Structure from the checkpoint file:  "Grambow2020_wb97xd3_008435_reverse_mol1.chk"
 Charge =  0 Multiplicity = 1

                         Standard orientation:
 ---------------------------------------------------------------------
 Center     Atomic      Atomic             Coordinates (Angstroms)
 Number     Number       Type             X           Y           Z
 ---------------------------------------------------------------------
      1          6           0       -1.652290   -0.402590   -0.486943
      2          6           0        0.029899   -1.187887   -0.200531
      3          6           0        1.165022   -0.273750   -0.467877
      4          8           0        0.770301    1.101236   -0.618166
      5          6           0       -0.143162    1.375638    0.414600
      6          6           0       -1.028761    0.165404    0.607168
      7          6           0        1.002787   -0.864638    0.839563
      8          1           0       -1.517162    0.028611   -1.468823
      9          1           0       -2.413010   -1.159334   -0.357741
     10          1           0       -0.221740   -2.139744   -0.653430
     11          1           0        1.892743   -0.517990   -1.234415
     12          1           0       -0.753815    2.223770    0.088695
     13          1           0        0.356272    1.604656    1.356897
     14          1           0       -1.317726   -0.109870    1.611323
     15          1           0        1.571054   -1.613046    1.366947
 ---------------------------------------------------------------------

 SCF Done:  E(RHF) =  -307.969407550     A.U. after    2 cycles

 The electronic state is 1-A.
 Alpha  occ. eigenvalues --  -21.03732 -11.52637 -11.47307 -11.43569 -11.42583
 Alpha  occ. eigenvalues --  -11.41275 -11.31871  -1.76687  -1.32332  -1.17734
 Alpha  occ. eigenvalues --   -1.00700  -0.85340  -0.79858  -0.77870  -0.73481
 Alpha  occ. eigenvalues --   -0.67775  -0.62352  -0.57961  -0.54675  -0.51096
 Alpha  occ. eigenvalues --   -0.48632  -0.45234  -0.43350  -0.35648  -0.27854
 Alpha  occ. eigenvalues --   -0.22629
 Alpha virt. eigenvalues --    0.03755   0.04482   0.04817   0.05103   0.05642
 Alpha virt. eigenvalues --    0.06501   0.06673   0.07235   0.09272   0.11627
 Alpha virt. eigenvalues --    0.12121   0.12836   0.13306   0.13518   0.14024

 Mulliken charges:
               1
     1  C   -3.156143
     2  C   -0.561092
     3  C    0.960431
     4  O   -3.227839
     5  C   -1.304719
     6  C   -1.469775
     7  C   -1.903516
     8  H    1.387711
     9  H    1.358092
    10  H    1.164405
    11  H    1.355023
    12  H    1.384455
    13  H    1.475426
    14  H    1.423249
    15  H    1.114293
 Sum of Mulliken charges =   0.00000

 Dipole moment (field-independent basis, Debye):
    X=             -2.6677    Y=             -0.6149    Z=             -0.9446  Tot=              2.8960

 Test job not archived.
 1\1\GINC-SE162\SP\RHF\Aug-CC-pVDZ\C6H8O1\OHZDE\09-Apr-2025\0\\#t hf au
 g-cc-pvdz iop(5/13=1,5/36=2,99/5=2) pseudo=read geom=check guess=(read
 ,tcheck) scf=(maxcycle=1)\\title\\0,1\C,0,0.67727686,1.4079331,0.44627
 852\C,0,0.99618481,-0.20681375,-0.45891537\C,0,0.32507559,-1.37535187,
 0.15732748\O,0,-0.65593318,-1.01696238,1.146345\C,0,-1.40938935,0.0394
 0355,0.60531454\C,0,-0.4775783,0.95201747,-0.15947215\C,0,0.04014404,-
 1.01458024,-1.21144045\H,0,0.90020869,1.12394128,1.46506774\H,0,1.2721
 8312,2.1845123,-0.01313519\H,0,2.04870369,-0.0196523,-0.63681266\H,0,0

 Normal termination of Gaussian 16 at Wed Apr  9 19:14:11 2025.
