 Gaussian 16, Revision C.01,

 ----------------------------------------------------------------------
 #t hf aug-cc-pvdz symm=none int=(grid=ultrafine) guess=(read,tcheck) s
 table=(opt,rrhf)
 ----------------------------------------------------------------------
 -----
 title
 -----
 Symbolic Z-matrix:
 Charge =  0 Multiplicity = 1

 SCF Done:  E(RHF) =  -269.891898463     A.U. after   15 cycles

 1\1\GINC-SE177\Stability\RHF\Aug-CC-pVDZ\C5H10O1\OHZDE\09-Apr-2025\0\\
 #t hf aug-cc-pvdz symm=none int=(grid=ultrafine) guess=(read,tcheck) s
 table=(opt,rrhf)\\title\\0,1\C,0,1.68710538,0.41862261,-0.99992918\C,0
 ,0.80626822,0.8813997,0.17018453\C,0,0.19690198,-0.30442441,0.8987658\
 O,0,-0.85793949,0.12194039,1.8253703\C,0,-0.98660814,-1.08921683,0.410
 86349\C,0,-1.76106757,-0.55194058,-0.74887721\H,0,2.47537123,-0.267443
 71,-0.65712256\H,0,2.17416769,1.27423362,-1.48667326\H,0,1.09171308,-0
 .10903921,-1.75851396\H,0,1.40926958,1.45979552,0.88684486\H,0,0.01327

 Normal termination of Gaussian 16 at Wed Apr  9 03:09:05 2025.
 Gaussian 16:  ES64L-G16RevC.01  3-Jul-2019

 ----------------------------------------------------------------------
 #t hf aug-cc-pvdz iop(5/13=1,5/36=2,99/5=2) pseudo=read geom=check gue
 ss=(read,tcheck) scf=(maxcycle=1)
 ----------------------------------------------------------------------
 -----
 title
 -----
 Structure from the checkpoint file:  "Grambow2020_b97d3_006618_reverse_mol1.chk"
 Charge =  0 Multiplicity = 1

                         Standard orientation:
 ---------------------------------------------------------------------
 Center     Atomic      Atomic             Coordinates (Angstroms)
 Number     Number       Type             X           Y           Z
 ---------------------------------------------------------------------
      1          6           0        2.163536    0.503358   -0.186224
      2          6           0        1.146831   -0.428801    0.489494
      3          6           0       -0.041331   -0.693567   -0.419630
      4          8           0       -1.138572   -1.340077    0.309178
      5          6           0       -1.175241    0.265121   -0.642811
      6          6           0       -1.269387    1.466135    0.241583
      7          1           0        2.501066    0.092495   -1.148945
      8          1           0        3.048833    0.644203    0.448308
      9          1           0        1.724974    1.492442   -0.380508
     10          1           0        1.623792   -1.391138    0.730679
     11          1           0        0.804106   -0.002698    1.441295
     12          1           0        0.260420   -1.264726   -1.310474
     13          1           0       -1.909981   -1.002161   -0.399754
     14          1           0       -0.632050    1.492276    1.139845
     15          1           0       -2.308802    1.684139    0.522199
     16          1           0       -0.950232    2.302300   -0.410547
 ---------------------------------------------------------------------

 SCF Done:  E(RHF) =  -271.211867123     A.U. after    2 cycles

 The electronic state is 1-A.
 Alpha  occ. eigenvalues --  -21.07616 -11.47822 -11.42399 -11.40934 -11.38454
 Alpha  occ. eigenvalues --  -11.36819  -1.74146  -1.20170  -1.11571  -0.97419
 Alpha  occ. eigenvalues --   -0.88822  -0.77508  -0.67397  -0.61172  -0.59801
 Alpha  occ. eigenvalues --   -0.57948  -0.56673  -0.51590  -0.50619  -0.48126
 Alpha  occ. eigenvalues --   -0.45662  -0.40049  -0.33906  -0.30222
 Alpha virt. eigenvalues --    0.03811   0.05053   0.05347   0.05772   0.06037
 Alpha virt. eigenvalues --    0.06185   0.06941   0.07083   0.07786   0.09516
 Alpha virt. eigenvalues --    0.10515   0.12171   0.13343   0.13852   0.14588

 Mulliken charges:
               1
     1  C   -3.627686
     2  C   -3.472686
     3  C    1.281106
     4  O   -2.473032
     5  C   -1.348139
     6  C   -3.691719
     7  H    1.229001
     8  H    1.149584
     9  H    1.423021
    10  H    1.244828
    11  H    1.448430
    12  H    1.562288
    13  H    1.261596
    14  H    1.478493
    15  H    1.184046
    16  H    1.350869
 Sum of Mulliken charges =   0.00000

 Dipole moment (field-independent basis, Debye):
    X=              1.2771    Y=             -0.4891    Z=              1.4533  Tot=              1.9955

 Test job not archived.
 1\1\GINC-SE177\SP\RHF\Aug-CC-pVDZ\C5H10O1\OHZDE\09-Apr-2025\0\\#t hf a
 ug-cc-pvdz iop(5/13=1,5/36=2,99/5=2) pseudo=read geom=check guess=(rea
 d,tcheck) scf=(maxcycle=1)\\title\\0,1\C,0,1.68710538,0.41862261,-0.99
 992918\C,0,0.80626822,0.8813997,0.17018453\C,0,0.19690198,-0.30442441,
 0.8987658\O,0,-0.85793949,0.12194039,1.8253703\C,0,-0.98660814,-1.0892
 1683,0.41086349\C,0,-1.76106757,-0.55194058,-0.74887721\H,0,2.47537123
 ,-0.26744371,-0.65712256\H,0,2.17416769,1.27423362,-1.48667326\H,0,1.0
 9171308,-0.10903921,-1.75851396\H,0,1.40926958,1.45979552,0.88684486\H

 Normal termination of Gaussian 16 at Wed Apr  9 03:09:10 2025.
