 Gaussian 16, Revision C.01,

 ----------------------------------------------------------------------
 #t hf aug-cc-pvdz symm=none int=(grid=ultrafine) guess=(read,tcheck) s
 table=(opt,rrhf)
 ----------------------------------------------------------------------
 -----
 title
 -----
 Symbolic Z-matrix:
 Charge =  0 Multiplicity = 1

 SCF Done:  E(RHF) =  -337.573289003     A.U. after   14 cycles
 Normal termination of Gaussian 16 at Wed Apr  9 03:58:26 2025.
 Gaussian 16:  ES64L-G16RevC.01  3-Jul-2019

 ----------------------------------------------------------------------
 #t hf aug-cc-pvdz iop(5/13=1,5/36=2,99/5=2) pseudo=read geom=check gue
 ss=(read,tcheck) scf=(maxcycle=1)
 ----------------------------------------------------------------------
 -----
 title
 -----
 Structure from the checkpoint file:  "Grambow2020_wb97xd3_008701_reverse_mol2.chk"
 Charge =  0 Multiplicity = 1

                         Standard orientation:
 ---------------------------------------------------------------------
 Center     Atomic      Atomic             Coordinates (Angstroms)
 Number     Number       Type             X           Y           Z
 ---------------------------------------------------------------------
      1          8           0       -2.452469   -0.328255   -0.000443
      2          6           0       -1.518192    0.596580   -0.000107
      3          6           0       -0.201001    0.291603    0.000787
      4          6           0        0.969451    1.120528    0.000130
      5          7           0        2.028734    0.364788   -0.000701
      6          6           0        1.512788   -0.928284   -0.000285
      7          7           0        0.221361   -1.035382    0.000933
      8          1           0       -1.900731    1.610580   -0.001362
      9          1           0        1.017021    2.201980    0.001619
     10          1           0        2.173785   -1.784823   -0.001339
     11          1           0       -1.999264   -1.190101   -0.000144
 ---------------------------------------------------------------------

 SCF Done:  E(RHF) =  -339.070777818     A.U. after    2 cycles

 The electronic state is 1-A.
 Alpha  occ. eigenvalues --  -21.14583 -15.73276 -15.73029 -11.52235 -11.46717
 Alpha  occ. eigenvalues --  -11.42776 -11.40798  -1.81220  -1.54586  -1.25684
 Alpha  occ. eigenvalues --   -1.12957  -0.95780  -0.82983  -0.78589  -0.74243
 Alpha  occ. eigenvalues --   -0.63272  -0.60335  -0.57631  -0.55201  -0.50376
 Alpha  occ. eigenvalues --   -0.49029  -0.41666  -0.37787  -0.36391  -0.30707
 Alpha virt. eigenvalues --    0.03295   0.05191   0.05682   0.06469   0.06479
 Alpha virt. eigenvalues --    0.09514   0.10090   0.10301   0.11910   0.11964
 Alpha virt. eigenvalues --    0.13091   0.13911   0.13914   0.14061   0.15533

 Mulliken charges:
               1
     1  O   -3.381098
     2  C    0.681294
     3  C    3.846041
     4  C   -1.214546
     5  N   -3.028831
     6  C    1.446262
     7  N   -3.476535
     8  H    1.477400
     9  H    1.157811
    10  H    1.530308
    11  H    0.961894
 Sum of Mulliken charges =  -0.00000

 Dipole moment (field-independent basis, Debye):
    X=             -3.3451    Y=              0.9660    Z=             -0.0012  Tot=              3.4817

 Test job not archived.
 1\1\GINC-SE060\SP\RHF\Aug-CC-pVDZ\C4H4N2O1\OHZDE\09-Apr-2025\0\\#t hf
 aug-cc-pvdz iop(5/13=1,5/36=2,99/5=2) pseudo=read geom=check guess=(re
 ad,tcheck) scf=(maxcycle=1)\\title\\0,1\O,0,-1.90965845,-1.57619724,0.
 09396303\C,0,-1.56464994,-0.31049885,0.00929238\C,0,-0.27200693,0.0854
 8847,-0.00717653\C,0,0.32544404,1.38652925,-0.09332417\N,0,1.62081112,
 1.26431799,-0.07559706\C,0,1.82232745,-0.10979292,0.02159569\N,0,0.758
 46321,-0.84837361,0.0657013\H,0,-2.40380648,0.37310091,-0.04586703\H,0
 ,-0.17534421,2.34376002,-0.16205581\H,0,2.82355539,-0.51831581,0.05664

 Normal termination of Gaussian 16 at Wed Apr  9 03:58:30 2025.
