 Gaussian 16, Revision C.01,

 ----------------------------------------------------------------------
 #t hf aug-cc-pvdz symm=none int=(grid=ultrafine) guess=(read,tcheck) s
 table=(opt,rrhf)
 ----------------------------------------------------------------------
 -----
 title
 -----
 Symbolic Z-matrix:
 Charge =  0 Multiplicity = 1

 SCF Done:  E(RHF) =  -269.824387534     A.U. after   15 cycles

 1\1\GINC-SE131\Stability\RHF\Aug-CC-pVDZ\C5H10O1\OHZDE\09-Apr-2025\0\\
 #t hf aug-cc-pvdz symm=none int=(grid=ultrafine) guess=(read,tcheck) s
 table=(opt,rrhf)\\title\\0,1\C,0,-1.40847828,-1.14925348,-0.10076996\C
 ,0,-0.76659501,-0.00910872,0.61833561\C,0,-1.27252862,1.32403104,0.176
 7718\C,0,1.40929955,-0.16546347,0.75271287\C,0,2.20824924,-0.08176528,
 -0.47873258\O,0,0.83014877,0.0589752,-0.81541296\H,0,-1.60226461,-0.98
 562373,-1.17867191\H,0,-2.39140031,-1.27019608,0.39512581\H,0,-0.87073
 346,-2.09811348,0.03190457\H,0,-1.47023453,1.42500027,-0.90818699\H,0,

 Normal termination of Gaussian 16 at Wed Apr  9 16:14:02 2025.
 Gaussian 16:  ES64L-G16RevC.01  3-Jul-2019

 ----------------------------------------------------------------------
 #t hf aug-cc-pvdz iop(5/13=1,5/36=2,99/5=2) pseudo=read geom=check gue
 ss=(read,tcheck) scf=(maxcycle=1)
 ----------------------------------------------------------------------
 -----
 title
 -----
 Structure from the checkpoint file:  "Grambow2020_b97d3_006767_forward_mol1.chk"
 Charge =  0 Multiplicity = 1

                         Standard orientation:
 ---------------------------------------------------------------------
 Center     Atomic      Atomic             Coordinates (Angstroms)
 Number     Number       Type             X           Y           Z
 ---------------------------------------------------------------------
      1          6           0        1.462610    1.252740   -0.118090
      2          6           0        0.962185    0.001860    0.525287
      3          6           0        1.491154   -1.239610   -0.112799
      4          6           0       -1.193122   -0.000547    0.888146
      5          6           0       -2.110317   -0.002998   -0.260998
      6          8           0       -0.769204   -0.015666   -0.744298
      7          1           0        1.551618    1.219642   -1.221350
      8          1           0        2.483813    1.383713    0.290155
      9          1           0        0.890774    2.144306    0.173838
     10          1           0        1.579909   -1.209530   -1.216264
     11          1           0        0.942801   -2.143929    0.184499
     12          1           0        2.515337   -1.341499    0.296653
     13          1           0       -1.063818    0.928392    1.435555
     14          1           0       -1.070126   -0.923113    1.447400
     15          1           0       -2.669605    0.915785   -0.489126
     16          1           0       -2.682127   -0.917109   -0.476261
 ---------------------------------------------------------------------

 SCF Done:  E(RHF) =  -271.135697678     A.U. after    2 cycles

 The electronic state is 1-A.
 Alpha  occ. eigenvalues --  -21.05010 -11.48658 -11.41971 -11.40090 -11.37508
 Alpha  occ. eigenvalues --  -11.34205  -1.71635  -1.16931  -1.03987  -0.99104
 Alpha  occ. eigenvalues --   -0.88929  -0.73119  -0.68722  -0.62419  -0.58249
 Alpha  occ. eigenvalues --   -0.56721  -0.55061  -0.52534  -0.52029  -0.44776
 Alpha  occ. eigenvalues --   -0.43542  -0.40351  -0.30867  -0.25203
 Alpha virt. eigenvalues --    0.03838   0.05383   0.05420   0.05684   0.05759
 Alpha virt. eigenvalues --    0.06181   0.06475   0.07238   0.08602   0.09238
 Alpha virt. eigenvalues --    0.09645   0.12066   0.13048   0.13983   0.15129

 Mulliken charges:
               1
     1  C   -3.687600
     2  C   -0.475300
     3  C   -3.675484
     4  C   -2.797821
     5  C   -1.509829
     6  O   -1.736043
     7  H    1.342894
     8  H    1.199211
     9  H    1.428739
    10  H    1.339895
    11  H    1.422698
    12  H    1.200208
    13  H    1.471817
    14  H    1.458371
    15  H    1.511005
    16  H    1.507240
 Sum of Mulliken charges =  -0.00000

 Dipole moment (field-independent basis, Debye):
    X=             -1.2576    Y=             -0.0041    Z=             -0.7890  Tot=              1.4846

 Test job not archived.
 1\1\GINC-SE131\SP\RHF\Aug-CC-pVDZ\C5H10O1\OHZDE\09-Apr-2025\0\\#t hf a
 ug-cc-pvdz iop(5/13=1,5/36=2,99/5=2) pseudo=read geom=check guess=(rea
 d,tcheck) scf=(maxcycle=1)\\title\\0,1\C,0,-1.40847828,-1.14925348,-0.
 10076996\C,0,-0.76659501,-0.00910872,0.61833561\C,0,-1.27252862,1.3240
 3104,0.1767718\C,0,1.40929955,-0.16546347,0.75271287\C,0,2.20824924,-0
 .08176528,-0.47873258\O,0,0.83014877,0.0589752,-0.81541296\H,0,-1.6022
 6461,-0.98562373,-1.17867191\H,0,-2.39140031,-1.27019608,0.39512581\H,
 0,-0.87073346,-2.09811348,0.03190457\H,0,-1.47023453,1.42500027,-0.908

 Normal termination of Gaussian 16 at Wed Apr  9 16:14:06 2025.
