 Gaussian 16, Revision C.01,

 ----------------------------------------------------------------------
 #t hf aug-cc-pvdz symm=none int=(grid=ultrafine) guess=(read,tcheck) s
 table=(opt,rrhf)
 ----------------------------------------------------------------------
 -----
 title
 -----
 Symbolic Z-matrix:
 Charge =  0 Multiplicity = 1

 SCF Done:  E(RHF) =  -321.361740880     A.U. after   17 cycles
 Normal termination of Gaussian 16 at Wed Apr  9 03:40:14 2025.
 Gaussian 16:  ES64L-G16RevC.01  3-Jul-2019

 ----------------------------------------------------------------------
 #t hf aug-cc-pvdz iop(5/13=1,5/36=2,99/5=2) pseudo=read geom=check gue
 ss=(read,tcheck) scf=(maxcycle=1)
 ----------------------------------------------------------------------
 -----
 title
 -----
 Structure from the checkpoint file:  "Grambow2020_wb97xd3_007501_reverse_mol1.chk"
 Charge =  0 Multiplicity = 1

                         Standard orientation:
 ---------------------------------------------------------------------
 Center     Atomic      Atomic             Coordinates (Angstroms)
 Number     Number       Type             X           Y           Z
 ---------------------------------------------------------------------
      1          8           0        0.419448    1.785097    0.256386
      2          6           0        0.421433    0.619955   -0.089372
      3          6           0        1.611496   -0.217020   -0.043045
      4          6           0        2.562199   -0.941726    0.036108
      5          6           0       -0.777360    0.067141   -0.758155
      6          6           0       -1.593918   -1.208061    0.292385
      7          7           0       -1.993726    0.185629   -0.064693
      8          1           0        3.420136   -1.569816    0.102103
      9          1           0       -0.685326   -1.453819   -0.374752
     10          1           0       -1.276937   -1.310865    1.324655
     11          1           0       -2.328397   -1.932423   -0.047162
     12          1           0       -1.872077    0.765000    0.769393
 ---------------------------------------------------------------------

 SCF Done:  E(RHF) =  -322.811452809     A.U. after    2 cycles

 The electronic state is 1-A.
 Alpha  occ. eigenvalues --  -21.07538 -15.77192 -11.54170 -11.47502 -11.45563
 Alpha  occ. eigenvalues --  -11.43432 -11.43056  -1.73468  -1.47270  -1.15793
 Alpha  occ. eigenvalues --   -1.01135  -1.00882  -0.85656  -0.75416  -0.70807
 Alpha  occ. eigenvalues --   -0.65212  -0.59341  -0.55778  -0.54709  -0.52323
 Alpha  occ. eigenvalues --   -0.44627  -0.40770  -0.37719  -0.34650  -0.28611
 Alpha virt. eigenvalues --    0.02800   0.03969   0.05397   0.06416   0.07007
 Alpha virt. eigenvalues --    0.08230   0.08425   0.10289   0.11217   0.11442
 Alpha virt. eigenvalues --    0.11922   0.12584   0.13181   0.13681   0.14804

 Mulliken charges:
               1
     1  O   -3.256386
     2  C    4.978972
     3  C    3.006174
     4  C   -4.046116
     5  C   -1.099551
     6  C   -3.349062
     7  N   -1.804905
     8  H    0.771082
     9  H    1.704896
    10  H    1.337391
    11  H    1.176872
    12  H    0.580633
 Sum of Mulliken charges =  -0.00000

 Dipole moment (field-independent basis, Debye):
    X=              0.2171    Y=             -2.3247    Z=              2.3889  Tot=              3.3404

 Test job not archived.
 1\1\GINC-SE437\SP\RHF\Aug-CC-pVDZ\C5H5N1O1\OHZDE\09-Apr-2025\0\\#t hf
 aug-cc-pvdz iop(5/13=1,5/36=2,99/5=2) pseudo=read geom=check guess=(re
 ad,tcheck) scf=(maxcycle=1)\\title\\0,1\O,0,0.60887125,1.81278053,1.25
 171379\C,0,0.65783894,0.8933245,0.45842355\C,0,1.75317008,-0.06480904,
 0.4244628\C,0,2.61424388,-0.89767284,0.4106505\C,0,-0.33179988,0.83933
 256,-0.64052039\C,0,-1.45862855,-0.6062122,-0.44765287\N,0,-1.68626368
 ,0.85845889,-0.2669765\H,0,3.39387061,-1.62365588,0.40433167\H,0,-0.41
 225964,-0.70409556,-0.92361579\H,0,-1.4432568,-1.15522004,0.48775055\H

 Normal termination of Gaussian 16 at Wed Apr  9 03:40:18 2025.
