 Gaussian 16, Revision C.01,

 ----------------------------------------------------------------------
 #t hf aug-cc-pvdz symm=none int=(grid=ultrafine) guess=(read,tcheck) s
 table=(opt,rrhf)
 ----------------------------------------------------------------------
 -----
 title
 -----
 Symbolic Z-matrix:
 Charge =  0 Multiplicity = 1

 SCF Done:  E(RHF) =  -302.688658100     A.U. after   17 cycles
 Normal termination of Gaussian 16 at Wed Apr  9 18:32:33 2025.
 Gaussian 16:  ES64L-G16RevC.01  3-Jul-2019

 ----------------------------------------------------------------------
 #t hf aug-cc-pvdz iop(5/13=1,5/36=2,99/5=2) pseudo=read geom=check gue
 ss=(read,tcheck) scf=(maxcycle=1)
 ----------------------------------------------------------------------
 -----
 title
 -----
 Structure from the checkpoint file:  "Grambow2020_wb97xd3_007236_forward_mol1.chk"
 Charge =  0 Multiplicity = 1

                         Standard orientation:
 ---------------------------------------------------------------------
 Center     Atomic      Atomic             Coordinates (Angstroms)
 Number     Number       Type             X           Y           Z
 ---------------------------------------------------------------------
      1          6           0        1.876839   -0.533983    0.729798
      2          7           0        1.162110   -0.315199   -0.503616
      3          6           0        0.876523    1.009174   -0.514024
      4          7           0       -0.272442    1.162136    0.189001
      5          6           0       -0.983702   -0.071021   -0.069863
      6          6           0       -2.426858   -0.165638    0.243869
      7          6           0       -0.103329   -0.968935   -0.498698
      8          1           0        2.269994   -1.543894    0.841816
      9          1           0        2.604275    0.241650    0.959323
     10          1           0        0.355395    0.602605    1.188463
     11          1           0        1.682907    1.727252   -0.442201
     12          1           0       -2.599257    0.115943    1.284605
     13          1           0       -3.002855    0.518031   -0.382213
     14          1           0       -2.792535   -1.180221    0.089167
     15          1           0       -0.182434   -2.027504   -0.683141
 ---------------------------------------------------------------------

 SCF Done:  E(RHF) =  -304.161218105     A.U. after    2 cycles

 The electronic state is 1-A.
 Alpha  occ. eigenvalues --  -15.77998 -15.75972 -11.46021 -11.44843 -11.42290
 Alpha  occ. eigenvalues --  -11.39077 -11.38351  -1.61686  -1.30481  -1.16138
 Alpha  occ. eigenvalues --   -1.04105  -0.95597  -0.81745  -0.79104  -0.69859
 Alpha  occ. eigenvalues --   -0.68198  -0.60280  -0.58760  -0.57164  -0.54291
 Alpha  occ. eigenvalues --   -0.52283  -0.49798  -0.45011  -0.38314  -0.33444
 Alpha  occ. eigenvalues --   -0.26760
 Alpha virt. eigenvalues --    0.03675   0.05046   0.05458   0.05633   0.06291
 Alpha virt. eigenvalues --    0.06778   0.07094   0.07708   0.08858   0.10436
 Alpha virt. eigenvalues --    0.10592   0.11470   0.12547   0.13168   0.13477

 Mulliken charges:
               1
     1  C   -2.678446
     2  N   -2.500234
     3  C    0.103808
     4  N   -2.887339
     5  C    5.212674
     6  C   -5.196265
     7  C   -1.532908
     8  H    1.412696
     9  H    1.156865
    10  H    0.489034
    11  H    1.641223
    12  H    1.139308
    13  H    1.202974
    14  H    1.166746
    15  H    1.269864
 Sum of Mulliken charges =   0.00000

 Dipole moment (field-independent basis, Debye):
    X=             -0.0660    Y=             -0.9124    Z=             -0.4105  Tot=              1.0026

 Test job not archived.
 1\1\GINC-SE041\SP\RHF\Aug-CC-pVDZ\C5H8N2\OHZDE\09-Apr-2025\0\\#t hf au
 g-cc-pvdz iop(5/13=1,5/36=2,99/5=2) pseudo=read geom=check guess=(read
 ,tcheck) scf=(maxcycle=1)\\title\\0,1\C,0,-2.05477203,0.40253813,-0.07
 608132\N,0,-1.17811384,-0.70024397,-0.38487621\C,0,-0.76089977,-1.1647
 5141,0.8175369\N,0,0.30445638,-0.40690415,1.17592936\C,0,0.91335944,-0
 .07324927,-0.09351494\C,0,2.29114115,0.46586613,-0.12747331\C,0,0.0048
 5593,-0.26000391,-1.04480306\H,0,-2.55866407,0.82559501,-0.94450254\H,
 0,-2.72238065,0.2116234,0.76135565\H,0,-0.49264509,0.62309255,1.076355

 Normal termination of Gaussian 16 at Wed Apr  9 18:32:38 2025.
