 Gaussian 16, Revision C.01,

 ----------------------------------------------------------------------
 #t hf aug-cc-pvdz symm=none int=(grid=ultrafine) guess=(read,tcheck) s
 table=(opt,rrhf)
 ----------------------------------------------------------------------
 -----
 title
 -----
 Symbolic Z-matrix:
 Charge =  0 Multiplicity = 1

 SCF Done:  E(RHF) =  -306.653876647     A.U. after   14 cycles
 Normal termination of Gaussian 16 at Wed Apr  9 18:35:45 2025.
 Gaussian 16:  ES64L-G16RevC.01  3-Jul-2019

 ----------------------------------------------------------------------
 #t hf aug-cc-pvdz iop(5/13=1,5/36=2,99/5=2) pseudo=read geom=check gue
 ss=(read,tcheck) scf=(maxcycle=1)
 ----------------------------------------------------------------------
 -----
 title
 -----
 Structure from the checkpoint file:  "Grambow2020_wb97xd3_007307_reverse_mol2.chk"
 Charge =  0 Multiplicity = 1

                         Standard orientation:
 ---------------------------------------------------------------------
 Center     Atomic      Atomic             Coordinates (Angstroms)
 Number     Number       Type             X           Y           Z
 ---------------------------------------------------------------------
      1          6           0       -2.302032   -1.758332   -0.133556
      2          6           0       -2.396750   -0.477686    0.183934
      3          6           0        0.175165    1.604055   -0.030382
      4          8           0       -0.504380    2.547299   -0.041390
      5          6           0        1.090484    0.692892   -0.007610
      6          6           0        1.348717   -0.605022   -0.019198
      7          6           0        2.712390   -1.201345    0.032964
      8          1           0        0.517953   -1.312550   -0.068191
      9          1           0       -2.361397   -2.094766   -1.162657
     10          1           0       -2.168425   -2.524297    0.622399
     11          1           0       -2.342541   -0.140132    1.212901
     12          1           0       -2.538218    0.289614   -0.568434
     13          1           0        3.483764   -0.435500    0.077902
     14          1           0        2.797675   -1.855830    0.905328
     15          1           0        2.878379   -1.832302   -0.845038
 ---------------------------------------------------------------------

 SCF Done:  E(RHF) =  -308.084374651     A.U. after    2 cycles

 The electronic state is 1-A.
 Alpha  occ. eigenvalues --  -21.12163 -11.54355 -11.48060 -11.41489 -11.40004
 Alpha  occ. eigenvalues --  -11.38603 -11.37602  -1.75982  -1.23165  -1.14164
 Alpha  occ. eigenvalues --   -1.05889  -0.88512  -0.82738  -0.69534  -0.64849
 Alpha  occ. eigenvalues --   -0.60930  -0.58858  -0.57820  -0.56335  -0.53443
 Alpha  occ. eigenvalues --   -0.53032  -0.51562  -0.49676  -0.36836  -0.34540
 Alpha  occ. eigenvalues --   -0.28088
 Alpha virt. eigenvalues --    0.02990   0.04849   0.05163   0.05787   0.06125
 Alpha virt. eigenvalues --    0.06675   0.07402   0.07690   0.08620   0.09293
 Alpha virt. eigenvalues --    0.10238   0.11565   0.12124   0.12994   0.13521

 Mulliken charges:
               1
     1  C   -2.974382
     2  C   -2.897659
     3  C    2.294099
     4  O   -2.811647
     5  C    1.811438
     6  C   -1.272904
     7  C   -5.144832
     8  H    1.738141
     9  H    1.379072
    10  H    1.414376
    11  H    1.421549
    12  H    1.467055
    13  H    1.340586
    14  H    1.126640
    15  H    1.108470
 Sum of Mulliken charges =   0.00000

 Dipole moment (field-independent basis, Debye):
    X=             -0.7467    Y=             -1.2314    Z=             -0.0331  Tot=              1.4405

 Test job not archived.
 1\1\GINC-SE192\SP\RHF\Aug-CC-pVDZ\C6H8O1\OHZDE\09-Apr-2025\0\\#t hf au
 g-cc-pvdz iop(5/13=1,5/36=2,99/5=2) pseudo=read geom=check guess=(read
 ,tcheck) scf=(maxcycle=1)\\title\\0,1\C,0,-2.29389396,-0.94751794,-0.6
 367658\C,0,-2.38408912,0.25506028,-0.09317062\C,0,0.28027127,2.1181716
 8,0.55823123\O,0,-0.33895919,3.10038665,0.61671317\C,0,1.1302308,1.145
 48852,0.55831573\C,0,1.32309146,-0.14455894,0.33475266\C,0,2.62276964,
 -0.85192418,0.50326873\H,0,0.48278439,-0.75873508,0.00333591\H,0,-2.17
 677623,-1.08046851,-1.70651747\H,0,-2.34055485,-1.84918326,-0.03606447

 Normal termination of Gaussian 16 at Wed Apr  9 18:35:50 2025.
