 Gaussian 16, Revision C.01,

 ----------------------------------------------------------------------
 #t hf aug-cc-pvdz symm=none int=(grid=ultrafine) guess=(read,tcheck) s
 table=(opt,rrhf)
 ----------------------------------------------------------------------
 -----
 title
 -----
 Symbolic Z-matrix:
 Charge =  0 Multiplicity = 1

 SCF Done:  E(RHF) =  -336.270159919     A.U. after   17 cycles
 Normal termination of Gaussian 16 at Wed Apr  9 03:46:11 2025.
 Gaussian 16:  ES64L-G16RevC.01  3-Jul-2019

 ----------------------------------------------------------------------
 #t hf aug-cc-pvdz iop(5/13=1,5/36=2,99/5=2) pseudo=read geom=check gue
 ss=(read,tcheck) scf=(maxcycle=1)
 ----------------------------------------------------------------------
 -----
 title
 -----
 Structure from the checkpoint file:  "Grambow2020_wb97xd3_007920_forward_mol1.chk"
 Charge =  0 Multiplicity = 1

                         Standard orientation:
 ---------------------------------------------------------------------
 Center     Atomic      Atomic             Coordinates (Angstroms)
 Number     Number       Type             X           Y           Z
 ---------------------------------------------------------------------
      1          7           0        2.148630   -0.972179    0.006720
      2          6           0        1.399733    0.154338   -0.000715
      3          8           0        1.845632    1.276282   -0.004530
      4          6           0       -0.045733   -0.086817   -0.002510
      5          6           0       -1.239384   -0.239633   -0.004401
      6          6           0       -2.688130   -0.612990   -0.011005
      7          7           0       -2.749143    0.581162    0.013376
      8          1           0        1.730521   -1.883679    0.003409
      9          1           0        3.149103   -0.878839    0.003938
 ---------------------------------------------------------------------

 SCF Done:  E(RHF) =  -337.729895869     A.U. after    2 cycles

 The electronic state is 1-A.
 Alpha  occ. eigenvalues --  -21.05496 -15.86728 -15.80705 -11.56655 -11.50569
 Alpha  occ. eigenvalues --  -11.47201 -11.45777  -1.73761  -1.48545  -1.37951
 Alpha  occ. eigenvalues --   -1.13525  -0.93495  -0.79531  -0.75592  -0.68340
 Alpha  occ. eigenvalues --   -0.64039  -0.59973  -0.55965  -0.53939  -0.52720
 Alpha  occ. eigenvalues --   -0.39644  -0.39601  -0.34430  -0.32034
 Alpha virt. eigenvalues --    0.02962   0.05372   0.06732   0.08057   0.08716
 Alpha virt. eigenvalues --    0.09273   0.10381   0.10988   0.11644   0.12377
 Alpha virt. eigenvalues --    0.12557   0.13576   0.15966   0.16206   0.16478

 Mulliken charges:
               1
     1  N   -2.931930
     2  C    5.112321
     3  O   -3.182827
     4  C    0.492579
     5  C    1.136758
     6  C   -1.272512
     7  N   -0.872397
     8  H    0.770646
     9  H    0.747361
 Sum of Mulliken charges =  -0.00000

 Dipole moment (field-independent basis, Debye):
    X=              1.5062    Y=             -1.7810    Z=              0.0083  Tot=              2.3325

 Test job not archived.
 1\1\GINC-SE335\SP\RHF\Aug-CC-pVDZ\C4H2N2O1\OHZDE\09-Apr-2025\0\\#t hf
 aug-cc-pvdz iop(5/13=1,5/36=2,99/5=2) pseudo=read geom=check guess=(re
 ad,tcheck) scf=(maxcycle=1)\\title\\0,1\N,0,-1.84902211,0.35119828,0.5
 0610491\C,0,-0.9200334,-0.61487017,0.68950238\O,0,-1.16910953,-1.77990
 871,0.88506493\C,0,0.46331779,-0.13443204,0.63427625\C,0,1.61353672,0.
 21730234,0.59635481\C,0,2.97781651,0.82569633,0.51329517\N,0,3.2398064
 1,-0.31792972,0.74523502\H,0,-1.59149852,1.30613599,0.34047282\H,0,-2.
 81888487,0.0893317,0.52752572\\Version=ES64L-G16RevC.01\State=1-A\HF=-

 Normal termination of Gaussian 16 at Wed Apr  9 03:46:14 2025.
