 Gaussian 16, Revision C.01,

 ----------------------------------------------------------------------
 #t hf aug-cc-pvdz symm=none int=(grid=ultrafine) guess=(read,tcheck) s
 table=(opt,rrhf)
 ----------------------------------------------------------------------
 -----
 title
 -----
 Symbolic Z-matrix:
 Charge =  0 Multiplicity = 1

 SCF Done:  E(RHF) =  -317.516419728     A.U. after   17 cycles
 Normal termination of Gaussian 16 at Wed Apr  9 19:04:39 2025.
 Gaussian 16:  ES64L-G16RevC.01  3-Jul-2019

 ----------------------------------------------------------------------
 #t hf aug-cc-pvdz iop(5/13=1,5/36=2,99/5=2) pseudo=read geom=check gue
 ss=(read,tcheck) scf=(maxcycle=1)
 ----------------------------------------------------------------------
 -----
 title
 -----
 Structure from the checkpoint file:  "Grambow2020_wb97xd3_008050_forward_mol1.chk"
 Charge =  0 Multiplicity = 1

                         Standard orientation:
 ---------------------------------------------------------------------
 Center     Atomic      Atomic             Coordinates (Angstroms)
 Number     Number       Type             X           Y           Z
 ---------------------------------------------------------------------
      1          7           0        1.698398   -0.324219   -0.514703
      2          6           0        0.453619   -0.497341   -0.690368
      3          6           0       -0.711240    0.613527   -0.711618
      4          6           0       -1.526154   -0.399952    0.054931
      5          7           0       -0.258081   -1.071186    0.477062
      6          6           0        0.691917    0.060205    0.789711
      7          7           0       -0.034380    1.287705    0.435465
      8          1           0       -1.043935    1.243651   -1.527172
      9          1           0       -2.117095   -0.007300    0.878969
     10          1           0       -2.094489   -1.097681   -0.555353
     11          1           0        1.315156    0.001381    1.668946
     12          1           0        0.649946    1.955223    0.093897
 ---------------------------------------------------------------------

 SCF Done:  E(RHF) =  -318.971052370     A.U. after    2 cycles

 The electronic state is 1-A.
 Alpha  occ. eigenvalues --  -15.75842 -15.75638 -15.71320 -11.55554 -11.54129
 Alpha  occ. eigenvalues --  -11.48859 -11.41799  -1.70091  -1.31895  -1.28896
 Alpha  occ. eigenvalues --   -1.08551  -0.93629  -0.86570  -0.78220  -0.73345
 Alpha  occ. eigenvalues --   -0.64462  -0.61766  -0.58125  -0.55707  -0.51198
 Alpha  occ. eigenvalues --   -0.46798  -0.43505  -0.39301  -0.35158  -0.28523
 Alpha virt. eigenvalues --    0.03611   0.05112   0.05474   0.05784   0.06067
 Alpha virt. eigenvalues --    0.07844   0.09618   0.10203   0.11154   0.11516
 Alpha virt. eigenvalues --    0.12885   0.13373   0.14018   0.14223   0.15041

 Mulliken charges:
               1
     1  N   -2.338712
     2  C    3.282876
     3  C   -1.603795
     4  C   -1.996455
     5  N   -1.711362
     6  C    0.280828
     7  N   -2.011088
     8  H    1.292869
     9  H    1.373687
    10  H    1.451137
    11  H    1.321699
    12  H    0.658316
 Sum of Mulliken charges =   0.00000

 Dipole moment (field-independent basis, Debye):
    X=             -2.6177    Y=              1.3506    Z=             -0.0368  Tot=              2.9458

 Test job not archived.
 1\1\GINC-SE056\SP\RHF\Aug-CC-pVDZ\C4H5N3\OHZDE\09-Apr-2025\0\\#t hf au
 g-cc-pvdz iop(5/13=1,5/36=2,99/5=2) pseudo=read geom=check guess=(read
 ,tcheck) scf=(maxcycle=1)\\title\\0,1\N,0,1.02672945,0.29714257,1.7768
 5482\C,0,0.70118345,-0.49179695,0.8377601\C,0,0.65499205,-0.19018476,-
 0.74283238\C,0,-0.61404973,-1.00770766,-0.73972281\N,0,-0.75524795,-0.
 74685988,0.72614931\C,0,-0.36272731,0.70088206,0.9001077\N,0,0.0734713
 7,1.14861496,-0.42993784\H,0,1.45576853,-0.22176987,-1.47127666\H,0,-1
 .43095462,-0.61685905,-1.34166049\H,0,-0.47916869,-2.07689514,-0.88436

 Normal termination of Gaussian 16 at Wed Apr  9 19:04:44 2025.
