 Gaussian 16, Revision C.01,

 ----------------------------------------------------------------------
 #t hf aug-cc-pvdz symm=none int=(grid=ultrafine) guess=(read,tcheck) s
 table=(opt,rrhf)
 ----------------------------------------------------------------------
 -----
 title
 -----
 Symbolic Z-matrix:
 Charge =  0 Multiplicity = 1

 SCF Done:  E(RHF) =  -346.114228974     A.U. after   13 cycles

 1\1\GINC-SE222\Stability\RHF\Aug-CC-pVDZ\C5H12O2\OHZDE\09-Apr-2025\0\\
 #t hf aug-cc-pvdz symm=none int=(grid=ultrafine) guess=(read,tcheck) s
 table=(opt,rrhf)\\title\\0,1\C,0,2.34957216,0.10227259,1.49524978\C,0,
 1.40576032,0.85251201,0.57472466\C,0,0.06243783,0.19118163,0.38879194\
 O,0,-0.23824645,-0.80892409,1.00521606\C,0,-0.87673784,0.80202164,-0.6
 2491961\C,0,-0.80820379,0.02852617,-1.94502004\O,0,-2.77492394,-1.7705
 4602,0.16807463\H,0,1.91890821,-0.00458688,2.49083549\H,0,2.54672273,-
 0.90140845,1.11768532\H,0,3.30001357,0.62965368,1.58408509\H,0,1.20920

 Normal termination of Gaussian 16 at Wed Apr  9 19:06:11 2025.
 Gaussian 16:  ES64L-G16RevC.01  3-Jul-2019

 ----------------------------------------------------------------------
 #t hf aug-cc-pvdz iop(5/13=1,5/36=2,99/5=2) pseudo=read geom=check gue
 ss=(read,tcheck) scf=(maxcycle=1)
 ----------------------------------------------------------------------
 -----
 title
 -----
 Structure from the checkpoint file:  "Grambow2020_wb97xd3_008077_reverse_mol2.chk"
 Charge =  0 Multiplicity = 1

                         Standard orientation:
 ---------------------------------------------------------------------
 Center     Atomic      Atomic             Coordinates (Angstroms)
 Number     Number       Type             X           Y           Z
 ---------------------------------------------------------------------
      1          6           0       -2.774020   -0.717445    0.313872
      2          6           0       -1.871639    0.380307   -0.216841
      3          6           0       -0.408093    0.015969   -0.258519
      4          8           0       -0.027578   -1.098160    0.032216
      5          6           0        0.567150    1.105653   -0.638356
      6          6           0        1.206731    1.706227    0.616994
      7          8           0        2.808136   -1.227023   -0.016537
      8          1           0       -2.697777   -1.614673   -0.300335
      9          1           0       -2.493713   -0.995341    1.330238
     10          1           0       -3.814308   -0.390161    0.320825
     11          1           0       -2.152453    0.672202   -1.235579
     12          1           0       -1.960965    1.299413    0.373726
     13          1           0        0.054989    1.881580   -1.211937
     14          1           0        1.845989   -1.347261    0.018517
     15          1           0        1.344648    0.663898   -1.264151
     16          1           0        0.455515    2.133865    1.285287
     17          1           0        1.766445    0.943060    1.157543
     18          1           0        1.901039    2.500109    0.341837
     19          1           0        3.185356   -2.089491    0.155695
 ---------------------------------------------------------------------

 SCF Done:  E(RHF) =  -347.741294543     A.U. after    2 cycles

 The electronic state is 1-A.
 Alpha  occ. eigenvalues --  -21.06194 -21.05430 -11.50909 -11.42471 -11.41397
 Alpha  occ. eigenvalues --  -11.37390 -11.36492  -1.72392  -1.63020  -1.22644
 Alpha  occ. eigenvalues --   -1.14916  -0.97323  -0.90195  -0.74305  -0.66176
 Alpha  occ. eigenvalues --   -0.64266  -0.62390  -0.60860  -0.56464  -0.53746
 Alpha  occ. eigenvalues --   -0.52160  -0.50874  -0.49366  -0.47202  -0.46588
 Alpha  occ. eigenvalues --   -0.42927  -0.40915  -0.32497  -0.28717
 Alpha virt. eigenvalues --    0.03592   0.04763   0.05067   0.05449   0.05844
 Alpha virt. eigenvalues --    0.05998   0.06167   0.06974   0.07395   0.08652
 Alpha virt. eigenvalues --    0.09545   0.10395   0.11696   0.12446   0.14006

 Mulliken charges:
               1
     1  C   -3.957109
     2  C   -3.297745
     3  C    5.219957
     4  O   -3.746097
     5  C   -4.188427
     6  C   -3.806886
     7  O   -2.124737
     8  H    1.299608
     9  H    1.323166
    10  H    1.047816
    11  H    1.420405
    12  H    1.526895
    13  H    1.497037
    14  H    1.541528
    15  H    1.501649
    16  H    1.327995
    17  H    1.346516
    18  H    1.234365
    19  H    0.834061
 Sum of Mulliken charges =   0.00000

 Dipole moment (field-independent basis, Debye):
    X=             -1.4288    Y=              0.7874    Z=             -0.1379  Tot=              1.6373

 Test job not archived.
 1\1\GINC-SE222\SP\RHF\Aug-CC-pVDZ\C5H12O2\OHZDE\09-Apr-2025\0\\#t hf a
 ug-cc-pvdz iop(5/13=1,5/36=2,99/5=2) pseudo=read geom=check guess=(rea
 d,tcheck) scf=(maxcycle=1)\\title\\0,1\C,0,2.34957216,0.10227259,1.495
 24978\C,0,1.40576032,0.85251201,0.57472466\C,0,0.06243783,0.19118163,0
 .38879194\O,0,-0.23824645,-0.80892409,1.00521606\C,0,-0.87673784,0.802
 02164,-0.62491961\C,0,-0.80820379,0.02852617,-1.94502004\O,0,-2.774923
 94,-1.77054602,0.16807463\H,0,1.91890821,-0.00458688,2.49083549\H,0,2.
 54672273,-0.90140845,1.11768532\H,0,3.30001357,0.62965368,1.58408509\H

 Normal termination of Gaussian 16 at Wed Apr  9 19:06:17 2025.
