 Gaussian 16, Revision C.01,

 ----------------------------------------------------------------------
 #t hf aug-cc-pvdz symm=none int=(grid=ultrafine) guess=(read,tcheck) s
 table=(opt,rrhf)
 ----------------------------------------------------------------------
 -----
 title
 -----
 Symbolic Z-matrix:
 Charge =  0 Multiplicity = 1

 SCF Done:  E(RHF) =  -343.598019603     A.U. after   16 cycles
 Normal termination of Gaussian 16 at Wed Apr  9 18:19:46 2025.
 Gaussian 16:  ES64L-G16RevC.01  3-Jul-2019

 ----------------------------------------------------------------------
 #t hf aug-cc-pvdz iop(5/13=1,5/36=2,99/5=2) pseudo=read geom=check gue
 ss=(read,tcheck) scf=(maxcycle=1)
 ----------------------------------------------------------------------
 -----
 title
 -----
 Structure from the checkpoint file:  "Grambow2020_wb97xd3_006886_forward_mol1.chk"
 Charge =  0 Multiplicity = 1

                         Standard orientation:
 ---------------------------------------------------------------------
 Center     Atomic      Atomic             Coordinates (Angstroms)
 Number     Number       Type             X           Y           Z
 ---------------------------------------------------------------------
      1          6           0        0.196707    1.306195   -1.157110
      2          6           0        0.296894    0.620820    0.160309
      3          6           0        0.833404    1.078986    1.276366
      4          6           0        2.473818   -1.277336   -0.493955
      5          8           0       -0.159807   -0.712179    0.165663
      6          6           0       -1.479544   -0.935969    0.067068
      7          8           0       -2.330029   -0.102223    0.034735
      8          1           0       -0.847168    1.413423   -1.453750
      9          1           0        0.721643    0.719903   -1.913382
     10          1           0        0.650681    2.293706   -1.099178
     11          1           0        1.264695    2.069437    1.305437
     12          1           0        0.851567    0.477683    2.175453
     13          1           0        2.966880   -0.943608    0.440794
     14          1           0        2.035943   -2.252293   -0.203707
     15          1           0       -1.653235   -2.019208    0.029071
 ---------------------------------------------------------------------

 SCF Done:  E(RHF) =  -345.111858241     A.U. after    2 cycles

 The electronic state is 1-A.
 Alpha  occ. eigenvalues --  -21.11391 -21.07031 -11.52220 -11.47355 -11.41995
 Alpha  occ. eigenvalues --  -11.39648 -11.37854  -1.86881  -1.68718  -1.18964
 Alpha  occ. eigenvalues --   -1.02435  -0.93580  -0.90345  -0.75556  -0.68628
 Alpha  occ. eigenvalues --   -0.63224  -0.62570  -0.57893  -0.55088  -0.53970
 Alpha  occ. eigenvalues --   -0.53620  -0.51405  -0.44728  -0.37340  -0.35912
 Alpha  occ. eigenvalues --   -0.33529  -0.31422
 Alpha virt. eigenvalues --    0.03199   0.03842   0.04872   0.05493   0.05928
 Alpha virt. eigenvalues --    0.06853   0.07223   0.07742   0.08240   0.10460
 Alpha virt. eigenvalues --    0.11321   0.11718   0.12748   0.14138   0.14336

 Mulliken charges:
               1
     1  C   -4.124124
     2  C    3.836676
     3  C   -4.098182
     4  C   -3.230644
     5  O   -3.650910
     6  C    1.908206
     7  O   -2.550017
     8  H    1.293003
     9  H    1.394176
    10  H    1.286944
    11  H    1.501901
    12  H    1.622196
    13  H    1.593719
    14  H    1.552171
    15  H    1.664885
 Sum of Mulliken charges =   0.00000

 Dipole moment (field-independent basis, Debye):
    X=              0.8613    Y=             -0.5476    Z=              1.3154  Tot=              1.6649

 Test job not archived.
 1\1\GINC-SE105\SP\RHF\Aug-CC-pVDZ\C5H8O2\OHZDE\09-Apr-2025\0\\#t hf au
 g-cc-pvdz iop(5/13=1,5/36=2,99/5=2) pseudo=read geom=check guess=(read
 ,tcheck) scf=(maxcycle=1)\\title\\0,1\C,0,-0.2714567,1.51192331,-0.573
 16796\C,0,-0.18800832,0.02683106,-0.51925117\C,0,-1.01039686,-0.853780
 57,-1.05919857\C,0,-1.08019265,-0.36424046,2.27737621\O,0,0.85082033,-
 0.4745381,0.29004102\C,0,2.11544791,-0.34590629,-0.1408664\O,0,2.45459
 218,0.10590272,-1.18984303\H,0,0.6182688,1.9277668,-1.04711961\H,0,-0.
 35163782,1.90910735,0.44027125\H,0,-1.14887623,1.81572691,-1.14102909\

 Normal termination of Gaussian 16 at Wed Apr  9 18:19:51 2025.
