 Gaussian 16, Revision C.01,

 ----------------------------------------------------------------------
 #t hf aug-cc-pvdz symm=none int=(grid=ultrafine) guess=(read,tcheck) s
 table=(opt,rrhf)
 ----------------------------------------------------------------------
 -----
 title
 -----
 Symbolic Z-matrix:
 Charge =  0 Multiplicity = 1

 SCF Done:  E(RHF) =  -305.723673361     A.U. after   15 cycles
 Normal termination of Gaussian 16 at Wed Apr  9 17:51:29 2025.
 Gaussian 16:  ES64L-G16RevC.01  3-Jul-2019

 ----------------------------------------------------------------------
 #t hf aug-cc-pvdz iop(5/13=1,5/36=2,99/5=2) pseudo=read geom=check gue
 ss=(read,tcheck) scf=(maxcycle=1)
 ----------------------------------------------------------------------
 -----
 title
 -----
 Structure from the checkpoint file:  "Grambow2020_wb97xd3_006213_forward_mol1.chk"
 Charge =  0 Multiplicity = 1

                         Standard orientation:
 ---------------------------------------------------------------------
 Center     Atomic      Atomic             Coordinates (Angstroms)
 Number     Number       Type             X           Y           Z
 ---------------------------------------------------------------------
      1          6           0        2.188219   -0.179205   -0.150319
      2          8           0        0.869277   -0.604100    0.102878
      3          6           0        0.027538    0.405214    0.571480
      4          6           0       -0.509132    1.366956   -0.439319
      5          6           0       -1.434456   -0.002016    0.513496
      6          8           0       -1.637047   -1.057352   -0.299081
      7          1           0        2.653469    0.219547    0.758043
      8          1           0        2.214749    0.590181   -0.929653
      9          1           0        2.748341   -1.051369   -0.483294
     10          1           0        0.368435    0.829047    1.516035
     11          1           0       -0.353166    1.105907   -1.479086
     12          1           0       -0.540586    2.420916   -0.188760
     13          1           0       -1.799364    1.078787   -0.050047
     14          1           0       -0.782729   -1.447093   -0.545643
 ---------------------------------------------------------------------

 SCF Done:  E(RHF) =  -307.125425808     A.U. after    2 cycles

 The electronic state is 1-A.
 Alpha  occ. eigenvalues --  -21.08346 -21.06865 -11.47112 -11.43648 -11.41913
 Alpha  occ. eigenvalues --  -11.38948  -1.80898  -1.72230  -1.22851  -1.01033
 Alpha  occ. eigenvalues --   -0.87932  -0.82182  -0.69856  -0.66465  -0.62255
 Alpha  occ. eigenvalues --   -0.60288  -0.58163  -0.54736  -0.52284  -0.43110
 Alpha  occ. eigenvalues --   -0.40269  -0.37703  -0.32894  -0.26595
 Alpha virt. eigenvalues --    0.03558   0.04895   0.05323   0.05393   0.05897
 Alpha virt. eigenvalues --    0.06570   0.07495   0.07888   0.11100   0.11419
 Alpha virt. eigenvalues --    0.12559   0.13457   0.13935   0.14678   0.15120

 Mulliken charges:
               1
     1  C   -2.939428
     2  O   -3.368415
     3  C    0.730941
     4  C   -3.004202
     5  C    0.873315
     6  O   -2.650285
     7  H    1.326028
     8  H    1.389848
     9  H    1.275040
    10  H    1.760215
    11  H    1.364155
    12  H    1.251303
    13  H    1.234721
    14  H    0.756764
 Sum of Mulliken charges =  -0.00000

 Dipole moment (field-independent basis, Debye):
    X=              2.3858    Y=              0.5586    Z=             -1.2100  Tot=              2.7328

 Test job not archived.
 1\1\GINC-SE135\SP\RHF\Aug-CC-pVDZ\C4H8O2\OHZDE\09-Apr-2025\0\\#t hf au
 g-cc-pvdz iop(5/13=1,5/36=2,99/5=2) pseudo=read geom=check guess=(read
 ,tcheck) scf=(maxcycle=1)\\title\\0,1\C,0,1.6414862,-0.48051974,-0.947
 20287\O,0,0.43713913,0.24989128,-0.92985595\C,0,-0.58436111,-0.3565285
 7,-0.19799561\C,0,-0.52207632,-0.22993947,1.29021563\C,0,-1.73363745,0
 .59884923,0.07226897\O,0,-1.37905406,1.88587564,-0.10908482\H,0,1.4916
 5446,-1.47441659,-1.38343992\H,0,2.05140423,-0.59422622,0.06228081\H,0
 ,2.34574578,0.07583092,-1.56345919\H,0,-0.85875951,-1.33426835,-0.5939

 Normal termination of Gaussian 16 at Wed Apr  9 17:51:33 2025.
