 Gaussian 16, Revision C.01,

 ----------------------------------------------------------------------
 #t hf aug-cc-pvdz symm=none int=(grid=ultrafine) guess=(read,tcheck) s
 table=(opt,rrhf)
 ----------------------------------------------------------------------
 -----
 title
 -----
 Symbolic Z-matrix:
 Charge =  0 Multiplicity = 1

 SCF Done:  E(RHF) =  -353.516430353     A.U. after   15 cycles
 Normal termination of Gaussian 16 at Wed Apr  9 18:57:27 2025.
 Gaussian 16:  ES64L-G16RevC.01  3-Jul-2019

 ----------------------------------------------------------------------
 #t hf aug-cc-pvdz iop(5/13=1,5/36=2,99/5=2) pseudo=read geom=check gue
 ss=(read,tcheck) scf=(maxcycle=1)
 ----------------------------------------------------------------------
 -----
 title
 -----
 Structure from the checkpoint file:  "Grambow2020_wb97xd3_007944_reverse_mol2.chk"
 Charge =  0 Multiplicity = 1

                         Standard orientation:
 ---------------------------------------------------------------------
 Center     Atomic      Atomic             Coordinates (Angstroms)
 Number     Number       Type             X           Y           Z
 ---------------------------------------------------------------------
      1          8           0        2.193574    0.114097    0.000425
      2          6           0        0.872175   -0.007810   -0.000389
      3          6           0        0.108187    1.193966   -0.000789
      4          7           0       -1.180518    1.117244    0.000169
      5          7           0       -1.673191   -0.122901    0.000590
      6          6           0       -1.037016   -1.321608   -0.000288
      7          7           0        0.332606   -1.187611   -0.000446
      8          1           0        2.554343   -0.783796    0.002083
      9          1           0        0.565469    2.174903    0.000100
     10          1           0       -2.680755   -0.138297    0.001023
 ---------------------------------------------------------------------

 SCF Done:  E(RHF) =  -355.058460709     A.U. after    2 cycles

 The electronic state is 1-A.
 Alpha  occ. eigenvalues --  -21.14614 -15.83451 -15.82652 -15.74523 -11.53572
 Alpha  occ. eigenvalues --  -11.44974 -11.40352  -1.82545  -1.61804  -1.36528
 Alpha  occ. eigenvalues --   -1.25924  -0.98786  -0.93563  -0.78638  -0.72038
 Alpha  occ. eigenvalues --   -0.66946  -0.64755  -0.61526  -0.53526  -0.51877
 Alpha  occ. eigenvalues --   -0.48977  -0.41558  -0.40668  -0.35232  -0.31454
 Alpha virt. eigenvalues --    0.03393   0.05254   0.05698   0.08807   0.09811
 Alpha virt. eigenvalues --    0.10262   0.10479   0.10745   0.11600   0.12915
 Alpha virt. eigenvalues --    0.13723   0.13972   0.14955   0.15083   0.15176

 Mulliken charges:
               1
     1  O   -3.650763
     2  C    5.412680
     3  C   -0.048834
     4  N   -1.929083
     5  N   -1.138588
     6  C    0.221711
     7  N   -2.314334
     8  H    0.972369
     9  H    1.611462
    10  H    0.863380
 Sum of Mulliken charges =  -0.00000

 Dipole moment (field-independent basis, Debye):
    X=              1.3086    Y=              3.3899    Z=              0.0032  Tot=              3.6337

 Test job not archived.
 1\1\GINC-SE105\SP\RHF\Aug-CC-pVDZ\C3H3N3O1\OHZDE\09-Apr-2025\0\\#t hf
 aug-cc-pvdz iop(5/13=1,5/36=2,99/5=2) pseudo=read geom=check guess=(re
 ad,tcheck) scf=(maxcycle=1)\\title\\0,1\O,0,2.17004746,-0.19074944,0.1
 9977592\C,0,0.84703124,-0.18818925,0.09692839\C,0,0.217707,1.06154345,
 -0.16776419\N,0,-1.06821335,1.10571035,-0.27315017\N,0,-1.68888079,-0.
 06535202,-0.11800086\C,0,-1.1858524,-1.30046123,0.13316819\N,0,0.18633
 63,-1.29578791,0.2375508\H,0,2.4319002,-1.10480244,0.37952584\H,0,0.77
 556109,1.98178919,-0.28305868\H,0,-2.68949176,0.01287332,-0.20790124\\

 Normal termination of Gaussian 16 at Wed Apr  9 18:57:31 2025.
