 Gaussian 16, Revision C.01,

 ----------------------------------------------------------------------
 #t hf aug-cc-pvdz symm=none int=(grid=ultrafine) guess=(read,tcheck) s
 table=(opt,rrhf)
 ----------------------------------------------------------------------
 -----
 title
 -----
 Symbolic Z-matrix:
 Charge =  0 Multiplicity = 1

 SCF Done:  E(RHF) =  -307.744553449     A.U. after   16 cycles

 1\1\GINC-SE035\Stability\RHF\Aug-CC-pVDZ\C6H10O1\OHZDE\09-Apr-2025\0\\
 #t hf aug-cc-pvdz symm=none int=(grid=ultrafine) guess=(read,tcheck) s
 table=(opt,rrhf)\\title\\0,1\C,0,2.1327157,0.47316624,0.49818193\C,0,0
 .73742998,-0.01613953,0.3841196\C,0,0.04162324,-0.77762034,1.26572763\
 C,0,-1.28186309,-0.62617418,1.04849952\C,0,-1.54444341,0.53575521,0.12
 938777\C,0,-0.21784835,0.42904469,-0.72765654\O,0,0.14225185,1.5779324
 1,-1.43665672\H,0,2.22480369,1.51624362,0.19085282\H,0,2.78458508,-0.1
 0137494,-0.16780161\H,0,2.49731862,0.34820054,1.51719835\H,0,-0.459045

 Normal termination of Gaussian 16 at Wed Apr  9 18:52:04 2025.
 Gaussian 16:  ES64L-G16RevC.01  3-Jul-2019

 ----------------------------------------------------------------------
 #t hf aug-cc-pvdz iop(5/13=1,5/36=2,99/5=2) pseudo=read geom=check gue
 ss=(read,tcheck) scf=(maxcycle=1)
 ----------------------------------------------------------------------
 -----
 title
 -----
 Structure from the checkpoint file:  "Grambow2020_wb97xd3_007729_reverse_mol2.chk"
 Charge =  0 Multiplicity = 1

                         Standard orientation:
 ---------------------------------------------------------------------
 Center     Atomic      Atomic             Coordinates (Angstroms)
 Number     Number       Type             X           Y           Z
 ---------------------------------------------------------------------
      1          6           0       -1.841895   -1.173477   -0.149284
      2          6           0       -0.445141   -0.702624    0.013897
      3          6           0        0.702293   -1.365890   -0.277146
      4          6           0        1.709113   -0.480860   -0.434544
      5          6           0        1.177638    0.923264   -0.533368
      6          6           0       -0.086039    0.735350    0.401284
      7          8           0       -1.095664    1.690614    0.258365
      8          1           0       -2.485773   -0.399752   -0.570842
      9          1           0       -2.266186   -1.426721    0.827655
     10          1           0       -1.871574   -2.067141   -0.771722
     11          1           0        1.731852   -1.188403    2.471232
     12          1           0        2.763216   -0.682709   -0.270078
     13          1           0        1.990520   -0.828634    3.071991
     14          1           0        1.880333    1.687587   -0.192285
     15          1           0        0.829713    1.205921   -1.531856
     16          1           0        0.243467    0.809756    1.440682
     17          1           0       -1.346071    1.750605   -0.666736
 ---------------------------------------------------------------------

 SCF Done:  E(RHF) =  -309.231373221     A.U. after    2 cycles

 The electronic state is 1-A.
 Alpha  occ. eigenvalues --  -21.08945 -11.48507 -11.45136 -11.43308 -11.40612
 Alpha  occ. eigenvalues --  -11.38866 -11.33954  -1.74303  -1.34123  -1.12324
 Alpha  occ. eigenvalues --   -0.99881  -0.96383  -0.82347  -0.71173  -0.68180
 Alpha  occ. eigenvalues --   -0.62898  -0.61299  -0.58542  -0.57526  -0.57342
 Alpha  occ. eigenvalues --   -0.52832  -0.49841  -0.48091  -0.42240  -0.35468
 Alpha  occ. eigenvalues --   -0.34242  -0.27693
 Alpha virt. eigenvalues --    0.03222   0.05025   0.05132   0.05629   0.05710
 Alpha virt. eigenvalues --    0.05920   0.06140   0.07067   0.07437   0.07842
 Alpha virt. eigenvalues --    0.10091   0.11039   0.11788   0.12615   0.13372

 Mulliken charges:
               1
     1  C   -4.937969
     2  C    3.853289
     3  C   -2.606170
     4  C   -0.265132
     5  C   -4.348027
     6  C    1.515327
     7  O   -3.376138
     8  H    1.245739
     9  H    1.262673
    10  H    1.413127
    11  H   -0.417113
    12  H    1.506003
    13  H    0.294891
    14  H    1.307209
    15  H    1.368523
    16  H    1.585295
    17  H    0.598474
 Sum of Mulliken charges =   0.00000

 Dipole moment (field-independent basis, Debye):
    X=             -0.6567    Y=              2.8628    Z=             -0.0464  Tot=              2.9375

 Test job not archived.
 1\1\GINC-SE035\SP\RHF\Aug-CC-pVDZ\C6H10O1\OHZDE\09-Apr-2025\0\\#t hf a
 ug-cc-pvdz iop(5/13=1,5/36=2,99/5=2) pseudo=read geom=check guess=(rea
 d,tcheck) scf=(maxcycle=1)\\title\\0,1\C,0,2.1327157,0.47316624,0.4981
 8193\C,0,0.73742998,-0.01613953,0.3841196\C,0,0.04162324,-0.77762034,1
 .26572763\C,0,-1.28186309,-0.62617418,1.04849952\C,0,-1.54444341,0.535
 75521,0.12938777\C,0,-0.21784835,0.42904469,-0.72765654\O,0,0.14225185
 ,1.57793241,-1.43665672\H,0,2.22480369,1.51624362,0.19085282\H,0,2.784
 58508,-0.10137494,-0.16780161\H,0,2.49731862,0.34820054,1.51719835\H,0

 Normal termination of Gaussian 16 at Wed Apr  9 18:52:10 2025.
