 Gaussian 16, Revision C.01,

 ----------------------------------------------------------------------
 #t hf aug-cc-pvdz symm=none int=(grid=ultrafine) guess=(read,tcheck) s
 table=(opt,rrhf)
 ----------------------------------------------------------------------
 -----
 title
 -----
 Symbolic Z-matrix:
 Charge =  0 Multiplicity = 1

 SCF Done:  E(RHF) =  -322.693074476     A.U. after   14 cycles
 Normal termination of Gaussian 16 at Wed Apr  9 18:39:33 2025.
 Gaussian 16:  ES64L-G16RevC.01  3-Jul-2019

 ----------------------------------------------------------------------
 #t hf aug-cc-pvdz iop(5/13=1,5/36=2,99/5=2) pseudo=read geom=check gue
 ss=(read,tcheck) scf=(maxcycle=1)
 ----------------------------------------------------------------------
 -----
 title
 -----
 Structure from the checkpoint file:  "Grambow2020_wb97xd3_007385_reverse_mol2.chk"
 Charge =  0 Multiplicity = 1

                         Standard orientation:
 ---------------------------------------------------------------------
 Center     Atomic      Atomic             Coordinates (Angstroms)
 Number     Number       Type             X           Y           Z
 ---------------------------------------------------------------------
      1          6           0        0.143675    1.375992    0.819596
      2          6           0        0.693315    0.871637   -0.474937
      3          6           0        1.434774   -0.452093   -0.544324
      4          8           0        1.250359   -1.288079    0.573012
      5          6           0       -2.091271   -1.271681   -0.025243
      6          7           0       -1.505712   -0.269930   -0.115383
      7          6           0       -0.794377    0.929614   -0.263764
      8          1           0        0.247247    0.712924    1.667840
      9          1           0        0.177157    2.434107    1.039576
     10          1           0        1.071848    1.609523   -1.173734
     11          1           0        2.503955   -0.236323   -0.590610
     12          1           0        1.165712   -0.969781   -1.472867
     13          1           0        0.416528   -1.755338    0.484713
     14          1           0       -1.362041    1.678219   -0.799300
 ---------------------------------------------------------------------

 SCF Done:  E(RHF) =  -324.170610280     A.U. after    2 cycles

 The electronic state is 1-A.
 Alpha  occ. eigenvalues --  -21.07185 -15.78709 -11.48169 -11.45845 -11.43231
 Alpha  occ. eigenvalues --  -11.42103 -11.39206  -1.72167  -1.44917  -1.28149
 Alpha  occ. eigenvalues --   -1.03144  -0.94398  -0.84336  -0.74937  -0.68048
 Alpha  occ. eigenvalues --   -0.66595  -0.59951  -0.57102  -0.53310  -0.52405
 Alpha  occ. eigenvalues --   -0.49353  -0.46778  -0.43851  -0.39507  -0.37250
 Alpha  occ. eigenvalues --   -0.32447
 Alpha virt. eigenvalues --    0.03494   0.04831   0.05087   0.05463   0.05785
 Alpha virt. eigenvalues --    0.07137   0.07558   0.08910   0.09830   0.11745
 Alpha virt. eigenvalues --    0.12266   0.12802   0.12871   0.13377   0.14210

 Mulliken charges:
               1
     1  C   -2.348113
     2  C   -0.751616
     3  C   -1.560149
     4  O   -2.620544
     5  C   -0.753503
     6  N   -1.711540
     7  C    1.032763
     8  H    1.526871
     9  H    1.170818
    10  H    1.262936
    11  H    1.186194
    12  H    1.393121
    13  H    0.819145
    14  H    1.353617
 Sum of Mulliken charges =  -0.00000

 Dipole moment (field-independent basis, Debye):
    X=              2.0143    Y=              3.3946    Z=             -0.6797  Tot=              4.0054

 Test job not archived.
 1\1\GINC-SE104\SP\RHF\Aug-CC-pVDZ\C5H7N1O1\OHZDE\09-Apr-2025\0\\#t hf
 aug-cc-pvdz iop(5/13=1,5/36=2,99/5=2) pseudo=read geom=check guess=(re
 ad,tcheck) scf=(maxcycle=1)\\title\\0,1\C,0,-1.3052982,-0.40972504,0.4
 4548336\C,0,-0.56022626,0.50037556,-0.4758612\C,0,0.58610067,1.3570573
 3,0.03293076\O,0,1.09636642,0.97124562,1.28676474\C,0,1.80948914,-2.08
 917921,0.00227004\N,0,0.78888482,-1.59816808,-0.26565661\C,0,-0.423677
 64,-0.99001663,-0.62169471\H,0,-0.93201551,-0.46571683,1.4591051\H,0,-
 2.37273953,-0.53484006,0.32701137\H,0,-1.12696295,0.97429047,-1.269772

 Normal termination of Gaussian 16 at Wed Apr  9 18:39:37 2025.
