 Gaussian 16, Revision C.01,

 ----------------------------------------------------------------------
 #t hf aug-cc-pvdz symm=none int=(grid=ultrafine) guess=(read,tcheck) s
 table=(opt,rrhf)
 ----------------------------------------------------------------------
 -----
 title
 -----
 Symbolic Z-matrix:
 Charge =  0 Multiplicity = 1

 SCF Done:  E(RHF) =  -286.805755917     A.U. after   15 cycles
 Normal termination of Gaussian 16 at Wed Apr  9 19:18:11 2025.
 Gaussian 16:  ES64L-G16RevC.01  3-Jul-2019

 ----------------------------------------------------------------------
 #t hf aug-cc-pvdz iop(5/13=1,5/36=2,99/5=2) pseudo=read geom=check gue
 ss=(read,tcheck) scf=(maxcycle=1)
 ----------------------------------------------------------------------
 -----
 title
 -----
 Structure from the checkpoint file:  "Grambow2020_wb97xd3_008575_reverse_mol2.chk"
 Charge =  0 Multiplicity = 1

                         Standard orientation:
 ---------------------------------------------------------------------
 Center     Atomic      Atomic             Coordinates (Angstroms)
 Number     Number       Type             X           Y           Z
 ---------------------------------------------------------------------
      1          6           0       -1.910012   -0.978733    0.059293
      2          6           0       -0.491073   -0.546721    0.082870
      3          6           0        0.080118    0.803445    0.397429
      4          6           0        1.584890    0.708079    0.211621
      5          6           0       -0.608529    1.957770   -0.327683
      6          6           0        1.770298   -0.586440   -0.107983
      7          7           0        0.514674   -1.309491   -0.180638
      8          1           0       -2.399449   -0.714499    0.998248
      9          1           0       -2.440545   -0.449841   -0.736467
     10          1           0       -2.019283   -2.051175   -0.103187
     11          1           0       -0.076221    0.930853    1.481679
     12          1           0       -0.470982    1.865742   -1.406555
     13          1           0       -0.146936    2.893211   -0.016813
     14          1           0       -1.679763    2.005804   -0.114147
     15          1           0        2.656683   -1.167109   -0.324383
     16          1           0        0.419626   -2.290941   -0.407190
 ---------------------------------------------------------------------

 SCF Done:  E(RHF) =  -288.208055236     A.U. after    2 cycles

 The electronic state is 1-A.
 Alpha  occ. eigenvalues --  -15.83061 -11.50787 -11.43474 -11.41278 -11.37191
 Alpha  occ. eigenvalues --  -11.35988 -11.30021  -1.52444  -1.19221  -1.15228
 Alpha  occ. eigenvalues --   -1.01464  -0.95777  -0.80397  -0.74962  -0.68992
 Alpha  occ. eigenvalues --   -0.65147  -0.62057  -0.59100  -0.56764  -0.53994
 Alpha  occ. eigenvalues --   -0.53654  -0.46815  -0.46592  -0.41717  -0.28598
 Alpha  occ. eigenvalues --   -0.26616
 Alpha virt. eigenvalues --    0.02160   0.04256   0.04466   0.05179   0.05804
 Alpha virt. eigenvalues --    0.06145   0.07253   0.07652   0.08632   0.10156
 Alpha virt. eigenvalues --    0.10683   0.10827   0.11658   0.12777   0.13039

 Mulliken charges:
               1
     1  C   -4.648242
     2  C    4.107931
     3  C   -1.562476
     4  C   -1.945951
     5  C   -3.995154
     6  C    0.426013
     7  N   -3.717399
     8  H    1.227564
     9  H    1.184520
    10  H    1.310110
    11  H    1.471051
    12  H    1.323687
    13  H    1.229767
    14  H    1.303310
    15  H    1.533647
    16  H    0.751620
 Sum of Mulliken charges =   0.00000

 Dipole moment (field-independent basis, Debye):
    X=             -5.5530    Y=             -4.8152    Z=             -0.6752  Tot=              7.3809

 Test job not archived.
 1\1\GINC-SE114\SP\RHF\Aug-CC-pVDZ\C6H9N1\OHZDE\09-Apr-2025\0\\#t hf au
 g-cc-pvdz iop(5/13=1,5/36=2,99/5=2) pseudo=read geom=check guess=(read
 ,tcheck) scf=(maxcycle=1)\\title\\0,1\C,0,1.74460071,-0.48769929,-0.54
 909585\C,0,0.5938662,0.2158999,0.06842854\C,0,-0.72497505,-0.34090708,
 0.51427557\C,0,-1.55789303,0.82630758,1.01609024\C,0,-1.39988581,-1.24
 766086,-0.51274997\C,0,-0.71929779,1.87244605,0.89502313\N,0,0.5551303
 2,1.47917557,0.32419564\H,0,2.03073192,-1.34720713,0.05949249\H,0,1.45
 43398,-0.87385504,-1.52943178\H,0,2.61371244,0.15856449,-0.67342989\H,

 Normal termination of Gaussian 16 at Wed Apr  9 19:18:16 2025.
