 Gaussian 16, Revision C.01,

 ----------------------------------------------------------------------
 #t hf aug-cc-pvdz symm=none int=(grid=ultrafine) guess=(read,tcheck) s
 table=(opt,rrhf)
 ----------------------------------------------------------------------
 -----
 title
 -----
 Symbolic Z-matrix:
 Charge =  0 Multiplicity = 1

 SCF Done:  E(RHF) =  -320.726223437     A.U. after   13 cycles
 Normal termination of Gaussian 16 at Wed Apr  9 17:27:48 2025.
 Gaussian 16:  ES64L-G16RevC.01  3-Jul-2019

 ----------------------------------------------------------------------
 #t hf aug-cc-pvdz iop(5/13=1,5/36=2,99/5=2) pseudo=read geom=check gue
 ss=(read,tcheck) scf=(maxcycle=1)
 ----------------------------------------------------------------------
 -----
 title
 -----
 Structure from the checkpoint file:  "Grambow2020_b97d3_007139_reverse_mol2.chk"
 Charge =  0 Multiplicity = 1

                         Standard orientation:
 ---------------------------------------------------------------------
 Center     Atomic      Atomic             Coordinates (Angstroms)
 Number     Number       Type             X           Y           Z
 ---------------------------------------------------------------------
      1          8           0       -2.038739   -0.110216    0.001226
      2          6           0       -0.707211    0.052419    0.002454
      3          7           0       -0.077913    1.170069    0.013396
      4          6           0        1.347274    0.818364   -0.013811
      5          6           0        1.378012   -0.742635    0.015399
      6          8           0       -0.029377   -1.125342   -0.016080
      7          1           0       -2.399326    0.799633   -0.005036
      8          1           0        1.823756    1.218884   -0.921853
      9          1           0        1.871212    1.253388    0.850557
     10          1           0        1.817220   -1.154211    0.933108
     11          1           0        1.869006   -1.192601   -0.855974
 ---------------------------------------------------------------------

 SCF Done:  E(RHF) =  -322.125778297     A.U. after    2 cycles

 The electronic state is 1-A.
 Alpha  occ. eigenvalues --  -21.13035 -21.09356 -15.71209 -11.50357 -11.47591
 Alpha  occ. eigenvalues --  -11.39878  -1.86945  -1.72795  -1.35281  -1.09126
 Alpha  occ. eigenvalues --   -0.89327  -0.79382  -0.68792  -0.68684  -0.61388
 Alpha  occ. eigenvalues --   -0.56333  -0.54603  -0.53379  -0.46394  -0.43117
 Alpha  occ. eigenvalues --   -0.37937  -0.36706  -0.29876
 Alpha virt. eigenvalues --    0.03619   0.05267   0.05960   0.05972   0.06351
 Alpha virt. eigenvalues --    0.09341   0.11310   0.11773   0.11991   0.13536
 Alpha virt. eigenvalues --    0.14132   0.14935   0.15093   0.17796   0.18619

 Mulliken charges:
               1
     1  O   -2.869736
     2  C    5.933843
     3  N   -2.467120
     4  C   -2.032305
     5  C   -1.789471
     6  O   -2.768702
     7  H    0.587492
     8  H    1.342086
     9  H    1.340227
    10  H    1.356442
    11  H    1.367244
 Sum of Mulliken charges =   0.00000

 Dipole moment (field-independent basis, Debye):
    X=              0.5452    Y=             -1.1723    Z=             -0.0314  Tot=              1.2933

 Test job not archived.
 1\1\GINC-SE051\SP\RHF\Aug-CC-pVDZ\C3H5N1O2\OHZDE\09-Apr-2025\0\\#t hf
 aug-cc-pvdz iop(5/13=1,5/36=2,99/5=2) pseudo=read geom=check guess=(re
 ad,tcheck) scf=(maxcycle=1)\\title\\0,1\O,0,2.47522064,-0.25765815,0.1
 0199904\C,0,1.13730464,-0.16700231,0.0676178\N,0,0.30447554,-1.0687539
 1,0.43979459\C,0,-1.02626184,-0.50317069,0.18514444\C,0,-0.75567469,0.
 93565989,-0.35805386\O,0,0.69906839,1.02074863,-0.42646734\H,0,2.65376
 006,-1.15366217,0.45298086\H,0,-1.57129435,-1.11958391,-0.54626966\H,0
 ,-1.62389803,-0.48524138,1.10894063\H,0,-1.10704489,1.72968346,0.31317

 Normal termination of Gaussian 16 at Wed Apr  9 17:27:52 2025.
