 Gaussian 16, Revision C.01,

 ----------------------------------------------------------------------
 #t hf aug-cc-pvdz symm=none int=(grid=ultrafine) guess=(read,tcheck) s
 table=(opt,rrhf)
 ----------------------------------------------------------------------
 -----
 title
 -----
 Symbolic Z-matrix:
 Charge =  0 Multiplicity = 1

 SCF Done:  E(RHF) =  -343.685330059     A.U. after   15 cycles
 Normal termination of Gaussian 16 at Wed Apr  9 03:27:18 2025.
 Gaussian 16:  ES64L-G16RevC.01  3-Jul-2019

 ----------------------------------------------------------------------
 #t hf aug-cc-pvdz iop(5/13=1,5/36=2,99/5=2) pseudo=read geom=check gue
 ss=(read,tcheck) scf=(maxcycle=1)
 ----------------------------------------------------------------------
 -----
 title
 -----
 Structure from the checkpoint file:  "Grambow2020_wb97xd3_006677_reverse_mol2.chk"
 Charge =  0 Multiplicity = 1

                         Standard orientation:
 ---------------------------------------------------------------------
 Center     Atomic      Atomic             Coordinates (Angstroms)
 Number     Number       Type             X           Y           Z
 ---------------------------------------------------------------------
      1          6           0       -1.082402    1.618872   -0.778111
      2          6           0       -0.881152    0.497538    0.189216
      3          8           0       -0.087097    0.696043    1.306115
      4          6           0        2.930385   -0.090225    0.075661
      5          6           0        2.080595   -0.783996   -0.667303
      6          6           0       -1.481708   -0.667543    0.058638
      7          8           0       -2.021389   -1.690037   -0.061470
      8          1           0       -1.492121    2.492083   -0.264717
      9          1           0       -0.131635    1.910161   -1.234775
     10          1           0       -1.769675    1.335766   -1.576614
     11          1           0        0.829066    0.527025    1.047282
     12          1           0        3.307247    0.875058   -0.243543
     13          1           0        3.298121   -0.469708    1.022772
     14          1           0        1.722313   -0.412193   -1.620496
     15          1           0        1.710254   -1.754118   -0.355674
 ---------------------------------------------------------------------

 SCF Done:  E(RHF) =  -345.242553728     A.U. after    2 cycles

 The electronic state is 1-A.
 Alpha  occ. eigenvalues --  -21.12822 -21.08903 -11.52827 -11.45032 -11.42630
 Alpha  occ. eigenvalues --  -11.38996 -11.38865  -1.77101  -1.72787  -1.15730
 Alpha  occ. eigenvalues --   -1.15542  -0.97676  -0.84076  -0.70401  -0.66196
 Alpha  occ. eigenvalues --   -0.63691  -0.60797  -0.59338  -0.57746  -0.55009
 Alpha  occ. eigenvalues --   -0.53476  -0.50986  -0.49398  -0.44511  -0.38074
 Alpha  occ. eigenvalues --   -0.34731  -0.26131
 Alpha virt. eigenvalues --    0.03195   0.04898   0.05258   0.05662   0.05866
 Alpha virt. eigenvalues --    0.07067   0.07291   0.08101   0.09031   0.10879
 Alpha virt. eigenvalues --    0.11457   0.11878   0.12904   0.13419   0.14050

 Mulliken charges:
               1
     1  C   -3.714295
     2  C    3.067816
     3  O   -3.449346
     4  C   -2.954154
     5  C   -2.867536
     6  C    1.876737
     7  O   -2.547514
     8  H    1.192605
     9  H    1.278831
    10  H    1.448907
    11  H    1.052763
    12  H    1.365625
    13  H    1.350068
    14  H    1.444191
    15  H    1.455301
 Sum of Mulliken charges =  -0.00000

 Dipole moment (field-independent basis, Debye):
    X=              0.7232    Y=             -0.3133    Z=             -0.8738  Tot=              1.1767

 Test job not archived.
 1\1\GINC-SE462\SP\RHF\Aug-CC-pVDZ\C5H8O2\OHZDE\09-Apr-2025\0\\#t hf au
 g-cc-pvdz iop(5/13=1,5/36=2,99/5=2) pseudo=read geom=check guess=(read
 ,tcheck) scf=(maxcycle=1)\\title\\0,1\C,0,-1.76134396,-0.03480544,-1.1
 9842199\C,0,-1.1121527,-0.8622548,-0.1365882\O,0,-1.10702928,-0.409025
 97,1.17182566\C,0,1.69018261,1.4383835,1.18256178\C,0,1.89913631,0.529
 57723,0.24135638\C,0,-0.59146252,-2.04731362,-0.3808201\O,0,-0.1405790
 1,-3.0950227,-0.60484081\H,0,-2.80484219,0.16087899,-0.94004612\H,0,-1
 .25232362,0.92820542,-1.30262119\H,0,-1.73541305,-0.53868223,-2.165653

 Normal termination of Gaussian 16 at Wed Apr  9 03:27:23 2025.
