 Gaussian 16, Revision C.01,

 ----------------------------------------------------------------------
 #t hf aug-cc-pvdz symm=none int=(grid=ultrafine) guess=(read,tcheck) s
 table=(opt,rrhf)
 ----------------------------------------------------------------------
 -----
 title
 -----
 Symbolic Z-matrix:
 Charge =  0 Multiplicity = 1

 SCF Done:  E(RHF) =  -357.093255896     A.U. after   18 cycles
 Normal termination of Gaussian 16 at Wed Apr  9 03:58:23 2025.
 Gaussian 16:  ES64L-G16RevC.01  3-Jul-2019

 ----------------------------------------------------------------------
 #t hf aug-cc-pvdz iop(5/13=1,5/36=2,99/5=2) pseudo=read geom=check gue
 ss=(read,tcheck) scf=(maxcycle=1)
 ----------------------------------------------------------------------
 -----
 title
 -----
 Structure from the checkpoint file:  "Grambow2020_wb97xd3_008750_forward_mol1.chk"
 Charge =  0 Multiplicity = 1

                         Standard orientation:
 ---------------------------------------------------------------------
 Center     Atomic      Atomic             Coordinates (Angstroms)
 Number     Number       Type             X           Y           Z
 ---------------------------------------------------------------------
      1          8           0        2.390248    0.005270   -0.364862
      2          6           0        1.273994   -0.185219   -0.128037
      3          6           0        0.178964   -0.087740    0.875518
      4          7           0       -0.545156   -1.146980    0.346596
      5          8           0       -1.532975   -0.623273   -0.325945
      6          6           0       -1.176075    0.715195   -0.550677
      7          6           0       -0.465930    1.122075    0.596118
      8          1           0        0.037382    0.253344   -1.266116
      9          1           0       -1.912958    1.238823   -1.146466
     10          1           0       -0.032228    2.094849    0.755326
 ---------------------------------------------------------------------

 SCF Done:  E(RHF) =  -358.689512500     A.U. after    2 cycles

 The electronic state is 1-A.
 Alpha  occ. eigenvalues --  -21.19381 -21.14189 -15.88719 -11.57265 -11.50856
 Alpha  occ. eigenvalues --  -11.45845 -11.40793  -1.99607  -1.78131  -1.34836
 Alpha  occ. eigenvalues --   -1.20534  -0.91617  -0.88209  -0.79171  -0.75553
 Alpha  occ. eigenvalues --   -0.64892  -0.60654  -0.57829  -0.53880  -0.51327
 Alpha  occ. eigenvalues --   -0.50975  -0.45125  -0.43289  -0.34244  -0.28737
 Alpha virt. eigenvalues --    0.03627   0.05103   0.05653   0.07237   0.08775
 Alpha virt. eigenvalues --    0.09049   0.09464   0.10522   0.11035   0.11403
 Alpha virt. eigenvalues --    0.11938   0.13559   0.14495   0.15058   0.15439

 Mulliken charges:
               1
     1  O   -2.840227
     2  C    3.321637
     3  C   -0.281400
     4  N    0.272249
     5  O   -2.636568
     6  C   -0.402212
     7  C   -0.845867
     8  H    0.731921
     9  H    1.356264
    10  H    1.324204
 Sum of Mulliken charges =  -0.00000

 Dipole moment (field-independent basis, Debye):
    X=             -0.6636    Y=              1.0404    Z=             -1.5790  Tot=              2.0040

 Test job not archived.
 1\1\GINC-SE456\SP\RHF\Aug-CC-pVDZ\C4H3N1O2\OHZDE\09-Apr-2025\0\\#t hf
 aug-cc-pvdz iop(5/13=1,5/36=2,99/5=2) pseudo=read geom=check guess=(re
 ad,tcheck) scf=(maxcycle=1)\\title\\0,1\O,0,-2.53490567,0.25404983,-0.
 50929038\C,0,-1.40647963,0.0254455,-0.62238012\C,0,-0.05974545,0.54650
 474,-0.98365395\N,0,0.43504873,-0.69249548,-1.36595461\O,0,1.19663504,
 -1.10601368,-0.39057986\C,0,0.83827452,-0.33714753,0.72736495\C,0,0.51
 669463,0.94072649,0.22874537\H,0,-0.5490941,-0.84639627,0.61113352\H,0
 ,1.38327694,-0.63089341,1.61552735\H,0,0.18586199,1.78037882,0.8163397

 Normal termination of Gaussian 16 at Wed Apr  9 03:58:27 2025.
