 Gaussian 16, Revision C.01,

 ----------------------------------------------------------------------
 #t hf aug-cc-pvdz symm=none int=(grid=ultrafine) guess=(read,tcheck) s
 table=(opt,rrhf)
 ----------------------------------------------------------------------
 -----
 title
 -----
 Symbolic Z-matrix:
 Charge =  0 Multiplicity = 1

 SCF Done:  E(RHF) =  -358.546184363     A.U. after   15 cycles
 Normal termination of Gaussian 16 at Wed Apr  9 03:39:14 2025.
 Gaussian 16:  ES64L-G16RevC.01  3-Jul-2019

 ----------------------------------------------------------------------
 #t hf aug-cc-pvdz iop(5/13=1,5/36=2,99/5=2) pseudo=read geom=check gue
 ss=(read,tcheck) scf=(maxcycle=1)
 ----------------------------------------------------------------------
 -----
 title
 -----
 Structure from the checkpoint file:  "Grambow2020_wb97xd3_007451_reverse_mol2.chk"
 Charge =  0 Multiplicity = 1

                         Standard orientation:
 ---------------------------------------------------------------------
 Center     Atomic      Atomic             Coordinates (Angstroms)
 Number     Number       Type             X           Y           Z
 ---------------------------------------------------------------------
      1          8           0        3.172394    0.136539   -0.119990
      2          6           0        1.925918    0.245642    0.474237
      3          6           0       -0.233661   -0.618538   -0.138572
      4          7           0        0.872274   -0.253742   -0.400527
      5          8           0       -2.371901    1.202361   -0.076488
      6          6           0       -2.543914    0.014448    0.063682
      7          6           0       -1.489392   -0.994538    0.059757
      8          1           0        3.190528    0.677711   -0.913047
      9          1           0        1.961218   -0.342461    1.391596
     10          1           0        1.663199    1.281406    0.712911
     11          1           0       -3.562030   -0.393965    0.213263
     12          1           0       -1.716486   -2.039780    0.216172
 ---------------------------------------------------------------------

 SCF Done:  E(RHF) =  -360.109292749     A.U. after    2 cycles

 The electronic state is 1-A.
 Alpha  occ. eigenvalues --  -21.09875 -21.04755 -15.79068 -11.52404 -11.48785
 Alpha  occ. eigenvalues --  -11.46851 -11.41046  -1.75690  -1.70180  -1.42145
 Alpha  occ. eigenvalues --   -1.15539  -1.00466  -0.86871  -0.74477  -0.70843
 Alpha  occ. eigenvalues --   -0.67567  -0.62943  -0.62347  -0.53706  -0.51286
 Alpha  occ. eigenvalues --   -0.47735  -0.45948  -0.42828  -0.35990  -0.30497
 Alpha  occ. eigenvalues --   -0.29551
 Alpha virt. eigenvalues --    0.03059   0.04971   0.05390   0.05904   0.06253
 Alpha virt. eigenvalues --    0.09131   0.09760   0.10236   0.11255   0.12079
 Alpha virt. eigenvalues --    0.12713   0.12905   0.13858   0.14665   0.14939

 Mulliken charges:
               1
     1  O   -2.593600
     2  C   -0.570089
     3  C    2.692903
     4  N   -3.084682
     5  O   -2.838493
     6  C    0.964096
     7  C   -1.198751
     8  H    0.767928
     9  H    1.492913
    10  H    1.481609
    11  H    1.476470
    12  H    1.409694
 Sum of Mulliken charges =  -0.00000

 Dipole moment (field-independent basis, Debye):
    X=              1.3986    Y=             -0.5479    Z=              0.7323  Tot=              1.6711

 Test job not archived.
 1\1\GINC-SE073\SP\RHF\Aug-CC-pVDZ\C4H5N1O2\OHZDE\09-Apr-2025\0\\#t hf
 aug-cc-pvdz iop(5/13=1,5/36=2,99/5=2) pseudo=read geom=check guess=(re
 ad,tcheck) scf=(maxcycle=1)\\title\\0,1\O,0,-3.07911966,0.45662332,-0.
 19777246\C,0,-1.86374293,-0.17025014,-0.4182284\C,0,0.30709575,0.12663
 589,0.5744648\N,0,-0.77583308,0.52044237,0.26306318\O,0,2.47572226,0.3
 2769287,-1.19986071\C,0,2.61588128,-0.06732482,-0.06641914\C,0,1.54270
 68,-0.21575969,0.91151053\H,0,-3.04439437,1.34511259,-0.5604245\H,0,-1
 .95932707,-1.1869283,-0.03627616\H,0,-1.59293689,-0.20118974,-1.478653

 Normal termination of Gaussian 16 at Wed Apr  9 03:39:18 2025.
