 Gaussian 16, Revision C.01,

 ----------------------------------------------------------------------
 #t hf aug-cc-pvdz symm=none int=(grid=ultrafine) guess=(read,tcheck) s
 table=(opt,rrhf)
 ----------------------------------------------------------------------
 -----
 title
 -----
 Symbolic Z-matrix:
 Charge =  0 Multiplicity = 1

 SCF Done:  E(RHF) =  -353.428237056     A.U. after   17 cycles
 Normal termination of Gaussian 16 at Wed Apr  9 17:58:20 2025.
 Gaussian 16:  ES64L-G16RevC.01  3-Jul-2019

 ----------------------------------------------------------------------
 #t hf aug-cc-pvdz iop(5/13=1,5/36=2,99/5=2) pseudo=read geom=check gue
 ss=(read,tcheck) scf=(maxcycle=1)
 ----------------------------------------------------------------------
 -----
 title
 -----
 Structure from the checkpoint file:  "Grambow2020_wb97xd3_006534_reverse_mol1.chk"
 Charge =  0 Multiplicity = 1

                         Standard orientation:
 ---------------------------------------------------------------------
 Center     Atomic      Atomic             Coordinates (Angstroms)
 Number     Number       Type             X           Y           Z
 ---------------------------------------------------------------------
      1          8           0        2.199993    0.008020   -0.084937
      2          6           0        1.005432    0.052034    0.013093
      3          7           0        0.245720   -1.097825    0.122920
      4          7           0       -1.098921   -1.131541   -0.098432
      5          6           0       -1.810006   -0.001592   -0.165593
      6          6           0       -0.993491    1.220276    0.018330
      7          7           0        0.282780    1.262143    0.072094
      8          1           0        0.718992   -1.985787    0.070434
      9          1           0       -2.014960   -1.098942    0.632531
     10          1           0       -1.522641    2.166819    0.105482
 ---------------------------------------------------------------------

 SCF Done:  E(RHF) =  -354.964915959     A.U. after    2 cycles

 The electronic state is 1-A.
 Alpha  occ. eigenvalues --  -21.05408 -15.85195 -15.82633 -15.78793 -11.53293
 Alpha  occ. eigenvalues --  -11.48559 -11.43526  -1.75519  -1.60857  -1.40340
 Alpha  occ. eigenvalues --   -1.28599  -1.00179  -0.93287  -0.80038  -0.71886
 Alpha  occ. eigenvalues --   -0.70435  -0.67351  -0.56781  -0.53297  -0.51324
 Alpha  occ. eigenvalues --   -0.47215  -0.44794  -0.36112  -0.33821  -0.30816
 Alpha virt. eigenvalues --    0.02900   0.04593   0.05150   0.05448   0.09294
 Alpha virt. eigenvalues --    0.09639   0.10277   0.10793   0.11234   0.12967
 Alpha virt. eigenvalues --    0.13253   0.14018   0.14187   0.15048   0.16367

 Mulliken charges:
               1
     1  O   -3.000752
     2  C    5.163311
     3  N   -1.731409
     4  N   -1.648019
     5  C    0.028903
     6  C    0.573850
     7  N   -2.991996
     8  H    0.801216
     9  H    1.063114
    10  H    1.741783
 Sum of Mulliken charges =  -0.00000

 Dipole moment (field-independent basis, Debye):
    X=             -0.5020    Y=             -1.6770    Z=              0.9379  Tot=              1.9860

 Test job not archived.
 1\1\GINC-SE135\SP\RHF\Aug-CC-pVDZ\C3H3N3O1\OHZDE\09-Apr-2025\0\\#t hf
 aug-cc-pvdz iop(5/13=1,5/36=2,99/5=2) pseudo=read geom=check guess=(re
 ad,tcheck) scf=(maxcycle=1)\\title\\0,1\O,0,2.25440058,-0.5089179,0.96
 856576\C,0,1.1805494,-0.33403541,0.46380504\N,0,0.60777243,0.92258431,
 0.39874172\N,0,-0.71667413,1.1305592,0.15220152\C,0,-1.48899566,0.1444
 3321,-0.31471618\C,0,-0.76101973,-1.12973387,-0.51480756\N,0,0.4376977
 1,-1.36923312,-0.14167585\H,0,1.09668087,1.68967678,0.8320491\H,0,-1.2
 9839693,1.40248167,-0.82869252\H,0,-1.29352253,-1.93686587,-1.01332403

 Normal termination of Gaussian 16 at Wed Apr  9 17:58:23 2025.
