 Gaussian 16, Revision C.01,

 ----------------------------------------------------------------------
 #t hf aug-cc-pvdz symm=none int=(grid=ultrafine) guess=(read,tcheck) s
 table=(opt,rrhf)
 ----------------------------------------------------------------------
 -----
 title
 -----
 Symbolic Z-matrix:
 Charge =  0 Multiplicity = 1

 SCF Done:  E(RHF) =  -304.599932592     A.U. after   16 cycles
 Normal termination of Gaussian 16 at Wed Apr  9 03:14:20 2025.
 Gaussian 16:  ES64L-G16RevC.01  3-Jul-2019

 ----------------------------------------------------------------------
 #t hf aug-cc-pvdz iop(5/13=1,5/36=2,99/5=2) pseudo=read geom=check gue
 ss=(read,tcheck) scf=(maxcycle=1)
 ----------------------------------------------------------------------
 -----
 title
 -----
 Structure from the checkpoint file:  "Grambow2020_b97d3_006919_reverse_mol2.chk"
 Charge =  0 Multiplicity = 1

                         Standard orientation:
 ---------------------------------------------------------------------
 Center     Atomic      Atomic             Coordinates (Angstroms)
 Number     Number       Type             X           Y           Z
 ---------------------------------------------------------------------
      1          8           0       -1.186884   -1.229029   -0.149698
      2          6           0       -0.373358   -0.085402   -0.024813
      3          6           0       -1.170524    1.213227    0.073820
      4          6           0        0.726158    0.045363   -1.141810
      5          8           0        1.693968    0.111230   -0.208094
      6          6           0        0.833770   -0.175061    0.955661
      7          1           0       -2.025428   -1.058460    0.319090
      8          1           0       -1.818336    1.311460   -0.806994
      9          1           0       -1.794716    1.212775    0.982414
     10          1           0       -0.514536    2.092883    0.116575
     11          1           0        0.960169    0.578702    1.746085
     12          1           0        1.039900   -1.183728    1.328013
 ---------------------------------------------------------------------

 SCF Done:  E(RHF) =  -305.951807560     A.U. after    2 cycles

 The electronic state is 1-A.
 Alpha  occ. eigenvalues --  -21.11014 -21.09308 -11.48557 -11.44529 -11.42355
 Alpha  occ. eigenvalues --  -11.39300  -1.83467  -1.72193  -1.15806  -1.01332
 Alpha  occ. eigenvalues --   -0.94439  -0.70425  -0.68241  -0.64343  -0.63038
 Alpha  occ. eigenvalues --   -0.59569  -0.56039  -0.51936  -0.42995  -0.41099
 Alpha  occ. eigenvalues --   -0.40393  -0.34311  -0.30786
 Alpha virt. eigenvalues --    0.03178   0.04897   0.05097   0.05551   0.06179
 Alpha virt. eigenvalues --    0.06588   0.09591   0.10513   0.10760   0.12237
 Alpha virt. eigenvalues --    0.12935   0.13964   0.14501   0.15112   0.15359

 Mulliken charges:
               1
     1  O   -3.491845
     2  C    3.501699
     3  C   -3.795251
     4  C    0.306815
     5  O   -2.091719
     6  C   -1.675581
     7  H    0.743941
     8  H    1.168528
     9  H    1.156199
    10  H    1.297843
    11  H    1.491223
    12  H    1.388148
 Sum of Mulliken charges =  -0.00000

 Dipole moment (field-independent basis, Debye):
    X=             -0.8346    Y=              0.4178    Z=              3.4980  Tot=              3.6204

 Test job not archived.
 1\1\GINC-SE021\SP\RHF\Aug-CC-pVDZ\C4H6O2\OHZDE\09-Apr-2025\0\\#t hf au
 g-cc-pvdz iop(5/13=1,5/36=2,99/5=2) pseudo=read geom=check guess=(read
 ,tcheck) scf=(maxcycle=1)\\title\\0,1\O,0,0.19521935,-1.31154158,-1.15
 569645\C,0,0.03441886,-0.12366288,-0.41516394\C,0,-1.26946019,-0.08016
 452,0.37833944\C,0,0.18612654,1.1895686,-1.26729413\O,0,1.15630292,1.6
 3318861,-0.44584461\C,0,1.27755525,0.40418873,0.36105272\H,0,-0.255011
 66,-2.0322088,-0.67617274\H,0,-2.11772406,-0.20984992,-0.30633058\H,0,
 -1.2877186,-0.88468719,1.13171082\H,0,-1.39614607,0.87581721,0.9036883

 Normal termination of Gaussian 16 at Wed Apr  9 03:14:23 2025.
