 Gaussian 16, Revision C.01,

 ----------------------------------------------------------------------
 #t hf aug-cc-pvdz symm=none int=(grid=ultrafine) guess=(read,tcheck) s
 table=(opt,rrhf)
 ----------------------------------------------------------------------
 -----
 title
 -----
 Symbolic Z-matrix:
 Charge =  0 Multiplicity = 1

 SCF Done:  E(RHF) =  -318.852965312     A.U. after   15 cycles
 Normal termination of Gaussian 16 at Wed Apr  9 18:58:47 2025.
 Gaussian 16:  ES64L-G16RevC.01  3-Jul-2019

 ----------------------------------------------------------------------
 #t hf aug-cc-pvdz iop(5/13=1,5/36=2,99/5=2) pseudo=read geom=check gue
 ss=(read,tcheck) scf=(maxcycle=1)
 ----------------------------------------------------------------------
 -----
 title
 -----
 Structure from the checkpoint file:  "Grambow2020_wb97xd3_007960_reverse_mol2.chk"
 Charge =  0 Multiplicity = 1

                         Standard orientation:
 ---------------------------------------------------------------------
 Center     Atomic      Atomic             Coordinates (Angstroms)
 Number     Number       Type             X           Y           Z
 ---------------------------------------------------------------------
      1          6           0       -2.656513   -0.309019   -0.035898
      2          6           0       -1.503393    0.639811   -0.013069
      3          6           0       -0.225182    0.286614    0.044426
      4          6           0        1.010260    1.151303    0.061975
      5          7           0        2.004896    0.120062   -0.184426
      6          7           0        1.457141   -1.111552    0.003331
      7          7           0        0.217677   -1.068470    0.088227
      8          1           0       -3.248255   -0.172470   -0.944872
      9          1           0       -2.317905   -1.342123    0.007874
     10          1           0       -3.324388   -0.122709    0.809218
     11          1           0        1.013651    1.907907   -0.722671
     12          1           0       -1.733365    1.701000   -0.047260
     13          1           0        1.159281    1.643765    1.029742
     14          1           0        2.941952    0.192099    0.173438
 ---------------------------------------------------------------------

 SCF Done:  E(RHF) =  -320.349493297     A.U. after    2 cycles

 The electronic state is 1-A.
 Alpha  occ. eigenvalues --  -15.81733 -15.76771 -15.76105 -11.46031 -11.44404
 Alpha  occ. eigenvalues --  -11.39634 -11.37114  -1.66482  -1.30686  -1.23437
 Alpha  occ. eigenvalues --   -1.09353  -0.93641  -0.87618  -0.78441  -0.69519
 Alpha  occ. eigenvalues --   -0.67201  -0.61075  -0.57656  -0.56485  -0.53225
 Alpha  occ. eigenvalues --   -0.50915  -0.49037  -0.46376  -0.41263  -0.36048
 Alpha  occ. eigenvalues --   -0.28453
 Alpha virt. eigenvalues --    0.03429   0.04943   0.05510   0.05802   0.06093
 Alpha virt. eigenvalues --    0.06524   0.07727   0.09144   0.10472   0.11688
 Alpha virt. eigenvalues --    0.12787   0.13488   0.14159   0.14701   0.14775

 Mulliken charges:
               1
     1  C   -4.276269
     2  C   -0.401732
     3  C    2.674003
     4  C   -2.407878
     5  N   -1.633403
     6  N   -0.266397
     7  N   -1.990865
     8  H    1.165395
     9  H    1.336310
    10  H    1.150787
    11  H    1.240900
    12  H    1.445930
    13  H    1.167769
    14  H    0.795449
 Sum of Mulliken charges =  -0.00000

 Dipole moment (field-independent basis, Debye):
    X=              0.4609    Y=              2.8609    Z=              0.4655  Tot=              2.9350

 Test job not archived.
 1\1\GINC-SE224\SP\RHF\Aug-CC-pVDZ\C4H7N3\OHZDE\09-Apr-2025\0\\#t hf au
 g-cc-pvdz iop(5/13=1,5/36=2,99/5=2) pseudo=read geom=check guess=(read
 ,tcheck) scf=(maxcycle=1)\\title\\0,1\C,0,-2.13983691,0.87410392,0.334
 17365\C,0,-1.10794446,0.09158075,-0.40969508\C,0,0.14513686,-0.0911683
 8,-0.01186749\C,0,1.2592416,-0.86413966,-0.67186546\N,0,2.19619734,-0.
 89299998,0.43932931\N,0,1.82354242,0.00880293,1.38803474\N,0,0.6737738
 ,0.44263048,1.20052509\H,0,-2.99534353,0.2411718,0.58426123\H,0,-1.732
 62246,1.28935347,1.25374948\H,0,-2.51966804,1.69297127,-0.28240914\H,0

 Normal termination of Gaussian 16 at Wed Apr  9 18:58:51 2025.
