 Gaussian 16, Revision C.01,

 ----------------------------------------------------------------------
 #t hf aug-cc-pvdz symm=none int=(grid=ultrafine) guess=(read,tcheck) s
 table=(opt,rrhf)
 ----------------------------------------------------------------------
 -----
 title
 -----
 Symbolic Z-matrix:
 Charge =  0 Multiplicity = 1

 SCF Done:  E(RHF) =  -267.657762233     A.U. after   14 cycles
 Normal termination of Gaussian 16 at Wed Apr  9 03:20:54 2025.
 Gaussian 16:  ES64L-G16RevC.01  3-Jul-2019

 ----------------------------------------------------------------------
 #t hf aug-cc-pvdz iop(5/13=1,5/36=2,99/5=2) pseudo=read geom=check gue
 ss=(read,tcheck) scf=(maxcycle=1)
 ----------------------------------------------------------------------
 -----
 title
 -----
 Structure from the checkpoint file:  "Grambow2020_wb97xd3_006075_forward_mol2.chk"
 Charge =  0 Multiplicity = 1

                         Standard orientation:
 ---------------------------------------------------------------------
 Center     Atomic      Atomic             Coordinates (Angstroms)
 Number     Number       Type             X           Y           Z
 ---------------------------------------------------------------------
      1          8           0       -2.388166   -0.656658    0.000812
      2          6           0       -1.910941    0.444609   -0.001713
      3          6           0       -0.437097    0.734910    0.001722
      4          6           0        0.426997   -0.521894   -0.000680
      5          6           0        1.852360   -0.207488    0.000547
      6          6           0        3.016390    0.073059   -0.000125
      7          1           0       -2.565058    1.341230   -0.006590
      8          1           0       -0.223241    1.360941    0.875007
      9          1           0       -0.218460    1.368136   -0.864905
     10          1           0        0.185276   -1.137168    0.868470
     11          1           0        0.187085   -1.131294   -0.874654
     12          1           0        4.053474    0.312247   -0.002336
 ---------------------------------------------------------------------

 SCF Done:  E(RHF) =  -268.888904262     A.U. after    2 cycles

 The electronic state is 1-A.
 Alpha  occ. eigenvalues --  -21.07096 -11.49552 -11.45850 -11.42268 -11.40287
 Alpha  occ. eigenvalues --  -11.39194  -1.72138  -1.24895  -1.08772  -0.97747
 Alpha  occ. eigenvalues --   -0.80868  -0.74065  -0.67284  -0.66064  -0.57948
 Alpha  occ. eigenvalues --   -0.54521  -0.54204  -0.49657  -0.43541  -0.37354
 Alpha  occ. eigenvalues --   -0.36973  -0.30026
 Alpha virt. eigenvalues --    0.03162   0.04557   0.05371   0.05665   0.06726
 Alpha virt. eigenvalues --    0.07271   0.09553   0.10771   0.10963   0.11121
 Alpha virt. eigenvalues --    0.12298   0.12718   0.13828   0.14427   0.14730

 Mulliken charges:
               1
     1  O   -2.750489
     2  C    1.386160
     3  C   -2.858728
     4  C   -3.744848
     5  C    4.500743
     6  C   -4.201468
     7  H    1.371822
     8  H    1.472964
     9  H    1.473817
    10  H    1.321537
    11  H    1.318169
    12  H    0.710321
 Sum of Mulliken charges =  -0.00000

 Dipole moment (field-independent basis, Debye):
    X=              0.1921    Y=              0.8925    Z=             -0.0047  Tot=              0.9130

 Test job not archived.
 1\1\GINC-SE342\SP\RHF\Aug-CC-pVDZ\C5H6O1\OHZDE\09-Apr-2025\0\\#t hf au
 g-cc-pvdz iop(5/13=1,5/36=2,99/5=2) pseudo=read geom=check guess=(read
 ,tcheck) scf=(maxcycle=1)\\title\\0,1\O,0,-2.54781181,-0.17419473,-0.6
 5776708\C,0,-2.06585703,-0.20353555,0.44105038\C,0,-0.59581857,-0.0945
 9899,0.73022523\C,0,0.25674366,0.07031617,-0.52363394\C,0,1.67844901,0
 .17547147,-0.21025233\C,0,2.83949102,0.26139898,0.06951694\H,0,-2.7121
 8428,-0.31801258,1.33602395\H,0,-0.300884,-0.98560956,1.29537119\H,0,-
 0.4515447,0.7432376,1.42090213\H,0,0.08981505,-0.77331106,-1.1965689\H

 Normal termination of Gaussian 16 at Wed Apr  9 03:20:57 2025.
