 Gaussian 16, Revision C.01,

 ----------------------------------------------------------------------
 #t hf aug-cc-pvdz symm=none int=(grid=ultrafine) guess=(read,tcheck) s
 table=(opt,rrhf)
 ----------------------------------------------------------------------
 -----
 title
 -----
 Symbolic Z-matrix:
 Charge =  0 Multiplicity = 1

 SCF Done:  E(RHF) =  -321.439901003     A.U. after   18 cycles
 Normal termination of Gaussian 16 at Wed Apr  9 19:09:41 2025.
 Gaussian 16:  ES64L-G16RevC.01  3-Jul-2019

 ----------------------------------------------------------------------
 #t hf aug-cc-pvdz iop(5/13=1,5/36=2,99/5=2) pseudo=read geom=check gue
 ss=(read,tcheck) scf=(maxcycle=1)
 ----------------------------------------------------------------------
 -----
 title
 -----
 Structure from the checkpoint file:  "Grambow2020_wb97xd3_008182_reverse_mol2.chk"
 Charge =  0 Multiplicity = 1

                         Standard orientation:
 ---------------------------------------------------------------------
 Center     Atomic      Atomic             Coordinates (Angstroms)
 Number     Number       Type             X           Y           Z
 ---------------------------------------------------------------------
      1          8           0        2.386424   -0.086704   -0.041552
      2          6           0        1.220378   -0.816261    0.215108
      3          6           0       -0.046823   -0.025097   -0.010127
      4          6           0       -0.075179    1.331195   -0.096476
      5          6           0       -1.330164    1.953752   -0.003219
      6          6           0       -1.243367   -0.812547   -0.035577
      7          7           0       -2.113653   -1.562660   -0.072410
      8          1           0        2.499944    0.003641   -0.989888
      9          1           0        1.160394   -1.729925   -0.389242
     10          1           0        1.261222   -1.135708    1.259934
     11          1           0        0.882590    1.851825   -0.083761
     12          1           0       -1.249041    2.856177    0.623987
 ---------------------------------------------------------------------

 SCF Done:  E(RHF) =  -322.859755248     A.U. after    2 cycles

 The electronic state is 1-A.
 Alpha  occ. eigenvalues --  -21.10924 -15.77460 -11.51723 -11.46977 -11.45040
 Alpha  occ. eigenvalues --  -11.43865 -11.41574  -1.75869  -1.35053  -1.24564
 Alpha  occ. eigenvalues --   -1.08140  -0.93279  -0.84337  -0.70117  -0.68147
 Alpha  occ. eigenvalues --   -0.64826  -0.60066  -0.53858  -0.53110  -0.50599
 Alpha  occ. eigenvalues --   -0.46987  -0.43740  -0.41301  -0.36047  -0.32753
 Alpha virt. eigenvalues --    0.01988   0.02903   0.05028   0.05163   0.05569
 Alpha virt. eigenvalues --    0.06746   0.08727   0.09635   0.10594   0.11030
 Alpha virt. eigenvalues --    0.11990   0.12914   0.13754   0.14221   0.14955

 Mulliken charges:
               1
     1  O   -2.702326
     2  C   -0.977724
     3  C    2.010679
     4  C   -0.230856
     5  C   -3.348514
     6  C    1.955328
     7  N   -2.509621
     8  H    0.669205
     9  H    1.160277
    10  H    1.203909
    11  H    1.645050
    12  H    1.124593
 Sum of Mulliken charges =  -0.00000

 Dipole moment (field-independent basis, Debye):
    X=              4.5761    Y=              1.2722    Z=              0.2817  Tot=              4.7580

 Test job not archived.
 1\1\GINC-SE222\SP\RHF\Aug-CC-pVDZ\C5H5N1O1\OHZDE\09-Apr-2025\0\\#t hf
 aug-cc-pvdz iop(5/13=1,5/36=2,99/5=2) pseudo=read geom=check guess=(re
 ad,tcheck) scf=(maxcycle=1)\\title\\0,1\O,0,-2.08757336,-0.01886096,-0
 .38990723\C,0,-1.04161272,-0.84893964,0.02809419\C,0,0.28205248,-0.131
 91325,0.15558683\C,0,0.53298962,1.07897012,-0.40884169\C,0,1.87358196,
 1.4911905,-0.47323857\C,0,1.29547231,-0.87187343,0.84687851\N,0,1.9978
 9409,-1.55376083,1.44941927\H,0,-2.35558914,0.54307976,0.34001108\H,0,
 -1.25586657,-1.33626779,0.98737795\H,0,-0.94558187,-1.6473781,-0.71261

 Normal termination of Gaussian 16 at Wed Apr  9 19:09:45 2025.
