 Gaussian 16, Revision C.01,

 ----------------------------------------------------------------------
 #t hf aug-cc-pvdz symm=none int=(grid=ultrafine) guess=(read,tcheck) s
 table=(opt,rrhf)
 ----------------------------------------------------------------------
 -----
 title
 -----
 Symbolic Z-matrix:
 Charge =  0 Multiplicity = 1

 SCF Done:  E(RHF) =  -343.569719709     A.U. after   15 cycles
 Normal termination of Gaussian 16 at Wed Apr  9 03:28:23 2025.
 Gaussian 16:  ES64L-G16RevC.01  3-Jul-2019

 ----------------------------------------------------------------------
 #t hf aug-cc-pvdz iop(5/13=1,5/36=2,99/5=2) pseudo=read geom=check gue
 ss=(read,tcheck) scf=(maxcycle=1)
 ----------------------------------------------------------------------
 -----
 title
 -----
 Structure from the checkpoint file:  "Grambow2020_wb97xd3_006713_forward_mol1.chk"
 Charge =  0 Multiplicity = 1

                         Standard orientation:
 ---------------------------------------------------------------------
 Center     Atomic      Atomic             Coordinates (Angstroms)
 Number     Number       Type             X           Y           Z
 ---------------------------------------------------------------------
      1          8           0        2.496127    0.193010   -0.258681
      2          6           0        1.411387   -0.695495   -0.139194
      3          6           0        0.293621   -0.063756    0.659142
      4          8           0       -0.187390    1.146997    0.042055
      5          6           0       -1.515586    0.618437    0.012743
      6          6           0       -1.798112   -0.363960   -1.023286
      7          6           0       -1.095724   -0.705159    0.627038
      8          1           0        2.172457    0.977543   -0.710218
      9          1           0        1.031274   -0.997099   -1.121915
     10          1           0        1.776867   -1.583266    0.382876
     11          1           0        0.614442    0.143232    1.684155
     12          1           0       -2.277871    1.253272    0.449471
     13          1           0       -1.111597   -1.390552   -0.382202
     14          1           0       -2.829675   -0.701966   -0.842379
     15          1           0       -1.619303   -1.161611    1.454562
 ---------------------------------------------------------------------

 SCF Done:  E(RHF) =  -345.124127578     A.U. after    2 cycles

 The electronic state is 1-A.
 Alpha  occ. eigenvalues --  -21.06755 -21.05008 -11.51035 -11.48799 -11.45190
 Alpha  occ. eigenvalues --  -11.41761 -11.39048  -1.80866  -1.70522  -1.27438
 Alpha  occ. eigenvalues --   -1.10159  -0.94600  -0.85041  -0.81124  -0.74277
 Alpha  occ. eigenvalues --   -0.66507  -0.61642  -0.59807  -0.56480  -0.53836
 Alpha  occ. eigenvalues --   -0.52485  -0.46645  -0.40379  -0.39236  -0.33756
 Alpha  occ. eigenvalues --   -0.30347  -0.29424
 Alpha virt. eigenvalues --    0.03458   0.04734   0.05102   0.05320   0.05397
 Alpha virt. eigenvalues --    0.06793   0.07196   0.07784   0.09836   0.11407
 Alpha virt. eigenvalues --    0.12433   0.12977   0.13331   0.13907   0.14225

 Mulliken charges:
               1
     1  O   -2.685115
     2  C   -0.846895
     3  C   -0.136018
     4  O   -3.088416
     5  C    1.276212
     6  C   -2.376347
     7  C   -2.485757
     8  H    0.771219
     9  H    1.269748
    10  H    1.316358
    11  H    1.564890
    12  H    1.500618
    13  H    1.955350
    14  H    0.965154
    15  H    0.998997
 Sum of Mulliken charges =  -0.00000

 Dipole moment (field-independent basis, Debye):
    X=             -1.2547    Y=             -0.2465    Z=              2.3868  Tot=              2.7077

 Test job not archived.
 1\1\GINC-SE339\SP\RHF\Aug-CC-pVDZ\C5H8O2\OHZDE\09-Apr-2025\0\\#t hf au
 g-cc-pvdz iop(5/13=1,5/36=2,99/5=2) pseudo=read geom=check guess=(read
 ,tcheck) scf=(maxcycle=1)\\title\\0,1\O,0,2.48535267,0.80646835,0.7671
 6157\C,0,1.65077981,0.17907661,-0.17636726\C,0,0.43827825,-0.41759472,
 0.50161485\O,0,-0.33866202,0.58396711,1.18814782\C,0,-1.50061743,0.209
 91663,0.44364515\C,0,-1.56915172,0.68500389,-0.93035543\C,0,-0.7558894
 ,-0.8450372,-0.35510361\H,0,1.96873277,1.50017465,1.18670224\H,0,1.325
 13642,0.88158086,-0.95201886\H,0,2.23495867,-0.61598076,-0.64635425\H,

 Normal termination of Gaussian 16 at Wed Apr  9 03:28:27 2025.
