 Gaussian 16, Revision C.01,

 ----------------------------------------------------------------------
 #t hf aug-cc-pvdz symm=none int=(grid=ultrafine) guess=(read,tcheck) s
 table=(opt,rrhf)
 ----------------------------------------------------------------------
 -----
 title
 -----
 Symbolic Z-matrix:
 Charge =  0 Multiplicity = 1

 SCF Done:  E(RHF) =  -306.423887846     A.U. after   18 cycles
 Normal termination of Gaussian 16 at Wed Apr  9 18:39:43 2025.
 Gaussian 16:  ES64L-G16RevC.01  3-Jul-2019

 ----------------------------------------------------------------------
 #t hf aug-cc-pvdz iop(5/13=1,5/36=2,99/5=2) pseudo=read geom=check gue
 ss=(read,tcheck) scf=(maxcycle=1)
 ----------------------------------------------------------------------
 -----
 title
 -----
 Structure from the checkpoint file:  "Grambow2020_wb97xd3_007367_reverse_mol1.chk"
 Charge =  0 Multiplicity = 1

                         Standard orientation:
 ---------------------------------------------------------------------
 Center     Atomic      Atomic             Coordinates (Angstroms)
 Number     Number       Type             X           Y           Z
 ---------------------------------------------------------------------
      1          6           0       -1.587533   -0.450552    0.764163
      2          6           0       -1.930660    0.199893   -0.542733
      3          6           0       -0.521218    0.193454   -0.035377
      4          6           0        0.525070    1.309747    0.192866
      5          6           0        1.653348    0.416704   -0.179233
      6          8           0        1.572676   -0.782492    0.364706
      7          6           0        0.307147   -0.987239   -0.416482
      8          1           0       -2.040956   -0.161635    1.705827
      9          1           0       -0.548331   -1.665264    0.225209
     10          1           0       -2.208503   -0.402071   -1.404144
     11          1           0       -2.426796    1.167341   -0.520206
     12          1           0        0.442968    2.178906   -0.458597
     13          1           0        0.571569    1.629532    1.236886
     14          1           0        2.419044    0.607986   -0.928934
     15          1           0        0.532681   -1.186898   -1.472920
 ---------------------------------------------------------------------

 SCF Done:  E(RHF) =  -307.890252395     A.U. after    2 cycles

 The electronic state is 1-A.
 Alpha  occ. eigenvalues --  -21.12211 -11.58916 -11.47972 -11.44064 -11.40272
 Alpha  occ. eigenvalues --  -11.37985 -11.33099  -1.85189  -1.32503  -1.14721
 Alpha  occ. eigenvalues --   -1.00328  -0.88784  -0.81728  -0.77066  -0.69715
 Alpha  occ. eigenvalues --   -0.68237  -0.62413  -0.58767  -0.54970  -0.52575
 Alpha  occ. eigenvalues --   -0.51553  -0.42516  -0.37233  -0.36308  -0.34100
 Alpha  occ. eigenvalues --   -0.22301
 Alpha virt. eigenvalues --    0.02504   0.03328   0.04416   0.04781   0.05979
 Alpha virt. eigenvalues --    0.06635   0.06881   0.07168   0.08350   0.09412
 Alpha virt. eigenvalues --    0.11238   0.12185   0.12820   0.13332   0.13763

 Mulliken charges:
               1
     1  C   -1.714975
     2  C   -2.246065
     3  C    2.459390
     4  C   -4.285808
     5  C    0.726282
     6  O   -3.153670
     7  C   -1.909716
     8  H    1.059796
     9  H    1.294922
    10  H    1.110657
    11  H    1.202266
    12  H    1.398883
    13  H    1.261529
    14  H    1.479609
    15  H    1.316900
 Sum of Mulliken charges =  -0.00000

 Dipole moment (field-independent basis, Debye):
    X=              3.0789    Y=              2.2906    Z=             -0.8049  Tot=              3.9210

 Test job not archived.
 1\1\GINC-SE035\SP\RHF\Aug-CC-pVDZ\C6H8O1\OHZDE\09-Apr-2025\0\\#t hf au
 g-cc-pvdz iop(5/13=1,5/36=2,99/5=2) pseudo=read geom=check guess=(read
 ,tcheck) scf=(maxcycle=1)\\title\\0,1\C,0,-1.47784758,0.22845753,-0.83
 50014\C,0,-1.64943155,-0.11481056,0.61465997\C,0,-0.28948533,-0.092876
 3,-0.01306802\C,0,0.86376083,-1.12213591,-0.07283843\C,0,1.90089811,-0
 .05839375,-0.03049611\O,0,1.64049444,0.95824214,-0.82992692\C,0,0.4170
 0424,1.22096656,-0.00059816\H,0,-1.95805389,-0.32439533,-1.63472115\H,
 0,-0.55560366,1.63439079,-0.69805226\H,0,-1.93634,0.64829313,1.3336458

 Normal termination of Gaussian 16 at Wed Apr  9 18:39:48 2025.
