 Gaussian 16, Revision C.01,

 ----------------------------------------------------------------------
 #t hf aug-cc-pvdz symm=none int=(grid=ultrafine) guess=(read,tcheck) s
 table=(opt,rrhf)
 ----------------------------------------------------------------------
 -----
 title
 -----
 Symbolic Z-matrix:
 Charge =  0 Multiplicity = 1

 SCF Done:  E(RHF) =  -360.911749522     A.U. after   13 cycles
 Normal termination of Gaussian 16 at Wed Apr  9 18:08:13 2025.
 Gaussian 16:  ES64L-G16RevC.01  3-Jul-2019

 ----------------------------------------------------------------------
 #t hf aug-cc-pvdz iop(5/13=1,5/36=2,99/5=2) pseudo=read geom=check gue
 ss=(read,tcheck) scf=(maxcycle=1)
 ----------------------------------------------------------------------
 -----
 title
 -----
 Structure from the checkpoint file:  "Grambow2020_wb97xd3_006610_reverse_mol2.chk"
 Charge =  0 Multiplicity = 1

                         Standard orientation:
 ---------------------------------------------------------------------
 Center     Atomic      Atomic             Coordinates (Angstroms)
 Number     Number       Type             X           Y           Z
 ---------------------------------------------------------------------
      1          6           0        1.145243    1.390507   -0.337883
      2          6           0        1.534368    0.047154    0.190416
      3          8           0        2.521222   -0.594265   -0.491743
      4          6           0        0.992209   -0.534254    1.258888
      5          7           0       -2.211856    0.824979    0.430814
      6          6           0       -2.446464   -0.182495   -0.292685
      7          8           0       -1.546553   -1.128127   -0.543928
      8          1           0        0.275793    1.775270    0.190918
      9          1           0        0.890465    1.322749   -1.400338
     10          1           0        1.975650    2.094145   -0.233633
     11          1           0       -0.723287   -0.926233   -0.056229
     12          1           0        2.769937   -0.080294   -1.261928
     13          1           0        1.337202   -1.502870    1.595542
     14          1           0        0.229572   -0.016564    1.823135
     15          1           0       -3.031380    1.417160    0.494711
     16          1           0       -3.390447   -0.404553   -0.794926
 ---------------------------------------------------------------------

 SCF Done:  E(RHF) =  -362.549225311     A.U. after    2 cycles

 The electronic state is 1-A.
 Alpha  occ. eigenvalues --  -21.10197 -21.09913 -15.72678 -11.46644 -11.46100
 Alpha  occ. eigenvalues --  -11.38704 -11.35955  -1.77030  -1.75945  -1.30159
 Alpha  occ. eigenvalues --   -1.16363  -1.01600  -0.85825  -0.77768  -0.70425
 Alpha  occ. eigenvalues --   -0.65772  -0.61278  -0.60664  -0.59337  -0.53420
 Alpha  occ. eigenvalues --   -0.52299  -0.51152  -0.46677  -0.44898  -0.41797
 Alpha  occ. eigenvalues --   -0.39984  -0.32317  -0.28634
 Alpha virt. eigenvalues --    0.03642   0.04498   0.05573   0.05709   0.06099
 Alpha virt. eigenvalues --    0.06418   0.07325   0.08443   0.08914   0.10486
 Alpha virt. eigenvalues --    0.11694   0.12787   0.13375   0.14283   0.14704

 Mulliken charges:
               1
     1  C   -4.751611
     2  C    4.153348
     3  O   -3.776419
     4  C   -3.829291
     5  N   -2.762090
     6  C    2.162938
     7  O   -3.210909
     8  H    1.526955
     9  H    1.242782
    10  H    1.125265
    11  H    1.676039
    12  H    1.027920
    13  H    1.448984
    14  H    1.480980
    15  H    0.785257
    16  H    1.699851
 Sum of Mulliken charges =   0.00000

 Dipole moment (field-independent basis, Debye):
    X=             -0.1477    Y=              0.4297    Z=             -1.7164  Tot=              1.7755

 Test job not archived.
 1\1\GINC-SE454\SP\RHF\Aug-CC-pVDZ\C4H9N1O2\OHZDE\09-Apr-2025\0\\#t hf
 aug-cc-pvdz iop(5/13=1,5/36=2,99/5=2) pseudo=read geom=check guess=(re
 ad,tcheck) scf=(maxcycle=1)\\title\\0,1\C,0,-1.3268899,-0.78203043,-0.
 54592337\C,0,-1.4367218,0.47231402,0.26009736\O,0,-2.28488449,1.417378
 86,-0.22787274\C,0,-0.77829451,0.70589067,1.39390543\N,0,2.08419662,-1
 .04000619,0.14600855\C,0,2.5052162,0.03130661,-0.37218699\O,0,1.807285
 84,1.16266697,-0.3821227\H,0,-0.54478411,-1.42669311,-0.15052719\H,0,-
 1.07573588,-0.54630144,-1.58499393\H,0,-2.27880659,-1.31998001,-0.5419

 Normal termination of Gaussian 16 at Wed Apr  9 18:08:18 2025.
