 Gaussian 16, Revision C.01,

 ----------------------------------------------------------------------
 #t hf aug-cc-pvdz symm=none int=(grid=ultrafine) guess=(read,tcheck) s
 table=(opt,rrhf)
 ----------------------------------------------------------------------
 -----
 title
 -----
 Symbolic Z-matrix:
 Charge =  0 Multiplicity = 1

 SCF Done:  E(RHF) =  -322.542457244     A.U. after   18 cycles
 Normal termination of Gaussian 16 at Wed Apr  9 18:11:19 2025.
 Gaussian 16:  ES64L-G16RevC.01  3-Jul-2019

 ----------------------------------------------------------------------
 #t hf aug-cc-pvdz iop(5/13=1,5/36=2,99/5=2) pseudo=read geom=check gue
 ss=(read,tcheck) scf=(maxcycle=1)
 ----------------------------------------------------------------------
 -----
 title
 -----
 Structure from the checkpoint file:  "Grambow2020_wb97xd3_006636_reverse_mol1.chk"
 Charge =  0 Multiplicity = 1

                         Standard orientation:
 ---------------------------------------------------------------------
 Center     Atomic      Atomic             Coordinates (Angstroms)
 Number     Number       Type             X           Y           Z
 ---------------------------------------------------------------------
      1          8           0        1.178258   -1.175677    0.052833
      2          6           0        1.503632   -0.054308   -0.308422
      3          6           0        0.683752    1.124034   -0.055156
      4          6           0       -0.804551    0.985962   -0.290833
      5          6           0       -1.333197   -0.367932   -0.674431
      6          6           0       -0.841162   -1.194533    0.469871
      7          7           0       -0.249155    0.966302    1.017717
      8          1           0        2.461254    0.061611   -0.831683
      9          1           0        1.152884    2.079812   -0.279801
     10          1           0       -1.283161    1.885787   -0.686332
     11          1           0       -0.973821   -0.731393   -1.638687
     12          1           0       -2.430209   -0.405403   -0.706885
     13          1           0       -0.635032   -2.243649    0.301043
     14          1           0       -1.224729   -0.964804    1.449493
 ---------------------------------------------------------------------

 SCF Done:  E(RHF) =  -324.036155892     A.U. after    2 cycles

 The electronic state is 1-A.
 Alpha  occ. eigenvalues --  -21.08329 -15.64396 -11.52145 -11.50498 -11.48157
 Alpha  occ. eigenvalues --  -11.43009 -11.37433  -1.75235  -1.42634  -1.17445
 Alpha  occ. eigenvalues --   -0.98968  -0.94670  -0.80074  -0.78630  -0.71705
 Alpha  occ. eigenvalues --   -0.66215  -0.61219  -0.56282  -0.55958  -0.53069
 Alpha  occ. eigenvalues --   -0.48477  -0.45958  -0.39706  -0.34749  -0.30305
 Alpha  occ. eigenvalues --   -0.24202
 Alpha virt. eigenvalues --    0.03262   0.04823   0.05209   0.05479   0.05722
 Alpha virt. eigenvalues --    0.06344   0.06744   0.08971   0.10284   0.10652
 Alpha virt. eigenvalues --    0.12359   0.12884   0.13869   0.14132   0.14327

 Mulliken charges:
               1
     1  O   -2.784625
     2  C    1.332524
     3  C   -0.955447
     4  C    0.274214
     5  C   -3.671877
     6  C   -2.246019
     7  N   -1.644934
     8  H    1.651671
     9  H    1.465339
    10  H    1.421814
    11  H    1.282981
    12  H    1.213889
    13  H    1.399275
    14  H    1.261197
 Sum of Mulliken charges =  -0.00000

 Dipole moment (field-independent basis, Debye):
    X=             -0.0713    Y=             -3.0584    Z=             -2.0088  Tot=              3.6598

 Test job not archived.
 1\1\GINC-SE103\SP\RHF\Aug-CC-pVDZ\C5H7N1O1\OHZDE\09-Apr-2025\0\\#t hf
 aug-cc-pvdz iop(5/13=1,5/36=2,99/5=2) pseudo=read geom=check guess=(re
 ad,tcheck) scf=(maxcycle=1)\\title\\0,1\O,0,0.4282051,1.05935796,1.418
 59455\C,0,1.03516907,1.30703841,0.38704624\C,0,0.52125129,0.96030903,-
 0.93223504\C,0,-0.09509706,-0.41287334,-1.08760027\C,0,-0.2151026,-1.2
 727805,0.13951106\C,0,-1.00468986,-0.37313538,1.0350468\N,0,-0.8941763
 3,0.75731667,-0.97235987\H,0,1.99932599,1.82494282,0.46739106\H,0,1.07
 171325,1.37454394,-1.77453191\H,0,0.08397511,-0.87937094,-2.05996071\H

 Normal termination of Gaussian 16 at Wed Apr  9 18:11:24 2025.
