 Gaussian 16, Revision C.01,

 ----------------------------------------------------------------------
 #t hf aug-cc-pvdz symm=none int=(grid=ultrafine) guess=(read,tcheck) s
 table=(opt,rrhf)
 ----------------------------------------------------------------------
 -----
 title
 -----
 Symbolic Z-matrix:
 Charge =  0 Multiplicity = 1

 SCF Done:  E(RHF) =  -376.971605701     A.U. after   13 cycles
 Normal termination of Gaussian 16 at Wed Apr  9 03:58:45 2025.
 Gaussian 16:  ES64L-G16RevC.01  3-Jul-2019

 ----------------------------------------------------------------------
 #t hf aug-cc-pvdz iop(5/13=1,5/36=2,99/5=2) pseudo=read geom=check gue
 ss=(read,tcheck) scf=(maxcycle=1)
 ----------------------------------------------------------------------
 -----
 title
 -----
 Structure from the checkpoint file:  "Grambow2020_wb97xd3_008741_forward_mol2.chk"
 Charge =  0 Multiplicity = 1

                         Standard orientation:
 ---------------------------------------------------------------------
 Center     Atomic      Atomic             Coordinates (Angstroms)
 Number     Number       Type             X           Y           Z
 ---------------------------------------------------------------------
      1          7           0       -2.546140   -0.004979    0.196701
      2          6           0       -1.201254   -0.151353   -0.046501
      3          8           0       -0.719162   -1.238988   -0.323327
      4          7           0       -0.468393    0.994414    0.025693
      5          6           0        0.912120    1.063803   -0.440493
      6          6           0        1.915163    0.286929    0.408919
      7          8           0        2.015832   -1.069635    0.074572
      8          1           0       -3.031533   -0.872879    0.340856
      9          1           0       -2.866978    0.770576    0.748140
     10          1           0       -0.975119    1.860218    0.055981
     11          1           0        1.180733    2.121267   -0.422714
     12          1           0        0.986264    0.716691   -1.476151
     13          1           0        1.658891    0.428969    1.469285
     14          1           0        2.905914    0.721357    0.249299
     15          1           0        1.114029   -1.399544   -0.062962
 ---------------------------------------------------------------------

 SCF Done:  E(RHF) =  -378.653922607     A.U. after    2 cycles

 The electronic state is 1-A.
 Alpha  occ. eigenvalues --  -21.03109 -21.02509 -15.78423 -15.76830 -11.51287
 Alpha  occ. eigenvalues --  -11.44677 -11.38523  -1.73656  -1.68303  -1.42724
 Alpha  occ. eigenvalues --   -1.32585  -1.08130  -0.90146  -0.80966  -0.74576
 Alpha  occ. eigenvalues --   -0.71070  -0.65816  -0.60293  -0.59722  -0.57501
 Alpha  occ. eigenvalues --   -0.53040  -0.50608  -0.48231  -0.40553  -0.37588
 Alpha  occ. eigenvalues --   -0.32063  -0.30313  -0.28786
 Alpha virt. eigenvalues --    0.02888   0.04140   0.05001   0.05918   0.06375
 Alpha virt. eigenvalues --    0.06844   0.07509   0.09421   0.11558   0.11765
 Alpha virt. eigenvalues --    0.12293   0.13701   0.14515   0.14858   0.15311

 Mulliken charges:
               1
     1  N   -2.801017
     2  C    5.490535
     3  O   -2.951938
     4  N   -2.273015
     5  C   -2.580580
     6  C   -0.855204
     7  O   -2.817870
     8  H    0.520570
     9  H    0.697609
    10  H    0.623128
    11  H    1.483852
    12  H    1.447523
    13  H    1.479879
    14  H    1.292615
    15  H    1.243913
 Sum of Mulliken charges =   0.00000

 Dipole moment (field-independent basis, Debye):
    X=             -2.3784    Y=              2.9576    Z=              0.7724  Tot=              3.8731

 Test job not archived.
 1\1\GINC-SE082\SP\RHF\Aug-CC-pVDZ\C3H8N2O2\OHZDE\09-Apr-2025\0\\#t hf
 aug-cc-pvdz iop(5/13=1,5/36=2,99/5=2) pseudo=read geom=check guess=(re
 ad,tcheck) scf=(maxcycle=1)\\title\\0,1\N,0,2.32068232,1.1016805,-0.42
 847005\C,0,1.0005366,0.84957018,-0.1404664\O,0,0.27497485,1.71348911,0
 .32772077\N,0,0.57126791,-0.40981005,-0.43161879\C,0,-0.84224272,-0.77
 014324,-0.4213108\C,0,-1.48693347,-0.79590427,0.96246582\O,0,-1.944113
 6,0.45307087,1.40205218\H,0,2.67081091,1.95299987,-0.02560054\H,0,2.97
 210174,0.3384344,-0.46866471\H,0,1.17480146,-0.97964651,-0.99583414\H,

 Normal termination of Gaussian 16 at Wed Apr  9 03:58:50 2025.
