 Gaussian 16, Revision C.01,

 ----------------------------------------------------------------------
 #t hf aug-cc-pvdz symm=none int=(grid=ultrafine) guess=(read,tcheck) s
 table=(opt,rrhf)
 ----------------------------------------------------------------------
 -----
 title
 -----
 Symbolic Z-matrix:
 Charge =  0 Multiplicity = 1

 SCF Done:  E(RHF) =  -233.948003803     A.U. after   14 cycles
 Normal termination of Gaussian 16 at Wed Apr  9 16:34:13 2025.
 Gaussian 16:  ES64L-G16RevC.01  3-Jul-2019

 ----------------------------------------------------------------------
 #t hf aug-cc-pvdz iop(5/13=1,5/36=2,99/5=2) pseudo=read geom=check gue
 ss=(read,tcheck) scf=(maxcycle=1)
 ----------------------------------------------------------------------
 -----
 title
 -----
 Structure from the checkpoint file:  "Grambow2020_b97d3_006829_forward_mol1.chk"
 Charge =  0 Multiplicity = 1

                         Standard orientation:
 ---------------------------------------------------------------------
 Center     Atomic      Atomic             Coordinates (Angstroms)
 Number     Number       Type             X           Y           Z
 ---------------------------------------------------------------------
      1          6           0       -1.007277    1.388736   -0.349752
      2          6           0       -0.451052   -0.013534   -0.077055
      3          6           0       -1.578795   -1.041920    0.024359
      4          6           0        0.837760   -0.416456   -0.861109
      5          6           0        1.695986    0.045874    0.196433
      6          6           0        0.547659    0.026661    1.218138
      7          1           0       -1.688800    1.694861    0.458504
      8          1           0       -0.206717    2.136191   -0.423051
      9          1           0       -1.578272    1.400092   -1.289238
     10          1           0       -2.271048   -0.774275    0.838136
     11          1           0       -1.188793   -2.047519    0.236680
     12          1           0       -2.163295   -1.084082   -0.906755
     13          1           0        0.854020   -1.456008   -1.187737
     14          1           0        2.156911   -0.280500   -1.660563
     15          1           0        2.223445    0.994298    0.116258
     16          1           0        2.753506   -0.488676   -0.763147
     17          1           0        0.420315    0.881208    1.901204
     18          1           0        0.423046   -0.911757    1.773621
 ---------------------------------------------------------------------

 SCF Done:  E(RHF) =  -235.212705803     A.U. after    2 cycles

 The electronic state is 1-A.
 Alpha  occ. eigenvalues --  -11.47572 -11.41902 -11.41122 -11.39040 -11.38559
 Alpha  occ. eigenvalues --  -11.35521  -1.35902  -1.11425  -1.00703  -0.96196
 Alpha  occ. eigenvalues --   -0.86186  -0.75075  -0.66871  -0.61533  -0.60601
 Alpha  occ. eigenvalues --   -0.58012  -0.55979  -0.53087  -0.51301  -0.46486
 Alpha  occ. eigenvalues --   -0.44406  -0.39852  -0.35109  -0.32252
 Alpha virt. eigenvalues --    0.03785   0.05108   0.05273   0.05477   0.05742
 Alpha virt. eigenvalues --    0.05936   0.06307   0.06582   0.07051   0.08856
 Alpha virt. eigenvalues --    0.09057   0.09171   0.09712   0.11583   0.12956

 Mulliken charges:
               1
     1  C   -4.277641
     2  C    2.064069
     3  C   -4.439087
     4  C   -1.848563
     5  C   -1.180093
     6  C   -4.058315
     7  H    1.253211
     8  H    1.325155
     9  H    1.183605
    10  H    1.241471
    11  H    1.303722
    12  H    1.156157
    13  H    1.431144
    14  H    0.346233
    15  H    1.317786
    16  H    0.363287
    17  H    1.357207
    18  H    1.460652
 Sum of Mulliken charges =   0.00000

 Dipole moment (field-independent basis, Debye):
    X=             -1.6710    Y=              0.2694    Z=              1.0073  Tot=              1.9696

 Test job not archived.
 1\1\GINC-SE162\SP\RHF\Aug-CC-pVDZ\C6H12\OHZDE\09-Apr-2025\0\\#t hf aug
 -cc-pvdz iop(5/13=1,5/36=2,99/5=2) pseudo=read geom=check guess=(read,
 tcheck) scf=(maxcycle=1)\\title\\0,1\C,0,-1.29634348,-1.01956034,0.531
 55983\C,0,-0.42326384,0.09050799,-0.0647533\C,0,-1.28130145,1.16061154
 ,-0.741743\C,0,0.78873296,0.56329187,0.79876519\C,0,1.67946732,-0.3716
 9102,0.16544578\C,0,0.72762074,-0.56335544,-1.02625782\H,0,-1.89768563
 ,-1.49916544,-0.25573299\H,0,-0.6911016,-1.79475098,1.01912575\H,0,-1.
 99144542,-0.60450174,1.2754405\H,0,-1.88409044,0.71590952,-1.54918704\

 Normal termination of Gaussian 16 at Wed Apr  9 16:34:20 2025.
