 Gaussian 16, Revision C.01,

 ----------------------------------------------------------------------
 #t hf aug-cc-pvdz symm=none int=(grid=ultrafine) guess=(read,tcheck) s
 table=(opt,rrhf)
 ----------------------------------------------------------------------
 -----
 title
 -----
 Symbolic Z-matrix:
 Charge =  0 Multiplicity = 1

 SCF Done:  E(RHF) =  -323.713329400     A.U. after   17 cycles
 Normal termination of Gaussian 16 at Wed Apr  9 18:33:41 2025.
 Gaussian 16:  ES64L-G16RevC.01  3-Jul-2019

 ----------------------------------------------------------------------
 #t hf aug-cc-pvdz iop(5/13=1,5/36=2,99/5=2) pseudo=read geom=check gue
 ss=(read,tcheck) scf=(maxcycle=1)
 ----------------------------------------------------------------------
 -----
 title
 -----
 Structure from the checkpoint file:  "Grambow2020_wb97xd3_007255_forward_mol1.chk"
 Charge =  0 Multiplicity = 1

                         Standard orientation:
 ---------------------------------------------------------------------
 Center     Atomic      Atomic             Coordinates (Angstroms)
 Number     Number       Type             X           Y           Z
 ---------------------------------------------------------------------
      1          6           0       -0.454280   -0.047460    1.534051
      2          6           0       -0.623066   -0.026020    0.053944
      3          6           0       -2.024045   -0.050454   -0.513532
      4          6           0        0.242309    1.120512   -0.532909
      5          8           0        1.499088    0.978232    0.065516
      6          6           0        1.396676   -1.142917   -0.272130
      7          7           0        0.237136   -1.224292   -0.447547
      8          1           0        1.169750    0.805161    1.026154
      9          1           0       -0.074942   -0.978778    1.939097
     10          1           0       -1.363549    0.241689    2.061349
     11          1           0       -2.585022    0.774406   -0.072054
     12          1           0       -2.036886    0.066680   -1.599975
     13          1           0       -2.527436   -0.978962   -0.247906
     14          1           0        0.351836    1.085875   -1.618468
     15          1           0       -0.234868    2.055487   -0.231091
     16          1           0        2.422901   -1.449334   -0.264951
 ---------------------------------------------------------------------

 SCF Done:  E(RHF) =  -325.262596684     A.U. after    2 cycles

 The electronic state is 1-A.
 Alpha  occ. eigenvalues --  -21.06573 -15.82202 -11.54829 -11.47155 -11.42469
 Alpha  occ. eigenvalues --  -11.38261 -11.28954  -1.74510  -1.44959  -1.19402
 Alpha  occ. eigenvalues --   -0.99116  -0.96039  -0.89667  -0.78856  -0.69865
 Alpha  occ. eigenvalues --   -0.66782  -0.61434  -0.59335  -0.55113  -0.53456
 Alpha  occ. eigenvalues --   -0.52645  -0.48964  -0.45468  -0.43777  -0.39314
 Alpha  occ. eigenvalues --   -0.34013  -0.22561
 Alpha virt. eigenvalues --    0.02925   0.04456   0.05315   0.06119   0.06342
 Alpha virt. eigenvalues --    0.06512   0.07138   0.07655   0.08138   0.09488
 Alpha virt. eigenvalues --    0.09841   0.10732   0.12547   0.13354   0.13612

 Mulliken charges:
               1
     1  C   -3.090345
     2  C    1.954074
     3  C   -4.475845
     4  C   -0.859862
     5  O   -2.475262
     6  C    0.659148
     7  N   -3.185399
     8  H    1.293767
     9  H    1.037425
    10  H    1.157575
    11  H    1.166802
    12  H    1.312245
    13  H    1.304983
    14  H    1.414013
    15  H    1.403838
    16  H    1.382843
 Sum of Mulliken charges =  -0.00000

 Dipole moment (field-independent basis, Debye):
    X=              2.2434    Y=             -1.1483    Z=             -3.4446  Tot=              4.2681

 Test job not archived.
 1\1\GINC-SE108\SP\RHF\Aug-CC-pVDZ\C5H9N1O1\OHZDE\09-Apr-2025\0\\#t hf
 aug-cc-pvdz iop(5/13=1,5/36=2,99/5=2) pseudo=read geom=check guess=(re
 ad,tcheck) scf=(maxcycle=1)\\title\\0,1\C,0,0.74003522,1.12176203,0.59
 238084\C,0,0.29278284,-0.11598887,-0.10590568\C,0,1.32875969,-1.156405
 39,-0.46597854\C,0,-0.91759115,-0.71386603,0.65917166\O,0,-1.78292737,
 0.36307561,0.88106931\C,0,-1.46410121,1.00976373,-1.14474174\N,0,-0.47
 783621,0.40575191,-1.35539788\H,0,-1.07069779,1.04736455,1.17384904\H,
 0,0.72096146,2.02171884,-0.01179349\H,0,1.72055082,1.00798392,1.055051

 Normal termination of Gaussian 16 at Wed Apr  9 18:33:47 2025.
