 Gaussian 16, Revision C.01,

 ----------------------------------------------------------------------
 #t hf aug-cc-pvdz symm=none int=(grid=ultrafine) guess=(read,tcheck) s
 table=(opt,rrhf)
 ----------------------------------------------------------------------
 -----
 title
 -----
 Symbolic Z-matrix:
 Charge =  0 Multiplicity = 1

 SCF Done:  E(RHF) =  -338.655683023     A.U. after   15 cycles
 Normal termination of Gaussian 16 at Wed Apr  9 19:17:58 2025.
 Gaussian 16:  ES64L-G16RevC.01  3-Jul-2019

 ----------------------------------------------------------------------
 #t hf aug-cc-pvdz iop(5/13=1,5/36=2,99/5=2) pseudo=read geom=check gue
 ss=(read,tcheck) scf=(maxcycle=1)
 ----------------------------------------------------------------------
 -----
 title
 -----
 Structure from the checkpoint file:  "Grambow2020_wb97xd3_008565_forward_mol1.chk"
 Charge =  0 Multiplicity = 1

                         Standard orientation:
 ---------------------------------------------------------------------
 Center     Atomic      Atomic             Coordinates (Angstroms)
 Number     Number       Type             X           Y           Z
 ---------------------------------------------------------------------
      1          7           0        1.962885    1.095276    0.130800
      2          6           0        2.100950   -0.111125   -0.199100
      3          8           0        1.129858   -1.023459   -0.081810
      4          6           0       -0.082350   -0.603467    0.544279
      5          6           0       -0.910853    0.237524   -0.405442
      6          6           0       -2.366863    0.566567    0.530499
      7          7           0       -2.720810   -0.076353   -0.400455
      8          1           0        2.818397    1.614692   -0.023800
      9          1           0        2.994655   -0.579535   -0.613964
     10          1           0        0.139826   -0.047323    1.454996
     11          1           0       -0.608821   -1.523764    0.788098
     12          1           0       -0.585801    1.268157   -0.489337
     13          1           0       -0.936942   -0.214009   -1.395345
 ---------------------------------------------------------------------

 SCF Done:  E(RHF) =  -340.188672318     A.U. after    2 cycles

 The electronic state is 1-A.
 Alpha  occ. eigenvalues --  -21.10327 -15.78581 -15.74491 -11.49917 -11.47767
 Alpha  occ. eigenvalues --  -11.43369 -11.40543  -1.83056  -1.40740  -1.32743
 Alpha  occ. eigenvalues --   -1.12045  -0.93572  -0.82372  -0.75475  -0.70949
 Alpha  occ. eigenvalues --   -0.64210  -0.61132  -0.60680  -0.54898  -0.51487
 Alpha  occ. eigenvalues --   -0.50007  -0.45857  -0.44215  -0.41843  -0.41508
 Alpha  occ. eigenvalues --   -0.33173
 Alpha virt. eigenvalues --    0.03410   0.05075   0.05712   0.06053   0.06762
 Alpha virt. eigenvalues --    0.07581   0.09131   0.10094   0.10288   0.11770
 Alpha virt. eigenvalues --    0.12056   0.12842   0.14226   0.14958   0.14995

 Mulliken charges:
               1
     1  N   -2.709839
     2  C    1.985120
     3  O   -3.235287
     4  C   -1.188483
     5  C   -2.737404
     6  C    0.268642
     7  N   -0.982464
     8  H    0.819991
     9  H    1.699937
    10  H    1.647594
    11  H    1.414751
    12  H    1.544392
    13  H    1.473048
 Sum of Mulliken charges =  -0.00000

 Dipole moment (field-independent basis, Debye):
    X=              3.1480    Y=             -1.3351    Z=             -1.3875  Tot=              3.6902

 Test job not archived.
 1\1\GINC-SE104\SP\RHF\Aug-CC-pVDZ\C4H6N2O1\OHZDE\09-Apr-2025\0\\#t hf
 aug-cc-pvdz iop(5/13=1,5/36=2,99/5=2) pseudo=read geom=check guess=(re
 ad,tcheck) scf=(maxcycle=1)\\title\\0,1\N,0,-1.7570096,1.01270905,-0.1
 4439888\C,0,-1.83983577,-0.1156821,0.4062141\O,0,-0.87090707,-1.036137
 14,0.3508056\C,0,0.26267574,-0.7362368,-0.46336739\C,0,1.17084245,0.25
 850049,0.23045038\C,0,2.51631066,0.41342587,-0.89646296\N,0,2.97556814
 ,-0.05461835,0.09111865\H,0,-2.60051948,1.55290302,0.00485432\H,0,-2.6
 7774281,-0.50132728,0.98880985\H,0,-0.06198121,-0.350239,-1.42963232\H

 Normal termination of Gaussian 16 at Wed Apr  9 19:18:02 2025.
