 Gaussian 16, Revision C.01,

 ----------------------------------------------------------------------
 #t hf aug-cc-pvdz symm=none int=(grid=ultrafine) guess=(read,tcheck) s
 table=(opt,rrhf)
 ----------------------------------------------------------------------
 -----
 title
 -----
 Symbolic Z-matrix:
 Charge =  0 Multiplicity = 1

 SCF Done:  E(RHF) =  -343.553297827     A.U. after   15 cycles
 Normal termination of Gaussian 16 at Wed Apr  9 19:20:07 2025.
 Gaussian 16:  ES64L-G16RevC.01  3-Jul-2019

 ----------------------------------------------------------------------
 #t hf aug-cc-pvdz iop(5/13=1,5/36=2,99/5=2) pseudo=read geom=check gue
 ss=(read,tcheck) scf=(maxcycle=1)
 ----------------------------------------------------------------------
 -----
 title
 -----
 Structure from the checkpoint file:  "Grambow2020_wb97xd3_008647_reverse_mol1.chk"
 Charge =  0 Multiplicity = 1

                         Standard orientation:
 ---------------------------------------------------------------------
 Center     Atomic      Atomic             Coordinates (Angstroms)
 Number     Number       Type             X           Y           Z
 ---------------------------------------------------------------------
      1          6           0        2.334374    0.633230   -0.172693
      2          6           0        1.578542   -0.648957   -0.407682
      3          8           0        0.741423   -0.913198    0.723891
      4          6           0       -0.178903   -0.264661   -0.066187
      5          6           0       -1.594602   -0.793767   -0.261332
      6          8           0       -2.104925    0.538931   -0.113433
      7          6           0       -0.828918    1.070517    0.276065
      8          1           0        2.612802    1.100840   -1.117388
      9          1           0        1.866265    1.357869    0.501129
     10          1           0        3.262678    0.293991    0.300057
     11          1           0        0.390631   -0.297950   -1.131686
     12          1           0       -1.851332   -1.237040   -1.224530
     13          1           0       -1.901196   -1.454340    0.555341
     14          1           0       -0.789210    1.309814    1.342578
     15          1           0       -0.545581    1.942772   -0.318185
 ---------------------------------------------------------------------

 SCF Done:  E(RHF) =  -345.117561960     A.U. after    2 cycles

 The electronic state is 1-A.
 Alpha  occ. eigenvalues --  -21.08190 -21.05758 -11.51341 -11.47911 -11.46795
 Alpha  occ. eigenvalues --  -11.42489 -11.38367  -1.84196  -1.76622  -1.12025
 Alpha  occ. eigenvalues --   -1.09665  -1.02560  -0.88971  -0.79641  -0.68891
 Alpha  occ. eigenvalues --   -0.67163  -0.63624  -0.59515  -0.57673  -0.55620
 Alpha  occ. eigenvalues --   -0.52442  -0.48059  -0.45459  -0.38336  -0.37711
 Alpha  occ. eigenvalues --   -0.31344  -0.27642
 Alpha virt. eigenvalues --    0.03732   0.04634   0.05429   0.05756   0.06075
 Alpha virt. eigenvalues --    0.06686   0.06712   0.08191   0.09336   0.10888
 Alpha virt. eigenvalues --    0.12002   0.12535   0.13297   0.13412   0.14543

 Mulliken charges:
               1
     1  C   -3.771588
     2  C   -0.375193
     3  O   -3.239773
     4  C    3.225018
     5  C   -1.994244
     6  O   -2.825877
     7  C   -1.860720
     8  H    1.244632
     9  H    1.490032
    10  H    1.249691
    11  H    1.596105
    12  H    1.293175
    13  H    1.237581
    14  H    1.252460
    15  H    1.478701
 Sum of Mulliken charges =  -0.00000

 Dipole moment (field-independent basis, Debye):
    X=             -0.8694    Y=              1.1881    Z=              0.7306  Tot=              1.6435

 Test job not archived.
 1\1\GINC-SE117\SP\RHF\Aug-CC-pVDZ\C5H8O2\OHZDE\09-Apr-2025\0\\#t hf au
 g-cc-pvdz iop(5/13=1,5/36=2,99/5=2) pseudo=read geom=check guess=(read
 ,tcheck) scf=(maxcycle=1)\\title\\0,1\C,0,2.10276627,-0.40299632,0.408
 91384\C,0,1.29531764,0.86743038,0.47634417\O,0,0.61853753,1.05892256,-
 0.77119296\C,0,-0.38920928,0.42119554,-0.08593732\C,0,-1.82889365,0.91
 998756,-0.11337869\O,0,-2.28608695,-0.43121243,-0.26706704\C,0,-0.9576
 0832,-0.94480546,-0.45106584\H,0,2.25660908,-0.82088604,1.40406692\H,0
 ,1.74801613,-1.16895908,-0.28802009\H,0,3.08063048,-0.05997104,0.05332

 Normal termination of Gaussian 16 at Wed Apr  9 19:20:12 2025.
