 Gaussian 16, Revision C.01,

 ----------------------------------------------------------------------
 #t hf aug-cc-pvdz symm=none int=(grid=ultrafine) guess=(read,tcheck) s
 table=(opt,rrhf)
 ----------------------------------------------------------------------
 -----
 title
 -----
 Symbolic Z-matrix:
 Charge =  0 Multiplicity = 1

 SCF Done:  E(RHF) =  -321.411225379     A.U. after   16 cycles
 Normal termination of Gaussian 16 at Wed Apr  9 03:40:12 2025.
 Gaussian 16:  ES64L-G16RevC.01  3-Jul-2019

 ----------------------------------------------------------------------
 #t hf aug-cc-pvdz iop(5/13=1,5/36=2,99/5=2) pseudo=read geom=check gue
 ss=(read,tcheck) scf=(maxcycle=1)
 ----------------------------------------------------------------------
 -----
 title
 -----
 Structure from the checkpoint file:  "Grambow2020_wb97xd3_007506_reverse_mol2.chk"
 Charge =  0 Multiplicity = 1

                         Standard orientation:
 ---------------------------------------------------------------------
 Center     Atomic      Atomic             Coordinates (Angstroms)
 Number     Number       Type             X           Y           Z
 ---------------------------------------------------------------------
      1          8           0       -0.367799    1.595182   -0.177247
      2          6           0       -1.003207    0.611191    0.027815
      3          6           0       -2.398060    0.218904    0.498196
      4          6           0       -2.301903   -0.936192   -0.261456
      5          6           0       -0.919372   -0.846114   -0.064932
      6          6           0        3.451690   -0.259292    0.022931
      7          7           0        2.194222   -0.331677    0.057553
      8          1           0       -2.985922   -1.704607   -0.585017
      9          1           0       -0.219576   -1.534780    0.400488
     10          1           0        4.009757    0.651770   -0.213615
     11          1           0        4.043222   -1.149778    0.239379
     12          1           0        1.760466    0.566697   -0.161453
 ---------------------------------------------------------------------

 SCF Done:  E(RHF) =  -322.844502930     A.U. after    2 cycles

 The electronic state is 1-A.
 Alpha  occ. eigenvalues --  -21.07182 -15.74852 -11.52163 -11.49632 -11.46280
 Alpha  occ. eigenvalues --  -11.42420 -11.41627  -1.72865  -1.39009  -1.33217
 Alpha  occ. eigenvalues --   -0.92498  -0.90047  -0.87762  -0.69136  -0.67688
 Alpha  occ. eigenvalues --   -0.67133  -0.59756  -0.57273  -0.53469  -0.51473
 Alpha  occ. eigenvalues --   -0.43275  -0.39918  -0.38334  -0.37235  -0.28560
 Alpha virt. eigenvalues --    0.03305   0.04176   0.05252   0.06163   0.06449
 Alpha virt. eigenvalues --    0.07810   0.08835   0.09571   0.10865   0.11464
 Alpha virt. eigenvalues --    0.11857   0.13017   0.13302   0.13962   0.15069

 Mulliken charges:
               1
     1  O   -3.101172
     2  C    3.930663
     3  C   -1.731322
     4  C   -0.296045
     5  C   -1.179467
     6  C   -1.110508
     7  N   -2.560622
     8  H    1.195729
     9  H    1.191252
    10  H    1.454226
    11  H    1.415863
    12  H    0.791404
 Sum of Mulliken charges =  -0.00000

 Dipole moment (field-independent basis, Debye):
    X=              1.9115    Y=             -2.1253    Z=             -1.5084  Tot=              3.2321

 Test job not archived.
 1\1\GINC-SE457\SP\RHF\Aug-CC-pVDZ\C5H5N1O1\OHZDE\09-Apr-2025\0\\#t hf
 aug-cc-pvdz iop(5/13=1,5/36=2,99/5=2) pseudo=read geom=check guess=(re
 ad,tcheck) scf=(maxcycle=1)\\title\\0,1\O,0,0.57037791,0.21986526,1.93
 188469\C,0,1.29637068,0.40465017,1.00840175\C,0,2.65322617,1.03380698,
 0.7188042\C,0,2.8157937,0.1404195,-0.32809277\C,0,1.41973864,0.1329415
 8,-0.42349272\C,0,-2.96103165,-0.37954935,-0.35667134\N,0,-1.72174161,
 -0.16221109,-0.28894243\H,0,3.63334127,-0.16143189,-0.96333811\H,0,0.7
 60219,0.40376811,-1.24341847\H,0,-3.59713229,-0.59185013,0.50804349\H,

 Normal termination of Gaussian 16 at Wed Apr  9 03:40:16 2025.
