 Gaussian 16, Revision C.01,

 ----------------------------------------------------------------------
 #t hf aug-cc-pvdz symm=none int=(grid=ultrafine) guess=(read,tcheck) s
 table=(opt,rrhf)
 ----------------------------------------------------------------------
 -----
 title
 -----
 Symbolic Z-matrix:
 Charge =  0 Multiplicity = 1

 SCF Done:  E(RHF) =  -359.622684292     A.U. after   15 cycles
 Normal termination of Gaussian 16 at Wed Apr  9 18:07:04 2025.
 Gaussian 16:  ES64L-G16RevC.01  3-Jul-2019

 ----------------------------------------------------------------------
 #t hf aug-cc-pvdz iop(5/13=1,5/36=2,99/5=2) pseudo=read geom=check gue
 ss=(read,tcheck) scf=(maxcycle=1)
 ----------------------------------------------------------------------
 -----
 title
 -----
 Structure from the checkpoint file:  "Grambow2020_wb97xd3_006599_reverse_mol1.chk"
 Charge =  0 Multiplicity = 1

                         Standard orientation:
 ---------------------------------------------------------------------
 Center     Atomic      Atomic             Coordinates (Angstroms)
 Number     Number       Type             X           Y           Z
 ---------------------------------------------------------------------
      1          6           0        2.726154   -0.207949    0.111551
      2          7           0        1.508219    0.494915   -0.238909
      3          6           0        0.355918   -0.092406   -0.153640
      4          6           0       -0.284245    1.174373    0.194909
      5          8           0       -2.115758    0.579071   -0.215002
      6          6           0       -2.198380   -0.584325    0.176080
      7          8           0       -0.122451   -1.232763   -0.089534
      8          1           0        2.991056   -0.016852    1.155328
      9          1           0        2.607334   -1.287090   -0.021144
     10          1           0        3.545651    0.149185   -0.512076
     11          1           0       -0.277326    2.005412   -0.490841
     12          1           0       -0.444680    1.382701    1.247173
     13          1           0       -2.666158   -1.342957   -0.460063
     14          1           0       -2.004417   -0.863425    1.216882
 ---------------------------------------------------------------------

 SCF Done:  E(RHF) =  -361.228849367     A.U. after    2 cycles

 The electronic state is 1-A.
 Alpha  occ. eigenvalues --  -21.07726 -21.02274 -15.70467 -11.52773 -11.50123
 Alpha  occ. eigenvalues --  -11.46727 -11.37566  -1.76292  -1.68502  -1.37567
 Alpha  occ. eigenvalues --   -1.11018  -0.94689  -0.92001  -0.74199  -0.70052
 Alpha  occ. eigenvalues --   -0.67098  -0.63445  -0.58520  -0.56322  -0.54859
 Alpha  occ. eigenvalues --   -0.53776  -0.48634  -0.43246  -0.37219  -0.32691
 Alpha  occ. eigenvalues --   -0.28931  -0.27567
 Alpha virt. eigenvalues --    0.03284   0.05083   0.05390   0.05637   0.05906
 Alpha virt. eigenvalues --    0.07016   0.07451   0.09026   0.10099   0.11557
 Alpha virt. eigenvalues --    0.11972   0.13176   0.13448   0.14126   0.14540

 Mulliken charges:
               1
     1  C   -3.517338
     2  N   -2.807796
     3  C    5.879846
     4  C   -3.196626
     5  O   -2.285170
     6  C   -0.865146
     7  O   -2.823484
     8  H    1.338843
     9  H    1.251887
    10  H    1.332549
    11  H    1.347987
    12  H    1.448917
    13  H    1.496836
    14  H    1.398695
 Sum of Mulliken charges =  -0.00000

 Dipole moment (field-independent basis, Debye):
    X=             -1.8920    Y=              0.6100    Z=              1.2208  Tot=              2.3329

 Test job not archived.
 1\1\GINC-SE340\SP\RHF\Aug-CC-pVDZ\C4H7N1O2\OHZDE\09-Apr-2025\0\\#t hf
 aug-cc-pvdz iop(5/13=1,5/36=2,99/5=2) pseudo=read geom=check guess=(re
 ad,tcheck) scf=(maxcycle=1)\\title\\0,1\C,0,2.45415777,-0.17682481,-0.
 46629488\N,0,1.24682188,0.59955876,-0.26685874\C,0,0.08614536,0.110813
 6,-0.57340679\C,0,-0.5362913,0.85599787,0.51897569\O,0,-2.37561014,0.6
 9038342,-0.16390674\C,0,-2.47532549,-0.4475766,-0.62037704\O,0,-0.4085
 4259,-0.79285397,-1.2604502\H,0,2.72046821,-0.7117228,0.44974261\H,0,2
 .32010125,-0.91042802,-1.26637317\H,0,3.279445,0.48995088,-0.71597708\

 Normal termination of Gaussian 16 at Wed Apr  9 18:07:08 2025.
