 Gaussian 16, Revision C.01,

 ----------------------------------------------------------------------
 #t hf aug-cc-pvdz symm=none int=(grid=ultrafine) guess=(read,tcheck) s
 table=(opt,rrhf)
 ----------------------------------------------------------------------
 -----
 title
 -----
 Symbolic Z-matrix:
 Charge =  0 Multiplicity = 1

 SCF Done:  E(RHF) =  -322.503693536     A.U. after   17 cycles
 Normal termination of Gaussian 16 at Wed Apr  9 18:22:20 2025.
 Gaussian 16:  ES64L-G16RevC.01  3-Jul-2019

 ----------------------------------------------------------------------
 #t hf aug-cc-pvdz iop(5/13=1,5/36=2,99/5=2) pseudo=read geom=check gue
 ss=(read,tcheck) scf=(maxcycle=1)
 ----------------------------------------------------------------------
 -----
 title
 -----
 Structure from the checkpoint file:  "Grambow2020_wb97xd3_006944_reverse_mol1.chk"
 Charge =  0 Multiplicity = 1

                         Standard orientation:
 ---------------------------------------------------------------------
 Center     Atomic      Atomic             Coordinates (Angstroms)
 Number     Number       Type             X           Y           Z
 ---------------------------------------------------------------------
      1          8           0       -0.394905   -1.086219    1.141107
      2          6           0       -0.121469   -1.117923   -0.144069
      3          7           0       -1.091723   -0.300465   -0.930753
      4          6           0       -1.259171    0.942280   -0.156966
      5          6           0       -0.051672    1.345671    0.609970
      6          6           0        1.198402   -0.422404   -0.308066
      7          6           0        2.166884    0.303963   -0.259119
      8          1           0       -0.108957   -2.117796   -0.616508
      9          1           0       -0.718652   -0.093712   -1.852091
     10          1           0       -2.046057    0.765469    0.578767
     11          1           0       -1.544417    1.738895   -0.848595
     12          1           0        0.599193    2.115781    0.216570
     13          1           0       -0.015691    1.158785    1.672945
     14          1           0        3.038040    0.916065   -0.215171
 ---------------------------------------------------------------------

 SCF Done:  E(RHF) =  -324.001528327     A.U. after    2 cycles

 The electronic state is 1-A.
 Alpha  occ. eigenvalues --  -20.91519 -15.72334 -11.54868 -11.47887 -11.44157
 Alpha  occ. eigenvalues --  -11.43299 -11.41511  -1.62042  -1.36209  -1.14054
 Alpha  occ. eigenvalues --   -1.12853  -0.93940  -0.86288  -0.75670  -0.72464
 Alpha  occ. eigenvalues --   -0.67607  -0.65343  -0.59872  -0.53620  -0.51506
 Alpha  occ. eigenvalues --   -0.44969  -0.42013  -0.37872  -0.33961  -0.22542
 Alpha  occ. eigenvalues --   -0.21386
 Alpha virt. eigenvalues --    0.01123   0.02581   0.04185   0.05151   0.05598
 Alpha virt. eigenvalues --    0.06207   0.07443   0.07669   0.09899   0.10677
 Alpha virt. eigenvalues --    0.11107   0.12095   0.12520   0.13252   0.14109

 Mulliken charges:
               1
     1  O   -2.880227
     2  C    1.739710
     3  N   -2.030722
     4  C   -2.078645
     5  C   -2.725036
     6  C    3.127057
     7  C   -3.534623
     8  H    1.375637
     9  H    0.664516
    10  H    1.352378
    11  H    1.366344
    12  H    1.554067
    13  H    1.348891
    14  H    0.720654
 Sum of Mulliken charges =   0.00000

 Dipole moment (field-independent basis, Debye):
    X=              1.4935    Y=              5.1733    Z=             -0.8529  Tot=              5.4517

 Test job not archived.
 1\1\GINC-SE454\SP\RHF\Aug-CC-pVDZ\C5H7N1O1\OHZDE\09-Apr-2025\0\\#t hf
 aug-cc-pvdz iop(5/13=1,5/36=2,99/5=2) pseudo=read geom=check guess=(re
 ad,tcheck) scf=(maxcycle=1)\\title\\0,1\O,0,-1.29775205,0.07981298,-1.
 10644292\C,0,-1.02057864,0.91023237,-0.12612229\N,0,-1.13715649,0.2445
 7357,1.20497041\C,0,-0.49064211,-1.06830178,1.03298788\C,0,0.61701968,
 -1.07288234,0.04201154\C,0,0.43427257,1.25161741,-0.26599985\C,0,1.633
 18671,1.27186948,-0.43965912\H,0,-1.64255708,1.82285782,-0.06816006\H,
 0,-0.65417589,0.78408442,1.91662259\H,0,-1.24687395,-1.75745621,0.6522

 Normal termination of Gaussian 16 at Wed Apr  9 18:22:24 2025.
