 Gaussian 16, Revision C.01,

 ----------------------------------------------------------------------
 #t hf aug-cc-pvdz symm=none int=(grid=ultrafine) guess=(read,tcheck) s
 table=(opt,rrhf)
 ----------------------------------------------------------------------
 -----
 title
 -----
 Symbolic Z-matrix:
 Charge =  0 Multiplicity = 1

 SCF Done:  E(RHF) =  -305.443522470     A.U. after   15 cycles
 Normal termination of Gaussian 16 at Wed Apr  9 03:52:34 2025.
 Gaussian 16:  ES64L-G16RevC.01  3-Jul-2019

 ----------------------------------------------------------------------
 #t hf aug-cc-pvdz iop(5/13=1,5/36=2,99/5=2) pseudo=read geom=check gue
 ss=(read,tcheck) scf=(maxcycle=1)
 ----------------------------------------------------------------------
 -----
 title
 -----
 Structure from the checkpoint file:  "Grambow2020_wb97xd3_008342_reverse_mol2.chk"
 Charge =  0 Multiplicity = 1

                         Standard orientation:
 ---------------------------------------------------------------------
 Center     Atomic      Atomic             Coordinates (Angstroms)
 Number     Number       Type             X           Y           Z
 ---------------------------------------------------------------------
      1          8           0        0.968060    1.762388    0.232407
      2          6           0        1.161058    0.666876    0.686658
      3          6           0       -1.781353   -1.103504    0.898895
      4          6           0       -1.881636   -0.252487   -0.080287
      5          6           0       -1.963247    0.603095   -1.053087
      6          6           0        1.694829   -0.437726   -0.091436
      7          6           0        2.143129   -1.366711   -0.700539
      8          1           0       -1.236062    1.402518   -1.146335
      9          1           0        0.948732    0.429376    1.742267
     10          1           0       -2.277930   -0.926788    1.845795
     11          1           0       -1.205066   -2.014620    0.786287
     12          1           0       -2.753793    0.535151   -1.790758
     13          1           0        2.542960   -2.182007   -1.257739
 ---------------------------------------------------------------------

 SCF Done:  E(RHF) =  -306.842394468     A.U. after    2 cycles

 The electronic state is 1-A.
 Alpha  occ. eigenvalues --  -21.08216 -11.52524 -11.44927 -11.42972 -11.42344
 Alpha  occ. eigenvalues --  -11.42155 -11.38733  -1.72968  -1.18715  -1.14747
 Alpha  occ. eigenvalues --   -1.00678  -0.94298  -0.76258  -0.72621  -0.68275
 Alpha  occ. eigenvalues --   -0.60789  -0.60517  -0.58579  -0.55129  -0.50864
 Alpha  occ. eigenvalues --   -0.40375  -0.37932  -0.36137  -0.35740  -0.32054
 Alpha virt. eigenvalues --    0.02779   0.04503   0.05490   0.05946   0.06284
 Alpha virt. eigenvalues --    0.07789   0.08734   0.09490   0.09775   0.10880
 Alpha virt. eigenvalues --    0.11223   0.12397   0.12543   0.13066   0.13301

 Mulliken charges:
               1
     1  O   -2.533053
     2  C    0.844183
     3  C   -3.925527
     4  C    2.816598
     5  C   -4.000961
     6  C    2.902104
     7  C   -3.488510
     8  H    1.309262
     9  H    1.404289
    10  H    1.248039
    11  H    1.292696
    12  H    1.235277
    13  H    0.895603
 Sum of Mulliken charges =  -0.00000

 Dipole moment (field-independent basis, Debye):
    X=              0.2521    Y=             -1.2458    Z=             -0.0737  Tot=              1.2732

 Test job not archived.
 1\1\GINC-SE082\SP\RHF\Aug-CC-pVDZ\C6H6O1\OHZDE\09-Apr-2025\0\\#t hf au
 g-cc-pvdz iop(5/13=1,5/36=2,99/5=2) pseudo=read geom=check guess=(read
 ,tcheck) scf=(maxcycle=1)\\title\\0,1\O,0,0.18969455,-0.21145029,2.331
 80125\C,0,0.79994811,-0.75282267,1.44961902\C,0,-1.03860263,-0.7987556
 6,-1.45807693\C,0,-1.39678974,0.23915574,-0.75984718\C,0,-1.74120556,1
 .26924587,-0.04899264\C,0,1.85774912,-0.1032558,0.69489505\C,0,2.74163
 702,0.3981168,0.06057814\H,0,-1.44444478,1.34482288,0.99157903\H,0,0.5
 971247,-1.79662671,1.15783804\H,0,-1.66667496,-1.68032025,-1.51104364\

 Normal termination of Gaussian 16 at Wed Apr  9 03:52:37 2025.
