 Gaussian 16, Revision C.01,

 ----------------------------------------------------------------------
 #t hf aug-cc-pvdz symm=none int=(grid=ultrafine) guess=(read,tcheck) s
 table=(opt,rrhf)
 ----------------------------------------------------------------------
 -----
 title
 -----
 Symbolic Z-matrix:
 Charge =  0 Multiplicity = 1

 SCF Done:  E(RHF) =  -195.149807168     A.U. after   11 cycles
 Normal termination of Gaussian 16 at Wed Apr  9 03:07:48 2025.
 Gaussian 16:  ES64L-G16RevC.01  3-Jul-2019

 ----------------------------------------------------------------------
 #t hf aug-cc-pvdz iop(5/13=1,5/36=2,99/5=2) pseudo=read geom=check gue
 ss=(read,tcheck) scf=(maxcycle=1)
 ----------------------------------------------------------------------
 -----
 title
 -----
 Structure from the checkpoint file:  "Grambow2020_b97d3_006579_forward_mol2.chk"
 Charge =  0 Multiplicity = 1

                         Standard orientation:
 ---------------------------------------------------------------------
 Center     Atomic      Atomic             Coordinates (Angstroms)
 Number     Number       Type             X           Y           Z
 ---------------------------------------------------------------------
      1          6           0       -1.576740   -0.819234    0.120389
      2          6           0       -0.758116    0.330809   -0.433861
      3          6           0       -0.001942    1.262586    0.488882
      4          6           0        0.757532    0.332664   -0.432109
      5          6           0        1.578858   -0.816942    0.120523
      6          1           0       -1.124044   -1.241711    1.027260
      7          1           0       -1.673476   -1.632377   -0.615014
      8          1           0       -2.589137   -0.481141    0.386686
      9          1           0       -1.210715    0.807416   -1.306900
     10          1           0       -0.002215    2.333008    0.281402
     11          1           0       -0.004633    1.013270    1.551775
     12          1           0        1.209900    0.810238   -1.304823
     13          1           0        2.587742   -0.474849    0.395517
     14          1           0        1.122599   -1.248917    1.021080
     15          1           0        1.686426   -1.624237   -0.619923
 ---------------------------------------------------------------------

 SCF Done:  E(RHF) =  -196.160956261     A.U. after    2 cycles

 The electronic state is 1-A.
 Alpha  occ. eigenvalues --  -11.41807 -11.40482 -11.37675 -11.37228 -11.34561
 Alpha  occ. eigenvalues --   -1.31925  -1.06176  -1.00996  -0.82975  -0.77285
 Alpha  occ. eigenvalues --   -0.67673  -0.57924  -0.56821  -0.55839  -0.53116
 Alpha  occ. eigenvalues --   -0.52143  -0.48036  -0.44883  -0.36731  -0.35634
 Alpha virt. eigenvalues --    0.03951   0.05628   0.05667   0.05999   0.06053
 Alpha virt. eigenvalues --    0.06195   0.06472   0.06648   0.06743   0.09508
 Alpha virt. eigenvalues --    0.12369   0.13087   0.13905   0.14941   0.15165

 Mulliken charges:
               1
     1  C   -4.452887
     2  C   -0.478344
     3  C   -2.633496
     4  C   -0.481523
     5  C   -4.449894
     6  H    1.359775
     7  H    1.233265
     8  H    1.121434
     9  H    1.231051
    10  H    1.160652
    11  H    1.453078
    12  H    1.229964
    13  H    1.122116
    14  H    1.352214
    15  H    1.232594
 Sum of Mulliken charges =  -0.00000

 Dipole moment (field-independent basis, Debye):
    X=             -0.0010    Y=              0.0332    Z=             -0.1456  Tot=              0.1494

 Test job not archived.
 1\1\GINC-SE023\SP\RHF\Aug-CC-pVDZ\C5H10\OHZDE\09-Apr-2025\0\\#t hf aug
 -cc-pvdz iop(5/13=1,5/36=2,99/5=2) pseudo=read geom=check guess=(read,
 tcheck) scf=(maxcycle=1)\\title\\0,1\C,0,1.43445325,-0.97689713,0.0483
 3649\C,0,0.76783738,0.28434812,0.56294251\C,0,0.2716095,1.34734574,-0.
 39374789\C,0,-0.71878255,0.54205096,0.4189036\C,0,-1.6613135,-0.441970
 68,-0.24811164\H,0,1.00933591,-1.30000592,-0.91120058\H,0,1.32182337,-
 1.80819583,0.76082036\H,0,2.51018992,-0.80966891,-0.10976051\H,0,1.205
 18676,0.66144441,1.49069272\H,0,0.42936744,2.39832692,-0.15002326\H,0,

 Normal termination of Gaussian 16 at Wed Apr  9 03:07:52 2025.
