 Gaussian 16, Revision C.01,

 ----------------------------------------------------------------------
 #t hf aug-cc-pvdz symm=none int=(grid=ultrafine) guess=(read,tcheck) s
 table=(opt,rrhf)
 ----------------------------------------------------------------------
 -----
 title
 -----
 Symbolic Z-matrix:
 Charge =  0 Multiplicity = 1

 SCF Done:  E(RHF) =  -323.780892539     A.U. after   15 cycles
 Normal termination of Gaussian 16 at Wed Apr  9 18:24:27 2025.
 Gaussian 16:  ES64L-G16RevC.01  3-Jul-2019

 ----------------------------------------------------------------------
 #t hf aug-cc-pvdz iop(5/13=1,5/36=2,99/5=2) pseudo=read geom=check gue
 ss=(read,tcheck) scf=(maxcycle=1)
 ----------------------------------------------------------------------
 -----
 title
 -----
 Structure from the checkpoint file:  "Grambow2020_wb97xd3_006969_reverse_mol2.chk"
 Charge =  0 Multiplicity = 1

                         Standard orientation:
 ---------------------------------------------------------------------
 Center     Atomic      Atomic             Coordinates (Angstroms)
 Number     Number       Type             X           Y           Z
 ---------------------------------------------------------------------
      1          6           0        2.445393    0.577362    0.739991
      2          6           0        1.716690    0.424065   -0.589215
      3          6           0        1.125409   -0.838107   -1.015609
      4          8           0       -0.543188   -1.234151    0.657086
      5          6           0       -1.684815   -0.865301   -0.083300
      6          6           0       -1.893853    0.590863   -0.082950
      7          7           0       -2.045598    1.726808   -0.040963
      8          1           0        3.109891   -0.268517    0.926867
      9          1           0        3.036106    1.494744    0.773955
     10          1           0        1.723442    0.626503    1.557896
     11          1           0        2.449510    0.380418   -1.436693
     12          1           0        1.095352    1.292269   -0.825009
     13          1           0        1.693254   -1.649158   -0.521739
     14          1           0       -0.608707   -0.886086    1.550143
     15          1           0       -2.589556   -1.348531    0.297652
     16          1           0       -1.497545   -1.189386   -1.106523
 ---------------------------------------------------------------------

 SCF Done:  E(RHF) =  -325.270729557     A.U. after    2 cycles

 The electronic state is 1-A.
 Alpha  occ. eigenvalues --  -21.11603 -15.77047 -11.49277 -11.43336 -11.42146
 Alpha  occ. eigenvalues --  -11.39216 -11.36029  -1.76524  -1.31666  -1.20632
 Alpha  occ. eigenvalues --   -1.06843  -0.97214  -0.78667  -0.74209  -0.69411
 Alpha  occ. eigenvalues --   -0.61598  -0.61039  -0.57440  -0.54789  -0.53911
 Alpha  occ. eigenvalues --   -0.50102  -0.48641  -0.46435  -0.45112  -0.42880
 Alpha  occ. eigenvalues --   -0.37186  -0.31965
 Alpha virt. eigenvalues --    0.03141   0.04807   0.05502   0.05663   0.05876
 Alpha virt. eigenvalues --    0.06507   0.07000   0.07708   0.08482   0.09096
 Alpha virt. eigenvalues --    0.10237   0.11570   0.12260   0.13000   0.13636

 Mulliken charges:
               1
     1  C   -3.756727
     2  C   -2.587043
     3  C   -1.960849
     4  O   -2.117951
     5  C   -1.188268
     6  C    1.976132
     7  N   -2.258718
     8  H    1.225824
     9  H    1.184130
    10  H    1.346917
    11  H    1.443922
    12  H    1.628637
    13  H    1.356935
    14  H    0.776609
    15  H    1.252950
    16  H    1.677502
 Sum of Mulliken charges =   0.00000

 Dipole moment (field-independent basis, Debye):
    X=              1.0658    Y=             -2.1888    Z=              1.8250  Tot=              3.0426

 Test job not archived.
 1\1\GINC-SE117\SP\RHF\Aug-CC-pVDZ\C5H9N1O1\OHZDE\09-Apr-2025\0\\#t hf
 aug-cc-pvdz iop(5/13=1,5/36=2,99/5=2) pseudo=read geom=check guess=(re
 ad,tcheck) scf=(maxcycle=1)\\title\\0,1\C,0,2.1428688,-0.15694243,0.47
 70434\C,0,1.13644219,0.94930111,0.1861358\C,0,0.3418743,0.98193256,-1.
 03537966\O,0,-0.96453585,-1.01946759,-0.8720861\C,0,-2.19352838,-0.445
 86297,-0.48726122\C,0,-2.24737279,-0.17918046,0.95845294\N,0,-2.269502
 61,-0.00903914,2.09235072\H,0,2.74164831,-0.38939352,-0.40580543\H,0,2
 .81812016,0.11431592,1.29076348\H,0,1.62024341,-1.06687248,0.77950975\

 Normal termination of Gaussian 16 at Wed Apr  9 18:24:33 2025.
