 Gaussian 16, Revision C.01,

 ----------------------------------------------------------------------
 #t hf aug-cc-pvdz symm=none int=(grid=ultrafine) guess=(read,tcheck) s
 table=(opt,rrhf)
 ----------------------------------------------------------------------
 -----
 title
 -----
 Symbolic Z-matrix:
 Charge =  0 Multiplicity = 1

 SCF Done:  E(RHF) =  -260.128307732     A.U. after   17 cycles
 Normal termination of Gaussian 16 at Wed Apr  9 03:04:03 2025.
 Gaussian 16:  ES64L-G16RevC.01  3-Jul-2019

 ----------------------------------------------------------------------
 #t hf aug-cc-pvdz iop(5/13=1,5/36=2,99/5=2) pseudo=read geom=check gue
 ss=(read,tcheck) scf=(maxcycle=1)
 ----------------------------------------------------------------------
 -----
 title
 -----
 Structure from the checkpoint file:  "Grambow2020_b97d3_006470_forward_mol1.chk"
 Charge =  0 Multiplicity = 1

                         Standard orientation:
 ---------------------------------------------------------------------
 Center     Atomic      Atomic             Coordinates (Angstroms)
 Number     Number       Type             X           Y           Z
 ---------------------------------------------------------------------
      1          6           0        0.092706    0.302329   -0.000091
      2          6           0       -0.992761    1.036956   -0.000075
      3          6           0       -2.267417   -0.250006    0.000285
      4          7           0       -1.132780   -0.759012   -0.000217
      5          6           0        1.451016    0.032896    0.000051
      6          7           0        2.604029   -0.202853    0.000072
 ---------------------------------------------------------------------

 SCF Done:  E(RHF) =  -261.254062980     A.U. after    2 cycles

 The electronic state is 1-A.
 Alpha  occ. eigenvalues --  -15.86057 -15.83191 -11.55729 -11.53272 -11.50108
 Alpha  occ. eigenvalues --  -11.49740  -1.54609  -1.35159  -1.14519  -0.94326
 Alpha  occ. eigenvalues --   -0.80646  -0.62299  -0.61982  -0.58168  -0.52371
 Alpha  occ. eigenvalues --   -0.51795  -0.48674  -0.46413  -0.37549
 Alpha virt. eigenvalues --    0.03628   0.05240   0.05630   0.07732   0.08493
 Alpha virt. eigenvalues --    0.09999   0.10280   0.10357   0.10929   0.11538
 Alpha virt. eigenvalues --    0.12370   0.13710   0.14099   0.16804   0.17628

 Mulliken charges:
               1
     1  C    3.156428
     2  C   -2.051524
     3  C    0.280355
     4  N   -1.397330
     5  C    2.611804
     6  N   -2.599733
 Sum of Mulliken charges =   0.00000

 Dipole moment (field-independent basis, Debye):
    X=              0.3696    Y=             -0.2119    Z=             -0.0003  Tot=              0.4260

 Test job not archived.
 1\1\GINC-SE105\SP\RHF\Aug-CC-pVDZ\C4N2\OHZDE\09-Apr-2025\0\\#t hf aug-
 cc-pvdz iop(5/13=1,5/36=2,99/5=2) pseudo=read geom=check guess=(read,t
 check) scf=(maxcycle=1)\\title\\0,1\C,0,-0.17104195,0.00567534,0.25380
 426\C,0,0.78863322,0.01412632,1.14647768\C,0,2.24585223,-0.01582457,0.
 07100665\N,0,1.20292302,-0.02030007,-0.60631657\C,0,-1.4717854,0.00742
 01,-0.22123627\N,0,-2.57485213,0.00867087,-0.63142975\\Version=ES64L-G
 16RevC.01\State=1-A\HF=-261.254063\RMSD=8.551e-01\Dipole=-0.130856,-0.
 0009725,-0.1047204\Quadrupole=-5.3242582,2.9116433,2.4126149,0.0192708

 Normal termination of Gaussian 16 at Wed Apr  9 03:04:05 2025.
