 Gaussian 16, Revision C.01,

 ----------------------------------------------------------------------
 #t hf aug-cc-pvdz symm=none int=(grid=ultrafine) guess=(read,tcheck) s
 table=(opt,rrhf)
 ----------------------------------------------------------------------
 -----
 title
 -----
 Symbolic Z-matrix:
 Charge =  0 Multiplicity = 1

 SCF Done:  E(RHF) =  -343.586830495     A.U. after   16 cycles
 Normal termination of Gaussian 16 at Wed Apr  9 03:28:24 2025.
 Gaussian 16:  ES64L-G16RevC.01  3-Jul-2019

 ----------------------------------------------------------------------
 #t hf aug-cc-pvdz iop(5/13=1,5/36=2,99/5=2) pseudo=read geom=check gue
 ss=(read,tcheck) scf=(maxcycle=1)
 ----------------------------------------------------------------------
 -----
 title
 -----
 Structure from the checkpoint file:  "Grambow2020_wb97xd3_006719_reverse_mol2.chk"
 Charge =  0 Multiplicity = 1

                         Standard orientation:
 ---------------------------------------------------------------------
 Center     Atomic      Atomic             Coordinates (Angstroms)
 Number     Number       Type             X           Y           Z
 ---------------------------------------------------------------------
      1          8           0        2.700288    0.339756    0.002263
      2          6           0        1.393825    0.192385    0.411373
      3          6           0       -1.475681    1.538668    0.071406
      4          8           0        0.664920   -0.406524   -0.660369
      5          6           0       -0.612319   -0.793753   -0.467879
      6          6           0       -1.347409   -0.875073    0.765046
      7          6           0       -1.878315    0.236326   -0.205327
      8          1           0        3.084265   -0.528115   -0.142760
      9          1           0        1.304474   -0.456984    1.293396
     10          1           0        0.977884    1.179169    0.618078
     11          1           0       -2.152412    2.237221   -0.448938
     12          1           0       -0.916811   -1.451298   -1.272538
     13          1           0       -0.924280   -0.472486    1.672899
     14          1           0       -2.032201   -1.702724    0.894319
     15          1           0       -2.743185   -0.061958   -0.797320
 ---------------------------------------------------------------------

 SCF Done:  E(RHF) =  -345.134291522     A.U. after    2 cycles

 The electronic state is 1-A.
 Alpha  occ. eigenvalues --  -21.08246 -21.07222 -11.49061 -11.44448 -11.43927
 Alpha  occ. eigenvalues --  -11.39749 -11.36815  -1.83315  -1.68826  -1.30083
 Alpha  occ. eigenvalues --   -1.01068  -0.96932  -0.84173  -0.76329  -0.71943
 Alpha  occ. eigenvalues --   -0.69105  -0.63326  -0.59511  -0.56260  -0.54635
 Alpha  occ. eigenvalues --   -0.48993  -0.45753  -0.42237  -0.39686  -0.33858
 Alpha  occ. eigenvalues --   -0.32537  -0.28926
 Alpha virt. eigenvalues --    0.03715   0.04756   0.04997   0.05591   0.05953
 Alpha virt. eigenvalues --    0.06163   0.06612   0.08274   0.09314   0.11266
 Alpha virt. eigenvalues --    0.12198   0.12408   0.13378   0.13609   0.14388

 Mulliken charges:
               1
     1  O   -2.782524
     2  C    0.303293
     3  C   -2.959506
     4  O   -3.936019
     5  C    1.681172
     6  C   -2.779311
     7  C    0.226937
     8  H    0.715656
     9  H    1.375823
    10  H    1.563958
    11  H    1.223354
    12  H    1.408787
    13  H    1.633559
    14  H    1.103261
    15  H    1.221561
 Sum of Mulliken charges =  -0.00000

 Dipole moment (field-independent basis, Debye):
    X=             -0.7764    Y=             -2.9993    Z=             -0.3683  Tot=              3.1200

 Test job not archived.
 1\1\GINC-SE069\SP\RHF\Aug-CC-pVDZ\C5H8O2\OHZDE\09-Apr-2025\0\\#t hf au
 g-cc-pvdz iop(5/13=1,5/36=2,99/5=2) pseudo=read geom=check guess=(read
 ,tcheck) scf=(maxcycle=1)\\title\\0,1\O,0,2.36771951,1.57398853,0.9380
 455\C,0,1.42576817,0.91254245,0.18230074\C,0,0.16946523,-1.98858548,-0
 .22670061\O,0,0.26318217,0.73327437,0.99154948\C,0,-0.86486551,0.23798
 596,0.4433375\C,0,-1.16407475,0.01851852,-0.94568382\C,0,-1.0383031,-1
 .30723121,-0.11787975\H,0,2.04068426,2.45111866,1.15102765\H,0,1.13731
 43,1.48006007,-0.71343766\H,0,1.82203023,-0.06515078,-0.09440831\H,0,0

 Normal termination of Gaussian 16 at Wed Apr  9 03:28:29 2025.
