 Gaussian 16, Revision C.01,

 ----------------------------------------------------------------------
 #t hf aug-cc-pvdz symm=none int=(grid=ultrafine) guess=(read,tcheck) s
 table=(opt,rrhf)
 ----------------------------------------------------------------------
 -----
 title
 -----
 Symbolic Z-matrix:
 Charge =  0 Multiplicity = 1

 SCF Done:  E(RHF) =  -344.920680396     A.U. after   14 cycles

 1\1\GINC-SE456\Stability\RHF\Aug-CC-pVDZ\C5H10O2\OHZDE\09-Apr-2025\0\\
 #t hf aug-cc-pvdz symm=none int=(grid=ultrafine) guess=(read,tcheck) s
 table=(opt,rrhf)\\title\\0,1\C,0,2.27388968,0.41891063,-0.27915694\C,0
 ,1.63398817,-0.59166053,0.67134793\C,0,0.61870973,0.05849155,1.5626377
 6\O,0,-0.52363853,-0.29592589,1.69228803\C,0,-1.67981967,-0.57072275,-
 1.08004052\C,0,-2.70424315,0.41281272,-0.61246195\O,0,-0.70691964,-0.2
 8972472,-1.72987916\H,0,1.53631257,0.79736417,-0.98698949\H,0,3.076607
 79,-0.05044103,-0.84761137\H,0,2.70243834,1.26365365,0.2655546\H,0,1.1

 Normal termination of Gaussian 16 at Wed Apr  9 03:34:31 2025.
 Gaussian 16:  ES64L-G16RevC.01  3-Jul-2019

 ----------------------------------------------------------------------
 #t hf aug-cc-pvdz iop(5/13=1,5/36=2,99/5=2) pseudo=read geom=check gue
 ss=(read,tcheck) scf=(maxcycle=1)
 ----------------------------------------------------------------------
 -----
 title
 -----
 Structure from the checkpoint file:  "Grambow2020_wb97xd3_007114_reverse_mol2.chk"
 Charge =  0 Multiplicity = 1

                         Standard orientation:
 ---------------------------------------------------------------------
 Center     Atomic      Atomic             Coordinates (Angstroms)
 Number     Number       Type             X           Y           Z
 ---------------------------------------------------------------------
      1          6           0       -2.144921   -1.155736    0.500116
      2          6           0       -1.888897   -0.029572   -0.500082
      3          6           0       -1.267111    1.163115    0.162312
      4          8           0       -0.247888    1.700281   -0.184125
      5          6           0        1.833997   -0.463501   -0.470260
      6          6           0        2.616497    0.334676    0.522727
      7          8           0        1.161210   -1.423668   -0.199664
      8          1           0       -1.202484   -1.551947    0.878405
      9          1           0       -2.685973   -1.972099    0.021995
     10          1           0       -2.744376   -0.810157    1.345802
     11          1           0       -1.245326   -0.357423   -1.316403
     12          1           0       -1.821642    1.550531    1.044898
     13          1           0       -2.840199    0.310308   -0.927113
     14          1           0        1.904052   -0.113192   -1.519606
     15          1           0        2.515462   -0.084211    1.522301
     16          1           0        3.668191    0.358261    0.225832
     17          1           0        2.248328    1.363121    0.505318
 ---------------------------------------------------------------------

 SCF Done:  E(RHF) =  -346.499131839     A.U. after    2 cycles

 The electronic state is 1-A.
 Alpha  occ. eigenvalues --  -21.06323 -21.05214 -11.48392 -11.47645 -11.40971
 Alpha  occ. eigenvalues --  -11.37907 -11.36490  -1.71485  -1.70369  -1.19214
 Alpha  occ. eigenvalues --   -1.10613  -0.94579  -0.81253  -0.80871  -0.64954
 Alpha  occ. eigenvalues --   -0.63275  -0.60262  -0.58804  -0.56691  -0.55073
 Alpha  occ. eigenvalues --   -0.51931  -0.49921  -0.49004  -0.48046  -0.43031
 Alpha  occ. eigenvalues --   -0.41165  -0.29339  -0.28847
 Alpha virt. eigenvalues --    0.03896   0.05064   0.05252   0.05375   0.06110
 Alpha virt. eigenvalues --    0.06286   0.06526   0.07908   0.07947   0.09578
 Alpha virt. eigenvalues --    0.11061   0.11293   0.12219   0.13386   0.14183

 Mulliken charges:
               1
     1  C   -3.443290
     2  C   -3.928571
     3  C    1.789123
     4  O   -2.856448
     5  C    1.042811
     6  C   -3.857009
     7  O   -2.709710
     8  H    1.463722
     9  H    1.214825
    10  H    1.300291
    11  H    1.555388
    12  H    1.540559
    13  H    1.358247
    14  H    1.582232
    15  H    1.278456
    16  H    1.226452
    17  H    1.442923
 Sum of Mulliken charges =   0.00000

 Dipole moment (field-independent basis, Debye):
    X=             -0.4231    Y=              0.1901    Z=              0.0403  Tot=              0.4656

 Test job not archived.
 1\1\GINC-SE456\SP\RHF\Aug-CC-pVDZ\C5H10O2\OHZDE\09-Apr-2025\0\\#t hf a
 ug-cc-pvdz iop(5/13=1,5/36=2,99/5=2) pseudo=read geom=check guess=(rea
 d,tcheck) scf=(maxcycle=1)\\title\\0,1\C,0,2.27388968,0.41891063,-0.27
 915694\C,0,1.63398817,-0.59166053,0.67134793\C,0,0.61870973,0.05849155
 ,1.56263776\O,0,-0.52363853,-0.29592589,1.69228803\C,0,-1.67981967,-0.
 57072275,-1.08004052\C,0,-2.70424315,0.41281272,-0.61246195\O,0,-0.706
 91964,-0.28972472,-1.72987916\H,0,1.53631257,0.79736417,-0.98698949\H,
 0,3.07660779,-0.05044103,-0.84761137\H,0,2.70243834,1.26365365,0.26555

 Normal termination of Gaussian 16 at Wed Apr  9 03:34:36 2025.
