 Gaussian 16, Revision C.01,

 ----------------------------------------------------------------------
 #t hf aug-cc-pvdz symm=none int=(grid=ultrafine) guess=(read,tcheck) s
 table=(opt,rrhf)
 ----------------------------------------------------------------------
 -----
 title
 -----
 Symbolic Z-matrix:
 Charge =  0 Multiplicity = 1

 SCF Done:  E(RHF) =  -272.078997910     A.U. after   12 cycles
 Normal termination of Gaussian 16 at Wed Apr  9 03:39:47 2025.
 Gaussian 16:  ES64L-G16RevC.01  3-Jul-2019

 ----------------------------------------------------------------------
 #t hf aug-cc-pvdz iop(5/13=1,5/36=2,99/5=2) pseudo=read geom=check gue
 ss=(read,tcheck) scf=(maxcycle=1)
 ----------------------------------------------------------------------
 -----
 title
 -----
 Structure from the checkpoint file:  "Grambow2020_wb97xd3_007413_forward_mol2.chk"
 Charge =  0 Multiplicity = 1

                         Standard orientation:
 ---------------------------------------------------------------------
 Center     Atomic      Atomic             Coordinates (Angstroms)
 Number     Number       Type             X           Y           Z
 ---------------------------------------------------------------------
      1          6           0       -2.409882   -0.528812   -0.438874
      2          6           0       -1.235142   -0.041016    0.399997
      3          6           0       -0.000856   -0.962051    0.341568
      4          6           0        1.235353   -0.043477    0.401739
      5          6           0        2.408151   -0.530030   -0.440620
      6          6           0        0.664037    1.282696   -0.036269
      7          6           0       -0.660912    1.283513   -0.038814
      8          1           0       -2.118422   -0.625723   -1.487924
      9          1           0       -2.759983   -1.504633   -0.094487
     10          1           0       -3.252562    0.164418   -0.387055
     11          1           0       -1.577013    0.056913    1.439138
     12          1           0       -0.002031   -1.724392    1.122592
     13          1           0       -0.000930   -1.485226   -0.621174
     14          1           0        1.578393    0.052361    1.440616
     15          1           0        2.118981   -0.606335   -1.491964
     16          1           0        2.746368   -1.515396   -0.111872
     17          1           0        3.257496    0.153534   -0.372752
     18          1           0        1.289648    2.134282   -0.280002
     19          1           0       -1.284444    2.135254   -0.287479
 ---------------------------------------------------------------------

 SCF Done:  E(RHF) =  -273.472939848     A.U. after    2 cycles

 The electronic state is 1-A.
 Alpha  occ. eigenvalues --  -11.45119 -11.45011 -11.39656 -11.38168 -11.37361
 Alpha  occ. eigenvalues --  -11.37334 -11.33448  -1.35199  -1.13476  -1.05669
 Alpha  occ. eigenvalues --   -0.98827  -0.90044  -0.79742  -0.74782  -0.68102
 Alpha  occ. eigenvalues --   -0.62092  -0.59828  -0.55787  -0.55742  -0.52674
 Alpha  occ. eigenvalues --   -0.48122  -0.47802  -0.46700  -0.42920  -0.42842
 Alpha  occ. eigenvalues --   -0.39991  -0.32282
 Alpha virt. eigenvalues --    0.04194   0.04912   0.05051   0.05610   0.05685
 Alpha virt. eigenvalues --    0.05816   0.06326   0.06689   0.07263   0.08041
 Alpha virt. eigenvalues --    0.08654   0.08854   0.11988   0.12731   0.13961

 Mulliken charges:
               1
     1  C   -4.000116
     2  C   -2.497306
     3  C   -3.217434
     4  C   -2.496044
     5  C   -4.000991
     6  C   -0.145423
     7  C   -0.128811
     8  H    1.329256
     9  H    1.219405
    10  H    1.203591
    11  H    1.515022
    12  H    1.272863
    13  H    1.673380
    14  H    1.518204
    15  H    1.330967
    16  H    1.221426
    17  H    1.198859
    18  H    1.500004
    19  H    1.503149
 Sum of Mulliken charges =  -0.00000

 Dipole moment (field-independent basis, Debye):
    X=             -0.0001    Y=              0.0155    Z=              0.3649  Tot=              0.3653

 Test job not archived.
 1\1\GINC-SE044\SP\RHF\Aug-CC-pVDZ\C7H12\OHZDE\09-Apr-2025\0\\#t hf aug
 -cc-pvdz iop(5/13=1,5/36=2,99/5=2) pseudo=read geom=check guess=(read,
 tcheck) scf=(maxcycle=1)\\title\\0,1\C,0,-2.44089053,-0.40335169,-0.05
 927329\C,0,-1.21716158,0.50221327,0.00477508\C,0,-0.09677817,-0.025759
 95,0.92192646\C,0,1.23673032,0.37323931,0.25998495\C,0,2.34516994,-0.6
 5787713,0.43295501\C,0,0.82097164,0.6038393,-1.17213059\C,0,-0.4951333
 1,0.67134551,-1.30927967\H,0,-2.16344316,-1.39901566,-0.4149757\H,0,-2
 .90034276,-0.51292898,0.92576285\H,0,-3.19840398,-0.003483,-0.73724234

 Normal termination of Gaussian 16 at Wed Apr  9 03:39:54 2025.
