 Gaussian 16, Revision C.01,

 ----------------------------------------------------------------------
 #t hf aug-cc-pvdz symm=none int=(grid=ultrafine) guess=(read,tcheck) s
 table=(opt,rrhf)
 ----------------------------------------------------------------------
 -----
 title
 -----
 Symbolic Z-matrix:
 Charge =  0 Multiplicity = 1

 SCF Done:  E(RHF) =  -302.791444686     A.U. after   16 cycles
 Normal termination of Gaussian 16 at Wed Apr  9 19:24:12 2025.
 Gaussian 16:  ES64L-G16RevC.01  3-Jul-2019

 ----------------------------------------------------------------------
 #t hf aug-cc-pvdz iop(5/13=1,5/36=2,99/5=2) pseudo=read geom=check gue
 ss=(read,tcheck) scf=(maxcycle=1)
 ----------------------------------------------------------------------
 -----
 title
 -----
 Structure from the checkpoint file:  "Grambow2020_wb97xd3_008887_forward_mol1.chk"
 Charge =  0 Multiplicity = 1

                         Standard orientation:
 ---------------------------------------------------------------------
 Center     Atomic      Atomic             Coordinates (Angstroms)
 Number     Number       Type             X           Y           Z
 ---------------------------------------------------------------------
      1          6           0       -2.425392   -0.557986    0.046650
      2          7           0       -1.064163   -0.099763   -0.084952
      3          6           0       -0.627195    1.219006   -0.037258
      4          6           0        0.815954    1.298937   -0.091335
      5          6           0        1.173004   -0.089242    0.004487
      6          7           0        2.500089   -0.528914    0.116263
      7          6           0        0.051994   -0.880024   -0.027874
      8          1           0       -3.098793    0.230082   -0.288503
      9          1           0       -2.587666   -1.434248   -0.581552
     10          1           0       -2.673212   -0.812421    1.080941
     11          1           0       -1.317482    2.012041   -0.297205
     12          1           0       -0.120363    1.515932    1.010355
     13          1           0        3.133982    0.231292   -0.078407
     14          1           0        2.723978   -1.329038   -0.454187
     15          1           0       -0.042117   -1.957038    0.021359
 ---------------------------------------------------------------------

 SCF Done:  E(RHF) =  -304.245031074     A.U. after    2 cycles

 The electronic state is 1-A.
 Alpha  occ. eigenvalues --  -15.76253 -15.73164 -11.45059 -11.42762 -11.42024
 Alpha  occ. eigenvalues --  -11.39427 -11.35079  -1.53643  -1.32679  -1.17200
 Alpha  occ. eigenvalues --   -1.06442  -0.97060  -0.80466  -0.76827  -0.68978
 Alpha  occ. eigenvalues --   -0.66096  -0.63272  -0.60203  -0.58164  -0.54263
 Alpha  occ. eigenvalues --   -0.51905  -0.47411  -0.45097  -0.37343  -0.31263
 Alpha  occ. eigenvalues --   -0.25506
 Alpha virt. eigenvalues --    0.03007   0.04993   0.05192   0.05483   0.05969
 Alpha virt. eigenvalues --    0.06593   0.07712   0.08160   0.10010   0.10762
 Alpha virt. eigenvalues --    0.11167   0.12198   0.13147   0.13539   0.14282

 Mulliken charges:
               1
     1  C   -3.495692
     2  N   -3.179510
     3  C   -1.049584
     4  C   -2.780844
     5  C    4.518421
     6  N   -3.591118
     7  C   -0.557270
     8  H    1.394551
     9  H    1.379776
    10  H    1.428902
    11  H    1.600888
    12  H    1.399243
    13  H    0.724588
    14  H    0.544616
    15  H    1.663033
 Sum of Mulliken charges =  -0.00000

 Dipole moment (field-independent basis, Debye):
    X=             -3.7602    Y=             -2.8607    Z=             -0.5039  Tot=              4.7514

 Test job not archived.
 1\1\GINC-SE222\SP\RHF\Aug-CC-pVDZ\C5H8N2\OHZDE\09-Apr-2025\0\\#t hf au
 g-cc-pvdz iop(5/13=1,5/36=2,99/5=2) pseudo=read geom=check guess=(read
 ,tcheck) scf=(maxcycle=1)\\title\\0,1\C,0,2.24359982,0.15395281,0.0522
 8505\N,0,0.83208321,-0.10647993,-0.08923323\C,0,0.20591605,-1.34399315
 ,0.00479694\C,0,-1.23237618,-1.21512867,-0.07707945\C,0,-1.38357632,0.
 21315508,-0.04788835\N,0,-2.63345734,0.84610319,0.01640741\C,0,-0.1584
 3123,0.82987093,-0.08943226\H,0,2.79927966,-0.73812532,-0.23453193\H,0
 ,2.54206922,0.96800674,-0.60880257\H,0,2.51025032,0.41590475,1.0799963

 Normal termination of Gaussian 16 at Wed Apr  9 19:24:17 2025.
