 Gaussian 16, Revision C.01,

 ----------------------------------------------------------------------
 #t hf aug-cc-pvdz symm=none int=(grid=ultrafine) guess=(read,tcheck) s
 table=(opt,rrhf)
 ----------------------------------------------------------------------
 -----
 title
 -----
 Symbolic Z-matrix:
 Charge =  0 Multiplicity = 1

 SCF Done:  E(RHF) =  -310.184622980     A.U. after   13 cycles

 1\1\GINC-SE116\Stability\RHF\Aug-CC-pVDZ\C6H14O1\OHZDE\09-Apr-2025\0\\
 #t hf aug-cc-pvdz symm=none int=(grid=ultrafine) guess=(read,tcheck) s
 table=(opt,rrhf)\\title\\0,1\C,0,-2.75473021,-0.00060456,-0.76602924\C
 ,0,-2.08866435,-0.06673409,0.37665274\C,0,-1.16570823,-1.17882821,0.77
 460588\C,0,0.2534181,-0.70597293,1.09688025\C,0,0.93249004,-0.05303709
 ,-0.08834442\O,0,2.26105223,0.25302214,0.25397313\C,0,2.95140517,0.885
 50467,-0.78885258\H,0,-2.66651458,-0.78017175,-1.51631957\H,0,-0.41536
 826,1.27956555,-3.33389228\H,0,-3.41403657,0.82808173,-0.99391157\H,0,

 Normal termination of Gaussian 16 at Wed Apr  9 18:51:18 2025.
 Gaussian 16:  ES64L-G16RevC.01  3-Jul-2019

 ----------------------------------------------------------------------
 #t hf aug-cc-pvdz iop(5/13=1,5/36=2,99/5=2) pseudo=read geom=check gue
 ss=(read,tcheck) scf=(maxcycle=1)
 ----------------------------------------------------------------------
 -----
 title
 -----
 Structure from the checkpoint file:  "Grambow2020_wb97xd3_007721_reverse_mol2.chk"
 Charge =  0 Multiplicity = 1

                         Standard orientation:
 ---------------------------------------------------------------------
 Center     Atomic      Atomic             Coordinates (Angstroms)
 Number     Number       Type             X           Y           Z
 ---------------------------------------------------------------------
      1          6           0        2.748498    1.107674   -0.013007
      2          6           0        2.188362   -0.002435   -0.468688
      3          6           0        1.516047   -1.040517    0.378276
      4          6           0        0.060553   -1.298957   -0.016842
      5          6           0       -0.808988   -0.067982    0.127451
      6          8           0       -2.143611   -0.412815   -0.147869
      7          6           0       -3.010392    0.684843   -0.058730
      8          1           0        2.752322    1.343744    1.046568
      9          1           0        0.038194    3.572799    0.518768
     10          1           0        3.226444    1.818292   -0.676276
     11          1           0        2.205485   -0.199824   -1.539468
     12          1           0        2.069928   -1.980450    0.289967
     13          1           0        1.569553   -0.742328    1.429833
     14          1           0        0.427563    2.950904    0.385203
     15          1           0       -0.353470   -2.093189    0.608885
     16          1           0        0.006586   -1.651912   -1.050935
     17          1           0       -0.725574    0.339188    1.148471
     18          1           0       -0.473643    0.723666   -0.558326
     19          1           0       -3.001423    1.123868    0.948208
     20          1           0       -4.016604    0.331601   -0.281157
     21          1           0       -2.740947    1.470404   -0.777546
 ---------------------------------------------------------------------

 SCF Done:  E(RHF) =  -311.728320981     A.U. after    2 cycles

 The electronic state is 1-A.
 Alpha  occ. eigenvalues --  -21.03766 -11.44354 -11.42966 -11.40196 -11.39665
 Alpha  occ. eigenvalues --  -11.37451 -11.35517  -1.75319  -1.25106  -1.11037
 Alpha  occ. eigenvalues --   -1.00318  -0.92525  -0.85391  -0.78531  -0.66357
 Alpha  occ. eigenvalues --   -0.64552  -0.61624  -0.61251  -0.59719  -0.58797
 Alpha  occ. eigenvalues --   -0.55848  -0.54985  -0.50144  -0.47042  -0.44568
 Alpha  occ. eigenvalues --   -0.44048  -0.38517  -0.34308  -0.29296
 Alpha virt. eigenvalues --    0.04281   0.04896   0.05115   0.05418   0.05448
 Alpha virt. eigenvalues --    0.05886   0.06243   0.06639   0.06780   0.08138
 Alpha virt. eigenvalues --    0.08575   0.09015   0.09358   0.11607   0.12430

 Mulliken charges:
               1
     1  C   -3.146443
     2  C   -0.391868
     3  C   -3.482244
     4  C   -3.469309
     5  C   -0.390744
     6  O   -3.229521
     7  C   -3.352564
     8  H    1.505791
     9  H    0.234093
    10  H    1.435700
    11  H    1.378283
    12  H    1.282516
    13  H    1.448845
    14  H   -0.305696
    15  H    1.389064
    16  H    1.426335
    17  H    1.701192
    18  H    2.008012
    19  H    1.314707
    20  H    1.320978
    21  H    1.322874
 Sum of Mulliken charges =  -0.00000

 Dipole moment (field-independent basis, Debye):
    X=              0.0333    Y=             -0.0368    Z=              0.0309  Tot=              0.0585

 Test job not archived.
 1\1\GINC-SE116\SP\RHF\Aug-CC-pVDZ\C6H14O1\OHZDE\09-Apr-2025\0\\#t hf a
 ug-cc-pvdz iop(5/13=1,5/36=2,99/5=2) pseudo=read geom=check guess=(rea
 d,tcheck) scf=(maxcycle=1)\\title\\0,1\C,0,-2.75473021,-0.00060456,-0.
 76602924\C,0,-2.08866435,-0.06673409,0.37665274\C,0,-1.16570823,-1.178
 82821,0.77460588\C,0,0.2534181,-0.70597293,1.09688025\C,0,0.93249004,-
 0.05303709,-0.08834442\O,0,2.26105223,0.25302214,0.25397313\C,0,2.9514
 0517,0.88550467,-0.78885258\H,0,-2.66651458,-0.78017175,-1.51631957\H,
 0,-0.41536826,1.27956555,-3.33389228\H,0,-3.41403657,0.82808173,-0.993

 Normal termination of Gaussian 16 at Wed Apr  9 18:51:27 2025.
