 Gaussian 16, Revision C.01,

 ----------------------------------------------------------------------
 #t hf aug-cc-pvdz symm=none int=(grid=ultrafine) guess=(read,tcheck) s
 table=(opt,rrhf)
 ----------------------------------------------------------------------
 -----
 title
 -----
 Symbolic Z-matrix:
 Charge =  0 Multiplicity = 1

 SCF Done:  E(RHF) =  -309.099587204     A.U. after   14 cycles

 1\1\GINC-SE114\Stability\RHF\Aug-CC-pVDZ\C6H12O1\OHZDE\09-Apr-2025\0\\
 #t hf aug-cc-pvdz symm=none int=(grid=ultrafine) guess=(read,tcheck) s
 table=(opt,rrhf)\\title\\0,1\C,0,3.62006391,0.14588108,-0.14890351\C,0
 ,-0.32337061,-0.9820066,0.21779559\O,0,0.534997,-1.8105455,0.35930229\
 C,0,-0.09955141,0.51533793,0.06151384\C,0,-1.48813659,1.13557534,0.206
 83993\C,0,-2.43736039,0.05222687,-0.32848432\C,0,-1.81966609,-1.255130
 46,0.16509353\H,0,3.54166106,0.94161961,0.5916526\H,0,3.45016274,0.560
 09293,-1.14248018\H,0,4.61821925,-0.28776512,-0.10653371\H,0,2.8770608

 Normal termination of Gaussian 16 at Wed Apr  9 19:21:23 2025.
 Gaussian 16:  ES64L-G16RevC.01  3-Jul-2019

 ----------------------------------------------------------------------
 #t hf aug-cc-pvdz iop(5/13=1,5/36=2,99/5=2) pseudo=read geom=check gue
 ss=(read,tcheck) scf=(maxcycle=1)
 ----------------------------------------------------------------------
 -----
 title
 -----
 Structure from the checkpoint file:  "Grambow2020_wb97xd3_008676_reverse_mol2.chk"
 Charge =  0 Multiplicity = 1

                         Standard orientation:
 ---------------------------------------------------------------------
 Center     Atomic      Atomic             Coordinates (Angstroms)
 Number     Number       Type             X           Y           Z
 ---------------------------------------------------------------------
      1          6           0        3.785035   -0.388803    0.132307
      2          6           0       -0.171834    0.731538   -0.080520
      3          8           0        0.677618    1.578702   -0.144091
      4          6           0        0.066928   -0.771642   -0.080824
      5          6           0       -1.317461   -1.387460   -0.276317
      6          6           0       -2.270853   -0.374204    0.376062
      7          6           0       -1.669899    0.982948    0.013651
      8          1           0        3.706244   -1.105135   -0.685270
      9          1           0        3.628921   -0.904397    1.079632
     10          1           0        4.778795    0.056790    0.125528
     11          1           0        3.033115    0.390185    0.010691
     12          1           0        0.813549   -1.045118   -0.825451
     13          1           0        0.482198   -1.027544    0.899824
     14          1           0       -1.541129   -1.469819   -1.343793
     15          1           0       -1.405973   -2.385985    0.151391
     16          1           0       -2.263269   -0.506599    1.461812
     17          1           0       -3.302095   -0.490477    0.042865
     18          1           0       -1.884517    1.794357    0.708244
     19          1           0       -1.998282    1.309859   -0.978902
 ---------------------------------------------------------------------

 SCF Done:  E(RHF) =  -310.603812319     A.U. after    2 cycles

 The electronic state is 1-A.
 Alpha  occ. eigenvalues --  -21.04676 -11.50218 -11.44487 -11.41753 -11.39043
 Alpha  occ. eigenvalues --  -11.36246 -11.34473  -1.70575  -1.31578  -1.07046
 Alpha  occ. eigenvalues --   -1.01693  -1.00158  -0.84913  -0.75466  -0.67746
 Alpha  occ. eigenvalues --   -0.63275  -0.59787  -0.56656  -0.53596  -0.52547
 Alpha  occ. eigenvalues --   -0.52506  -0.52037  -0.48413  -0.47432  -0.46580
 Alpha  occ. eigenvalues --   -0.45525  -0.39807  -0.26856
 Alpha virt. eigenvalues --    0.03389   0.04704   0.05107   0.05219   0.05317
 Alpha virt. eigenvalues --    0.05669   0.06098   0.07025   0.07077   0.08878
 Alpha virt. eigenvalues --    0.08981   0.09583   0.11243   0.12409   0.13825

 Mulliken charges:
               1
     1  C   -5.392054
     2  C    4.785669
     3  O   -3.530342
     4  C   -3.031740
     5  C   -3.036551
     6  C   -2.762536
     7  C   -3.445216
     8  H    1.327171
     9  H    1.269802
    10  H    1.150689
    11  H    1.594578
    12  H    1.552102
    13  H    1.547327
    14  H    1.337741
    15  H    1.259699
    16  H    1.396341
    17  H    1.279347
    18  H    1.335226
    19  H    1.362746
 Sum of Mulliken charges =   0.00000

 Dipole moment (field-independent basis, Debye):
    X=             -1.5181    Y=             -1.1626    Z=              0.0774  Tot=              1.9137

 Test job not archived.
 1\1\GINC-SE114\SP\RHF\Aug-CC-pVDZ\C6H12O1\OHZDE\09-Apr-2025\0\\#t hf a
 ug-cc-pvdz iop(5/13=1,5/36=2,99/5=2) pseudo=read geom=check guess=(rea
 d,tcheck) scf=(maxcycle=1)\\title\\0,1\C,0,3.62006391,0.14588108,-0.14
 890351\C,0,-0.32337061,-0.9820066,0.21779559\O,0,0.534997,-1.8105455,0
 .35930229\C,0,-0.09955141,0.51533793,0.06151384\C,0,-1.48813659,1.1355
 7534,0.20683993\C,0,-2.43736039,0.05222687,-0.32848432\C,0,-1.81966609
 ,-1.25513046,0.16509353\H,0,3.54166106,0.94161961,0.5916526\H,0,3.4501
 6274,0.56009293,-1.14248018\H,0,4.61821925,-0.28776512,-0.10653371\H,0

 Normal termination of Gaussian 16 at Wed Apr  9 19:21:29 2025.
