 Gaussian 16, Revision C.01,

 ----------------------------------------------------------------------
 #t hf aug-cc-pvdz symm=none int=(grid=ultrafine) guess=(read,tcheck) s
 table=(opt,rrhf)
 ----------------------------------------------------------------------
 -----
 title
 -----
 Symbolic Z-matrix:
 Charge =  0 Multiplicity = 1

 SCF Done:  E(RHF) =  -355.880634208     A.U. after   14 cycles
 Normal termination of Gaussian 16 at Wed Apr  9 19:28:09 2025.
 Gaussian 16:  ES64L-G16RevC.01  3-Jul-2019

 ----------------------------------------------------------------------
 #t hf aug-cc-pvdz iop(5/13=1,5/36=2,99/5=2) pseudo=read geom=check gue
 ss=(read,tcheck) scf=(maxcycle=1)
 ----------------------------------------------------------------------
 -----
 title
 -----
 Structure from the checkpoint file:  "Grambow2020_wb97xd3_008995_forward_mol1.chk"
 Charge =  0 Multiplicity = 1

                         Standard orientation:
 ---------------------------------------------------------------------
 Center     Atomic      Atomic             Coordinates (Angstroms)
 Number     Number       Type             X           Y           Z
 ---------------------------------------------------------------------
      1          6           0        2.688178   -0.365458    0.002496
      2          7           0        1.600877    0.590017   -0.070511
      3          6           0        0.302226    0.223949    0.011763
      4          8           0        0.087707   -1.056371    0.035205
      5          7           0       -0.694766    1.064462    0.054907
      6          6           0       -2.380307    0.321073   -0.014394
      7          7           0       -2.435754   -0.860728   -0.033116
      8          1           0        2.507877   -1.187339   -0.687283
      9          1           0        2.811962   -0.776577    1.007194
     10          1           0        3.607759    0.138274   -0.290301
     11          1           0        1.808817    1.563158    0.054562
     12          1           0       -0.468373    2.044523   -0.023174
     13          1           0       -2.966647    1.228089   -0.014501
     14          1           0       -0.956138   -1.192797    0.013713
 ---------------------------------------------------------------------

 SCF Done:  E(RHF) =  -357.513247792     A.U. after    2 cycles

 The electronic state is 1-A.
 Alpha  occ. eigenvalues --  -21.07783 -15.77883 -15.73323 -15.68988 -11.51829
 Alpha  occ. eigenvalues --  -11.43617 -11.41224  -1.79582  -1.43308  -1.33272
 Alpha  occ. eigenvalues --   -1.25734  -1.02303  -0.85343  -0.81928  -0.73656
 Alpha  occ. eigenvalues --   -0.65598  -0.64542  -0.62145  -0.56367  -0.56213
 Alpha  occ. eigenvalues --   -0.54121  -0.49918  -0.43362  -0.43137  -0.35970
 Alpha  occ. eigenvalues --   -0.33536  -0.28142
 Alpha virt. eigenvalues --    0.02817   0.04162   0.04645   0.05821   0.06630
 Alpha virt. eigenvalues --    0.07569   0.08860   0.10633   0.11316   0.11765
 Alpha virt. eigenvalues --    0.13581   0.13747   0.13996   0.14154   0.15451

 Mulliken charges:
               1
     1  C   -3.572605
     2  N   -2.493065
     3  C    5.645768
     4  O   -3.360864
     5  N   -2.414325
     6  C    0.661410
     7  N   -2.745977
     8  H    1.398761
     9  H    1.322626
    10  H    1.316175
    11  H    0.554665
    12  H    0.708395
    13  H    1.488540
    14  H    1.490493
 Sum of Mulliken charges =   0.00000

 Dipole moment (field-independent basis, Debye):
    X=              4.6359    Y=              3.2109    Z=              0.0866  Tot=              5.6400

 Test job not archived.
 1\1\GINC-SE054\SP\RHF\Aug-CC-pVDZ\C3H7N3O1\OHZDE\09-Apr-2025\0\\#t hf
 aug-cc-pvdz iop(5/13=1,5/36=2,99/5=2) pseudo=read geom=check guess=(re
 ad,tcheck) scf=(maxcycle=1)\\title\\0,1\C,0,2.33685311,0.36839243,-0.3
 221973\N,0,1.13844834,0.22766722,0.48061494\C,0,-0.0759144,-0.01873658
 ,-0.05964244\O,0,-0.12003787,0.00292805,-1.35709058\N,0,-1.15370863,-0
 .254417,0.63687175\C,0,-2.72223901,-0.3844282,-0.32296751\N,0,-2.62925
 867,-0.30405841,-1.49981667\H,0,2.16080456,1.07242862,-1.13283353\H,0,
 2.66149832,-0.58198526,-0.75248498\H,0,3.13042104,0.76010554,0.3117714

 Normal termination of Gaussian 16 at Wed Apr  9 19:28:13 2025.
