 Gaussian 16, Revision C.01,

 ----------------------------------------------------------------------
 #t hf aug-cc-pvdz symm=none int=(grid=ultrafine) guess=(read,tcheck) s
 table=(opt,rrhf)
 ----------------------------------------------------------------------
 -----
 title
 -----
 Symbolic Z-matrix:
 Charge =  0 Multiplicity = 1

 SCF Done:  E(RHF) =  -283.511271908     A.U. after   19 cycles
 Normal termination of Gaussian 16 at Wed Apr  9 03:09:15 2025.
 Gaussian 16:  ES64L-G16RevC.01  3-Jul-2019

 ----------------------------------------------------------------------
 #t hf aug-cc-pvdz iop(5/13=1,5/36=2,99/5=2) pseudo=read geom=check gue
 ss=(read,tcheck) scf=(maxcycle=1)
 ----------------------------------------------------------------------
 -----
 title
 -----
 Structure from the checkpoint file:  "Grambow2020_b97d3_006658_forward_mol1.chk"
 Charge =  0 Multiplicity = 1

                         Standard orientation:
 ---------------------------------------------------------------------
 Center     Atomic      Atomic             Coordinates (Angstroms)
 Number     Number       Type             X           Y           Z
 ---------------------------------------------------------------------
      1          7           0       -1.496610   -0.365591   -0.006295
      2          6           0       -1.398116    0.843664   -0.038591
      3          6           0        0.041689    1.289701   -0.055038
      4          6           0        0.883873   -0.033451    0.370797
      5          6           0       -0.502164   -1.329845   -0.069393
      6          8           0        1.965507   -0.224066   -0.231867
      7          1           0        0.302160    2.123179    0.612392
      8          1           0        0.297362    1.583711   -1.084502
      9          1           0        0.841244   -0.157455    1.484655
     10          1           0       -0.514205   -2.091437    0.714680
     11          1           0       -0.326036   -1.726745   -1.074871
 ---------------------------------------------------------------------

 SCF Done:  E(RHF) =  -284.809454628     A.U. after    2 cycles

 The electronic state is 1-A.
 Alpha  occ. eigenvalues --  -21.04078 -15.82925 -11.49405 -11.46016 -11.45410
 Alpha  occ. eigenvalues --  -11.42514  -1.67605  -1.47735  -1.12230  -1.04225
 Alpha  occ. eigenvalues --   -0.84294  -0.74348  -0.69255  -0.65111  -0.61863
 Alpha  occ. eigenvalues --   -0.59067  -0.51651  -0.50177  -0.45164  -0.42176
 Alpha  occ. eigenvalues --   -0.30704  -0.25899
 Alpha virt. eigenvalues --    0.03201   0.03952   0.05160   0.05816   0.06330
 Alpha virt. eigenvalues --    0.06523   0.08782   0.10174   0.10368   0.11262
 Alpha virt. eigenvalues --    0.12382   0.13151   0.13995   0.14206   0.15214

 Mulliken charges:
               1
     1  N   -1.974796
     2  C    0.460927
     3  C   -2.667602
     4  C    2.009449
     5  C   -2.335890
     6  O   -2.707120
     7  H    1.438174
     8  H    1.476396
     9  H    1.373758
    10  H    1.442103
    11  H    1.484602
 Sum of Mulliken charges =   0.00000

 Dipole moment (field-independent basis, Debye):
    X=              1.0227    Y=             -1.2068    Z=              0.1817  Tot=              1.5923

 Test job not archived.
 1\1\GINC-SE195\SP\RHF\Aug-CC-pVDZ\C4H5N1O1\OHZDE\09-Apr-2025\0\\#t hf
 aug-cc-pvdz iop(5/13=1,5/36=2,99/5=2) pseudo=read geom=check guess=(re
 ad,tcheck) scf=(maxcycle=1)\\title\\0,1\N,0,1.05378988,1.1213762,-0.22
 83785\C,0,1.64680408,0.06319169,-0.26865793\C,0,0.71194766,-1.11044106
 ,-0.12413817\C,0,-0.67609892,-0.46231506,0.41863077\C,0,-0.31005341,1.
 36186252,-0.15920179\O,0,-1.7353183,-0.93929696,-0.0504237\H,0,1.03542
 478,-1.91137507,0.55546614\H,0,0.55764951,-1.55015398,-1.12136092\H,0,
 -0.59268396,-0.2778883,1.52176429\H,0,-0.64380248,2.04014163,0.6304099

 Normal termination of Gaussian 16 at Wed Apr  9 03:09:19 2025.
