 Gaussian 16, Revision C.01,

 ----------------------------------------------------------------------
 #t hf aug-cc-pvdz symm=none int=(grid=ultrafine) guess=(read,tcheck) s
 table=(opt,rrhf)
 ----------------------------------------------------------------------
 -----
 title
 -----
 Symbolic Z-matrix:
 Charge =  0 Multiplicity = 1

 SCF Done:  E(RHF) =  -302.799471504     A.U. after   14 cycles
 Normal termination of Gaussian 16 at Wed Apr  9 19:03:56 2025.
 Gaussian 16:  ES64L-G16RevC.01  3-Jul-2019

 ----------------------------------------------------------------------
 #t hf aug-cc-pvdz iop(5/13=1,5/36=2,99/5=2) pseudo=read geom=check gue
 ss=(read,tcheck) scf=(maxcycle=1)
 ----------------------------------------------------------------------
 -----
 title
 -----
 Structure from the checkpoint file:  "Grambow2020_wb97xd3_008037_reverse_mol2.chk"
 Charge =  0 Multiplicity = 1

                         Standard orientation:
 ---------------------------------------------------------------------
 Center     Atomic      Atomic             Coordinates (Angstroms)
 Number     Number       Type             X           Y           Z
 ---------------------------------------------------------------------
      1          6           0       -2.080788    0.115550   -0.001791
      2          6           0       -0.778867   -0.638957   -0.116647
      3          6           0        0.404466   -0.131369   -0.978632
      4          7           0        1.259142   -0.998602   -0.171926
      5          6           0        0.376449   -0.510955    0.935432
      6          6           0        0.608171    1.027120    0.969473
      7          7           0        0.634878    1.198648   -0.330049
      8          1           0       -1.931653    1.177742    0.191423
      9          1           0       -2.665687    0.008155   -0.918013
     10          1           0       -2.678033   -0.289793    0.816812
     11          1           0       -0.944836   -1.695786   -0.323985
     12          1           0        0.720239    2.082199   -0.803284
     13          1           0        0.466277   -0.141083   -2.065592
     14          1           0        2.214742   -0.656742   -0.106579
     15          1           0        0.384226   -1.053350    1.876028
 ---------------------------------------------------------------------

 SCF Done:  E(RHF) =  -304.252652040     A.U. after    2 cycles

 The electronic state is 1-A.
 Alpha  occ. eigenvalues --  -15.77158 -15.72702 -11.51330 -11.46127 -11.40792
 Alpha  occ. eigenvalues --  -11.38141 -11.36677  -1.59713  -1.29635  -1.14277
 Alpha  occ. eigenvalues --   -1.02449  -0.97284  -0.83459  -0.78333  -0.70446
 Alpha  occ. eigenvalues --   -0.65910  -0.61957  -0.58526  -0.52974  -0.50481
 Alpha  occ. eigenvalues --   -0.48406  -0.46509  -0.43169  -0.40510  -0.34759
 Alpha  occ. eigenvalues --   -0.31439
 Alpha virt. eigenvalues --    0.03637   0.05011   0.05277   0.05921   0.06090
 Alpha virt. eigenvalues --    0.06187   0.06455   0.07155   0.09756   0.11042
 Alpha virt. eigenvalues --    0.11657   0.12788   0.13335   0.13984   0.14567

 Mulliken charges:
               1
     1  C   -3.906204
     2  C    0.274994
     3  C   -0.912582
     4  N   -1.751861
     5  C   -0.813264
     6  C   -0.372222
     7  N   -1.679423
     8  H    1.306408
     9  H    1.143062
    10  H    1.146868
    11  H    1.091317
    12  H    0.779008
    13  H    1.482419
    14  H    0.649650
    15  H    1.561830
 Sum of Mulliken charges =  -0.00000

 Dipole moment (field-independent basis, Debye):
    X=             -0.4711    Y=             -0.3941    Z=             -2.9213  Tot=              2.9852

 Test job not archived.
 1\1\GINC-SE029\SP\RHF\Aug-CC-pVDZ\C5H8N2\OHZDE\09-Apr-2025\0\\#t hf au
 g-cc-pvdz iop(5/13=1,5/36=2,99/5=2) pseudo=read geom=check guess=(read
 ,tcheck) scf=(maxcycle=1)\\title\\0,1\C,0,1.68541782,-0.56014933,-0.40
 309359\C,0,0.65122787,0.17927861,0.41002902\C,0,-0.51381278,0.96596165
 ,-0.2417022\N,0,-1.19877301,0.85871854,1.04385917\C,0,-0.6127063,-0.51
 938009,1.02023802\C,0,-1.24378487,-1.18944686,-0.23406618\N,0,-1.16129
 508,-0.14033548,-1.01602019\H,0,1.24001146,-1.17171496,-1.18758391\H,0
 ,2.38176303,0.14348547,-0.86472568\H,0,2.26749427,-1.22055883,0.242012

 Normal termination of Gaussian 16 at Wed Apr  9 19:04:01 2025.
