 Gaussian 16, Revision C.01,

 ----------------------------------------------------------------------
 #t hf aug-cc-pvdz symm=none int=(grid=ultrafine) guess=(read,tcheck) s
 table=(opt,rrhf)
 ----------------------------------------------------------------------
 -----
 title
 -----
 Symbolic Z-matrix:
 Charge =  0 Multiplicity = 1

 SCF Done:  E(RHF) =  -284.702873808     A.U. after   15 cycles
 Normal termination of Gaussian 16 at Wed Apr  9 03:06:21 2025.
 Gaussian 16:  ES64L-G16RevC.01  3-Jul-2019

 ----------------------------------------------------------------------
 #t hf aug-cc-pvdz iop(5/13=1,5/36=2,99/5=2) pseudo=read geom=check gue
 ss=(read,tcheck) scf=(maxcycle=1)
 ----------------------------------------------------------------------
 -----
 title
 -----
 Structure from the checkpoint file:  "Grambow2020_b97d3_006527_forward_mol1.chk"
 Charge =  0 Multiplicity = 1

                         Standard orientation:
 ---------------------------------------------------------------------
 Center     Atomic      Atomic             Coordinates (Angstroms)
 Number     Number       Type             X           Y           Z
 ---------------------------------------------------------------------
      1          6           0       -0.762375    1.054084   -0.393110
      2          6           0       -1.388495   -0.285548   -0.060427
      3          8           0       -0.499823   -1.314410   -0.076962
      4          6           0        0.892649   -1.056470   -0.066929
      5          7           0        1.476041    0.052118    0.084428
      6          6           0        0.642974    1.257875    0.188355
      7          1           0       -0.698099    1.055459   -1.495730
      8          1           0       -1.450443    1.859472   -0.105978
      9          1           0       -1.639845    0.075565    1.826887
     10          1           0       -2.041390   -0.261388    1.048097
     11          1           0        1.426316   -2.000283   -0.182197
     12          1           0        1.177192    2.069735   -0.326160
     13          1           0        0.584036    1.532253    1.252451
 ---------------------------------------------------------------------

 SCF Done:  E(RHF) =  -286.026505750     A.U. after    2 cycles

 The electronic state is 1-A.
 Alpha  occ. eigenvalues --  -21.12045 -15.74582 -11.47317 -11.46111 -11.44114
 Alpha  occ. eigenvalues --  -11.39014  -1.82551  -1.38319  -1.18136  -0.96843
 Alpha  occ. eigenvalues --   -0.91739  -0.77007  -0.68974  -0.64897  -0.63064
 Alpha  occ. eigenvalues --   -0.60726  -0.55114  -0.53484  -0.50488  -0.42846
 Alpha  occ. eigenvalues --   -0.40861  -0.34684  -0.29321
 Alpha virt. eigenvalues --    0.03261   0.05010   0.05424   0.05802   0.06034
 Alpha virt. eigenvalues --    0.06239   0.08227   0.09689   0.10462   0.10736
 Alpha virt. eigenvalues --    0.12375   0.12992   0.13383   0.14220   0.14680

 Mulliken charges:
               1
     1  C   -2.594253
     2  C    0.356041
     3  O   -3.058812
     4  C    1.921803
     5  N   -2.690539
     6  C   -2.130419
     7  H    1.349597
     8  H    1.356428
     9  H    0.521355
    10  H    0.394815
    11  H    1.767127
    12  H    1.369964
    13  H    1.436893
 Sum of Mulliken charges =  -0.00000

 Dipole moment (field-independent basis, Debye):
    X=              0.1498    Y=              0.3104    Z=             -0.7147  Tot=              0.7934

 Test job not archived.
 1\1\GINC-SE044\SP\RHF\Aug-CC-pVDZ\C4H7N1O1\OHZDE\09-Apr-2025\0\\#t hf
 aug-cc-pvdz iop(5/13=1,5/36=2,99/5=2) pseudo=read geom=check guess=(re
 ad,tcheck) scf=(maxcycle=1)\\title\\0,1\C,0,0.5368556,-0.65729538,0.67
 521292\C,0,-0.93756868,-0.91090205,0.43215923\O,0,-1.64655086,0.223736
 12,0.19027205\C,0,-0.97752735,1.42974691,-0.13153149\N,0,0.25189481,1.
 59873119,-0.3599807\C,0,1.1440824,0.44144168,-0.20722084\H,0,0.5850235
 ,-0.33692962,1.73112497\H,0,1.08735979,-1.60348975,0.59650951\H,0,-0.7
 1689406,-1.69928674,-1.32433862\H,0,-1.14064608,-1.78401159,-0.4909444

 Normal termination of Gaussian 16 at Wed Apr  9 03:06:25 2025.
