 Gaussian 16, Revision C.01,

 ----------------------------------------------------------------------
 #t hf aug-cc-pvdz symm=none int=(grid=ultrafine) guess=(read,tcheck) s
 table=(opt,rrhf)
 ----------------------------------------------------------------------
 -----
 title
 -----
 Symbolic Z-matrix:
 Charge =  0 Multiplicity = 1

 SCF Done:  E(RHF) =  -322.672077277     A.U. after   14 cycles
 Normal termination of Gaussian 16 at Wed Apr  9 18:22:19 2025.
 Gaussian 16:  ES64L-G16RevC.01  3-Jul-2019

 ----------------------------------------------------------------------
 #t hf aug-cc-pvdz iop(5/13=1,5/36=2,99/5=2) pseudo=read geom=check gue
 ss=(read,tcheck) scf=(maxcycle=1)
 ----------------------------------------------------------------------
 -----
 title
 -----
 Structure from the checkpoint file:  "Grambow2020_wb97xd3_006938_reverse_mol2.chk"
 Charge =  0 Multiplicity = 1

                         Standard orientation:
 ---------------------------------------------------------------------
 Center     Atomic      Atomic             Coordinates (Angstroms)
 Number     Number       Type             X           Y           Z
 ---------------------------------------------------------------------
      1          8           0       -1.011974   -0.735417   -0.416430
      2          6           0       -2.232906   -0.367978    0.045461
      3          7           0       -2.601613    0.725770    0.538677
      4          6           0        2.142378   -0.694862    0.559825
      5          6           0        2.514469    0.642660   -0.073841
      6          6           0        1.154413    0.115589   -0.142555
      7          6           0       -0.069178    0.259163   -0.583403
      8          1           0       -2.921567   -1.202543   -0.058317
      9          1           0       -1.844788    1.403160    0.606154
     10          1           0        2.496539   -1.599071    0.079197
     11          1           0        2.091234   -0.745903    1.641010
     12          1           0        2.710518    1.476931    0.589320
     13          1           0        3.121150    0.624516   -0.971603
     14          1           0       -0.401071    1.118434   -1.157976
 ---------------------------------------------------------------------

 SCF Done:  E(RHF) =  -324.154815943     A.U. after    2 cycles

 The electronic state is 1-A.
 Alpha  occ. eigenvalues --  -21.10195 -15.73319 -11.47841 -11.47270 -11.46213
 Alpha  occ. eigenvalues --  -11.42272 -11.39141  -1.82510  -1.32279  -1.30663
 Alpha  occ. eigenvalues --   -1.04372  -0.88517  -0.86121  -0.76198  -0.69199
 Alpha  occ. eigenvalues --   -0.66828  -0.64958  -0.62354  -0.52516  -0.52459
 Alpha  occ. eigenvalues --   -0.50164  -0.42544  -0.41228  -0.39929  -0.36361
 Alpha  occ. eigenvalues --   -0.30102
 Alpha virt. eigenvalues --    0.03398   0.05251   0.05354   0.05654   0.05946
 Alpha virt. eigenvalues --    0.06037   0.07379   0.09620   0.10350   0.11724
 Alpha virt. eigenvalues --    0.11935   0.13141   0.13260   0.13678   0.13782

 Mulliken charges:
               1
     1  O   -3.653649
     2  C    1.774004
     3  N   -2.850593
     4  C   -2.908060
     5  C   -2.959228
     6  C    3.060600
     7  C   -0.267985
     8  H    1.710330
     9  H    0.707350
    10  H    1.043080
    11  H    1.015614
    12  H    0.982006
    13  H    1.015654
    14  H    1.330880
 Sum of Mulliken charges =  -0.00000

 Dipole moment (field-independent basis, Debye):
    X=              2.7818    Y=             -0.7366    Z=             -0.6019  Tot=              2.9399

 Test job not archived.
 1\1\GINC-SE028\SP\RHF\Aug-CC-pVDZ\C5H7N1O1\OHZDE\09-Apr-2025\0\\#t hf
 aug-cc-pvdz iop(5/13=1,5/36=2,99/5=2) pseudo=read geom=check guess=(re
 ad,tcheck) scf=(maxcycle=1)\\title\\0,1\O,0,-1.15712989,1.06928882,-0.
 2533707\C,0,-1.4500431,2.16535148,0.48951482\N,0,-0.79931475,2.6897189
 6,1.42604175\C,0,-0.23796658,-2.07180339,0.18632656\C,0,1.26722638,-1.
 83857289,0.0917374\C,0,0.31569248,-0.73340539,0.01781212\C,0,0.1173206
 7,0.54960553,-0.14548939\H,0,-2.40226972,2.575631,0.16323425\H,0,0.054
 06288,2.18060729,1.64682744\H,0,-0.7337994,-2.5301214,-0.66109353\H,0,

 Normal termination of Gaussian 16 at Wed Apr  9 18:22:23 2025.
