 Gaussian 16, Revision C.01,

 ----------------------------------------------------------------------
 #t hf aug-cc-pvdz symm=none int=(grid=ultrafine) guess=(read,tcheck) s
 table=(opt,rrhf)
 ----------------------------------------------------------------------
 -----
 title
 -----
 Symbolic Z-matrix:
 Charge =  0 Multiplicity = 1

 SCF Done:  E(RHF) =  -193.924969559     A.U. after   10 cycles
 Normal termination of Gaussian 16 at Wed Apr  9 03:06:44 2025.
 Gaussian 16:  ES64L-G16RevC.01  3-Jul-2019

 ----------------------------------------------------------------------
 #t hf aug-cc-pvdz iop(5/13=1,5/36=2,99/5=2) pseudo=read geom=check gue
 ss=(read,tcheck) scf=(maxcycle=1)
 ----------------------------------------------------------------------
 -----
 title
 -----
 Structure from the checkpoint file:  "Grambow2020_b97d3_006546_forward_mol2.chk"
 Charge =  0 Multiplicity = 1

                         Standard orientation:
 ---------------------------------------------------------------------
 Center     Atomic      Atomic             Coordinates (Angstroms)
 Number     Number       Type             X           Y           Z
 ---------------------------------------------------------------------
      1          6           0       -1.164469   -0.435067   -0.000190
      2          6           0       -0.000186   -0.000051    0.939770
      3          6           0        0.959013   -0.790861    0.000109
      4          6           0        0.000082   -0.000015   -0.939789
      5          6           0        0.205493    1.225936   -0.000055
      6          1           0       -2.061122    0.200514    0.000433
      7          1           0       -1.424487   -1.502949   -0.000769
      8          1           0       -0.000639    0.000426    2.037573
      9          1           0        0.857076   -1.885218    0.000239
     10          1           0        2.013870   -0.482268    0.000695
     11          1           0        0.000429    0.000559   -2.037471
     12          1           0        1.204557    1.684106    0.000074
     13          1           0       -0.589284    1.985181    0.000158
 ---------------------------------------------------------------------

 SCF Done:  E(RHF) =  -194.918618879     A.U. after    2 cycles

 The electronic state is 1-A.
 Alpha  occ. eigenvalues --  -11.46058 -11.41681 -11.41670 -11.41040 -11.34317
 Alpha  occ. eigenvalues --   -1.43397  -0.95342  -0.95337  -0.88677  -0.76644
 Alpha  occ. eigenvalues --   -0.68912  -0.61929  -0.61925  -0.48420  -0.42894
 Alpha  occ. eigenvalues --   -0.42891  -0.41339  -0.41332  -0.39939
 Alpha virt. eigenvalues --    0.04272   0.05139   0.05789   0.05789   0.05967
 Alpha virt. eigenvalues --    0.06424   0.06424   0.09061   0.12493   0.12493
 Alpha virt. eigenvalues --    0.12710   0.13006   0.13479   0.13480   0.15064

 Mulliken charges:
               1
     1  C   -2.205125
     2  C   -1.798634
     3  C   -2.204482
     4  C   -1.798879
     5  C   -2.205481
     6  H    1.285020
     7  H    1.284863
     8  H    1.251393
     9  H    1.284832
    10  H    1.284843
    11  H    1.251268
    12  H    1.285117
    13  H    1.285264
 Sum of Mulliken charges =  -0.00000

 Dipole moment (field-independent basis, Debye):
    X=             -0.0001    Y=             -0.0000    Z=              0.0000  Tot=              0.0001

 Test job not archived.
 1\1\GINC-SE128\SP\RHF\Aug-CC-pVDZ\C5H8\OHZDE\09-Apr-2025\0\\#t hf aug-
 cc-pvdz iop(5/13=1,5/36=2,99/5=2) pseudo=read geom=check guess=(read,t
 check) scf=(maxcycle=1)\\title\\0,1\C,0,-0.65765995,1.04799015,-0.1206
 2281\C,0,-0.13316651,0.02350799,0.92992967\C,0,-0.57187119,-1.10235473
 ,-0.05413245\C,0,0.13304699,-0.02338273,-0.93008968\C,0,1.22951061,0.0
 543828,0.17443247\H,0,-0.22372264,2.05707387,-0.08320727\H,0,-1.745011
 33,1.07983593,-0.27757837\H,0,-0.28823341,0.05128818,2.01637132\H,0,-1
 .65292204,-1.23057,-0.20545705\H,0,-0.05905683,-2.06947912,0.04407852\

 Normal termination of Gaussian 16 at Wed Apr  9 03:06:48 2025.
