 Gaussian 16, Revision C.01,

 ----------------------------------------------------------------------
 #t hf aug-cc-pvdz symm=none int=(grid=ultrafine) guess=(read,tcheck) s
 table=(opt,rrhf)
 ----------------------------------------------------------------------
 -----
 title
 -----
 Symbolic Z-matrix:
 Charge =  0 Multiplicity = 1

 SCF Done:  E(RHF) =  -339.287146625     A.U. after   16 cycles
 Normal termination of Gaussian 16 at Wed Apr  9 16:28:40 2025.
 Gaussian 16:  ES64L-G16RevC.01  3-Jul-2019

 ----------------------------------------------------------------------
 #t hf aug-cc-pvdz iop(5/13=1,5/36=2,99/5=2) pseudo=read geom=check gue
 ss=(read,tcheck) scf=(maxcycle=1)
 ----------------------------------------------------------------------
 -----
 title
 -----
 Structure from the checkpoint file:  "Grambow2020_b97d3_006815_reverse_mol2.chk"
 Charge =  0 Multiplicity = 1

                         Standard orientation:
 ---------------------------------------------------------------------
 Center     Atomic      Atomic             Coordinates (Angstroms)
 Number     Number       Type             X           Y           Z
 ---------------------------------------------------------------------
      1          8           0        1.207448    0.856110    0.327169
      2          6           0        0.307669    1.413803   -0.474707
      3          6           0       -1.690108   -0.263079    0.383280
      4          8           0       -2.711041   -0.209836   -0.140538
      5          6           0        1.252926   -0.580108    0.400772
      6          8           0        1.372262   -1.280041   -0.556958
      7          1           0        0.560041    2.504262   -0.358133
      8          1           0        1.267681   -0.857820    1.464688
 ---------------------------------------------------------------------

 SCF Done:  E(RHF) =  -340.674941142     A.U. after    2 cycles

 The electronic state is 1-A.
 Alpha  occ. eigenvalues --  -21.17034 -21.15356 -21.11083 -11.54530 -11.50662
 Alpha  occ. eigenvalues --  -11.44928  -1.86834  -1.78798  -1.71488  -0.98134
 Alpha  occ. eigenvalues --   -0.81313  -0.72608  -0.66569  -0.62639  -0.57797
 Alpha  occ. eigenvalues --   -0.51808  -0.51483  -0.50922  -0.48949  -0.43912
 Alpha  occ. eigenvalues --   -0.36920  -0.31907
 Alpha virt. eigenvalues --    0.03602   0.05268   0.06630   0.08137   0.09855
 Alpha virt. eigenvalues --    0.10359   0.10569   0.11065   0.12890   0.13746
 Alpha virt. eigenvalues --    0.14132   0.15330   0.15620   0.15846   0.17621

 Mulliken charges:
               1
     1  O   -2.219596
     2  C   -0.884142
     3  C    1.238474
     4  O   -1.325631
     5  C    2.176298
     6  O   -2.173750
     7  H    1.566368
     8  H    1.621979
 Sum of Mulliken charges =  -0.00000

 Dipole moment (field-independent basis, Debye):
    X=             -0.0277    Y=              0.3779    Z=              0.9582  Tot=              1.0304

 Test job not archived.
 1\1\GINC-SE042\SP\RHF\Aug-CC-pVDZ\C3H2O3\OHZDE\09-Apr-2025\0\\#t hf au
 g-cc-pvdz iop(5/13=1,5/36=2,99/5=2) pseudo=read geom=check guess=(read
 ,tcheck) scf=(maxcycle=1)\\title\\0,1\O,0,-0.82971761,-0.69274527,0.61
 498126\C,0,-0.83355665,0.60125866,0.91359117\C,0,0.54500257,1.26615986
 ,-1.36602952\O,0,0.87858212,2.35658819,-1.504648\C,0,0.39771197,-1.276
 33677,0.14270448\O,0,1.42812,-1.20174439,0.73775852\H,0,-1.88377004,0.
 73211871,1.29609454\H,0,0.16295964,-1.857816,-0.76064146\\Version=ES64
 L-G16RevC.01\State=1-A\HF=-340.6749411\RMSD=5.020e-02\Dipole=-0.298836

 Normal termination of Gaussian 16 at Wed Apr  9 16:28:42 2025.
