 Gaussian 16, Revision C.01,

 ----------------------------------------------------------------------
 #t hf aug-cc-pvdz symm=none int=(grid=ultrafine) guess=(read,tcheck) s
 table=(opt,rrhf)
 ----------------------------------------------------------------------
 -----
 title
 -----
 Symbolic Z-matrix:
 Charge =  0 Multiplicity = 1

 SCF Done:  E(RHF) =  -346.086605200     A.U. after   14 cycles

 1\1\GINC-SE173\Stability\RHF\Aug-CC-pVDZ\C5H12O2\OHZDE\09-Apr-2025\0\\
 #t hf aug-cc-pvdz symm=none int=(grid=ultrafine) guess=(read,tcheck) s
 table=(opt,rrhf)\\title\\0,1\C,0,1.93925426,0.66413029,1.46830832\C,0,
 0.70067259,0.69202888,2.35403902\C,0,0.25070963,-1.07261821,-1.0527815
 3\O,0,0.36996637,-2.08705157,-0.41897336\C,0,-0.97111039,-0.19482925,-
 0.94113066\C,0,-1.61509291,0.01059837,-2.30663523\O,0,-1.87984467,-0.7
 3737935,-0.02822989\H,0,2.21557401,-0.35873871,1.2054428\H,0,1.7790856
 ,1.21540621,0.53766519\H,0,2.79701548,1.11973597,1.96652701\H,0,0.8698

 Normal termination of Gaussian 16 at Wed Apr  9 19:06:13 2025.
 Gaussian 16:  ES64L-G16RevC.01  3-Jul-2019

 ----------------------------------------------------------------------
 #t hf aug-cc-pvdz iop(5/13=1,5/36=2,99/5=2) pseudo=read geom=check gue
 ss=(read,tcheck) scf=(maxcycle=1)
 ----------------------------------------------------------------------
 -----
 title
 -----
 Structure from the checkpoint file:  "Grambow2020_wb97xd3_008084_reverse_mol2.chk"
 Charge =  0 Multiplicity = 1

                         Standard orientation:
 ---------------------------------------------------------------------
 Center     Atomic      Atomic             Coordinates (Angstroms)
 Number     Number       Type             X           Y           Z
 ---------------------------------------------------------------------
      1          6           0        2.674151    0.267158    0.739797
      2          6           0        2.629150   -0.847651   -0.296812
      3          6           0       -0.690490    1.060069    0.216482
      4          8           0       -0.385987    1.639570   -0.791718
      5          6           0       -1.108234   -0.389520    0.214658
      6          6           0       -2.485607   -0.555396    0.844614
      7          8           0       -1.079445   -0.903906   -1.084620
      8          1           0        2.381147    1.224683    0.305049
      9          1           0        2.002418    0.062541    1.577987
     10          1           0        3.676652    0.386455    1.154902
     11          1           0        3.306853   -0.640233   -1.126840
     12          1           0        2.923052   -1.805559    0.136794
     13          1           0       -0.680609    1.569310    1.198707
     14          1           0       -0.775233   -0.189117   -1.660396
     15          1           0       -0.367662   -0.914334    0.840136
     16          1           0       -3.235933   -0.017322    0.263219
     17          1           0       -2.752142   -1.611478    0.853256
     18          1           0       -2.497704   -0.187645    1.872933
     19          1           0        1.628802   -0.970571   -0.717474
 ---------------------------------------------------------------------

 SCF Done:  E(RHF) =  -347.703448960     A.U. after    2 cycles

 The electronic state is 1-A.
 Alpha  occ. eigenvalues --  -21.08205 -21.07007 -11.50537 -11.45387 -11.39132
 Alpha  occ. eigenvalues --  -11.38881 -11.34813  -1.76740  -1.69449  -1.16167
 Alpha  occ. eigenvalues --   -1.14459  -0.96194  -0.88506  -0.80965  -0.70703
 Alpha  occ. eigenvalues --   -0.65501  -0.59982  -0.59719  -0.58911  -0.54771
 Alpha  occ. eigenvalues --   -0.53902  -0.48920  -0.48874  -0.47983  -0.47698
 Alpha  occ. eigenvalues --   -0.44466  -0.42028  -0.32834  -0.31612
 Alpha virt. eigenvalues --    0.03641   0.04574   0.04918   0.05551   0.05755
 Alpha virt. eigenvalues --    0.05978   0.06368   0.07194   0.07597   0.08387
 Alpha virt. eigenvalues --    0.08900   0.09856   0.11468   0.12303   0.13590

 Mulliken charges:
               1
     1  C   -4.252048
     2  C   -4.025787
     3  C    1.098706
     4  O   -2.671011
     5  C    1.009451
     6  C   -4.254641
     7  O   -3.086582
     8  H    1.398806
     9  H    1.515429
    10  H    1.173339
    11  H    1.260174
    12  H    1.233159
    13  H    1.674243
    14  H    0.797565
    15  H    1.889054
    16  H    1.214565
    17  H    1.176979
    18  H    1.240912
    19  H    1.607688
 Sum of Mulliken charges =  -0.00000

 Dipole moment (field-independent basis, Debye):
    X=             -0.1922    Y=             -0.0057    Z=              0.9187  Tot=              0.9386

 Test job not archived.
 1\1\GINC-SE173\SP\RHF\Aug-CC-pVDZ\C5H12O2\OHZDE\09-Apr-2025\0\\#t hf a
 ug-cc-pvdz iop(5/13=1,5/36=2,99/5=2) pseudo=read geom=check guess=(rea
 d,tcheck) scf=(maxcycle=1)\\title\\0,1\C,0,1.93925426,0.66413029,1.468
 30832\C,0,0.70067259,0.69202888,2.35403902\C,0,0.25070963,-1.07261821,
 -1.05278153\O,0,0.36996637,-2.08705157,-0.41897336\C,0,-0.97111039,-0.
 19482925,-0.94113066\C,0,-1.61509291,0.01059837,-2.30663523\O,0,-1.879
 84467,-0.73737935,-0.02822989\H,0,2.21557401,-0.35873871,1.2054428\H,0
 ,1.7790856,1.21540621,0.53766519\H,0,2.79701548,1.11973597,1.96652701\

 Normal termination of Gaussian 16 at Wed Apr  9 19:06:19 2025.
