 Gaussian 16, Revision C.01,

 ----------------------------------------------------------------------
 #t hf aug-cc-pvdz symm=none int=(grid=ultrafine) guess=(read,tcheck) s
 table=(opt,rrhf)
 ----------------------------------------------------------------------
 -----
 title
 -----
 Symbolic Z-matrix:
 Charge =  0 Multiplicity = 1

 SCF Done:  E(RHF) =  -343.541676706     A.U. after   16 cycles
 Normal termination of Gaussian 16 at Wed Apr  9 19:21:08 2025.
 Gaussian 16:  ES64L-G16RevC.01  3-Jul-2019

 ----------------------------------------------------------------------
 #t hf aug-cc-pvdz iop(5/13=1,5/36=2,99/5=2) pseudo=read geom=check gue
 ss=(read,tcheck) scf=(maxcycle=1)
 ----------------------------------------------------------------------
 -----
 title
 -----
 Structure from the checkpoint file:  "Grambow2020_wb97xd3_008653_forward_mol1.chk"
 Charge =  0 Multiplicity = 1

                         Standard orientation:
 ---------------------------------------------------------------------
 Center     Atomic      Atomic             Coordinates (Angstroms)
 Number     Number       Type             X           Y           Z
 ---------------------------------------------------------------------
      1          6           0       -2.850024    0.295769   -0.263404
      2          6           0       -1.655402   -0.175287    0.467140
      3          8           0       -0.675568   -0.726540   -0.239272
      4          6           0        0.445448   -0.285215    0.350190
      5          6           0        1.777515   -0.854106   -0.038425
      6          8           0        2.280132    0.482898   -0.242437
      7          6           0        1.017757    1.082140    0.106384
      8          1           0       -3.736817    0.258384    0.369505
      9          1           0       -2.744196    1.320837   -0.634773
     10          1           0       -3.000000   -0.342714   -1.139723
     11          1           0       -1.562830   -0.217858    1.539719
     12          1           0        2.364044   -1.380482    0.720559
     13          1           0        1.755095   -1.453014   -0.959669
     14          1           0        0.536804    1.620176   -0.725589
     15          1           0        1.139618    1.763999    0.952330
 ---------------------------------------------------------------------

 SCF Done:  E(RHF) =  -345.121974577     A.U. after    2 cycles

 The electronic state is 1-A.
 Alpha  occ. eigenvalues --  -21.15169 -21.02381 -11.48629 -11.44094 -11.42925
 Alpha  occ. eigenvalues --  -11.40823 -11.36890  -1.87030  -1.74258  -1.15289
 Alpha  occ. eigenvalues --   -1.04255  -0.99237  -0.87410  -0.77564  -0.69571
 Alpha  occ. eigenvalues --   -0.65763  -0.63210  -0.59018  -0.57091  -0.56146
 Alpha  occ. eigenvalues --   -0.54594  -0.49463  -0.46059  -0.38285  -0.36720
 Alpha  occ. eigenvalues --   -0.28533  -0.23767
 Alpha virt. eigenvalues --    0.03141   0.04936   0.05043   0.05227   0.06225
 Alpha virt. eigenvalues --    0.06588   0.07182   0.07452   0.08617   0.10313
 Alpha virt. eigenvalues --    0.10854   0.12393   0.12863   0.13371   0.13726

 Mulliken charges:
               1
     1  C   -3.924804
     2  C    0.916752
     3  O   -3.665059
     4  C    2.085670
     5  C   -2.097453
     6  O   -2.677321
     7  C   -1.388381
     8  H    1.222082
     9  H    1.232585
    10  H    1.298824
    11  H    1.281905
    12  H    1.474206
    13  H    1.415060
    14  H    1.415128
    15  H    1.410806
 Sum of Mulliken charges =  -0.00000

 Dipole moment (field-independent basis, Debye):
    X=             -2.3809    Y=             -0.2287    Z=             -0.5148  Tot=              2.4466

 Test job not archived.
 1\1\GINC-SE054\SP\RHF\Aug-CC-pVDZ\C5H8O2\OHZDE\09-Apr-2025\0\\#t hf au
 g-cc-pvdz iop(5/13=1,5/36=2,99/5=2) pseudo=read geom=check guess=(read
 ,tcheck) scf=(maxcycle=1)\\title\\0,1\C,0,2.53703596,-0.22974368,0.089
 80361\C,0,1.25655644,0.27895363,0.62300897\O,0,0.39335973,0.80531926,-
 0.23768982\C,0,-0.80504283,0.39604188,0.20416317\C,0,-2.06173844,0.955
 61771,-0.39304028\O,0,-2.54611815,-0.38591145,-0.61099041\C,0,-1.35312
 171,-0.97709868,-0.06179524\H,0,3.32551584,-0.17060377,0.84025321\H,0,
 2.47282377,-1.2690652,-0.25014838\H,0,2.81727737,0.36995074,-0.7819307

 Normal termination of Gaussian 16 at Wed Apr  9 19:21:14 2025.
