 Gaussian 16, Revision C.01,

 ----------------------------------------------------------------------
 #t hf aug-cc-pvdz symm=none int=(grid=ultrafine) guess=(read,tcheck) s
 table=(opt,rrhf)
 ----------------------------------------------------------------------
 -----
 title
 -----
 Symbolic Z-matrix:
 Charge =  0 Multiplicity = 1

 SCF Done:  E(RHF) =  -317.644137730     A.U. after   17 cycles
 Normal termination of Gaussian 16 at Wed Apr  9 19:04:40 2025.
 Gaussian 16:  ES64L-G16RevC.01  3-Jul-2019

 ----------------------------------------------------------------------
 #t hf aug-cc-pvdz iop(5/13=1,5/36=2,99/5=2) pseudo=read geom=check gue
 ss=(read,tcheck) scf=(maxcycle=1)
 ----------------------------------------------------------------------
 -----
 title
 -----
 Structure from the checkpoint file:  "Grambow2020_wb97xd3_008065_forward_mol1.chk"
 Charge =  0 Multiplicity = 1

                         Standard orientation:
 ---------------------------------------------------------------------
 Center     Atomic      Atomic             Coordinates (Angstroms)
 Number     Number       Type             X           Y           Z
 ---------------------------------------------------------------------
      1          7           0       -3.093191   -0.222866   -0.387025
      2          6           0       -2.004589   -0.228015   -0.003287
      3          6           0       -0.662927   -0.228489    0.439788
      4          6           0        1.745365   -1.247729   -0.026712
      5          7           0        2.072045   -0.039203   -0.352174
      6          6           0        1.350400    1.016123   -0.038228
      7          7           0        0.043199    0.936298    0.211669
      8          1           0       -0.446095   -0.796858    1.324446
      9          1           0        1.305038   -1.516622    0.920998
     10          1           0        2.142341   -2.057750   -0.631959
     11          1           0        1.764499    2.007514   -0.163025
     12          1           0       -0.489650    1.772780    0.012890
 ---------------------------------------------------------------------

 SCF Done:  E(RHF) =  -319.103952840     A.U. after    2 cycles

 The electronic state is 1-A.
 Alpha  occ. eigenvalues --  -15.84842 -15.77685 -15.72897 -11.48612 -11.47224
 Alpha  occ. eigenvalues --  -11.43845 -11.39791  -1.54146  -1.37695  -1.27713
 Alpha  occ. eigenvalues --   -1.09255  -0.97536  -0.83670  -0.79824  -0.69113
 Alpha  occ. eigenvalues --   -0.67245  -0.66799  -0.60466  -0.56731  -0.49580
 Alpha  occ. eigenvalues --   -0.47258  -0.44550  -0.41936  -0.38526  -0.26700
 Alpha virt. eigenvalues --    0.02605   0.04360   0.05198   0.05658   0.06044
 Alpha virt. eigenvalues --    0.07877   0.08694   0.09472   0.10226   0.10944
 Alpha virt. eigenvalues --    0.12761   0.12903   0.13592   0.14135   0.14723

 Mulliken charges:
               1
     1  N   -2.278683
     2  C    1.581914
     3  C    0.032203
     4  C   -1.794502
     5  N   -2.861949
     6  C    1.375064
     7  N   -2.731095
     8  H    1.489128
     9  H    1.373754
    10  H    1.383185
    11  H    1.697629
    12  H    0.733353
 Sum of Mulliken charges =   0.00000

 Dipole moment (field-independent basis, Debye):
    X=              4.4481    Y=              1.5975    Z=              1.6438  Tot=              5.0040

 Test job not archived.
 1\1\GINC-SE113\SP\RHF\Aug-CC-pVDZ\C4H5N3\OHZDE\09-Apr-2025\0\\#t hf au
 g-cc-pvdz iop(5/13=1,5/36=2,99/5=2) pseudo=read geom=check guess=(read
 ,tcheck) scf=(maxcycle=1)\\title\\0,1\N,0,3.2968881,-0.35578428,0.9234
 6821\C,0,2.27797554,-0.21202689,0.40051002\C,0,1.0175093,-0.04082405,-
 0.21454132\C,0,-1.36963098,-1.15645855,-0.55108503\N,0,-1.80999447,-0.
 16307844,0.15066838\C,0,-1.11294136,0.93082401,0.37547739\N,0,0.219126
 81,0.94999565,0.32233929\H,0,0.96532206,-0.22804811,-1.27043091\H,0,-0
 .78103395,-1.04404287,-1.44844897\H,0,-1.80274875,-2.13543739,-0.36653

 Normal termination of Gaussian 16 at Wed Apr  9 19:04:44 2025.
