 Gaussian 16, Revision C.01,

 ----------------------------------------------------------------------
 #t hf aug-cc-pvdz symm=none int=(grid=ultrafine) guess=(read,tcheck) s
 table=(opt,rrhf)
 ----------------------------------------------------------------------
 -----
 title
 -----
 Symbolic Z-matrix:
 Charge =  0 Multiplicity = 1

 SCF Done:  E(RHF) =  -323.724562813     A.U. after   17 cycles
 Normal termination of Gaussian 16 at Wed Apr  9 18:17:27 2025.
 Gaussian 16:  ES64L-G16RevC.01  3-Jul-2019

 ----------------------------------------------------------------------
 #t hf aug-cc-pvdz iop(5/13=1,5/36=2,99/5=2) pseudo=read geom=check gue
 ss=(read,tcheck) scf=(maxcycle=1)
 ----------------------------------------------------------------------
 -----
 title
 -----
 Structure from the checkpoint file:  "Grambow2020_wb97xd3_006833_reverse_mol2.chk"
 Charge =  0 Multiplicity = 1

                         Standard orientation:
 ---------------------------------------------------------------------
 Center     Atomic      Atomic             Coordinates (Angstroms)
 Number     Number       Type             X           Y           Z
 ---------------------------------------------------------------------
      1          6           0       -2.197445   -0.804384    0.319540
      2          6           0       -1.359312    0.295838   -0.274255
      3          6           0       -0.382340    1.016265    0.574468
      4          6           0        0.588601    1.494850   -0.445119
      5          6           0        0.113138    0.082211   -0.506758
      6          7           0        0.801178   -1.095689   -0.181951
      7          8           0        2.003689   -1.024092   -0.266733
      8          1           0       -3.090541   -0.389035    0.788691
      9          1           0       -1.637665   -1.366513    1.067469
     10          1           0       -2.516321   -1.503906   -0.453616
     11          1           0       -1.848542    0.881040   -1.052309
     12          1           0       -0.197063    0.860564    1.626175
     13          1           0        2.622964    0.771740    2.659523
     14          1           0        1.611456    1.638139   -0.116523
     15          1           0        0.249170    2.180063   -1.217486
     16          1           0        2.592919    0.281783    2.098338
 ---------------------------------------------------------------------

 SCF Done:  E(RHF) =  -325.249962260     A.U. after    2 cycles

 The electronic state is 1-A.
 Alpha  occ. eigenvalues --  -21.09963 -15.85711 -11.49612 -11.44492 -11.44013
 Alpha  occ. eigenvalues --  -11.40971 -11.38614  -1.85016  -1.44918  -1.12088
 Alpha  occ. eigenvalues --   -1.08354  -0.95283  -0.84337  -0.76326  -0.68047
 Alpha  occ. eigenvalues --   -0.64918  -0.61640  -0.60344  -0.59491  -0.54559
 Alpha  occ. eigenvalues --   -0.53143  -0.52245  -0.48580  -0.48043  -0.40435
 Alpha  occ. eigenvalues --   -0.32618  -0.26724
 Alpha virt. eigenvalues --    0.03938   0.05073   0.05461   0.05549   0.05681
 Alpha virt. eigenvalues --    0.06354   0.07211   0.08630   0.08953   0.09964
 Alpha virt. eigenvalues --    0.10932   0.11860   0.12691   0.13108   0.13836

 Mulliken charges:
               1
     1  C   -4.182996
     2  C   -1.012108
     3  C   -0.713661
     4  C   -3.373338
     5  C    2.395685
     6  N    0.003478
     7  O   -2.218225
     8  H    1.146897
     9  H    1.310725
    10  H    1.197908
    11  H    1.355681
    12  H    1.424587
    13  H    0.096305
    14  H    1.438137
    15  H    1.288474
    16  H   -0.157551
 Sum of Mulliken charges =   0.00000

 Dipole moment (field-independent basis, Debye):
    X=             -1.0602    Y=              1.4559    Z=              0.3617  Tot=              1.8369

 Test job not archived.
 1\1\GINC-SE041\SP\RHF\Aug-CC-pVDZ\C5H9N1O1\OHZDE\09-Apr-2025\0\\#t hf
 aug-cc-pvdz iop(5/13=1,5/36=2,99/5=2) pseudo=read geom=check guess=(re
 ad,tcheck) scf=(maxcycle=1)\\title\\0,1\C,0,-1.61813895,-1.42319457,-0
 .64415604\C,0,-0.65839612,-0.34683255,-1.07529958\C,0,-0.37809424,0.79
 366477,-0.17279327\C,0,0.96880197,1.21137771,-0.64471859\C,0,0.6967729
 6,-0.23920807,-0.42742747\N,0,1.14892951,-1.07761586,0.60163624\O,0,2.
 18154337,-0.73270972,1.12422139\H,0,-2.64278033,-1.13525808,-0.8838263
 4\H,0,-1.54753598,-1.60798687,0.42804095\H,0,-1.40124813,-2.35956703,-

 Normal termination of Gaussian 16 at Wed Apr  9 18:17:32 2025.
