 Gaussian 16, Revision C.01,

 ----------------------------------------------------------------------
 #t hf aug-cc-pvdz symm=none int=(grid=ultrafine) guess=(read,tcheck) s
 table=(opt,rrhf)
 ----------------------------------------------------------------------
 -----
 title
 -----
 Symbolic Z-matrix:
 Charge =  0 Multiplicity = 1

 SCF Done:  E(RHF) =  -353.488648458     A.U. after   16 cycles
 Normal termination of Gaussian 16 at Wed Apr  9 18:54:27 2025.
 Gaussian 16:  ES64L-G16RevC.01  3-Jul-2019

 ----------------------------------------------------------------------
 #t hf aug-cc-pvdz iop(5/13=1,5/36=2,99/5=2) pseudo=read geom=check gue
 ss=(read,tcheck) scf=(maxcycle=1)
 ----------------------------------------------------------------------
 -----
 title
 -----
 Structure from the checkpoint file:  "Grambow2020_wb97xd3_007770_forward_mol1.chk"
 Charge =  0 Multiplicity = 1

                         Standard orientation:
 ---------------------------------------------------------------------
 Center     Atomic      Atomic             Coordinates (Angstroms)
 Number     Number       Type             X           Y           Z
 ---------------------------------------------------------------------
      1          8           0        2.355352   -0.009627   -0.229870
      2          6           0        1.220283   -0.078104   -0.458864
      3          7           0       -0.058442   -0.682795    0.799876
      4          6           0       -0.034399    0.700360    0.645595
      5          7           0       -1.038587    1.135417   -0.136810
      6          6           0       -1.616481   -0.005099   -0.486991
      7          7           0       -1.043581   -1.109698    0.032899
      8          1           0        0.638254   -0.299126   -1.371474
      9          1           0        0.558259    1.337955    1.285891
     10          1           0       -2.471469   -0.065229   -1.145655
 ---------------------------------------------------------------------

 SCF Done:  E(RHF) =  -355.052882023     A.U. after    2 cycles

 The electronic state is 1-A.
 Alpha  occ. eigenvalues --  -21.14242 -15.81407 -15.78056 -15.77056 -11.57928
 Alpha  occ. eigenvalues --  -11.48814 -11.44663  -1.79913  -1.68098  -1.34053
 Alpha  occ. eigenvalues --   -1.21719  -0.94002  -0.87058  -0.85474  -0.74241
 Alpha  occ. eigenvalues --   -0.67621  -0.63227  -0.58360  -0.56209  -0.51049
 Alpha  occ. eigenvalues --   -0.48075  -0.42469  -0.41369  -0.39042  -0.34314
 Alpha virt. eigenvalues --    0.03796   0.05147   0.05855   0.08761   0.09731
 Alpha virt. eigenvalues --    0.09996   0.10164   0.10497   0.11223   0.11590
 Alpha virt. eigenvalues --    0.12651   0.14900   0.15273   0.15822   0.16219

 Mulliken charges:
               1
     1  O   -2.874129
     2  C    2.083297
     3  N   -1.186236
     4  C    0.932387
     5  N   -2.646153
     6  C    0.749840
     7  N   -1.368363
     8  H    1.446482
     9  H    1.450180
    10  H    1.412695
 Sum of Mulliken charges =   0.00000

 Dipole moment (field-independent basis, Debye):
    X=              1.2810    Y=              1.0177    Z=             -0.5760  Tot=              1.7345

 Test job not archived.
 1\1\GINC-SE168\SP\RHF\Aug-CC-pVDZ\C3H3N3O1\OHZDE\09-Apr-2025\0\\#t hf
 aug-cc-pvdz iop(5/13=1,5/36=2,99/5=2) pseudo=read geom=check guess=(re
 ad,tcheck) scf=(maxcycle=1)\\title\\0,1\O,0,2.47569273,0.25157309,-0.3
 3300604\C,0,1.39667717,-0.1628409,-0.23556475\N,0,0.18530844,0.4000044
 6,1.10645166\C,0,-0.06254268,0.96064424,-0.14324908\N,0,-1.07865,0.346
 63013,-0.77597263\C,0,-1.38680486,-0.613462,0.08462435\N,0,-0.63760804
 ,-0.6266049,1.20585999\H,0,0.93542376,-1.14530089,-0.44167895\H,0,0.34
 275239,1.9200952,-0.43124033\H,0,-2.16471991,-1.34407244,-0.08717321\\

 Normal termination of Gaussian 16 at Wed Apr  9 18:54:30 2025.
