 Gaussian 16, Revision C.01,

 ----------------------------------------------------------------------
 #t hf aug-cc-pvdz symm=none int=(grid=ultrafine) guess=(read,tcheck) s
 table=(opt,rrhf)
 ----------------------------------------------------------------------
 -----
 title
 -----
 Symbolic Z-matrix:
 Charge =  0 Multiplicity = 1

 SCF Done:  E(RHF) =  -286.807636947     A.U. after   16 cycles
 Normal termination of Gaussian 16 at Wed Apr  9 19:18:08 2025.
 Gaussian 16:  ES64L-G16RevC.01  3-Jul-2019

 ----------------------------------------------------------------------
 #t hf aug-cc-pvdz iop(5/13=1,5/36=2,99/5=2) pseudo=read geom=check gue
 ss=(read,tcheck) scf=(maxcycle=1)
 ----------------------------------------------------------------------
 -----
 title
 -----
 Structure from the checkpoint file:  "Grambow2020_wb97xd3_008583_reverse_mol1.chk"
 Charge =  0 Multiplicity = 1

                         Standard orientation:
 ---------------------------------------------------------------------
 Center     Atomic      Atomic             Coordinates (Angstroms)
 Number     Number       Type             X           Y           Z
 ---------------------------------------------------------------------
      1          6           0       -2.523734   -0.544896   -0.131361
      2          6           0       -1.090116   -0.187149    0.127594
      3          6           0        0.058361   -1.059222    0.007669
      4          6           0        1.156271   -0.120636   -0.014283
      5          6           0        2.600187   -0.515109   -0.047730
      6          6           0        0.674561    1.158998   -0.041927
      7          7           0       -0.679434    1.148741    0.027470
      8          1           0       -2.755333   -0.411157   -1.189059
      9          1           0       -2.677892   -1.593466    0.116144
     10          1           0       -3.215041    0.063668    0.455786
     11          1           0       -0.724426   -0.665973    1.170201
     12          1           0        3.255054    0.345737   -0.198634
     13          1           0        2.784039   -1.228709   -0.852289
     14          1           0        2.891700   -1.002948    0.884957
     15          1           0        1.211003    2.099113   -0.072101
     16          1           0       -1.266241    1.960627    0.092937
 ---------------------------------------------------------------------

 SCF Done:  E(RHF) =  -288.208696708     A.U. after    2 cycles

 The electronic state is 1-A.
 Alpha  occ. eigenvalues --  -15.77870 -11.45396 -11.44994 -11.39352 -11.38678
 Alpha  occ. eigenvalues --  -11.36862 -11.33901  -1.51547  -1.17166  -1.15365
 Alpha  occ. eigenvalues --   -1.02210  -0.96073  -0.79037  -0.74758  -0.69839
 Alpha  occ. eigenvalues --   -0.64158  -0.58618  -0.56139  -0.55550  -0.52954
 Alpha  occ. eigenvalues --   -0.50882  -0.49278  -0.45044  -0.38266  -0.30800
 Alpha  occ. eigenvalues --   -0.30204
 Alpha virt. eigenvalues --    0.03135   0.04518   0.04956   0.05798   0.05930
 Alpha virt. eigenvalues --    0.06508   0.07409   0.07761   0.08079   0.09417
 Alpha virt. eigenvalues --    0.11694   0.11778   0.12816   0.12907   0.13367

 Mulliken charges:
               1
     1  C   -4.511958
     2  C    2.488740
     3  C   -4.148242
     4  C    5.226467
     5  C   -5.123568
     6  C   -1.165648
     7  N   -3.972225
     8  H    1.240795
     9  H    1.202364
    10  H    1.143452
    11  H    1.667958
    12  H    1.367513
    13  H    1.229783
    14  H    1.201106
    15  H    1.347208
    16  H    0.806256
 Sum of Mulliken charges =  -0.00000

 Dipole moment (field-independent basis, Debye):
    X=             -1.7699    Y=              4.4361    Z=              0.2639  Tot=              4.7835

 Test job not archived.
 1\1\GINC-SE454\SP\RHF\Aug-CC-pVDZ\C6H9N1\OHZDE\09-Apr-2025\0\\#t hf au
 g-cc-pvdz iop(5/13=1,5/36=2,99/5=2) pseudo=read geom=check guess=(read
 ,tcheck) scf=(maxcycle=1)\\title\\0,1\C,0,2.50081718,-0.53263598,0.191
 90399\C,0,1.07652211,-0.15283605,-0.0863717\C,0,-0.08024836,-1.0206139
 1,-0.03405374\C,0,-1.17224398,-0.07560442,0.00247043\C,0,-2.61907636,-
 0.46017672,-0.01760612\C,0,-0.68308217,1.19783393,0.09914751\N,0,0.672
 13528,1.18036945,0.06302743\H,0,2.70659257,-0.4478052,1.25994396\H,0,2
 .65434086,-1.57031217,-0.09823731\H,0,3.21061612,0.09614552,-0.3501444

 Normal termination of Gaussian 16 at Wed Apr  9 19:18:13 2025.
