 Gaussian 16, Revision C.01,

 ----------------------------------------------------------------------
 #t hf aug-cc-pvdz symm=none int=(grid=ultrafine) guess=(read,tcheck) s
 table=(opt,rrhf)
 ----------------------------------------------------------------------
 -----
 title
 -----
 Symbolic Z-matrix:
 Charge =  0 Multiplicity = 1

 SCF Done:  E(RHF) =  -336.317011798     A.U. after   15 cycles
 Normal termination of Gaussian 16 at Wed Apr  9 03:46:11 2025.
 Gaussian 16:  ES64L-G16RevC.01  3-Jul-2019

 ----------------------------------------------------------------------
 #t hf aug-cc-pvdz iop(5/13=1,5/36=2,99/5=2) pseudo=read geom=check gue
 ss=(read,tcheck) scf=(maxcycle=1)
 ----------------------------------------------------------------------
 -----
 title
 -----
 Structure from the checkpoint file:  "Grambow2020_wb97xd3_007923_reverse_mol2.chk"
 Charge =  0 Multiplicity = 1

                         Standard orientation:
 ---------------------------------------------------------------------
 Center     Atomic      Atomic             Coordinates (Angstroms)
 Number     Number       Type             X           Y           Z
 ---------------------------------------------------------------------
      1          7           0       -0.901894   -1.457591    0.002260
      2          6           0       -1.044399   -0.117455   -0.000081
      3          8           0       -2.091977    0.472630   -0.003234
      4          6           0        0.282992    0.636123    0.001072
      5          6           0        0.384521    1.945560    0.002979
      6          6           0        1.549370   -0.024592   -0.000890
      7          7           0        2.536766   -0.612806   -0.002175
      8          1           0       -0.005654   -1.910277    0.005573
      9          1           0       -1.737537   -2.015809    0.001221
 ---------------------------------------------------------------------

 SCF Done:  E(RHF) =  -337.757446493     A.U. after    2 cycles

 The electronic state is 1-A.
 Alpha  occ. eigenvalues --  -21.06774 -15.81968 -15.80533 -11.57081 -11.52014
 Alpha  occ. eigenvalues --  -11.49595 -11.46479  -1.75524  -1.41068  -1.35455
 Alpha  occ. eigenvalues --   -1.22429  -0.92330  -0.83807  -0.77480  -0.68668
 Alpha  occ. eigenvalues --   -0.61431  -0.57655  -0.54021  -0.53287  -0.51084
 Alpha  occ. eigenvalues --   -0.47823  -0.41252  -0.35757  -0.33213
 Alpha virt. eigenvalues --    0.02130   0.03240   0.05993   0.06452   0.07652
 Alpha virt. eigenvalues --    0.08698   0.10013   0.10733   0.11436   0.12404
 Alpha virt. eigenvalues --    0.12558   0.14007   0.14170   0.15308   0.16330

 Mulliken charges:
               1
     1  N   -2.826270
     2  C    4.386996
     3  O   -3.187715
     4  C    3.401877
     5  C   -2.486244
     6  C    1.347329
     7  N   -2.164227
     8  H    0.722615
     9  H    0.805641
 Sum of Mulliken charges =  -0.00000

 Dipole moment (field-independent basis, Debye):
    X=             -1.4927    Y=             -2.3221    Z=              0.0069  Tot=              2.7605

 Test job not archived.
 1\1\GINC-SE435\SP\RHF\Aug-CC-pVDZ\C4H2N2O1\OHZDE\09-Apr-2025\0\\#t hf
 aug-cc-pvdz iop(5/13=1,5/36=2,99/5=2) pseudo=read geom=check guess=(re
 ad,tcheck) scf=(maxcycle=1)\\title\\0,1\N,0,-1.22225163,0.55461699,0.8
 4084501\C,0,-0.70339188,-0.63386521,0.47400582\O,0,-1.33642854,-1.6286
 605,0.2388963\C,0,0.81966659,-0.6284691,0.37343517\C,0,1.53702476,-1.6
 7346423,0.0294587\C,0,1.61054916,0.52857664,0.64913524\N,0,2.19211252,
 1.49183031,0.88338669\H,0,-0.65566769,1.36229216,1.02746092\H,0,-2.221
 29229,0.62116194,0.92685714\\Version=ES64L-G16RevC.01\State=1-A\HF=-33

 Normal termination of Gaussian 16 at Wed Apr  9 03:46:14 2025.
