 Gaussian 16, Revision C.01,

 ----------------------------------------------------------------------
 #t hf aug-cc-pvdz symm=none int=(grid=ultrafine) guess=(read,tcheck) s
 table=(opt,rrhf)
 ----------------------------------------------------------------------
 -----
 title
 -----
 Symbolic Z-matrix:
 Charge =  0 Multiplicity = 1

 SCF Done:  E(RHF) =  -269.465663194     A.U. after   17 cycles
 Normal termination of Gaussian 16 at Wed Apr  9 18:06:28 2025.
 Gaussian 16:  ES64L-G16RevC.01  3-Jul-2019

 ----------------------------------------------------------------------
 #t hf aug-cc-pvdz iop(5/13=1,5/36=2,99/5=2) pseudo=read geom=check gue
 ss=(read,tcheck) scf=(maxcycle=1)
 ----------------------------------------------------------------------
 -----
 title
 -----
 Structure from the checkpoint file:  "Grambow2020_wb97xd3_006588_forward_mol1.chk"
 Charge =  0 Multiplicity = 1

                         Standard orientation:
 ---------------------------------------------------------------------
 Center     Atomic      Atomic             Coordinates (Angstroms)
 Number     Number       Type             X           Y           Z
 ---------------------------------------------------------------------
      1          6           0       -2.218123    0.315855   -0.199225
      2          6           0       -0.875554   -0.087873    0.412790
      3          6           0       -0.284957   -1.429450   -0.096380
      4          6           0        1.164398   -1.192955   -0.052406
      5          6           0        2.200412   -0.529435   -0.041429
      6          6           0        0.172968    0.904171    0.132822
      7          6           0        0.995853    1.825178   -0.079699
      8          1           0       -2.137313    0.412989   -1.282484
      9          1           0       -2.954570   -0.457327    0.023355
     10          1           0       -2.583635    1.257734    0.210726
     11          1           0       -0.964692   -0.144689    1.501585
     12          1           0       -0.634411   -2.252963    0.529318
     13          1           0       -0.619643   -1.625139   -1.119325
     14          1           0        1.984631    1.082492   -0.117032
     15          1           0        0.979651    2.893958   -0.204975
 ---------------------------------------------------------------------

 SCF Done:  E(RHF) =  -270.810874781     A.U. after    2 cycles

 The electronic state is 1-A.
 Alpha  occ. eigenvalues --  -11.54580 -11.49395 -11.45290 -11.44048 -11.41193
 Alpha  occ. eigenvalues --  -11.32637 -11.31588  -1.34905  -1.15402  -1.09957
 Alpha  occ. eigenvalues --   -0.97705  -0.92098  -0.76235  -0.69672  -0.67468
 Alpha  occ. eigenvalues --   -0.63077  -0.60433  -0.58514  -0.53954  -0.53064
 Alpha  occ. eigenvalues --   -0.49985  -0.42426  -0.34963  -0.30964  -0.30677
 Alpha virt. eigenvalues --    0.02295   0.03656   0.04580   0.04976   0.05289
 Alpha virt. eigenvalues --    0.05718   0.06497   0.06974   0.07930   0.09734
 Alpha virt. eigenvalues --    0.10843   0.11069   0.11714   0.12237   0.12956

 Mulliken charges:
               1
     1  C   -3.901480
     2  C   -2.447954
     3  C   -3.251279
     4  C    2.551821
     5  C   -3.126076
     6  C    4.921638
     7  C   -5.372521
     8  H    1.300075
     9  H    1.252908
    10  H    1.165442
    11  H    1.264066
    12  H    1.351376
    13  H    1.330265
    14  H    1.728912
    15  H    1.232809
 Sum of Mulliken charges =  -0.00000

 Dipole moment (field-independent basis, Debye):
    X=             -6.3348    Y=              3.2167    Z=              0.2141  Tot=              7.1079

 Test job not archived.
 1\1\GINC-SE045\SP\RHF\Aug-CC-pVDZ\C7H8\OHZDE\09-Apr-2025\0\\#t hf aug-
 cc-pvdz iop(5/13=1,5/36=2,99/5=2) pseudo=read geom=check guess=(read,t
 check) scf=(maxcycle=1)\\title\\0,1\C,0,-0.62556398,-1.62845905,-0.704
 94123\C,0,0.32393157,-0.58773405,-0.10878715\C,0,0.84310188,0.48855941
 ,-1.09870803\C,0,0.98146498,1.68081638,-0.25143402\C,0,0.76459676,2.41
 059136,0.71505442\C,0,-0.31596767,0.18246121,0.96790276\C,0,-0.8989633
 3,0.74640473,1.92322525\H,0,-1.51184161,-1.15042329,-1.12376049\H,0,-0
 .10964059,-2.15959573,-1.50582975\H,0,-0.94091204,-2.36192935,0.037603

 Normal termination of Gaussian 16 at Wed Apr  9 18:06:37 2025.
