 Gaussian 16, Revision C.01,

 ----------------------------------------------------------------------
 #t hf aug-cc-pvdz symm=none int=(grid=ultrafine) guess=(read,tcheck) s
 table=(opt,rrhf)
 ----------------------------------------------------------------------
 -----
 title
 -----
 Symbolic Z-matrix:
 Charge =  0 Multiplicity = 1

 SCF Done:  E(RHF) =  -321.329301467     A.U. after   19 cycles
 Normal termination of Gaussian 16 at Wed Apr  9 03:40:16 2025.
 Gaussian 16:  ES64L-G16RevC.01  3-Jul-2019

 ----------------------------------------------------------------------
 #t hf aug-cc-pvdz iop(5/13=1,5/36=2,99/5=2) pseudo=read geom=check gue
 ss=(read,tcheck) scf=(maxcycle=1)
 ----------------------------------------------------------------------
 -----
 title
 -----
 Structure from the checkpoint file:  "Grambow2020_wb97xd3_007491_forward_mol1.chk"
 Charge =  0 Multiplicity = 1

                         Standard orientation:
 ---------------------------------------------------------------------
 Center     Atomic      Atomic             Coordinates (Angstroms)
 Number     Number       Type             X           Y           Z
 ---------------------------------------------------------------------
      1          8           0        1.593418   -1.398078   -0.137922
      2          6           0        0.954779   -0.419450    0.044310
      3          6           0        1.249848    1.013379    0.022895
      4          6           0        0.348862    1.882385   -0.041843
      5          6           0       -0.640356   -0.439682    0.440035
      6          6           0       -1.277507    0.771170   -0.105950
      7          7           0       -1.580654   -1.272686   -0.085803
      8          1           0        0.114452    2.925306   -0.148568
      9          1           0       -0.634761   -0.464940    1.535224
     10          1           0       -1.376173    0.842212   -1.184362
     11          1           0       -2.101934    1.208421    0.447548
     12          1           0       -1.498109   -1.264391   -1.102527
 ---------------------------------------------------------------------

 SCF Done:  E(RHF) =  -322.805767385     A.U. after    2 cycles

 The electronic state is 1-A.
 Alpha  occ. eigenvalues --  -21.08904 -15.77987 -11.53144 -11.49143 -11.45793
 Alpha  occ. eigenvalues --  -11.43511 -11.41193  -1.74256  -1.41588  -1.20875
 Alpha  occ. eigenvalues --   -1.01820  -0.96701  -0.85391  -0.73937  -0.69201
 Alpha  occ. eigenvalues --   -0.63358  -0.60332  -0.58112  -0.52857  -0.50986
 Alpha  occ. eigenvalues --   -0.48570  -0.41520  -0.38182  -0.30730  -0.29558
 Alpha virt. eigenvalues --    0.01878   0.03223   0.04781   0.05067   0.05913
 Alpha virt. eigenvalues --    0.06364   0.09219   0.09695   0.10811   0.11142
 Alpha virt. eigenvalues --    0.12212   0.13190   0.13911   0.14265   0.14508

 Mulliken charges:
               1
     1  O   -3.121548
     2  C    3.465061
     3  C    0.376944
     4  C   -1.155536
     5  C   -0.268328
     6  C   -2.825885
     7  N   -2.448917
     8  H    1.002177
     9  H    1.693208
    10  H    1.481076
    11  H    1.232771
    12  H    0.568976
 Sum of Mulliken charges =  -0.00000

 Dipole moment (field-independent basis, Debye):
    X=             -2.0032    Y=              1.4828    Z=             -0.6144  Tot=              2.5669

 Test job not archived.
 1\1\GINC-SE328\SP\RHF\Aug-CC-pVDZ\C5H5N1O1\OHZDE\09-Apr-2025\0\\#t hf
 aug-cc-pvdz iop(5/13=1,5/36=2,99/5=2) pseudo=read geom=check guess=(re
 ad,tcheck) scf=(maxcycle=1)\\title\\0,1\O,0,0.47296102,1.24881028,2.25
 127079\C,0,0.62946569,0.69544697,1.21779275\C,0,1.67010106,-0.17560776
 ,0.6711074\C,0,1.48444988,-0.88540239,-0.34519092\C,0,-0.42701952,0.80
 39238,-0.03661374\C,0,-0.38430448,-0.45533982,-0.79993135\N,0,-1.78515
 003,0.7945988,0.06316624\H,0,1.87833474,-1.64857421,-0.99051752\H,0,-0
 .06249198,1.66459778,-0.6079871\H,0,-0.78544254,-1.34382844,-0.3230350

 Normal termination of Gaussian 16 at Wed Apr  9 03:40:20 2025.
