 Gaussian 16, Revision C.01,

 ----------------------------------------------------------------------
 #t hf aug-cc-pvdz symm=none int=(grid=ultrafine) guess=(read,tcheck) s
 table=(opt,rrhf)
 ----------------------------------------------------------------------
 -----
 title
 -----
 Symbolic Z-matrix:
 Charge =  0 Multiplicity = 1

 SCF Done:  E(RHF) =  -283.538902609     A.U. after   15 cycles
 Normal termination of Gaussian 16 at Wed Apr  9 16:07:43 2025.
 Gaussian 16:  ES64L-G16RevC.01  3-Jul-2019

 ----------------------------------------------------------------------
 #t hf aug-cc-pvdz iop(5/13=1,5/36=2,99/5=2) pseudo=read geom=check gue
 ss=(read,tcheck) scf=(maxcycle=1)
 ----------------------------------------------------------------------
 -----
 title
 -----
 Structure from the checkpoint file:  "Grambow2020_b97d3_006729_forward_mol1.chk"
 Charge =  0 Multiplicity = 1

                         Standard orientation:
 ---------------------------------------------------------------------
 Center     Atomic      Atomic             Coordinates (Angstroms)
 Number     Number       Type             X           Y           Z
 ---------------------------------------------------------------------
      1          6           0       -1.399806   -0.059450    0.613573
      2          6           0       -0.642682    0.714417   -0.416306
      3          8           0        0.662672    1.159424    0.014041
      4          6           0        1.470147    0.068606    0.183186
      5          7           0        0.824913   -1.088635   -0.100159
      6          6           0       -0.570263   -0.798581   -0.419379
      7          1           0       -1.053981   -0.020027    1.646936
      8          1           0       -2.479341   -0.135305    0.487928
      9          1           0       -1.086530    1.344650   -1.181212
     10          1           0        1.445541   -0.939990    1.013876
     11          1           0       -1.045820   -1.454224   -1.145187
 ---------------------------------------------------------------------

 SCF Done:  E(RHF) =  -284.824664428     A.U. after    2 cycles

 The electronic state is 1-A.
 Alpha  occ. eigenvalues --  -21.09534 -15.77684 -11.47747 -11.45906 -11.42873
 Alpha  occ. eigenvalues --  -11.39930  -1.82174  -1.40715  -1.25557  -0.92858
 Alpha  occ. eigenvalues --   -0.87266  -0.76595  -0.74427  -0.66080  -0.57848
 Alpha  occ. eigenvalues --   -0.56161  -0.51976  -0.49851  -0.41842  -0.39041
 Alpha  occ. eigenvalues --   -0.34773  -0.32170
 Alpha virt. eigenvalues --    0.03458   0.04923   0.05100   0.05701   0.07013
 Alpha virt. eigenvalues --    0.09579   0.09872   0.10606   0.11147   0.12120
 Alpha virt. eigenvalues --    0.13457   0.13579   0.14650   0.15284   0.15838

 Mulliken charges:
               1
     1  C   -2.779815
     2  C    1.267125
     3  O   -2.846522
     4  C    0.259571
     5  N   -2.476488
     6  C    0.033511
     7  H    1.251073
     8  H    1.240395
     9  H    1.301104
    10  H    1.480299
    11  H    1.269747
 Sum of Mulliken charges =  -0.00000

 Dipole moment (field-independent basis, Debye):
    X=             -3.4820    Y=             -0.0045    Z=             -0.2882  Tot=              3.4939

 Test job not archived.
 1\1\GINC-SE232\SP\RHF\Aug-CC-pVDZ\C4H5N1O1\OHZDE\09-Apr-2025\0\\#t hf
 aug-cc-pvdz iop(5/13=1,5/36=2,99/5=2) pseudo=read geom=check guess=(re
 ad,tcheck) scf=(maxcycle=1)\\title\\0,1\C,0,-1.10293829,0.43326569,-0.
 0244724\C,0,-0.29020995,-0.59824005,-0.73737077\O,0,0.93020975,-0.0939
 5339,-1.32341733\C,0,1.78264154,0.27962779,-0.32126639\N,0,1.24671676,
 0.06866387,0.90515049\C,0,-0.12161999,-0.41954329,0.75730685\H,0,-0.87
 357914,1.48450998,-0.20129931\H,0,-2.1556348,0.21007979,0.14568698\H,0
 ,-0.6883913,-1.47119045,-1.24598289\H,0,1.7330765,1.21446994,0.5906169

 Normal termination of Gaussian 16 at Wed Apr  9 16:07:46 2025.
