 Gaussian 16, Revision C.01,

 ----------------------------------------------------------------------
 #t hf aug-cc-pvdz symm=none int=(grid=ultrafine) guess=(read,tcheck) s
 table=(opt,rrhf)
 ----------------------------------------------------------------------
 -----
 title
 -----
 Symbolic Z-matrix:
 Charge =  0 Multiplicity = 1

 SCF Done:  E(RHF) =  -345.860011814     A.U. after   15 cycles

 1\1\GINC-SE123\Stability\RHF\Aug-CC-pVDZ\C5H12O2\OHZDE\09-Apr-2025\0\\
 #t hf aug-cc-pvdz symm=none int=(grid=ultrafine) guess=(read,tcheck) s
 table=(opt,rrhf)\\title\\0,1\C,0,2.87175277,0.83018217,-0.39713499\C,0
 ,1.64588245,0.04308982,-0.05303419\O,0,1.45221893,-1.03854526,-0.86373
 208\C,0,0.33995227,-1.68597509,-0.71257814\C,0,-1.02433783,0.3130492,-
 0.51117354\O,0,-1.60325075,-0.16347137,0.67857747\C,0,-2.90739339,0.30
 845009,0.8889179\H,0,2.90167506,1.05623376,-1.46422631\H,0,3.80063001,
 0.31648913,-0.12867484\H,0,2.85123241,1.77662686,0.14561913\H,0,0.3013

 Normal termination of Gaussian 16 at Wed Apr  9 04:05:08 2025.
 Gaussian 16:  ES64L-G16RevC.01  3-Jul-2019

 ----------------------------------------------------------------------
 #t hf aug-cc-pvdz iop(5/13=1,5/36=2,99/5=2) pseudo=read geom=check gue
 ss=(read,tcheck) scf=(maxcycle=1)
 ----------------------------------------------------------------------
 -----
 title
 -----
 Structure from the checkpoint file:  "Grambow2020_wb97xd3_009170_forward_mol1.chk"
 Charge =  0 Multiplicity = 1

                         Standard orientation:
 ---------------------------------------------------------------------
 Center     Atomic      Atomic             Coordinates (Angstroms)
 Number     Number       Type             X           Y           Z
 ---------------------------------------------------------------------
      1          6           0        2.778632   -1.115630    0.021418
      2          6           0        1.525352   -0.372447   -0.321580
      3          8           0        1.547077    0.935154    0.071332
      4          6           0        0.445116    1.602282   -0.069286
      5          6           0       -0.975544   -0.193594    0.739729
      6          8           0       -1.799260   -0.096376   -0.395947
      7          6           0       -3.127678   -0.475235   -0.151996
      8          1           0        3.045867   -0.964543    1.068527
      9          1           0        3.633547   -0.823129   -0.596908
     10          1           0        2.612710   -2.183256   -0.131568
     11          1           0        0.271207   -0.500745    0.346731
     12          1           0        1.154770   -0.499921   -1.341771
     13          1           0        0.420599    2.547759    0.456914
     14          1           0       -0.188201    1.427699   -0.931782
     15          1           0       -1.089588   -1.191023    1.196326
     16          1           0       -1.253567    0.532007    1.509752
     17          1           0       -3.589514    0.153919    0.620442
     18          1           0       -3.191763   -1.522316    0.173142
     19          1           0       -3.683880   -0.358932   -1.082589
 ---------------------------------------------------------------------

 SCF Done:  E(RHF) =  -347.520185777     A.U. after    2 cycles

 The electronic state is 1-A.
 Alpha  occ. eigenvalues --  -21.13139 -21.03244 -11.45330 -11.40874 -11.39212
 Alpha  occ. eigenvalues --  -11.38309 -11.35999  -1.84730  -1.73773  -1.11825
 Alpha  occ. eigenvalues --   -1.01350  -0.95364  -0.90369  -0.83358  -0.67854
 Alpha  occ. eigenvalues --   -0.65498  -0.64613  -0.61758  -0.58864  -0.55420
 Alpha  occ. eigenvalues --   -0.54851  -0.53748  -0.51524  -0.49346  -0.43126
 Alpha  occ. eigenvalues --   -0.37785  -0.36449  -0.29094  -0.25221
 Alpha virt. eigenvalues --    0.03998   0.04843   0.05150   0.05437   0.05592
 Alpha virt. eigenvalues --    0.06288   0.06548   0.06628   0.06828   0.07737
 Alpha virt. eigenvalues --    0.09173   0.10162   0.11189   0.12317   0.13154

 Mulliken charges:
               1
     1  C   -4.312610
     2  C   -0.791791
     3  O   -3.072901
     4  C   -1.732270
     5  C   -2.523534
     6  O   -3.018699
     7  C   -2.893381
     8  H    1.130657
     9  H    1.205009
    10  H    1.071445
    11  H    4.512769
    12  H    1.376553
    13  H    1.446044
    14  H    1.645680
    15  H    0.602363
    16  H    1.373189
    17  H    1.291621
    18  H    1.369009
    19  H    1.320848
 Sum of Mulliken charges =  -0.00000

 Dipole moment (field-independent basis, Debye):
    X=              0.7615    Y=              0.6882    Z=             -0.3291  Tot=              1.0779

 Test job not archived.
 1\1\GINC-SE123\SP\RHF\Aug-CC-pVDZ\C5H12O2\OHZDE\09-Apr-2025\0\\#t hf a
 ug-cc-pvdz iop(5/13=1,5/36=2,99/5=2) pseudo=read geom=check guess=(rea
 d,tcheck) scf=(maxcycle=1)\\title\\0,1\C,0,2.87175277,0.83018217,-0.39
 713499\C,0,1.64588245,0.04308982,-0.05303419\O,0,1.45221893,-1.0385452
 6,-0.86373208\C,0,0.33995227,-1.68597509,-0.71257814\C,0,-1.02433783,0
 .3130492,-0.51117354\O,0,-1.60325075,-0.16347137,0.67857747\C,0,-2.907
 39339,0.30845009,0.8889179\H,0,2.90167506,1.05623376,-1.46422631\H,0,3
 .80063001,0.31648913,-0.12867484\H,0,2.85123241,1.77662686,0.14561913\

 Normal termination of Gaussian 16 at Wed Apr  9 04:05:15 2025.
