 Gaussian 16, Revision C.01,

 ----------------------------------------------------------------------
 #t hf aug-cc-pvdz symm=none int=(grid=ultrafine) guess=(read,tcheck) s
 table=(opt,rrhf)
 ----------------------------------------------------------------------
 -----
 title
 -----
 Symbolic Z-matrix:
 Charge =  0 Multiplicity = 1

 SCF Done:  E(RHF) =  -339.862306815     A.U. after   15 cycles
 Normal termination of Gaussian 16 at Wed Apr  9 17:59:42 2025.
 Gaussian 16:  ES64L-G16RevC.01  3-Jul-2019

 ----------------------------------------------------------------------
 #t hf aug-cc-pvdz iop(5/13=1,5/36=2,99/5=2) pseudo=read geom=check gue
 ss=(read,tcheck) scf=(maxcycle=1)
 ----------------------------------------------------------------------
 -----
 title
 -----
 Structure from the checkpoint file:  "Grambow2020_wb97xd3_006541_reverse_mol2.chk"
 Charge =  0 Multiplicity = 1

                         Standard orientation:
 ---------------------------------------------------------------------
 Center     Atomic      Atomic             Coordinates (Angstroms)
 Number     Number       Type             X           Y           Z
 ---------------------------------------------------------------------
      1          6           0       -1.022040    2.009330    0.325292
      2          7           0       -0.550272    0.975051   -0.586833
      3          6           0        0.195208   -0.081383    0.017224
      4          6           0       -0.628941   -1.201319    0.594340
      5          8           0       -1.522782   -1.710730   -0.367298
      6          6           0        1.504919   -0.108645    0.007658
      7          7           0        2.714847   -0.200124   -0.154827
      8          1           0       -0.207537    2.546623    0.827181
      9          1           0       -1.631092    2.726058   -0.226790
     10          1           0       -1.654234    1.558916    1.091734
     11          1           0       -0.052230    1.373471   -1.368212
     12          1           0        3.275162    0.155684    0.616728
     13          1           0       -1.183226   -0.840427    1.473390
     14          1           0        0.016567   -2.016311    0.924181
     15          1           0       -1.828062   -0.950557   -0.875294
 ---------------------------------------------------------------------

 SCF Done:  E(RHF) =  -341.431529159     A.U. after    2 cycles

 The electronic state is 1-A.
 Alpha  occ. eigenvalues --  -21.05888 -15.77863 -15.74728 -11.48607 -11.44946
 Alpha  occ. eigenvalues --  -11.40385 -11.40201  -1.71049  -1.42408  -1.34246
 Alpha  occ. eigenvalues --   -1.11416  -0.98130  -0.91323  -0.76851  -0.69903
 Alpha  occ. eigenvalues --   -0.64506  -0.61712  -0.61116  -0.58269  -0.55097
 Alpha  occ. eigenvalues --   -0.52070  -0.51270  -0.45855  -0.42024  -0.37066
 Alpha  occ. eigenvalues --   -0.31502  -0.29213
 Alpha virt. eigenvalues --    0.03179   0.04718   0.05505   0.05539   0.06088
 Alpha virt. eigenvalues --    0.06812   0.07448   0.08318   0.10232   0.10639
 Alpha virt. eigenvalues --    0.11966   0.12610   0.14067   0.14207   0.14825

 Mulliken charges:
               1
     1  C   -3.736866
     2  N   -2.896163
     3  C    2.457985
     4  C   -1.095341
     5  O   -2.544405
     6  C    2.191323
     7  N   -3.309013
     8  H    1.341515
     9  H    1.213799
    10  H    1.393901
    11  H    0.603470
    12  H    0.741414
    13  H    1.383770
    14  H    1.444285
    15  H    0.810326
 Sum of Mulliken charges =  -0.00000

 Dipole moment (field-independent basis, Debye):
    X=              0.0965    Y=              2.0979    Z=              1.0576  Tot=              2.3514

 Test job not archived.
 1\1\GINC-SE226\SP\RHF\Aug-CC-pVDZ\C4H8N2O1\OHZDE\09-Apr-2025\0\\#t hf
 aug-cc-pvdz iop(5/13=1,5/36=2,99/5=2) pseudo=read geom=check guess=(re
 ad,tcheck) scf=(maxcycle=1)\\title\\0,1\C,0,-1.44458293,1.1273954,0.66
 285093\N,0,-0.59900923,-0.02012395,0.96694521\C,0,0.25075174,-0.453749
 01,-0.09444821\C,0,1.56445606,0.27337571,-0.20404774\O,0,2.25251209,0.
 24989971,1.02445845\C,0,-0.05999051,-1.45986919,-0.87376683\N,0,-0.288
 42347,-2.49810734,-1.48087055\H,0,-2.15528782,0.93636721,-0.15102714\H
 ,0,-1.99952796,1.41303941,1.55721278\H,0,-0.82018198,1.97467719,0.3761

 Normal termination of Gaussian 16 at Wed Apr  9 17:59:47 2025.
