 Gaussian 16, Revision C.01,

 ----------------------------------------------------------------------
 #t hf aug-cc-pvdz symm=none int=(grid=ultrafine) guess=(read,tcheck) s
 table=(opt,rrhf)
 ----------------------------------------------------------------------
 -----
 title
 -----
 Symbolic Z-matrix:
 Charge =  0 Multiplicity = 1

 SCF Done:  E(RHF) =  -309.041226734     A.U. after   15 cycles

 1\1\GINC-SE116\Stability\RHF\Aug-CC-pVDZ\C6H12O1\OHZDE\09-Apr-2025\0\\
 #t hf aug-cc-pvdz symm=none int=(grid=ultrafine) guess=(read,tcheck) s
 table=(opt,rrhf)\\title\\0,1\C,0,2.49754183,-0.47289874,-0.52248258\C,
 0,1.31761741,0.1239956,0.20275604\O,0,1.15122506,-0.03967365,1.3851624
 3\C,0,0.3735503,0.97216476,-0.63151499\C,0,-1.01598862,1.12044957,-0.0
 3647742\C,0,-1.8895285,-0.09590583,-0.12772849\C,0,-1.58783581,-1.2520
 7002,-0.6969597\H,0,2.99511983,0.28098733,-1.13662278\H,0,2.14551144,-
 1.25551832,-1.19988575\H,0,3.19924373,-0.9013532,0.18945839\H,0,-0.914

 Normal termination of Gaussian 16 at Wed Apr  9 19:21:29 2025.
 Gaussian 16:  ES64L-G16RevC.01  3-Jul-2019

 ----------------------------------------------------------------------
 #t hf aug-cc-pvdz iop(5/13=1,5/36=2,99/5=2) pseudo=read geom=check gue
 ss=(read,tcheck) scf=(maxcycle=1)
 ----------------------------------------------------------------------
 -----
 title
 -----
 Structure from the checkpoint file:  "Grambow2020_wb97xd3_008677_reverse_mol2.chk"
 Charge =  0 Multiplicity = 1

                         Standard orientation:
 ---------------------------------------------------------------------
 Center     Atomic      Atomic             Coordinates (Angstroms)
 Number     Number       Type             X           Y           Z
 ---------------------------------------------------------------------
      1          6           0       -2.379160   -0.650891   -0.395577
      2          6           0       -1.208296    0.196427    0.035242
      3          8           0       -1.042781    1.312121   -0.389484
      4          6           0       -0.272559   -0.419859    1.060546
      5          6           0        1.113647    0.200345    1.086163
      6          6           0        2.002063   -0.158897   -0.068211
      7          6           0        1.715758   -0.976127   -1.069172
      8          1           0       -2.884347   -1.081363    0.471935
      9          1           0       -2.016053   -1.485787   -1.000883
     10          1           0       -3.077336   -0.057721   -0.981682
     11          1           0        1.023960    2.747977   -1.083512
     12          1           0       -0.763283   -0.270226    2.029466
     13          1           0       -0.230126   -1.503149    0.917277
     14          1           0        1.012946    1.289168    1.116418
     15          1           0        1.621360   -0.080864    2.014276
     16          1           0        2.977314    0.321340   -0.057149
     17          1           0        1.657751    3.127666   -1.191222
     18          1           0        0.760876   -1.483689   -1.153267
     19          1           0        2.430469   -1.166305   -1.859739
 ---------------------------------------------------------------------

 SCF Done:  E(RHF) =  -310.550150241     A.U. after    2 cycles

 The electronic state is 1-A.
 Alpha  occ. eigenvalues --  -21.04646 -11.49833 -11.44525 -11.41339 -11.39330
 Alpha  occ. eigenvalues --  -11.38695 -11.36519  -1.70991  -1.25575  -1.13328
 Alpha  occ. eigenvalues --   -1.06156  -0.94772  -0.78770  -0.73042  -0.66945
 Alpha  occ. eigenvalues --   -0.64915  -0.61133  -0.59634  -0.58837  -0.55670
 Alpha  occ. eigenvalues --   -0.55013  -0.53014  -0.47073  -0.46979  -0.45098
 Alpha  occ. eigenvalues --   -0.40850  -0.34467  -0.28270
 Alpha virt. eigenvalues --    0.03488   0.04839   0.05246   0.05349   0.05648
 Alpha virt. eigenvalues --    0.05814   0.06325   0.07501   0.08031   0.08338
 Alpha virt. eigenvalues --    0.08824   0.10169   0.12451   0.12767   0.13031

 Mulliken charges:
               1
     1  C   -4.747827
     2  C    5.072071
     3  O   -3.620682
     4  C   -3.812259
     5  C   -3.338432
     6  C    0.100121
     7  C   -3.588253
     8  H    1.315622
     9  H    1.262473
    10  H    1.310537
    11  H   -0.250901
    12  H    1.283264
    13  H    1.765853
    14  H    1.427743
    15  H    1.242458
    16  H    1.320220
    17  H    0.179473
    18  H    1.734676
    19  H    1.343843
 Sum of Mulliken charges =   0.00000

 Dipole moment (field-independent basis, Debye):
    X=             -0.2359    Y=             -0.9862    Z=              0.8050  Tot=              1.2947

 Test job not archived.
 1\1\GINC-SE116\SP\RHF\Aug-CC-pVDZ\C6H12O1\OHZDE\09-Apr-2025\0\\#t hf a
 ug-cc-pvdz iop(5/13=1,5/36=2,99/5=2) pseudo=read geom=check guess=(rea
 d,tcheck) scf=(maxcycle=1)\\title\\0,1\C,0,2.49754183,-0.47289874,-0.5
 2248258\C,0,1.31761741,0.1239956,0.20275604\O,0,1.15122506,-0.03967365
 ,1.38516243\C,0,0.3735503,0.97216476,-0.63151499\C,0,-1.01598862,1.120
 44957,-0.03647742\C,0,-1.8895285,-0.09590583,-0.12772849\C,0,-1.587835
 81,-1.25207002,-0.6969597\H,0,2.99511983,0.28098733,-1.13662278\H,0,2.
 14551144,-1.25551832,-1.19988575\H,0,3.19924373,-0.9013532,0.18945839\

 Normal termination of Gaussian 16 at Wed Apr  9 19:21:36 2025.
