 Gaussian 16, Revision C.01,

 ----------------------------------------------------------------------
 #t hf aug-cc-pvdz symm=none int=(grid=ultrafine) guess=(read,tcheck) s
 table=(opt,rrhf)
 ----------------------------------------------------------------------
 -----
 title
 -----
 Symbolic Z-matrix:
 Charge =  0 Multiplicity = 1

 SCF Done:  E(RHF) =  -359.684599103     A.U. after   15 cycles
 Normal termination of Gaussian 16 at Wed Apr  9 03:53:38 2025.
 Gaussian 16:  ES64L-G16RevC.01  3-Jul-2019

 ----------------------------------------------------------------------
 #t hf aug-cc-pvdz iop(5/13=1,5/36=2,99/5=2) pseudo=read geom=check gue
 ss=(read,tcheck) scf=(maxcycle=1)
 ----------------------------------------------------------------------
 -----
 title
 -----
 Structure from the checkpoint file:  "Grambow2020_wb97xd3_008375_reverse_mol2.chk"
 Charge =  0 Multiplicity = 1

                         Standard orientation:
 ---------------------------------------------------------------------
 Center     Atomic      Atomic             Coordinates (Angstroms)
 Number     Number       Type             X           Y           Z
 ---------------------------------------------------------------------
      1          8           0        1.718448   -1.488404    0.272875
      2          6           0        1.066661   -0.520649    0.060555
      3          6           0        1.126985    0.669086   -0.884997
      4          7           0        0.004632    1.278279   -0.134540
      5          6           0       -0.223015    0.077869    0.671199
      6          6           0       -1.446648   -0.730799    0.321897
      7          8           0       -2.207868   -0.416511   -0.550635
      8          1           0        0.167504    4.137988    1.676999
      9          1           0        0.184626    3.496903    1.292535
     10          1           0        0.899261    0.383647   -1.917084
     11          1           0        2.056713    1.240450   -0.862266
     12          1           0       -0.798751    1.490309   -0.714085
     13          1           0       -0.178251    0.219016    1.756685
     14          1           0       -1.592073   -1.649989    0.919149
 ---------------------------------------------------------------------

 SCF Done:  E(RHF) =  -361.289018376     A.U. after    2 cycles

 The electronic state is 1-A.
 Alpha  occ. eigenvalues --  -21.09239 -21.09085 -15.74419 -11.52970 -11.51153
 Alpha  occ. eigenvalues --  -11.45641 -11.43232  -1.75488  -1.73201  -1.46632
 Alpha  occ. eigenvalues --   -1.08650  -1.02655  -0.87962  -0.75583  -0.72525
 Alpha  occ. eigenvalues --   -0.65051  -0.63314  -0.61213  -0.60367  -0.54250
 Alpha  occ. eigenvalues --   -0.51872  -0.49779  -0.46994  -0.45278  -0.37015
 Alpha  occ. eigenvalues --   -0.33033  -0.29309
 Alpha virt. eigenvalues --    0.03506   0.04921   0.05634   0.05909   0.06227
 Alpha virt. eigenvalues --    0.07518   0.08755   0.09512   0.10359   0.11131
 Alpha virt. eigenvalues --    0.12283   0.12850   0.13360   0.13504   0.13819

 Mulliken charges:
               1
     1  O   -3.136291
     2  C    3.868067
     3  C   -2.533758
     4  N   -1.668839
     5  C   -2.175471
     6  C    2.002821
     7  O   -2.786183
     8  H    0.546986
     9  H   -0.668572
    10  H    1.434752
    11  H    1.344616
    12  H    0.739160
    13  H    1.533394
    14  H    1.499319
 Sum of Mulliken charges =   0.00000

 Dipole moment (field-independent basis, Debye):
    X=             -0.1235    Y=             -0.0084    Z=             -0.3062  Tot=              0.3302

 Test job not archived.
 1\1\GINC-SE083\SP\RHF\Aug-CC-pVDZ\C4H7N1O2\OHZDE\09-Apr-2025\0\\#t hf
 aug-cc-pvdz iop(5/13=1,5/36=2,99/5=2) pseudo=read geom=check guess=(re
 ad,tcheck) scf=(maxcycle=1)\\title\\0,1\O,0,-0.22563705,-0.5133554,2.5
 9734873\C,0,-0.23956412,-0.14961312,1.46865341\C,0,-1.0487431,0.828204
 73,0.63063331\N,0,-0.36672114,0.30505884,-0.57565904\C,0,0.57109623,-0
 .50769564,0.20019712\C,0,1.98855078,0.00168707,0.26790603\O,0,2.348146
 51,1.00279047,-0.28709496\H,0,-1.86195698,-1.37013446,-3.11418924\H,0,
 -1.56875265,-1.02484408,-2.51929276\H,0,-0.82103757,1.86903781,0.88233

 Normal termination of Gaussian 16 at Wed Apr  9 03:53:44 2025.
