 Gaussian 16, Revision C.01,

 ----------------------------------------------------------------------
 #t hf aug-cc-pvdz symm=none int=(grid=ultrafine) guess=(read,tcheck) s
 table=(opt,rrhf)
 ----------------------------------------------------------------------
 -----
 title
 -----
 Symbolic Z-matrix:
 Charge =  0 Multiplicity = 1

 SCF Done:  E(RHF) =  -316.409151245     A.U. after   15 cycles
 Normal termination of Gaussian 16 at Wed Apr  9 18:33:27 2025.
 Gaussian 16:  ES64L-G16RevC.01  3-Jul-2019

 ----------------------------------------------------------------------
 #t hf aug-cc-pvdz iop(5/13=1,5/36=2,99/5=2) pseudo=read geom=check gue
 ss=(read,tcheck) scf=(maxcycle=1)
 ----------------------------------------------------------------------
 -----
 title
 -----
 Structure from the checkpoint file:  "Grambow2020_wb97xd3_007268_reverse_mol2.chk"
 Charge =  0 Multiplicity = 1

                         Standard orientation:
 ---------------------------------------------------------------------
 Center     Atomic      Atomic             Coordinates (Angstroms)
 Number     Number       Type             X           Y           Z
 ---------------------------------------------------------------------
      1          7           0        1.582332   -0.856672    0.018999
      2          6           0        2.473198   -1.544239    0.326898
      3          6           0        0.583440    1.206479   -0.126640
      4          7           0        0.555424    2.339039    0.069056
      5          6           0       -2.583324    0.057019    0.303536
      6          6           0       -2.677937   -1.063531   -0.105082
      7          7           0        0.559227   -0.108361   -0.412730
      8          1           0       -2.502642    1.057381    0.667173
      9          1           0       -2.795030   -2.060081   -0.465753
     10          1           0       -0.353472   -0.549712   -0.320965
 ---------------------------------------------------------------------

 SCF Done:  E(RHF) =  -317.826182929     A.U. after    2 cycles

 The electronic state is 1-A.
 Alpha  occ. eigenvalues --  -15.88542 -15.83590 -15.78473 -11.49022 -11.47444
 Alpha  occ. eigenvalues --  -11.45006 -11.44856  -1.60815  -1.34656  -1.25177
 Alpha  occ. eigenvalues --   -1.13789  -0.88534  -0.82860  -0.82136  -0.69300
 Alpha  occ. eigenvalues --   -0.65971  -0.56219  -0.51011  -0.50085  -0.49882
 Alpha  occ. eigenvalues --   -0.47076  -0.43390  -0.42790  -0.37394
 Alpha virt. eigenvalues --    0.02468   0.04576   0.06309   0.08264   0.08594
 Alpha virt. eigenvalues --    0.09592   0.09817   0.10701   0.10943   0.11683
 Alpha virt. eigenvalues --    0.12181   0.12715   0.13253   0.13594   0.13800

 Mulliken charges:
               1
     1  N   -0.572580
     2  C   -0.094189
     3  C    3.507767
     4  N   -2.489402
     5  C   -0.695382
     6  C   -0.776767
     7  N   -1.335150
     8  H    0.652547
     9  H    0.590986
    10  H    1.212171
 Sum of Mulliken charges =   0.00000

 Dipole moment (field-independent basis, Debye):
    X=             -3.9191    Y=             -1.3118    Z=             -0.8247  Tot=              4.2143

 Test job not archived.
 1\1\GINC-SE173\SP\RHF\Aug-CC-pVDZ\C4H3N3\OHZDE\09-Apr-2025\0\\#t hf au
 g-cc-pvdz iop(5/13=1,5/36=2,99/5=2) pseudo=read geom=check guess=(read
 ,tcheck) scf=(maxcycle=1)\\title\\0,1\N,0,2.19192012,0.35171551,-0.044
 69224\C,0,3.17745439,0.90306242,-0.33783124\C,0,0.87030224,-1.52608444
 ,0.00803524\N,0,0.65244078,-2.62417621,-0.25369893\C,0,-2.07212549,0.1
 4909843,-0.25763319\C,0,-1.97293192,1.24181706,0.21952428\N,0,1.068447
 55,-0.24575713,0.37236733\H,0,-2.16438899,-0.82587383,-0.6823473\H,0,-
 1.91726342,2.21915933,0.64214696\H,0,0.23915472,0.34336885,0.33448609\

 Normal termination of Gaussian 16 at Wed Apr  9 18:33:30 2025.
