 Gaussian 16, Revision C.01,

 ----------------------------------------------------------------------
 #t hf aug-cc-pvdz symm=none int=(grid=ultrafine) guess=(read,tcheck) s
 table=(opt,rrhf)
 ----------------------------------------------------------------------
 -----
 title
 -----
 Symbolic Z-matrix:
 Charge =  0 Multiplicity = 1

 SCF Done:  E(RHF) =  -359.637933620     A.U. after   15 cycles
 Normal termination of Gaussian 16 at Wed Apr  9 19:11:57 2025.
 Gaussian 16:  ES64L-G16RevC.01  3-Jul-2019

 ----------------------------------------------------------------------
 #t hf aug-cc-pvdz iop(5/13=1,5/36=2,99/5=2) pseudo=read geom=check gue
 ss=(read,tcheck) scf=(maxcycle=1)
 ----------------------------------------------------------------------
 -----
 title
 -----
 Structure from the checkpoint file:  "Grambow2020_wb97xd3_008277_reverse_mol1.chk"
 Charge =  0 Multiplicity = 1

                         Standard orientation:
 ---------------------------------------------------------------------
 Center     Atomic      Atomic             Coordinates (Angstroms)
 Number     Number       Type             X           Y           Z
 ---------------------------------------------------------------------
      1          6           0       -2.364182   -0.561949    0.027768
      2          6           0       -1.052893    0.029670   -0.375771
      3          6           0       -0.513550    1.216284    0.390110
      4          7           0        0.806932    1.073489   -0.288621
      5          6           0        1.171074   -0.332190    0.009897
      6          8           0        2.293114   -0.711853    0.144268
      7          8           0        0.039913   -0.961187    0.006382
      8          1           0       -2.414697   -0.845412    1.088016
      9          1           0       -2.587520   -1.446130   -0.569970
     10          1           0       -3.152916    0.167651   -0.169018
     11          1           0        0.205593    0.860633   -1.244484
     12          1           0       -0.386052    1.121167    1.477255
     13          1           0       -0.983239    2.158782    0.116682
     14          1           0        1.563390    1.742317   -0.195360
 ---------------------------------------------------------------------

 SCF Done:  E(RHF) =  -361.257393218     A.U. after    2 cycles

 The electronic state is 1-A.
 Alpha  occ. eigenvalues --  -21.09157 -21.06557 -15.84732 -11.55440 -11.47829
 Alpha  occ. eigenvalues --  -11.39371 -11.35816  -1.87681  -1.69584  -1.46762
 Alpha  occ. eigenvalues --   -1.14087  -1.01575  -0.85761  -0.85000  -0.77500
 Alpha  occ. eigenvalues --   -0.68085  -0.62439  -0.58146  -0.56201  -0.55339
 Alpha  occ. eigenvalues --   -0.51620  -0.51130  -0.47012  -0.42001  -0.36778
 Alpha  occ. eigenvalues --   -0.32227  -0.24639
 Alpha virt. eigenvalues --    0.02991   0.04585   0.05118   0.05236   0.05725
 Alpha virt. eigenvalues --    0.07039   0.07149   0.09886   0.10846   0.11664
 Alpha virt. eigenvalues --    0.12688   0.13228   0.14274   0.14370   0.15225

 Mulliken charges:
               1
     1  C   -3.643471
     2  C    0.918895
     3  C   -2.971391
     4  N   -2.279009
     5  C    6.382376
     6  O   -3.256773
     7  O   -3.056829
     8  H    1.185956
     9  H    1.297875
    10  H    1.177537
    11  H    0.856981
    12  H    1.424340
    13  H    1.134662
    14  H    0.828850
 Sum of Mulliken charges =  -0.00000

 Dipole moment (field-independent basis, Debye):
    X=              0.1375    Y=              3.4039    Z=              0.6412  Tot=              3.4665

 Test job not archived.
 1\1\GINC-SE108\SP\RHF\Aug-CC-pVDZ\C4H7N1O2\OHZDE\09-Apr-2025\0\\#t hf
 aug-cc-pvdz iop(5/13=1,5/36=2,99/5=2) pseudo=read geom=check guess=(re
 ad,tcheck) scf=(maxcycle=1)\\title\\0,1\C,0,-1.7319107,-1.00143099,-0.
 10514638\C,0,-0.4233856,-0.36221568,-0.43906667\C,0,-0.11820206,1.0164
 0091,0.10111315\N,0,1.30490727,0.88529765,-0.32586506\C,0,1.72563548,-
 0.37045263,0.34026158\O,0,2.83589197,-0.57867918,0.72124035\O,0,0.6656
 6226,-1.11282799,0.31764919\H,0,-1.9373239,-1.0530969,0.97289168\H,0,-
 1.77935154,-2.01371071,-0.50762001\H,0,-2.53241204,-0.42859932,-0.5786

 Normal termination of Gaussian 16 at Wed Apr  9 19:12:02 2025.
