 Gaussian 16, Revision C.01,

 ----------------------------------------------------------------------
 #t hf aug-cc-pvdz symm=none int=(grid=ultrafine) guess=(read,tcheck) s
 table=(opt,rrhf)
 ----------------------------------------------------------------------
 -----
 title
 -----
 Symbolic Z-matrix:
 Charge =  0 Multiplicity = 1

 SCF Done:  E(RHF) =  -247.739518485     A.U. after   15 cycles
 Normal termination of Gaussian 16 at Wed Apr  9 17:47:47 2025.
 Gaussian 16:  ES64L-G16RevC.01  3-Jul-2019

 ----------------------------------------------------------------------
 #t hf aug-cc-pvdz iop(5/13=1,5/36=2,99/5=2) pseudo=read geom=check gue
 ss=(read,tcheck) scf=(maxcycle=1)
 ----------------------------------------------------------------------
 -----
 title
 -----
 Structure from the checkpoint file:  "Grambow2020_wb97xd3_006166_forward_mol1.chk"
 Charge =  0 Multiplicity = 1

                         Standard orientation:
 ---------------------------------------------------------------------
 Center     Atomic      Atomic             Coordinates (Angstroms)
 Number     Number       Type             X           Y           Z
 ---------------------------------------------------------------------
      1          6           0        0.489584    1.584775   -0.007776
      2          6           0        1.132466    0.395089   -0.309398
      3          6           0        1.094266   -0.826346    0.531550
      4          6           0       -0.088014   -1.279358   -0.305961
      5          6           0       -1.224735   -0.604696   -0.082867
      6          7           0       -1.842095    0.383548    0.178826
      7          1           0        0.369670    1.856387    1.038026
      8          1           0       -0.949299    1.203576   -0.112871
      9          1           0        0.610790    2.412752   -0.697167
     10          1           0        1.591885    0.275646   -1.284972
     11          1           0        0.851406   -0.646433    1.576546
     12          1           0        1.951922   -1.487649    0.442378
     13          1           0        0.046890   -1.915902   -1.167005
 ---------------------------------------------------------------------

 SCF Done:  E(RHF) =  -248.974676697     A.U. after    2 cycles

 The electronic state is 1-A.
 Alpha  occ. eigenvalues --  -15.74811 -11.46239 -11.44616 -11.43202 -11.40446
 Alpha  occ. eigenvalues --  -11.37400  -1.39137  -1.24978  -1.08792  -0.95170
 Alpha  occ. eigenvalues --   -0.82495  -0.72814  -0.68719  -0.61909  -0.58514
 Alpha  occ. eigenvalues --   -0.57715  -0.53604  -0.51465  -0.49425  -0.42251
 Alpha  occ. eigenvalues --   -0.34173  -0.31029
 Alpha virt. eigenvalues --    0.03544   0.04991   0.05295   0.05574   0.06256
 Alpha virt. eigenvalues --    0.06650   0.08154   0.09158   0.10317   0.12036
 Alpha virt. eigenvalues --    0.13071   0.13379   0.13501   0.14185   0.14662

 Mulliken charges:
               1
     1  C   -3.578305
     2  C   -0.377495
     3  C   -3.589072
     4  C   -0.583214
     5  C    1.611757
     6  N   -2.639941
     7  H    1.193036
     8  H    1.558680
     9  H    1.245639
    10  H    1.260281
    11  H    1.171397
    12  H    1.288842
    13  H    1.438396
 Sum of Mulliken charges =   0.00000

 Dipole moment (field-independent basis, Debye):
    X=              2.8475    Y=             -0.4957    Z=             -0.6103  Tot=              2.9541

 Test job not archived.
 1\1\GINC-SE041\SP\RHF\Aug-CC-pVDZ\C5H7N1\OHZDE\09-Apr-2025\0\\#t hf au
 g-cc-pvdz iop(5/13=1,5/36=2,99/5=2) pseudo=read geom=check guess=(read
 ,tcheck) scf=(maxcycle=1)\\title\\0,1\C,0,1.2681535,0.5776624,-0.38350
 665\C,0,0.47831068,-0.5523954,-0.52040832\C,0,-0.38464554,-1.11805241,
 0.54537608\C,0,-1.5166673,-0.28518237,-0.02845856\C,0,-1.41405393,1.03
 221264,0.19740418\N,0,-0.79391286,2.04385452,0.33249128\H,0,1.69127549
 ,0.79684622,0.5936224\H,0,0.25135793,1.65865503,-0.2275513\H,0,1.86912
 69,0.87935732,-1.23398165\H,0,0.35897843,-0.99749401,-1.5026112\H,0,-0

 Normal termination of Gaussian 16 at Wed Apr  9 17:47:50 2025.
