 Gaussian 16, Revision C.01,

 ----------------------------------------------------------------------
 #t hf aug-cc-pvdz symm=none int=(grid=ultrafine) guess=(read,tcheck) s
 table=(opt,rrhf)
 ----------------------------------------------------------------------
 -----
 title
 -----
 Symbolic Z-matrix:
 Charge =  0 Multiplicity = 1

 SCF Done:  E(RHF) =  -295.707125875     A.U. after   20 cycles
 Normal termination of Gaussian 16 at Wed Apr  9 16:18:41 2025.
 Gaussian 16:  ES64L-G16RevC.01  3-Jul-2019

 ----------------------------------------------------------------------
 #t hf aug-cc-pvdz iop(5/13=1,5/36=2,99/5=2) pseudo=read geom=check gue
 ss=(read,tcheck) scf=(maxcycle=1)
 ----------------------------------------------------------------------
 -----
 title
 -----
 Structure from the checkpoint file:  "Grambow2020_b97d3_006780_reverse_mol1.chk"
 Charge =  0 Multiplicity = 1

                         Standard orientation:
 ---------------------------------------------------------------------
 Center     Atomic      Atomic             Coordinates (Angstroms)
 Number     Number       Type             X           Y           Z
 ---------------------------------------------------------------------
      1          7           0        2.001762   -0.065370   -0.107659
      2          6           0        0.626133   -0.022114    0.026993
      3          7           0       -0.134450   -1.104422    0.091169
      4          7           0       -1.404944   -0.941267   -0.145618
      5          6           0       -1.272087    1.321847   -0.054399
      6          7           0       -0.036128    1.193796    0.009288
      7          1           0        2.491867    0.640809    0.438096
      8          1           0        2.373060   -1.000665    0.033890
      9          1           0       -1.924095   -1.713557    0.300357
     10          1           0       -2.048782    0.695848    0.461831
 ---------------------------------------------------------------------

 SCF Done:  E(RHF) =  -297.048957314     A.U. after    2 cycles

 The electronic state is 1-A.
 Alpha  occ. eigenvalues --  -15.79552 -15.78992 -15.78746 -15.78422 -11.48415
 Alpha  occ. eigenvalues --  -11.45012  -1.58091  -1.39713  -1.33505  -1.09363
 Alpha  occ. eigenvalues --   -0.90270  -0.78244  -0.72446  -0.66907  -0.64815
 Alpha  occ. eigenvalues --   -0.59394  -0.52810  -0.48427  -0.44457  -0.43436
 Alpha  occ. eigenvalues --   -0.36302  -0.26479
 Alpha virt. eigenvalues --    0.03665   0.04915   0.05993   0.06172   0.08123
 Alpha virt. eigenvalues --    0.09982   0.10670   0.11426   0.12820   0.13489
 Alpha virt. eigenvalues --    0.14085   0.15173   0.16029   0.16478   0.17245

 Mulliken charges:
               1
     1  N   -2.750761
     2  C    4.787942
     3  N   -1.411136
     4  N   -1.024356
     5  C   -0.999875
     6  N   -2.070446
     7  H    0.584244
     8  H    0.593634
     9  H    0.747981
    10  H    1.542774
 Sum of Mulliken charges =  -0.00000

 Dipole moment (field-independent basis, Debye):
    X=              1.6600    Y=             -1.8591    Z=              1.9088  Tot=              3.1393

 Test job not archived.
 1\1\GINC-SE026\SP\RHF\Aug-CC-pVDZ\C2H4N4\OHZDE\09-Apr-2025\0\\#t hf au
 g-cc-pvdz iop(5/13=1,5/36=2,99/5=2) pseudo=read geom=check guess=(read
 ,tcheck) scf=(maxcycle=1)\\title\\0,1\N,0,1.92036383,-0.06785797,-0.31
 051125\C,0,0.55736886,0.04584228,-0.10636503\N,0,-0.25414869,-0.995975
 38,-0.00611212\N,0,-1.52478166,-0.7662095,-0.1779894\C,0,-1.27024105,1
 .48654605,-0.08877984\N,0,-0.04095467,1.29444585,-0.08795839\H,0,2.473
 33429,0.60942818,0.21126184\H,0,2.24929009,-1.02176548,-0.18991804\H,0
 ,-2.0601704,-1.51272782,0.29202305\H,0,-2.0513676,0.89910678,0.4647361

 Normal termination of Gaussian 16 at Wed Apr  9 16:18:45 2025.
