 Gaussian 16, Revision C.01,

 ----------------------------------------------------------------------
 #t hf aug-cc-pvdz symm=none int=(grid=ultrafine) guess=(read,tcheck) s
 table=(opt,rrhf)
 ----------------------------------------------------------------------
 -----
 title
 -----
 Symbolic Z-matrix:
 Charge =  0 Multiplicity = 1

 SCF Done:  E(RHF) =  -306.480143598     A.U. after   17 cycles
 Normal termination of Gaussian 16 at Wed Apr  9 19:29:17 2025.
 Gaussian 16:  ES64L-G16RevC.01  3-Jul-2019

 ----------------------------------------------------------------------
 #t hf aug-cc-pvdz iop(5/13=1,5/36=2,99/5=2) pseudo=read geom=check gue
 ss=(read,tcheck) scf=(maxcycle=1)
 ----------------------------------------------------------------------
 -----
 title
 -----
 Structure from the checkpoint file:  "Grambow2020_wb97xd3_009025_reverse_mol1.chk"
 Charge =  0 Multiplicity = 1

                         Standard orientation:
 ---------------------------------------------------------------------
 Center     Atomic      Atomic             Coordinates (Angstroms)
 Number     Number       Type             X           Y           Z
 ---------------------------------------------------------------------
      1          6           0       -2.131567    0.099830   -0.265373
      2          6           0       -0.916549   -0.213682    0.544339
      3          8           0        0.049047   -1.149261   -0.426174
      4          6           0        1.282497   -0.394275   -0.516453
      5          6           0        0.915364    1.081240   -0.623082
      6          6           0        0.145130    0.820360    0.712669
      7          6           0        0.976699   -0.401362    0.913740
      8          1           0       -2.739122   -0.791419   -0.425973
      9          1           0       -2.741663    0.809629    0.300662
     10          1           0       -1.903108    0.545637   -1.247595
     11          1           0        2.050605   -0.929277   -1.061693
     12          1           0        1.793924    1.709593   -0.470041
     13          1           0        0.354559    1.399148   -1.500606
     14          1           0       -0.014896    1.565987    1.483166
     15          1           0        1.177887   -1.067872    1.736436
 ---------------------------------------------------------------------

 SCF Done:  E(RHF) =  -307.938802599     A.U. after    2 cycles

 The electronic state is 1-A.
 Alpha  occ. eigenvalues --  -21.05410 -11.56645 -11.50277 -11.46656 -11.40591
 Alpha  occ. eigenvalues --  -11.37324 -11.33818  -1.79846  -1.29106  -1.10893
 Alpha  occ. eigenvalues --   -1.01189  -0.95362  -0.80966  -0.76301  -0.73587
 Alpha  occ. eigenvalues --   -0.63397  -0.57755  -0.55833  -0.53736  -0.52827
 Alpha  occ. eigenvalues --   -0.48311  -0.44933  -0.42854  -0.35148  -0.33418
 Alpha  occ. eigenvalues --   -0.21140
 Alpha virt. eigenvalues --    0.03531   0.04252   0.04772   0.05251   0.05783
 Alpha virt. eigenvalues --    0.06725   0.07518   0.08028   0.09326   0.10646
 Alpha virt. eigenvalues --    0.11671   0.12513   0.12900   0.13012   0.14292

 Mulliken charges:
               1
     1  C   -3.771507
     2  C    0.679708
     3  O   -2.347163
     4  C    0.050853
     5  C   -2.801430
     6  C   -2.256378
     7  C   -0.235055
     8  H    1.269173
     9  H    1.246582
    10  H    1.328365
    11  H    1.474986
    12  H    1.263992
    13  H    1.329637
    14  H    1.492208
    15  H    1.276030
 Sum of Mulliken charges =  -0.00000

 Dipole moment (field-independent basis, Debye):
    X=              3.4399    Y=              0.3174    Z=             -0.9451  Tot=              3.5815

 Test job not archived.
 1\1\GINC-SE041\SP\RHF\Aug-CC-pVDZ\C6H8O1\OHZDE\09-Apr-2025\0\\#t hf au
 g-cc-pvdz iop(5/13=1,5/36=2,99/5=2) pseudo=read geom=check guess=(read
 ,tcheck) scf=(maxcycle=1)\\title\\0,1\C,0,1.95415655,-0.00361381,-0.56
 281638\C,0,0.93796583,0.17475641,0.5168752\O,0,-0.04799297,1.41001788,
 0.01528689\C,0,-1.36479386,0.80660974,-0.02326449\C,0,-1.20929906,-0.6
 0979724,-0.56448049\C,0,-0.2035383,-0.77964662,0.62090798\C,0,-0.82992
 186,0.40423019,1.27712573\H,0,2.63463138,0.8473421,-0.60829713\H,0,2.5
 5440155,-0.88529531,-0.32038903\H,0,1.51313896,-0.14905282,-1.5628405\

 Normal termination of Gaussian 16 at Wed Apr  9 19:29:22 2025.
