 Gaussian 16, Revision C.01,

 ----------------------------------------------------------------------
 #t hf aug-cc-pvdz symm=none int=(grid=ultrafine) guess=(read,tcheck) s
 table=(opt,rrhf)
 ----------------------------------------------------------------------
 -----
 title
 -----
 Symbolic Z-matrix:
 Charge =  0 Multiplicity = 1

 SCF Done:  E(RHF) =  -379.484303386     A.U. after   13 cycles
 Normal termination of Gaussian 16 at Wed Apr  9 03:45:25 2025.
 Gaussian 16:  ES64L-G16RevC.01  3-Jul-2019

 ----------------------------------------------------------------------
 #t hf aug-cc-pvdz iop(5/13=1,5/36=2,99/5=2) pseudo=read geom=check gue
 ss=(read,tcheck) scf=(maxcycle=1)
 ----------------------------------------------------------------------
 -----
 title
 -----
 Structure from the checkpoint file:  "Grambow2020_wb97xd3_007851_forward_mol2.chk"
 Charge =  0 Multiplicity = 1

                         Standard orientation:
 ---------------------------------------------------------------------
 Center     Atomic      Atomic             Coordinates (Angstroms)
 Number     Number       Type             X           Y           Z
 ---------------------------------------------------------------------
      1          8           0        2.055474   -0.824539    0.008506
      2          6           0        0.676680   -0.720338    0.011211
      3          6           0        0.025293    0.361263    0.904404
      4          8           0        0.569722    1.382855   -0.007679
      5          6           0        0.019528    0.344477   -0.901380
      6          6           0       -1.223170    0.332347   -0.007730
      7          8           0       -2.040054   -0.795031   -0.074098
      8          1           0        2.400247    0.075506   -0.001930
      9          1           0        0.238029   -1.714503    0.021386
     10          1           0        0.118626    0.540167    1.974242
     11          1           0        0.104287    0.502502   -1.974597
     12          1           0       -1.768364    1.278036   -0.017410
     13          1           0       -2.763944   -0.694485    0.545448
 ---------------------------------------------------------------------

 SCF Done:  E(RHF) =  -381.145389524     A.U. after    2 cycles

 The electronic state is 1-A.
 Alpha  occ. eigenvalues --  -21.09373 -21.07367 -21.04917 -11.53893 -11.48747
 Alpha  occ. eigenvalues --  -11.47685 -11.40464  -1.84723  -1.72515  -1.69831
 Alpha  occ. eigenvalues --   -1.18388  -0.95835  -0.95280  -0.78095  -0.73861
 Alpha  occ. eigenvalues --   -0.67220  -0.64497  -0.56888  -0.54169  -0.52718
 Alpha  occ. eigenvalues --   -0.45542  -0.43794  -0.41664  -0.37677  -0.33945
 Alpha  occ. eigenvalues --   -0.30508  -0.29325
 Alpha virt. eigenvalues --    0.03731   0.04404   0.05613   0.05988   0.06442
 Alpha virt. eigenvalues --    0.06990   0.09984   0.10187   0.11281   0.12097
 Alpha virt. eigenvalues --    0.14092   0.14428   0.14838   0.15040   0.15557

 Mulliken charges:
               1
     1  O   -3.413635
     2  C    2.086616
     3  C   -0.766882
     4  O   -2.807771
     5  C   -1.046599
     6  C    1.888229
     7  O   -3.084363
     8  H    0.714963
     9  H    1.602269
    10  H    1.200406
    11  H    1.276696
    12  H    1.570235
    13  H    0.779835
 Sum of Mulliken charges =  -0.00000

 Dipole moment (field-independent basis, Debye):
    X=             -1.1217    Y=              0.3693    Z=              0.4319  Tot=              1.2574

 Test job not archived.
 1\1\GINC-SE331\SP\RHF\Aug-CC-pVDZ\C4H6O3\OHZDE\09-Apr-2025\0\\#t hf au
 g-cc-pvdz iop(5/13=1,5/36=2,99/5=2) pseudo=read geom=check guess=(read
 ,tcheck) scf=(maxcycle=1)\\title\\0,1\O,0,-2.2953662,-0.37790691,0.140
 65892\C,0,-0.96114536,-0.19181855,0.45236986\C,0,0.10327348,-0.8099095
 ,-0.4840778\O,0,-0.28086487,0.18042528,-1.50565657\C,0,-0.19619458,0.9
 5579121,-0.25214807\C,0,1.12517142,0.23393105,0.02347042\O,0,1.5751808
 ,0.21825004,1.34253435\H,0,-2.37425801,-0.26498732,-0.81332403\H,0,-0.
 81950158,-0.3080141,1.52349936\H,0,0.2423637,-1.8398612,-0.80830789\H,

 Normal termination of Gaussian 16 at Wed Apr  9 03:45:29 2025.
