 Gaussian 16, Revision C.01,

 ----------------------------------------------------------------------
 #t hf aug-cc-pvdz symm=none int=(grid=ultrafine) guess=(read,tcheck) s
 table=(opt,rrhf)
 ----------------------------------------------------------------------
 -----
 title
 -----
 Symbolic Z-matrix:
 Charge =  0 Multiplicity = 1

 SCF Done:  E(RHF) =  -331.614134305     A.U. after   16 cycles
 Normal termination of Gaussian 16 at Wed Apr  9 03:15:46 2025.
 Gaussian 16:  ES64L-G16RevC.01  3-Jul-2019

 ----------------------------------------------------------------------
 #t hf aug-cc-pvdz iop(5/13=1,5/36=2,99/5=2) pseudo=read geom=check gue
 ss=(read,tcheck) scf=(maxcycle=1)
 ----------------------------------------------------------------------
 -----
 title
 -----
 Structure from the checkpoint file:  "Grambow2020_b97d3_006979_forward_mol2.chk"
 Charge =  0 Multiplicity = 1

                         Standard orientation:
 ---------------------------------------------------------------------
 Center     Atomic      Atomic             Coordinates (Angstroms)
 Number     Number       Type             X           Y           Z
 ---------------------------------------------------------------------
      1          7           0       -1.993054    0.024435   -0.080243
      2          6           0       -0.627689   -0.030983   -0.003251
      3          7           0        0.106307   -1.130861    0.007019
      4          8           0        1.396541   -0.659613    0.003200
      5          7           0        1.367580    0.760649    0.003665
      6          7           0        0.156494    1.118288   -0.002242
      7          1           0       -2.396885    0.878965    0.289306
      8          1           0       -2.470600   -0.823746    0.207206
 ---------------------------------------------------------------------

 SCF Done:  E(RHF) =  -333.044702292     A.U. after    2 cycles

 The electronic state is 1-A.
 Alpha  occ. eigenvalues --  -21.15769 -15.88326 -15.82244 -15.80783 -15.80166
 Alpha  occ. eigenvalues --  -11.49419  -1.96532  -1.51533  -1.42585  -1.25031
 Alpha  occ. eigenvalues --   -0.95884  -0.84804  -0.72902  -0.70015  -0.68633
 Alpha  occ. eigenvalues --   -0.58632  -0.51236  -0.49791  -0.44634  -0.44036
 Alpha  occ. eigenvalues --   -0.41014  -0.32333
 Alpha virt. eigenvalues --    0.03112   0.05593   0.09843   0.10965   0.11619
 Alpha virt. eigenvalues --    0.11948   0.12509   0.14257   0.15529   0.16199
 Alpha virt. eigenvalues --    0.16857   0.17587   0.18739   0.19196   0.20397

 Mulliken charges:
               1
     1  N   -2.680315
     2  C    4.757891
     3  N   -0.533051
     4  O   -2.329522
     5  N    0.274473
     6  N   -0.763070
     7  H    0.648656
     8  H    0.624939
 Sum of Mulliken charges =  -0.00000

 Dipole moment (field-independent basis, Debye):
    X=             -2.5212    Y=             -0.6323    Z=              0.7908  Tot=              2.7169

 Test job not archived.
 1\1\GINC-SE029\SP\RHF\Aug-CC-pVDZ\C1H2N4O1\OHZDE\09-Apr-2025\0\\#t hf
 aug-cc-pvdz iop(5/13=1,5/36=2,99/5=2) pseudo=read geom=check guess=(re
 ad,tcheck) scf=(maxcycle=1)\\title\\0,1\N,0,1.43176872,0.0283438,-0.16
 556323\C,0,0.06639305,-0.00564126,-0.07715677\N,0,-0.77979124,0.636591
 2,-0.86461913\O,0,-2.01205707,0.21122422,-0.43175018\N,0,-1.83301048,-
 0.69386614,0.64840573\N,0,-0.59136978,-0.81336933,0.84517232\H,0,1.911
 1086,-0.19816166,0.69976673\H,0,1.80695821,0.83487917,-0.65425547\\Ver
 sion=ES64L-G16RevC.01\State=1-A\HF=-333.0447023\RMSD=7.947e-02\Dipole=

 Normal termination of Gaussian 16 at Wed Apr  9 03:15:48 2025.
