 Gaussian 16, Revision C.01,

 ----------------------------------------------------------------------
 #t hf aug-cc-pvdz symm=none int=(grid=ultrafine) guess=(read,tcheck) s
 table=(opt,rrhf)
 ----------------------------------------------------------------------
 -----
 title
 -----
 Symbolic Z-matrix:
 Charge =  0 Multiplicity = 1

 SCF Done:  E(RHF) =  -305.465346299     A.U. after   13 cycles
 Normal termination of Gaussian 16 at Wed Apr  9 03:52:29 2025.
 Gaussian 16:  ES64L-G16RevC.01  3-Jul-2019

 ----------------------------------------------------------------------
 #t hf aug-cc-pvdz iop(5/13=1,5/36=2,99/5=2) pseudo=read geom=check gue
 ss=(read,tcheck) scf=(maxcycle=1)
 ----------------------------------------------------------------------
 -----
 title
 -----
 Structure from the checkpoint file:  "Grambow2020_wb97xd3_008351_reverse_mol2.chk"
 Charge =  0 Multiplicity = 1

                         Standard orientation:
 ---------------------------------------------------------------------
 Center     Atomic      Atomic             Coordinates (Angstroms)
 Number     Number       Type             X           Y           Z
 ---------------------------------------------------------------------
      1          8           0       -2.677989   -0.847654   -0.394622
      2          6           0       -1.900039   -0.177309    0.503719
      3          6           0        2.383067   -1.426585    0.068777
      4          6           0        1.949634   -0.209720   -0.049742
      5          6           0        1.505717    1.012535   -0.170949
      6          6           0       -0.910121    0.622214    0.224647
      7          6           0        0.093868    1.418468   -0.037609
      8          1           0       -2.367167   -0.649425   -1.281948
      9          1           0       -2.200529   -0.379897    1.525005
     10          1           0        2.443299   -2.085177   -0.790732
     11          1           0        2.694163   -1.820176    1.030071
     12          1           0        2.222517    1.798451   -0.387094
     13          1           0       -0.101124    2.479834   -0.171377
 ---------------------------------------------------------------------

 SCF Done:  E(RHF) =  -306.870192190     A.U. after    2 cycles

 The electronic state is 1-A.
 Alpha  occ. eigenvalues --  -21.10241 -11.48065 -11.45299 -11.43043 -11.41676
 Alpha  occ. eigenvalues --  -11.40458 -11.39311  -1.74808  -1.25332  -1.13156
 Alpha  occ. eigenvalues --   -1.03540  -0.94027  -0.77962  -0.71626  -0.65316
 Alpha  occ. eigenvalues --   -0.61023  -0.60152  -0.59807  -0.56137  -0.47953
 Alpha  occ. eigenvalues --   -0.46318  -0.43019  -0.36355  -0.30213  -0.28066
 Alpha virt. eigenvalues --    0.02901   0.05211   0.05653   0.05691   0.06019
 Alpha virt. eigenvalues --    0.06239   0.08948   0.09792   0.10510   0.11120
 Alpha virt. eigenvalues --    0.12000   0.12505   0.13001   0.13247   0.15197

 Mulliken charges:
               1
     1  O   -3.260055
     2  C   -0.056801
     3  C   -4.882107
     4  C    2.941534
     5  C   -1.742801
     6  C    1.753299
     7  C   -2.150347
     8  H    0.976588
     9  H    1.330035
    10  H    1.257089
    11  H    1.247785
    12  H    1.304267
    13  H    1.281514
 Sum of Mulliken charges =   0.00000

 Dipole moment (field-independent basis, Debye):
    X=              0.1787    Y=             -0.2309    Z=             -0.3163  Tot=              0.4305

 Test job not archived.
 1\1\GINC-SE457\SP\RHF\Aug-CC-pVDZ\C6H6O1\OHZDE\09-Apr-2025\0\\#t hf au
 g-cc-pvdz iop(5/13=1,5/36=2,99/5=2) pseudo=read geom=check guess=(read
 ,tcheck) scf=(maxcycle=1)\\title\\0,1\O,0,0.38799873,-1.06640664,2.843
 34699\C,0,1.11086918,-0.84386869,1.7077776\C,0,-1.60854753,-0.73211917
 ,-1.85412465\C,0,-0.82120065,0.2328813,-1.49145193\C,0,-0.02854003,1.2
 0153749,-1.11855305\C,0,0.98178292,0.16515115,0.89397589\C,0,0.8573035
 5,1.16534707,0.06036618\H,0,-0.25545442,-0.35997087,2.94418736\H,0,1.8
 4363629,-1.62417146,1.53883521\H,0,-2.62717951,-0.79109655,-1.48664917

 Normal termination of Gaussian 16 at Wed Apr  9 03:52:33 2025.
