 Gaussian 16, Revision C.01,

 ----------------------------------------------------------------------
 #t hf aug-cc-pvdz symm=none int=(grid=ultrafine) guess=(read,tcheck) s
 table=(opt,rrhf)
 ----------------------------------------------------------------------
 -----
 title
 -----
 Symbolic Z-matrix:
 Charge =  0 Multiplicity = 1

 SCF Done:  E(RHF) =  -333.730686431     A.U. after   15 cycles
 Normal termination of Gaussian 16 at Wed Apr  9 18:25:03 2025.
 Gaussian 16:  ES64L-G16RevC.01  3-Jul-2019

 ----------------------------------------------------------------------
 #t hf aug-cc-pvdz iop(5/13=1,5/36=2,99/5=2) pseudo=read geom=check gue
 ss=(read,tcheck) scf=(maxcycle=1)
 ----------------------------------------------------------------------
 -----
 title
 -----
 Structure from the checkpoint file:  "Grambow2020_wb97xd3_006981_forward_mol2.chk"
 Charge =  0 Multiplicity = 1

                         Standard orientation:
 ---------------------------------------------------------------------
 Center     Atomic      Atomic             Coordinates (Angstroms)
 Number     Number       Type             X           Y           Z
 ---------------------------------------------------------------------
      1          7           0        2.225996   -0.018565   -0.061807
      2          6           0        0.860234   -0.006807   -0.006220
      3          6           0        0.117705    1.190524   -0.004766
      4          7           0       -1.187481    1.161181    0.003234
      5          6           0       -1.736937   -0.061180    0.002420
      6          7           0       -1.080865   -1.200430    0.003788
      7          7           0        0.240485   -1.176906    0.005876
      8          1           0        2.722740    0.785083    0.276769
      9          1           0        2.652507   -0.910574    0.124626
     10          1           0        0.609906    2.160050   -0.010571
     11          1           0       -2.818107   -0.126742    0.002940
 ---------------------------------------------------------------------

 SCF Done:  E(RHF) =  -335.240180802     A.U. after    2 cycles

 The electronic state is 1-A.
 Alpha  occ. eigenvalues --  -15.78371 -15.77823 -15.77522 -15.77131 -11.50177
 Alpha  occ. eigenvalues --  -11.43846 -11.42367  -1.60563  -1.39667  -1.37701
 Alpha  occ. eigenvalues --   -1.17321  -0.98231  -0.92734  -0.74645  -0.72729
 Alpha  occ. eigenvalues --   -0.67839  -0.63230  -0.62412  -0.58679  -0.49309
 Alpha  occ. eigenvalues --   -0.47073  -0.44664  -0.43513  -0.33233  -0.31588
 Alpha virt. eigenvalues --    0.02997   0.04957   0.05527   0.06371   0.08719
 Alpha virt. eigenvalues --    0.10170   0.10950   0.10998   0.12214   0.12296
 Alpha virt. eigenvalues --    0.12770   0.13824   0.14227   0.14736   0.16609

 Mulliken charges:
               1
     1  N   -3.409541
     2  C    4.318720
     3  C    0.242906
     4  N   -3.067760
     5  C    1.083221
     6  N   -1.572433
     7  N   -2.236898
     8  H    0.533878
     9  H    0.799634
    10  H    1.631225
    11  H    1.677046
 Sum of Mulliken charges =   0.00000

 Dipole moment (field-independent basis, Debye):
    X=              2.5950    Y=              1.8940    Z=              0.6206  Tot=              3.2720

 Test job not archived.
 1\1\GINC-SE105\SP\RHF\Aug-CC-pVDZ\C3H4N4\OHZDE\09-Apr-2025\0\\#t hf au
 g-cc-pvdz iop(5/13=1,5/36=2,99/5=2) pseudo=read geom=check guess=(read
 ,tcheck) scf=(maxcycle=1)\\title\\0,1\N,0,1.86171148,-0.14543683,-0.71
 474726\C,0,0.55944571,-0.12645983,-0.29968398\C,0,0.08329564,0.8080078
 3,0.64106178\N,0,-1.17756013,0.82455953,0.97929724\C,0,-1.95004803,-0.
 08575084,0.37047197\N,0,-1.54504675,-0.97497118,-0.50906372\N,0,-0.267
 93918,-1.00303585,-0.84778574\H,0,2.56199347,0.22919938,-0.10115836\H,
 0,2.1288688,-0.95897498,-1.2430766\H,0,0.74910984,1.5323088,1.10404835

 Normal termination of Gaussian 16 at Wed Apr  9 18:25:07 2025.
