 Gaussian 16, Revision C.01,

 ----------------------------------------------------------------------
 #t hf aug-cc-pvdz symm=none int=(grid=ultrafine) guess=(read,tcheck) s
 table=(opt,rrhf)
 ----------------------------------------------------------------------
 -----
 title
 -----
 Symbolic Z-matrix:
 Charge =  0 Multiplicity = 1

 SCF Done:  E(RHF) =  -338.527542924     A.U. after   19 cycles
 Normal termination of Gaussian 16 at Wed Apr  9 19:15:00 2025.
 Gaussian 16:  ES64L-G16RevC.01  3-Jul-2019

 ----------------------------------------------------------------------
 #t hf aug-cc-pvdz iop(5/13=1,5/36=2,99/5=2) pseudo=read geom=check gue
 ss=(read,tcheck) scf=(maxcycle=1)
 ----------------------------------------------------------------------
 -----
 title
 -----
 Structure from the checkpoint file:  "Grambow2020_wb97xd3_008466_forward_mol1.chk"
 Charge =  0 Multiplicity = 1

                         Standard orientation:
 ---------------------------------------------------------------------
 Center     Atomic      Atomic             Coordinates (Angstroms)
 Number     Number       Type             X           Y           Z
 ---------------------------------------------------------------------
      1          7           0        0.980218   -1.714931    0.228785
      2          6           0        0.479339   -0.527723   -0.092708
      3          6           0       -0.857691   -0.010155   -0.101626
      4          8           0       -1.945401   -0.808872   -0.084977
      5          6           0       -0.737877    1.347816    0.131393
      6          6           0        0.652933    1.638228    0.058539
      7          7           0        1.334538    0.524498   -0.116326
      8          1           0        2.296052   -1.359167   -0.095834
      9          1           0        0.434699   -2.473035   -0.191916
     10          1           0       -2.699160   -0.320469    0.251971
     11          1           0       -1.540762    2.070055    0.186970
     12          1           0        1.097780    2.609757   -0.106189
     13          1           0        2.551079   -0.412122   -0.125979
 ---------------------------------------------------------------------

 SCF Done:  E(RHF) =  -340.086784133     A.U. after    2 cycles

 The electronic state is 1-A.
 Alpha  occ. eigenvalues --  -21.12797 -15.79154 -15.74129 -11.51006 -11.44819
 Alpha  occ. eigenvalues --  -11.44102 -11.38824  -1.78251  -1.51768  -1.31505
 Alpha  occ. eigenvalues --   -1.11679  -0.99901  -0.85171  -0.76167  -0.73098
 Alpha  occ. eigenvalues --   -0.64923  -0.62659  -0.61268  -0.55250  -0.51205
 Alpha  occ. eigenvalues --   -0.48799  -0.46285  -0.44153  -0.39973  -0.29691
 Alpha  occ. eigenvalues --   -0.23776
 Alpha virt. eigenvalues --    0.02843   0.04316   0.05148   0.05356   0.05972
 Alpha virt. eigenvalues --    0.08183   0.09701   0.09937   0.10417   0.12068
 Alpha virt. eigenvalues --    0.12704   0.13570   0.13680   0.14499   0.14611

 Mulliken charges:
               1
     1  N   -3.017961
     2  C    2.640004
     3  C    5.116858
     4  O   -4.016693
     5  C   -2.293165
     6  C    0.252127
     7  N   -3.077419
     8  H    0.106091
     9  H    0.590354
    10  H    0.904398
    11  H    1.389922
    12  H    1.431534
    13  H   -0.026048
 Sum of Mulliken charges =  -0.00000

 Dipole moment (field-independent basis, Debye):
    X=             -2.9183    Y=              0.0392    Z=             -0.1865  Tot=              2.9245

 Test job not archived.
 1\1\GINC-SE041\SP\RHF\Aug-CC-pVDZ\C4H6N2O1\OHZDE\09-Apr-2025\0\\#t hf
 aug-cc-pvdz iop(5/13=1,5/36=2,99/5=2) pseudo=read geom=check guess=(re
 ad,tcheck) scf=(maxcycle=1)\\title\\0,1\N,0,1.76297007,0.78129295,0.33
 120833\C,0,0.59578348,0.29044748,-0.06934974\C,0,0.00517198,-1.0118636
 4,0.03442808\O,0,0.7305342,-2.11898402,0.29800509\C,0,-1.36155253,-0.8
 039598,0.07413985\C,0,-1.55856647,0.57389808,-0.22029459\N,0,-0.393649
 85,1.17717334,-0.34106861\H,0,1.52715494,2.05249378,-0.20898184\H,0,2.
 5328151,0.15107323,0.08735836\H,0,0.16147029,-2.79711256,0.66750898\H,

 Normal termination of Gaussian 16 at Wed Apr  9 19:15:04 2025.
