 Gaussian 16, Revision C.01,

 ----------------------------------------------------------------------
 #t hf aug-cc-pvdz symm=none int=(grid=ultrafine) guess=(read,tcheck) s
 table=(opt,rrhf)
 ----------------------------------------------------------------------
 -----
 title
 -----
 Symbolic Z-matrix:
 Charge =  0 Multiplicity = 1

 SCF Done:  E(RHF) =  -284.731780758     A.U. after   16 cycles
 Normal termination of Gaussian 16 at Wed Apr  9 03:06:52 2025.
 Gaussian 16:  ES64L-G16RevC.01  3-Jul-2019

 ----------------------------------------------------------------------
 #t hf aug-cc-pvdz iop(5/13=1,5/36=2,99/5=2) pseudo=read geom=check gue
 ss=(read,tcheck) scf=(maxcycle=1)
 ----------------------------------------------------------------------
 -----
 title
 -----
 Structure from the checkpoint file:  "Grambow2020_b97d3_006559_reverse_mol2.chk"
 Charge =  0 Multiplicity = 1

                         Standard orientation:
 ---------------------------------------------------------------------
 Center     Atomic      Atomic             Coordinates (Angstroms)
 Number     Number       Type             X           Y           Z
 ---------------------------------------------------------------------
      1          8           0        1.856841   -0.397098   -0.329139
      2          6           0        0.856907    0.225011    0.482851
      3          6           0       -0.067031    1.236002   -0.224305
      4          7           0       -1.348018    0.442581   -0.238599
      5          6           0       -1.057894   -1.007585   -0.270835
      6          6           0       -0.336754   -0.635505    0.978835
      7          1           0        1.403532   -1.012576   -0.935448
      8          1           0        1.422689    0.668449    1.309061
      9          1           0        0.235868    1.487052   -1.250647
     10          1           0       -0.223726    2.155486    0.348724
     11          1           0       -0.575384   -1.275227   -1.230244
     12          1           0       -1.973759   -1.591761   -0.138496
     13          1           0       -2.079197    0.739767    0.401085
 ---------------------------------------------------------------------

 SCF Done:  E(RHF) =  -286.043495322     A.U. after    2 cycles

 The electronic state is 1-A.
 Alpha  occ. eigenvalues --  -21.07385 -15.76161 -11.47739 -11.44191 -11.41393
 Alpha  occ. eigenvalues --  -11.38495  -1.71461  -1.46991  -1.08728  -1.04665
 Alpha  occ. eigenvalues --   -0.87318  -0.78824  -0.71099  -0.63790  -0.59734
 Alpha  occ. eigenvalues --   -0.58457  -0.54044  -0.53230  -0.47765  -0.42373
 Alpha  occ. eigenvalues --   -0.36469  -0.33350  -0.28312
 Alpha virt. eigenvalues --    0.03944   0.05051   0.05507   0.05829   0.06105
 Alpha virt. eigenvalues --    0.06590   0.07131   0.09635   0.11307   0.11630
 Alpha virt. eigenvalues --    0.12244   0.13536   0.14664   0.15314   0.15632

 Mulliken charges:
               1
     1  O   -3.036396
     2  C    1.296601
     3  C   -2.435365
     4  N   -1.710390
     5  C   -2.187092
     6  C   -0.405508
     7  H    0.676159
     8  H    1.605373
     9  H    1.390231
    10  H    1.371575
    11  H    1.358536
    12  H    1.397240
    13  H    0.679035
 Sum of Mulliken charges =  -0.00000

 Dipole moment (field-independent basis, Debye):
    X=             -0.9014    Y=              1.0989    Z=             -1.8938  Tot=              2.3678

 Test job not archived.
 1\1\GINC-SE080\SP\RHF\Aug-CC-pVDZ\C4H7N1O1\OHZDE\09-Apr-2025\0\\#t hf
 aug-cc-pvdz iop(5/13=1,5/36=2,99/5=2) pseudo=read geom=check guess=(re
 ad,tcheck) scf=(maxcycle=1)\\title\\0,1\O,0,-1.42462266,-0.75353027,1.
 29317724\C,0,-1.14319869,-0.17045764,0.01762151\C,0,-0.31759074,1.1311
 2194,0.02753181\N,0,0.98194637,0.6118667,-0.5312386\C,0,1.15738939,-0.
 81685139,-0.19039149\C,0,-0.13857348,-0.89108771,-0.921918\H,0,-0.5883
 7354,-1.11351346,1.6439079\H,0,-2.12939873,-0.04746971,-0.4424347\H,0,
 -0.1572579,1.55941389,1.02703714\H,0,-0.71205506,1.90054974,-0.6438441

 Normal termination of Gaussian 16 at Wed Apr  9 03:06:56 2025.
