 Gaussian 16, Revision C.01,

 ----------------------------------------------------------------------
 #t hf aug-cc-pvdz symm=none int=(grid=ultrafine) guess=(read,tcheck) s
 table=(opt,rrhf)
 ----------------------------------------------------------------------
 -----
 title
 -----
 Symbolic Z-matrix:
 Charge =  0 Multiplicity = 1

 SCF Done:  E(RHF) =  -316.520500426     A.U. after   16 cycles
 Normal termination of Gaussian 16 at Wed Apr  9 18:33:08 2025.
 Gaussian 16:  ES64L-G16RevC.01  3-Jul-2019

 ----------------------------------------------------------------------
 #t hf aug-cc-pvdz iop(5/13=1,5/36=2,99/5=2) pseudo=read geom=check gue
 ss=(read,tcheck) scf=(maxcycle=1)
 ----------------------------------------------------------------------
 -----
 title
 -----
 Structure from the checkpoint file:  "Grambow2020_wb97xd3_007262_reverse_mol2.chk"
 Charge =  0 Multiplicity = 1

                         Standard orientation:
 ---------------------------------------------------------------------
 Center     Atomic      Atomic             Coordinates (Angstroms)
 Number     Number       Type             X           Y           Z
 ---------------------------------------------------------------------
      1          7           0       -2.715852   -0.969301   -0.221333
      2          6           0       -1.746429   -0.380874   -0.050236
      3          6           0       -0.539901    0.416879    0.121509
      4          7           0        0.535051   -0.311950    0.647271
      5          6           0        1.647497   -0.307132    0.145628
      6          6           0        2.851171   -0.368963   -0.335627
      7          7           0       -0.476937    1.652899   -0.109006
      8          1           0        3.129002   -1.176185   -0.998244
      9          1           0        3.570985    0.395748   -0.080741
     10          1           0       -1.369843    2.019447   -0.427175
 ---------------------------------------------------------------------

 SCF Done:  E(RHF) =  -317.935552386     A.U. after    2 cycles

 The electronic state is 1-A.
 Alpha  occ. eigenvalues --  -15.79730 -15.79494 -15.78830 -11.54725 -11.51748
 Alpha  occ. eigenvalues --  -11.45689 -11.42414  -1.51313  -1.34733  -1.31193
 Alpha  occ. eigenvalues --   -1.13242  -0.98562  -0.81165  -0.72472  -0.66242
 Alpha  occ. eigenvalues --   -0.65143  -0.61312  -0.56832  -0.51994  -0.49155
 Alpha  occ. eigenvalues --   -0.46543  -0.43911  -0.41612  -0.34657
 Alpha virt. eigenvalues --    0.02725   0.05117   0.05586   0.07854   0.08276
 Alpha virt. eigenvalues --    0.09518   0.10378   0.11019   0.11557   0.11627
 Alpha virt. eigenvalues --    0.12099   0.12870   0.13509   0.14138   0.14743

 Mulliken charges:
               1
     1  N   -2.337594
     2  C    1.479799
     3  C    4.133154
     4  N   -2.917677
     5  C    1.867276
     6  C   -2.553774
     7  N   -3.059840
     8  H    1.316818
     9  H    1.274160
    10  H    0.797679
 Sum of Mulliken charges =   0.00000

 Dipole moment (field-independent basis, Debye):
    X=              2.3025    Y=              0.8116    Z=             -0.7454  Tot=              2.5526

 Test job not archived.
 1\1\GINC-SE224\SP\RHF\Aug-CC-pVDZ\C4H3N3\OHZDE\09-Apr-2025\0\\#t hf au
 g-cc-pvdz iop(5/13=1,5/36=2,99/5=2) pseudo=read geom=check guess=(read
 ,tcheck) scf=(maxcycle=1)\\title\\0,1\N,0,3.14263562,-1.1665385,0.4301
 2362\C,0,2.21108979,-0.57687265,0.11418475\C,0,1.05311269,0.22841479,-
 0.2494337\N,0,-0.03244945,-0.53488698,-0.69894873\C,0,-1.16378478,-0.3
 9982989,-0.26186169\C,0,-2.38851769,-0.33016037,0.16173768\N,0,1.04035
 916,1.48714925,-0.23294701\H,0,-2.73324352,-1.0011994,0.93551394\H,0,-
 3.05884515,0.40872889,-0.25369682\H,0,1.93556632,1.86586886,0.06377695

 Normal termination of Gaussian 16 at Wed Apr  9 18:33:11 2025.
