 Gaussian 16, Revision C.01,

 ----------------------------------------------------------------------
 #t hf aug-cc-pvdz symm=none int=(grid=ultrafine) guess=(read,tcheck) s
 table=(opt,rrhf)
 ----------------------------------------------------------------------
 -----
 title
 -----
 Symbolic Z-matrix:
 Charge =  0 Multiplicity = 1

 SCF Done:  E(RHF) =  -269.489154062     A.U. after   15 cycles
 Normal termination of Gaussian 16 at Wed Apr  9 19:07:59 2025.
 Gaussian 16:  ES64L-G16RevC.01  3-Jul-2019

 ----------------------------------------------------------------------
 #t hf aug-cc-pvdz iop(5/13=1,5/36=2,99/5=2) pseudo=read geom=check gue
 ss=(read,tcheck) scf=(maxcycle=1)
 ----------------------------------------------------------------------
 -----
 title
 -----
 Structure from the checkpoint file:  "Grambow2020_wb97xd3_008147_forward_mol1.chk"
 Charge =  0 Multiplicity = 1

                         Standard orientation:
 ---------------------------------------------------------------------
 Center     Atomic      Atomic             Coordinates (Angstroms)
 Number     Number       Type             X           Y           Z
 ---------------------------------------------------------------------
      1          6           0       -2.185869   -0.224125   -0.089905
      2          6           0       -0.705445   -0.095963    0.012584
      3          6           0        0.331734   -1.268185    0.000519
      4          6           0        1.278751   -0.315502    0.701628
      5          6           0        1.369841    0.029937   -0.767856
      6          6           0        0.173895    0.966388   -0.589665
      7          6           0        0.169668    0.745947    0.906543
      8          1           0       -2.673405    0.749404   -0.001578
      9          1           0       -2.466833   -0.660944   -1.050949
     10          1           0       -2.573720   -0.870499    0.700178
     11          1           0        0.912593   -1.032310   -1.246368
     12          1           0        2.119260   -0.602371    1.320421
     13          1           0        2.306001    0.133975   -1.307835
     14          1           0       -0.149109    1.822755   -1.162951
     15          1           0       -0.070235    1.429013    1.705997
 ---------------------------------------------------------------------

 SCF Done:  E(RHF) =  -270.821625133     A.U. after    2 cycles

 The electronic state is 1-A.
 Alpha  occ. eigenvalues --  -11.54236 -11.48486 -11.43169 -11.41622 -11.40351
 Alpha  occ. eigenvalues --  -11.38694 -11.35596  -1.54006  -1.12165  -1.04213
 Alpha  occ. eigenvalues --   -0.96159  -0.90014  -0.77677  -0.72114  -0.69586
 Alpha  occ. eigenvalues --   -0.61838  -0.58767  -0.54370  -0.52633  -0.52489
 Alpha  occ. eigenvalues --   -0.45224  -0.43691  -0.38989  -0.33116  -0.25958
 Alpha virt. eigenvalues --    0.03766   0.04603   0.04927   0.05390   0.05817
 Alpha virt. eigenvalues --    0.06437   0.07012   0.08201   0.09574   0.11053
 Alpha virt. eigenvalues --    0.11997   0.12364   0.12766   0.13023   0.13393

 Mulliken charges:
               1
     1  C   -5.117118
     2  C    2.815810
     3  C   -1.205303
     4  C   -2.066414
     5  C   -1.343392
     6  C   -1.720043
     7  C   -0.712226
     8  H    1.066297
     9  H    1.276952
    10  H    1.226722
    11  H    0.874993
    12  H    1.345946
    13  H    1.106373
    14  H    1.283172
    15  H    1.168232
 Sum of Mulliken charges =  -0.00000

 Dipole moment (field-independent basis, Debye):
    X=              0.6540    Y=              2.7701    Z=             -0.3631  Tot=              2.8694

 Test job not archived.
 1\1\GINC-SE118\SP\RHF\Aug-CC-pVDZ\C7H8\OHZDE\09-Apr-2025\0\\#t hf aug-
 cc-pvdz iop(5/13=1,5/36=2,99/5=2) pseudo=read geom=check guess=(read,t
 check) scf=(maxcycle=1)\\title\\0,1\C,0,2.05675395,0.03937081,-0.00501
 585\C,0,0.57157928,-0.0198173,-0.10165139\C,0,-0.27766609,-1.2213325,-
 0.63563012\C,0,-1.3755409,-0.21020155,-0.89694368\C,0,-1.47694288,-0.5
 4841513,0.57354536\C,0,-0.44004124,0.53794361,0.86274511\C,0,-0.443939
 01,0.9862255,-0.58164995\H,0,2.39041728,1.01602304,0.35285313\H,0,2.42
 623505,-0.72203876,0.68570623\H,0,2.51517169,-0.13926322,-0.9799011\H,

 Normal termination of Gaussian 16 at Wed Apr  9 19:08:04 2025.
