 Gaussian 16, Revision C.01,

 ----------------------------------------------------------------------
 #t hf aug-cc-pvdz symm=none int=(grid=ultrafine) guess=(read,tcheck) s
 table=(opt,rrhf)
 ----------------------------------------------------------------------
 -----
 title
 -----
 Symbolic Z-matrix:
 Charge =  0 Multiplicity = 1

 SCF Done:  E(RHF) =  -308.848527496     A.U. after   14 cycles

 1\1\GINC-SE141\Stability\RHF\Aug-CC-pVDZ\C6H12O1\OHZDE\09-Apr-2025\0\\
 #t hf aug-cc-pvdz symm=none int=(grid=ultrafine) guess=(read,tcheck) s
 table=(opt,rrhf)\\title\\0,1\C,0,1.93016828,1.09019766,-0.11596027\C,0
 ,1.1128829,-0.04140643,0.42503246\C,0,1.43804363,-1.38607249,0.1060313
 5\C,0,-0.71477523,0.40008549,-0.5835707\C,0,-1.72686186,-0.71956778,-0
 .7301334\C,0,-1.95739092,0.37681324,0.23430905\O,0,-1.89641659,0.02597
 406,1.59497872\H,0,1.42225178,2.04858522,-0.02243567\H,0,2.8658252,1.1
 202923,0.448564\H,0,2.18012533,0.92079992,-1.16374694\H,0,0.6297712,0.

 Normal termination of Gaussian 16 at Wed Apr  9 03:53:06 2025.
 Gaussian 16:  ES64L-G16RevC.01  3-Jul-2019

 ----------------------------------------------------------------------
 #t hf aug-cc-pvdz iop(5/13=1,5/36=2,99/5=2) pseudo=read geom=check gue
 ss=(read,tcheck) scf=(maxcycle=1)
 ----------------------------------------------------------------------
 -----
 title
 -----
 Structure from the checkpoint file:  "Grambow2020_wb97xd3_008297_forward_mol1.chk"
 Charge =  0 Multiplicity = 1

                         Standard orientation:
 ---------------------------------------------------------------------
 Center     Atomic      Atomic             Coordinates (Angstroms)
 Number     Number       Type             X           Y           Z
 ---------------------------------------------------------------------
      1          6           0       -2.195893   -0.993965   -0.396495
      2          6           0       -1.303651   -0.108972    0.417045
      3          6           0       -1.636176    1.254763    0.629818
      4          6           0        0.395233   -0.128510   -0.873668
      5          6           0        1.406305    0.991713   -0.724485
      6          6           0        1.719432   -0.369215   -0.239539
      7          8           0        1.812977   -0.521877    1.155513
      8          1           0       -1.698920   -1.913027   -0.702396
      9          1           0       -3.065211   -1.240560    0.218750
     10          1           0       -2.554779   -0.471331   -1.283673
     11          1           0       -0.722896   -0.585129    1.196275
     12          1           0       -2.400411    1.719078    0.022493
     13          1           0       -0.578889    0.810051   -0.220755
     14          1           0       -1.254215    1.775460    1.494158
     15          1           0        0.201074   -0.522751   -1.865634
     16          1           0        1.918883    1.385345   -1.593314
     17          1           0        1.183751    1.738842    0.040439
     18          1           0        2.462800   -0.944759   -0.787757
     19          1           0        1.693500   -1.451083    1.361250
 ---------------------------------------------------------------------

 SCF Done:  E(RHF) =  -310.386704784     A.U. after    2 cycles

 The electronic state is 1-A.
 Alpha  occ. eigenvalues --  -21.06907 -11.48736 -11.45857 -11.39640 -11.39091
 Alpha  occ. eigenvalues --  -11.36234 -11.34628  -1.71616  -1.29769  -1.20900
 Alpha  occ. eigenvalues --   -1.01775  -0.84554  -0.83356  -0.79423  -0.69385
 Alpha  occ. eigenvalues --   -0.67027  -0.63247  -0.59110  -0.56984  -0.55452
 Alpha  occ. eigenvalues --   -0.53698  -0.49994  -0.47743  -0.46871  -0.39827
 Alpha  occ. eigenvalues --   -0.37165  -0.30514  -0.23593
 Alpha virt. eigenvalues --    0.03876   0.04838   0.04960   0.05401   0.05689
 Alpha virt. eigenvalues --    0.05811   0.06444   0.06563   0.07175   0.08290
 Alpha virt. eigenvalues --    0.09248   0.10036   0.12170   0.12472   0.13677

 Mulliken charges:
               1
     1  C   -4.322056
     2  C   -2.381362
     3  C   -3.738769
     4  C   -1.626619
     5  C   -3.118109
     6  C    0.802400
     7  O   -3.083699
     8  H    1.326649
     9  H    1.187367
    10  H    1.299122
    11  H    1.538912
    12  H    1.112017
    13  H    4.208923
    14  H    1.145428
    15  H    1.222873
    16  H    1.122245
    17  H    1.102427
    18  H    1.434039
    19  H    0.768212
 Sum of Mulliken charges =   0.00000

 Dipole moment (field-independent basis, Debye):
    X=             -0.6428    Y=             -1.6427    Z=             -0.2841  Tot=              1.7867

 Test job not archived.
 1\1\GINC-SE141\SP\RHF\Aug-CC-pVDZ\C6H12O1\OHZDE\09-Apr-2025\0\\#t hf a
 ug-cc-pvdz iop(5/13=1,5/36=2,99/5=2) pseudo=read geom=check guess=(rea
 d,tcheck) scf=(maxcycle=1)\\title\\0,1\C,0,1.93016828,1.09019766,-0.11
 596027\C,0,1.1128829,-0.04140643,0.42503246\C,0,1.43804363,-1.38607249
 ,0.10603135\C,0,-0.71477523,0.40008549,-0.5835707\C,0,-1.72686186,-0.7
 1956778,-0.7301334\C,0,-1.95739092,0.37681324,0.23430905\O,0,-1.896416
 59,0.02597406,1.59497872\H,0,1.42225178,2.04858522,-0.02243567\H,0,2.8
 658252,1.1202923,0.448564\H,0,2.18012533,0.92079992,-1.16374694\H,0,0.

 Normal termination of Gaussian 16 at Wed Apr  9 03:53:14 2025.
