 Gaussian 16, Revision C.01,

 ----------------------------------------------------------------------
 #t hf aug-cc-pvdz symm=none int=(grid=ultrafine) guess=(read,tcheck) s
 table=(opt,rrhf)
 ----------------------------------------------------------------------
 -----
 title
 -----
 Symbolic Z-matrix:
 Charge =  0 Multiplicity = 1

 SCF Done:  E(RHF) =  -360.795857156     A.U. after   15 cycles
 Normal termination of Gaussian 16 at Wed Apr  9 18:13:24 2025.
 Gaussian 16:  ES64L-G16RevC.01  3-Jul-2019

 ----------------------------------------------------------------------
 #t hf aug-cc-pvdz iop(5/13=1,5/36=2,99/5=2) pseudo=read geom=check gue
 ss=(read,tcheck) scf=(maxcycle=1)
 ----------------------------------------------------------------------
 -----
 title
 -----
 Structure from the checkpoint file:  "Grambow2020_wb97xd3_006772_reverse_mol1.chk"
 Charge =  0 Multiplicity = 1

                         Standard orientation:
 ---------------------------------------------------------------------
 Center     Atomic      Atomic             Coordinates (Angstroms)
 Number     Number       Type             X           Y           Z
 ---------------------------------------------------------------------
      1          6           0       -2.498186    0.176577    0.135097
      2          7           0       -1.202139   -0.157998   -0.424728
      3          6           0       -0.379936   -0.916640    0.275318
      4          8           0        0.781719   -1.320429   -0.297625
      5          6           0        1.850715   -0.389388   -0.065590
      6          6           0        1.165910    0.867056    0.496959
      7          8           0        0.542870    1.604640   -0.355242
      8          1           0       -2.418836    1.004760    0.844772
      9          1           0       -3.170880    0.472344   -0.668144
     10          1           0       -2.924958   -0.687656    0.645283
     11          1           0       -0.803740   -1.582881    1.026189
     12          1           0        2.557779   -0.837556    0.639389
     13          1           0        2.343804   -0.181446   -1.015588
     14          1           0        0.327907    0.165749    1.161476
     15          1           0        1.705380    1.381176    1.309711
     16          1           0       -0.629216    0.672181   -0.797767
 ---------------------------------------------------------------------

 SCF Done:  E(RHF) =  -362.462694404     A.U. after    2 cycles

 The electronic state is 1-A.
 Alpha  occ. eigenvalues --  -21.08209 -20.97217 -15.76062 -11.52125 -11.47034
 Alpha  occ. eigenvalues --  -11.41292 -11.41137  -1.82547  -1.63867  -1.42262
 Alpha  occ. eigenvalues --   -1.08299  -1.02794  -0.93066  -0.82184  -0.73001
 Alpha  occ. eigenvalues --   -0.68788  -0.65725  -0.63330  -0.61274  -0.56524
 Alpha  occ. eigenvalues --   -0.55323  -0.50896  -0.46306  -0.42229  -0.39698
 Alpha  occ. eigenvalues --   -0.33995  -0.26889  -0.24960
 Alpha virt. eigenvalues --    0.03413   0.04682   0.04967   0.05714   0.05965
 Alpha virt. eigenvalues --    0.06485   0.07121   0.07913   0.09691   0.09966
 Alpha virt. eigenvalues --    0.10759   0.11710   0.12587   0.13341   0.14562

 Mulliken charges:
               1
     1  C   -3.199469
     2  N   -2.457882
     3  C    1.249677
     4  O   -3.251952
     5  C   -1.696352
     6  C    0.208543
     7  O   -2.943665
     8  H    1.384033
     9  H    1.332184
    10  H    1.320618
    11  H    1.820448
    12  H    1.489802
    13  H    1.387914
    14  H    1.121056
    15  H    1.354152
    16  H    0.880893
 Sum of Mulliken charges =  -0.00000

 Dipole moment (field-independent basis, Debye):
    X=             -1.6791    Y=             -1.4434    Z=              0.8137  Tot=              2.3590

 Test job not archived.
 1\1\GINC-SE115\SP\RHF\Aug-CC-pVDZ\C4H9N1O2\OHZDE\09-Apr-2025\0\\#t hf
 aug-cc-pvdz iop(5/13=1,5/36=2,99/5=2) pseudo=read geom=check guess=(re
 ad,tcheck) scf=(maxcycle=1)\\title\\0,1\C,0,2.04109042,-0.59379247,-1.
 04707141\N,0,0.8687299,0.25040145,-0.91294277\C,0,0.52966873,0.6879114
 8,0.28507266\O,0,-0.49783252,1.56753218,0.39119253\C,0,-1.76162619,0.9
 0470114,0.5552399\C,0,-1.47752838,-0.57276589,0.23830151\O,0,-1.342587
 91,-0.87119268,-1.00716568\H,0,1.811181,-1.6311699,-0.78859208\H,0,2.3
 8976735,-0.56309082,-2.07793211\H,0,2.84164677,-0.23607077,-0.3986372\

 Normal termination of Gaussian 16 at Wed Apr  9 18:13:30 2025.
