 Gaussian 16, Revision C.01,

 ----------------------------------------------------------------------
 #t hf aug-cc-pvdz symm=none int=(grid=ultrafine) guess=(read,tcheck) s
 table=(opt,rrhf)
 ----------------------------------------------------------------------
 -----
 title
 -----
 Symbolic Z-matrix:
 Charge =  0 Multiplicity = 1

 SCF Done:  E(RHF) =  -281.110262312     A.U. after   20 cycles
 Normal termination of Gaussian 16 at Wed Apr  9 03:05:19 2025.
 Gaussian 16:  ES64L-G16RevC.01  3-Jul-2019

 ----------------------------------------------------------------------
 #t hf aug-cc-pvdz iop(5/13=1,5/36=2,99/5=2) pseudo=read geom=check gue
 ss=(read,tcheck) scf=(maxcycle=1)
 ----------------------------------------------------------------------
 -----
 title
 -----
 Structure from the checkpoint file:  "Grambow2020_b97d3_006504_forward_mol1.chk"
 Charge =  0 Multiplicity = 1

                         Standard orientation:
 ---------------------------------------------------------------------
 Center     Atomic      Atomic             Coordinates (Angstroms)
 Number     Number       Type             X           Y           Z
 ---------------------------------------------------------------------
      1          8           0        0.592473    0.997335   -0.141651
      2          6           0       -0.212682    0.039461    0.463212
      3          6           0       -1.531416   -0.069446    0.020074
      4          6           0       -2.725785   -0.329767   -0.129549
      5          6           0        1.449478   -0.070615    0.038052
      6          7           0        2.449916   -0.699070   -0.128430
      7          1           0       -3.766765   -0.502983   -0.318517
 ---------------------------------------------------------------------

 SCF Done:  E(RHF) =  -282.310038353     A.U. after    2 cycles

 The electronic state is 1-A.
 Alpha  occ. eigenvalues --  -21.20263 -15.76395 -11.55431 -11.51280 -11.50090
 Alpha  occ. eigenvalues --  -11.47208  -1.89998  -1.27676  -1.19534  -0.98461
 Alpha  occ. eigenvalues --   -0.81496  -0.77206  -0.66526  -0.61332  -0.52297
 Alpha  occ. eigenvalues --   -0.50500  -0.46550  -0.42179  -0.37950  -0.31705
 Alpha virt. eigenvalues --    0.00442   0.01721   0.06035   0.08402   0.09111
 Alpha virt. eigenvalues --    0.09579   0.11080   0.11359   0.11869   0.12676
 Alpha virt. eigenvalues --    0.13072   0.14976   0.15402   0.16179   0.17249

 Mulliken charges:
               1
     1  O   -2.336082
     2  C   -0.345074
     3  C    2.790707
     4  C   -2.447082
     5  C    4.165247
     6  N   -2.656561
     7  H    0.828846
 Sum of Mulliken charges =  -0.00000

 Dipole moment (field-independent basis, Debye):
    X=             -5.4492    Y=              2.3765    Z=             -0.7769  Tot=              5.9954

 Test job not archived.
 1\1\GINC-SE040\SP\RHF\Aug-CC-pVDZ\C4H1N1O1\OHZDE\09-Apr-2025\0\\#t hf
 aug-cc-pvdz iop(5/13=1,5/36=2,99/5=2) pseudo=read geom=check guess=(re
 ad,tcheck) scf=(maxcycle=1)\\title\\0,1\O,0,-1.1541793,-1.06229695,-0.
 01191544\C,0,-0.3084358,-0.08886637,0.50655105\C,0,1.00152879,-0.04914
 917,0.02727346\C,0,2.19856753,0.16539196,-0.16699743\C,0,-1.97687227,0
 .03997178,0.1123729\N,0,-2.96345676,0.68430537,-0.07479648\H,0,3.23896
 481,0.29482439,-0.39099106\\Version=ES64L-G16RevC.01\State=1-A\HF=-282
 .3100384\RMSD=8.009e-01\Dipole=2.1092452,-1.0157985,-0.2881926\Quadrup

 Normal termination of Gaussian 16 at Wed Apr  9 03:05:21 2025.
