 Gaussian 16, Revision C.01,

 ----------------------------------------------------------------------
 #t hf aug-cc-pvdz symm=none int=(grid=ultrafine) guess=(read,tcheck) s
 table=(opt,rrhf)
 ----------------------------------------------------------------------
 -----
 title
 -----
 Symbolic Z-matrix:
 Charge =  0 Multiplicity = 1

 SCF Done:  E(RHF) =  -374.397622053     A.U. after   17 cycles
 Normal termination of Gaussian 16 at Wed Apr  9 18:37:14 2025.
 Gaussian 16:  ES64L-G16RevC.01  3-Jul-2019

 ----------------------------------------------------------------------
 #t hf aug-cc-pvdz iop(5/13=1,5/36=2,99/5=2) pseudo=read geom=check gue
 ss=(read,tcheck) scf=(maxcycle=1)
 ----------------------------------------------------------------------
 -----
 title
 -----
 Structure from the checkpoint file:  "Grambow2020_wb97xd3_007334_forward_mol1.chk"
 Charge =  0 Multiplicity = 1

                         Standard orientation:
 ---------------------------------------------------------------------
 Center     Atomic      Atomic             Coordinates (Angstroms)
 Number     Number       Type             X           Y           Z
 ---------------------------------------------------------------------
      1          7           0        2.281446   -0.811000    0.461547
      2          6           0        1.640000    0.224509   -0.090282
      3          6           0        1.259271    1.251324   -0.619761
      4          8           0       -1.550161    0.983196    0.853078
      5          6           0       -1.396341    0.034632    0.148131
      6          8           0       -2.033637   -0.950919   -0.305702
      7          7           0       -0.222898   -0.480700   -0.517656
      8          1           0        1.686151   -1.581458    0.721978
      9          1           0        2.995414   -0.577287    1.131819
     10          1           0        0.853361    2.178472   -0.950929
     11          1           0       -0.291952   -0.298830   -1.517638
 ---------------------------------------------------------------------

 SCF Done:  E(RHF) =  -376.020653248     A.U. after    2 cycles

 The electronic state is 1-A.
 Alpha  occ. eigenvalues --  -21.05653 -21.04539 -15.87335 -15.82507 -11.52840
 Alpha  occ. eigenvalues --  -11.50712 -11.45081  -1.80183  -1.65073  -1.42920
 Alpha  occ. eigenvalues --   -1.29336  -1.10769  -0.81714  -0.80083  -0.74631
 Alpha  occ. eigenvalues --   -0.69788  -0.65119  -0.59225  -0.56495  -0.53774
 Alpha  occ. eigenvalues --   -0.48986  -0.44274  -0.36171  -0.31094  -0.29960
 Alpha  occ. eigenvalues --   -0.29218
 Alpha virt. eigenvalues --    0.02363   0.04269   0.05445   0.05845   0.08478
 Alpha virt. eigenvalues --    0.10267   0.10677   0.11325   0.12089   0.12814
 Alpha virt. eigenvalues --    0.12908   0.13791   0.14386   0.15349   0.16233

 Mulliken charges:
               1
     1  N   -3.094885
     2  C    1.815618
     3  C   -0.867198
     4  O   -2.611933
     5  C    5.416633
     6  O   -2.166904
     7  N   -1.561170
     8  H    0.744536
     9  H    0.704903
    10  H    0.830719
    11  H    0.789680
 Sum of Mulliken charges =  -0.00000

 Dipole moment (field-independent basis, Debye):
    X=              3.4559    Y=             -0.6003    Z=             -0.3004  Tot=              3.5205

 Test job not archived.
 1\1\GINC-SE192\SP\RHF\Aug-CC-pVDZ\C3H4N2O2\OHZDE\09-Apr-2025\0\\#t hf
 aug-cc-pvdz iop(5/13=1,5/36=2,99/5=2) pseudo=read geom=check guess=(re
 ad,tcheck) scf=(maxcycle=1)\\title\\0,1\N,0,-1.93864734,-0.54010862,-0
 .37214492\C,0,-1.11764521,0.33411099,0.21941331\C,0,-0.55734586,1.2286
 9643,0.82392533\O,0,1.99901803,0.90719555,-1.04575277\C,0,1.82320982,-
 0.11562717,-0.45982776\O,0,2.39186771,-1.21533274,-0.23466477\N,0,0.68
 837128,-0.60617308,0.28670682\H,0,-1.47403304,-1.31816031,-0.81325267\
 H,0,-2.69733983,-0.14065328,-0.89983631\H,0,-0.00825311,2.0521204,1.21

 Normal termination of Gaussian 16 at Wed Apr  9 18:37:18 2025.
