 Gaussian 16, Revision C.01,

 ----------------------------------------------------------------------
 #t hf aug-cc-pvdz symm=none int=(grid=ultrafine) guess=(read,tcheck) s
 table=(opt,rrhf)
 ----------------------------------------------------------------------
 -----
 title
 -----
 Symbolic Z-matrix:
 Charge =  0 Multiplicity = 1

 SCF Done:  E(RHF) =  -302.876983025     A.U. after   15 cycles
 Normal termination of Gaussian 16 at Wed Apr  9 19:24:11 2025.
 Gaussian 16:  ES64L-G16RevC.01  3-Jul-2019

 ----------------------------------------------------------------------
 #t hf aug-cc-pvdz iop(5/13=1,5/36=2,99/5=2) pseudo=read geom=check gue
 ss=(read,tcheck) scf=(maxcycle=1)
 ----------------------------------------------------------------------
 -----
 title
 -----
 Structure from the checkpoint file:  "Grambow2020_wb97xd3_008916_reverse_mol2.chk"
 Charge =  0 Multiplicity = 1

                         Standard orientation:
 ---------------------------------------------------------------------
 Center     Atomic      Atomic             Coordinates (Angstroms)
 Number     Number       Type             X           Y           Z
 ---------------------------------------------------------------------
      1          6           0        2.768193   -0.879319   -0.002699
      2          7           0        1.405248   -0.419450    0.096969
      3          6           0        1.183226    0.815213   -0.054728
      4          6           0       -0.142408    1.448398    0.015006
      5          6           0       -1.348286    0.872383    0.026617
      6          6           0       -1.647581   -0.560864   -0.043107
      7          7           0       -2.861562   -0.931665    0.007957
      8          1           0        3.045846   -1.378436    0.928140
      9          1           0        2.835932   -1.626388   -0.796472
     10          1           0        3.487088   -0.074538   -0.206451
     11          1           0        2.013761    1.511239   -0.243970
     12          1           0       -0.109380    2.533092    0.045904
     13          1           0       -2.229591    1.503883    0.081217
     14          1           0       -0.800364   -1.240346   -0.133750
     15          1           0       -2.927956   -1.945561   -0.055647
 ---------------------------------------------------------------------

 SCF Done:  E(RHF) =  -304.312608814     A.U. after    2 cycles

 The electronic state is 1-A.
 Alpha  occ. eigenvalues --  -15.73921 -15.73820 -11.47834 -11.44242 -11.43819
 Alpha  occ. eigenvalues --  -11.39166 -11.38748  -1.40964  -1.34373  -1.17197
 Alpha  occ. eigenvalues --   -1.02716  -0.92884  -0.82181  -0.75889  -0.67097
 Alpha  occ. eigenvalues --   -0.65576  -0.60106  -0.59859  -0.57722  -0.51921
 Alpha  occ. eigenvalues --   -0.48352  -0.47909  -0.42842  -0.39995  -0.36358
 Alpha  occ. eigenvalues --   -0.32060
 Alpha virt. eigenvalues --    0.03550   0.04806   0.05350   0.05736   0.06180
 Alpha virt. eigenvalues --    0.06450   0.07218   0.07737   0.08874   0.10774
 Alpha virt. eigenvalues --    0.12272   0.12663   0.13304   0.14290   0.14616

 Mulliken charges:
               1
     1  C   -3.433636
     2  N   -2.945920
     3  C   -0.761827
     4  C    0.252950
     5  C    0.509246
     6  C   -0.775377
     7  N   -3.240770
     8  H    1.347234
     9  H    1.349476
    10  H    1.206507
    11  H    1.613031
    12  H    1.378520
    13  H    1.344197
    14  H    1.444386
    15  H    0.711982
 Sum of Mulliken charges =   0.00000

 Dipole moment (field-independent basis, Debye):
    X=              2.4430    Y=              0.1326    Z=             -0.3186  Tot=              2.4673

 Test job not archived.
 1\1\GINC-SE117\SP\RHF\Aug-CC-pVDZ\C5H8N2\OHZDE\09-Apr-2025\0\\#t hf au
 g-cc-pvdz iop(5/13=1,5/36=2,99/5=2) pseudo=read geom=check guess=(read
 ,tcheck) scf=(maxcycle=1)\\title\\0,1\C,0,-1.30426083,-2.02377307,0.97
 809341\N,0,-0.59891706,-0.84846361,0.53068907\C,0,0.66213886,-0.900736
 77,0.46983063\C,0,1.53191622,0.20319778,0.03634753\C,0,1.19741395,1.34
 944948,-0.56389148\C,0,-0.14558675,1.78637594,-0.95642224\N,0,-0.27977
 706,2.92826408,-1.49673175\H,0,-1.90084475,-1.76957715,1.85680924\H,0,
 -2.00275379,-2.33897944,0.19993658\H,0,-0.64126069,-2.86358847,1.22535

 Normal termination of Gaussian 16 at Wed Apr  9 19:24:16 2025.
