 Gaussian 16, Revision C.01,

 ----------------------------------------------------------------------
 #t hf aug-cc-pvdz symm=none int=(grid=ultrafine) guess=(read,tcheck) s
 table=(opt,rrhf)
 ----------------------------------------------------------------------
 -----
 title
 -----
 Symbolic Z-matrix:
 Charge =  0 Multiplicity = 1

 SCF Done:  E(RHF) =  -281.617030257     A.U. after   15 cycles
 Normal termination of Gaussian 16 at Wed Apr  9 03:07:36 2025.
 Gaussian 16:  ES64L-G16RevC.01  3-Jul-2019

 ----------------------------------------------------------------------
 #t hf aug-cc-pvdz iop(5/13=1,5/36=2,99/5=2) pseudo=read geom=check gue
 ss=(read,tcheck) scf=(maxcycle=1)
 ----------------------------------------------------------------------
 -----
 title
 -----
 Structure from the checkpoint file:  "Grambow2020_b97d3_006585_reverse_mol1.chk"
 Charge =  0 Multiplicity = 1

                         Standard orientation:
 ---------------------------------------------------------------------
 Center     Atomic      Atomic             Coordinates (Angstroms)
 Number     Number       Type             X           Y           Z
 ---------------------------------------------------------------------
      1          8           0       -2.165059   -0.089453    0.033182
      2          6           0       -1.034539   -0.393619    0.022005
      3          7           0        0.231576    0.986940   -0.130672
      4          6           0        1.361167    0.337296    0.067670
      5          8           0        1.386971   -0.947507   -0.040438
      6          1           0        0.150451   -1.098673   -0.022674
      7          1           0        0.195108    1.977173    0.108700
      8          1           0        2.298347    0.846538    0.348677
 ---------------------------------------------------------------------

 SCF Done:  E(RHF) =  -282.841277990     A.U. after    2 cycles

 The electronic state is 1-A.
 Alpha  occ. eigenvalues --  -21.13246 -21.06781 -15.75466 -11.52264 -11.49511
 Alpha  occ. eigenvalues --   -1.77053  -1.74812  -1.32354  -0.91614  -0.80114
 Alpha  occ. eigenvalues --   -0.70317  -0.62908  -0.57571  -0.54452  -0.51499
 Alpha  occ. eigenvalues --   -0.48402  -0.40972  -0.33709  -0.28557
 Alpha virt. eigenvalues --    0.03393   0.05417   0.06332   0.09673   0.10540
 Alpha virt. eigenvalues --    0.10684   0.11127   0.11471   0.14708   0.15475
 Alpha virt. eigenvalues --    0.15540   0.16202   0.17833   0.19175   0.20664

 Mulliken charges:
               1
     1  O   -2.135706
     2  C    0.911937
     3  N   -2.266122
     4  C    1.970177
     5  O   -2.927828
     6  H    2.089050
     7  H    0.711886
     8  H    1.646607
 Sum of Mulliken charges =   0.00000

 Dipole moment (field-independent basis, Debye):
    X=              0.3130    Y=              1.2309    Z=              0.4882  Tot=              1.3607

 Test job not archived.
 1\1\GINC-SE129\SP\RHF\Aug-CC-pVDZ\C2H3N1O2\OHZDE\09-Apr-2025\0\\#t hf
 aug-cc-pvdz iop(5/13=1,5/36=2,99/5=2) pseudo=read geom=check guess=(re
 ad,tcheck) scf=(maxcycle=1)\\title\\0,1\O,0,-2.36840249,0.64899071,-0.
 29994174\C,0,-1.26930383,0.36976103,-0.59102652\N,0,-0.02420057,0.1871
 056,0.80491606\C,0,1.0244785,-0.29326584,0.1670548\O,0,1.09356972,-0.1
 9143427,-1.11666284\H,0,-0.10385574,0.11013413,-1.28212937\H,0,-0.1336
 2645,-0.03790316,1.79314052\H,0,1.85123284,-0.80760921,0.6852501\\Vers
 ion=ES64L-G16RevC.01\State=1-A\HF=-282.841278\RMSD=5.281e-02\Dipole=0.

 Normal termination of Gaussian 16 at Wed Apr  9 03:07:38 2025.
