 Gaussian 16, Revision C.01,

 ----------------------------------------------------------------------
 #t hf aug-cc-pvdz symm=none int=(grid=ultrafine) guess=(read,tcheck) s
 table=(opt,rrhf)
 ----------------------------------------------------------------------
 -----
 title
 -----
 Symbolic Z-matrix:
 Charge =  0 Multiplicity = 1

 SCF Done:  E(RHF) =  -344.727705040     A.U. after   15 cycles

 1\1\GINC-SE363\Stability\RHF\Aug-CC-pVDZ\C5H10O2\OHZDE\09-Apr-2025\0\\
 #t hf aug-cc-pvdz symm=none int=(grid=ultrafine) guess=(read,tcheck) s
 table=(opt,rrhf)\\title\\0,1\C,0,2.12968067,1.06682197,-0.66459525\O,0
 ,0.75134633,0.86540851,-0.41581326\C,0,0.35908555,-0.43260697,-0.43532
 699\C,0,0.03330419,-1.52904926,1.33660557\O,0,-1.11062146,-1.78958643,
 0.57591475\C,0,-1.15714004,-0.67688461,-0.30234576\C,0,-1.95566678,0.4
 9407802,0.23320674\H,0,2.73754386,0.58435256,0.10717267\H,0,2.41188034
 ,0.67147701,-1.64612279\H,0,2.30352534,2.13997243,-0.64148625\H,0,0.80

 Normal termination of Gaussian 16 at Wed Apr  9 03:27:34 2025.
 Gaussian 16:  ES64L-G16RevC.01  3-Jul-2019

 ----------------------------------------------------------------------
 #t hf aug-cc-pvdz iop(5/13=1,5/36=2,99/5=2) pseudo=read geom=check gue
 ss=(read,tcheck) scf=(maxcycle=1)
 ----------------------------------------------------------------------
 -----
 title
 -----
 Structure from the checkpoint file:  "Grambow2020_wb97xd3_006666_forward_mol1.chk"
 Charge =  0 Multiplicity = 1

                         Standard orientation:
 ---------------------------------------------------------------------
 Center     Atomic      Atomic             Coordinates (Angstroms)
 Number     Number       Type             X           Y           Z
 ---------------------------------------------------------------------
      1          6           0       -2.654495   -0.077676   -0.073900
      2          8           0       -1.352381    0.474549   -0.116451
      3          6           0       -0.397101   -0.289086    0.469548
      4          6           0        0.925956   -1.484269   -0.657005
      5          8           0        1.771024   -0.801537    0.223241
      6          6           0        1.005504    0.344050    0.559722
      7          6           0        1.239706    1.528572   -0.355523
      8          1           0       -2.690759   -1.027523   -0.616465
      9          1           0       -2.977024   -0.239856    0.960027
     10          1           0       -3.318847    0.636930   -0.553881
     11          1           0       -0.725448   -0.727915    1.423966
     12          1           0        0.707139   -0.818318   -1.516426
     13          1           0       -0.219373   -1.461306   -0.065583
     14          1           0        1.245726    0.633905    1.588273
     15          1           0        0.584128    2.355759   -0.081409
     16          1           0        2.275123    1.852524   -0.249810
     17          1           0        1.052772    1.282150   -1.400070
 ---------------------------------------------------------------------

 SCF Done:  E(RHF) =  -346.326078845     A.U. after    2 cycles

 The electronic state is 1-A.
 Alpha  occ. eigenvalues --  -21.09052 -21.04948 -11.50493 -11.45153 -11.43140
 Alpha  occ. eigenvalues --  -11.40286 -11.37827  -1.82592  -1.76485  -1.15636
 Alpha  occ. eigenvalues --   -1.06367  -0.98466  -0.93697  -0.79217  -0.68647
 Alpha  occ. eigenvalues --   -0.66286  -0.65456  -0.62639  -0.58856  -0.57677
 Alpha  occ. eigenvalues --   -0.53397  -0.51790  -0.50591  -0.43299  -0.39211
 Alpha  occ. eigenvalues --   -0.38314  -0.30862  -0.26334
 Alpha virt. eigenvalues --    0.03330   0.04564   0.04926   0.05189   0.05449
 Alpha virt. eigenvalues --    0.06257   0.06670   0.06924   0.08255   0.09379
 Alpha virt. eigenvalues --    0.10535   0.11921   0.12502   0.12792   0.13847

 Mulliken charges:
               1
     1  C   -3.190992
     2  O   -3.621234
     3  C    0.187611
     4  C   -1.641309
     5  O   -2.975433
     6  C    1.036006
     7  C   -3.782145
     8  H    1.382030
     9  H    1.310862
    10  H    1.333430
    11  H    1.532554
    12  H    1.307670
    13  H    1.717329
    14  H    1.556841
    15  H    1.259156
    16  H    1.190407
    17  H    1.397216
 Sum of Mulliken charges =  -0.00000

 Dipole moment (field-independent basis, Debye):
    X=             -2.8406    Y=              2.9823    Z=              1.3621  Tot=              4.3380

 Test job not archived.
 1\1\GINC-SE363\SP\RHF\Aug-CC-pVDZ\C5H10O2\OHZDE\09-Apr-2025\0\\#t hf a
 ug-cc-pvdz iop(5/13=1,5/36=2,99/5=2) pseudo=read geom=check guess=(rea
 d,tcheck) scf=(maxcycle=1)\\title\\0,1\C,0,2.12968067,1.06682197,-0.66
 459525\O,0,0.75134633,0.86540851,-0.41581326\C,0,0.35908555,-0.4326069
 7,-0.43532699\C,0,0.03330419,-1.52904926,1.33660557\O,0,-1.11062146,-1
 .78958643,0.57591475\C,0,-1.15714004,-0.67688461,-0.30234576\C,0,-1.95
 566678,0.49407802,0.23320674\H,0,2.73754386,0.58435256,0.10717267\H,0,
 2.41188034,0.67147701,-1.64612279\H,0,2.30352534,2.13997243,-0.6414862

 Normal termination of Gaussian 16 at Wed Apr  9 03:27:40 2025.
