 Gaussian 16, Revision C.01,

 ----------------------------------------------------------------------
 #t hf aug-cc-pvdz symm=none int=(grid=ultrafine) guess=(read,tcheck) s
 table=(opt,rrhf)
 ----------------------------------------------------------------------
 -----
 title
 -----
 Symbolic Z-matrix:
 Charge =  0 Multiplicity = 1

 SCF Done:  E(RHF) =  -343.573856049     A.U. after   14 cycles
 Normal termination of Gaussian 16 at Wed Apr  9 18:31:27 2025.
 Gaussian 16:  ES64L-G16RevC.01  3-Jul-2019

 ----------------------------------------------------------------------
 #t hf aug-cc-pvdz iop(5/13=1,5/36=2,99/5=2) pseudo=read geom=check gue
 ss=(read,tcheck) scf=(maxcycle=1)
 ----------------------------------------------------------------------
 -----
 title
 -----
 Structure from the checkpoint file:  "Grambow2020_wb97xd3_007217_reverse_mol1.chk"
 Charge =  0 Multiplicity = 1

                         Standard orientation:
 ---------------------------------------------------------------------
 Center     Atomic      Atomic             Coordinates (Angstroms)
 Number     Number       Type             X           Y           Z
 ---------------------------------------------------------------------
      1          8           0        2.822147   -0.382437    0.099565
      2          6           0        1.621469    0.184080    0.008542
      3          6           0        0.452904   -0.557563   -0.172880
      4          6           0       -1.828049   -0.557993    0.809287
      5          6           0       -2.033875   -0.406479   -0.659625
      6          6           0       -0.789848    0.237472   -0.041831
      7          8           0       -0.613132    1.519080    0.045485
      8          1           0        3.506982    0.291389    0.087496
      9          1           0        1.023222    0.006231   -1.192550
     10          1           0        1.439409    1.251148    0.173606
     11          1           0        0.506926   -1.635056   -0.291306
     12          1           0       -1.609906   -1.540956    1.209468
     13          1           0       -2.374264    0.101148    1.469928
     14          1           0       -2.753240    0.326723   -0.997003
     15          1           0       -1.946855   -1.290883   -1.280995
 ---------------------------------------------------------------------

 SCF Done:  E(RHF) =  -345.137318195     A.U. after    2 cycles

 The electronic state is 1-A.
 Alpha  occ. eigenvalues --  -21.17719 -20.90872 -11.56735 -11.49814 -11.42246
 Alpha  occ. eigenvalues --  -11.39600 -11.34763  -1.83646  -1.59638  -1.26648
 Alpha  occ. eigenvalues --   -1.19255  -0.89878  -0.84678  -0.79707  -0.73498
 Alpha  occ. eigenvalues --   -0.68700  -0.64093  -0.63107  -0.55859  -0.50364
 Alpha  occ. eigenvalues --   -0.49678  -0.47342  -0.42905  -0.38483  -0.37390
 Alpha  occ. eigenvalues --   -0.21826  -0.17824
 Alpha virt. eigenvalues --    0.02070   0.04133   0.04794   0.05299   0.05846
 Alpha virt. eigenvalues --    0.07031   0.07499   0.07898   0.08942   0.10712
 Alpha virt. eigenvalues --    0.10874   0.12574   0.12716   0.14130   0.14539

 Mulliken charges:
               1
     1  O   -3.284512
     2  C    1.980815
     3  C   -4.790840
     4  C   -2.979940
     5  C   -2.792333
     6  C    6.198399
     7  O   -3.835801
     8  H    0.759112
     9  H    1.140029
    10  H    1.492335
    11  H    1.494233
    12  H    1.203000
    13  H    1.094460
    14  H    1.115975
    15  H    1.205067
 Sum of Mulliken charges =   0.00000

 Dipole moment (field-independent basis, Debye):
    X=              5.5994    Y=             -3.0878    Z=             -0.3558  Tot=              6.4043

 Test job not archived.
 1\1\GINC-SE229\SP\RHF\Aug-CC-pVDZ\C5H8O2\OHZDE\09-Apr-2025\0\\#t hf au
 g-cc-pvdz iop(5/13=1,5/36=2,99/5=2) pseudo=read geom=check guess=(read
 ,tcheck) scf=(maxcycle=1)\\title\\0,1\O,0,2.86820073,-0.25727268,0.736
 15337\C,0,1.75321637,-0.48107264,0.04508263\C,0,0.51457614,0.03451876,
 0.4303467\C,0,-1.37942784,1.16316106,-0.71259397\C,0,-1.98026568,-0.02
 122768,-0.03492132\C,0,-0.55465808,-0.15455893,-0.57696483\O,0,-0.2354
 1083,-0.91428245,-1.57810043\H,0,3.58377944,-0.7988459,0.39288792\H,0,
 0.82242413,-1.19077498,0.72486223\H,0,1.73157647,-0.98856077,-0.924975

 Normal termination of Gaussian 16 at Wed Apr  9 18:31:32 2025.
