 Gaussian 16, Revision C.01,

 ----------------------------------------------------------------------
 #t hf aug-cc-pvdz symm=none int=(grid=ultrafine) guess=(read,tcheck) s
 table=(opt,rrhf)
 ----------------------------------------------------------------------
 -----
 title
 -----
 Symbolic Z-matrix:
 Charge =  0 Multiplicity = 1

 SCF Done:  E(RHF) =  -342.525232655     A.U. after   13 cycles
 Normal termination of Gaussian 16 at Wed Apr  9 19:25:01 2025.
 Gaussian 16:  ES64L-G16RevC.01  3-Jul-2019

 ----------------------------------------------------------------------
 #t hf aug-cc-pvdz iop(5/13=1,5/36=2,99/5=2) pseudo=read geom=check gue
 ss=(read,tcheck) scf=(maxcycle=1)
 ----------------------------------------------------------------------
 -----
 title
 -----
 Structure from the checkpoint file:  "Grambow2020_wb97xd3_008947_forward_mol2.chk"
 Charge =  0 Multiplicity = 1

                         Standard orientation:
 ---------------------------------------------------------------------
 Center     Atomic      Atomic             Coordinates (Angstroms)
 Number     Number       Type             X           Y           Z
 ---------------------------------------------------------------------
      1          8           0       -2.612419   -0.000464   -0.114874
      2          6           0       -1.425777   -0.000082   -0.007690
      3          6           0       -0.372004   -1.108195    0.060693
      4          6           0        0.678431    0.000421   -0.016783
      5          6           0        1.977254   -0.000974   -0.667773
      6          8           0        1.852435    0.000976    0.751675
      7          6           0       -0.372523    1.108611    0.059486
      8          1           0       -0.403539   -1.835214   -0.750932
      9          1           0       -0.375022   -1.631578    1.019257
     10          1           0        2.362628   -0.921656   -1.096852
     11          1           0        2.363784    0.918099   -1.099300
     12          1           0       -0.375578    1.632130    1.018026
     13          1           0       -0.404682    1.835440   -0.752196
 ---------------------------------------------------------------------

 SCF Done:  E(RHF) =  -344.049429798     A.U. after    2 cycles

 The electronic state is 1-A.
 Alpha  occ. eigenvalues --  -21.07589 -21.06871 -11.53713 -11.48864 -11.45210
 Alpha  occ. eigenvalues --  -11.42599 -11.40800  -1.80900  -1.71531  -1.29495
 Alpha  occ. eigenvalues --   -1.01588  -0.98348  -0.83917  -0.76277  -0.68860
 Alpha  occ. eigenvalues --   -0.66345  -0.62832  -0.58418  -0.56918  -0.52497
 Alpha  occ. eigenvalues --   -0.47681  -0.43929  -0.42470  -0.37256  -0.32927
 Alpha  occ. eigenvalues --   -0.27609
 Alpha virt. eigenvalues --    0.03214   0.04483   0.05291   0.06071   0.06763
 Alpha virt. eigenvalues --    0.06842   0.07649   0.09730   0.10597   0.12541
 Alpha virt. eigenvalues --    0.13199   0.13721   0.13789   0.14402   0.14804

 Mulliken charges:
               1
     1  O   -3.109603
     2  C    4.008268
     3  C   -4.398180
     4  C    5.317035
     5  C   -2.377328
     6  O   -2.950102
     7  C   -4.397501
     8  H    1.268991
     9  H    1.248132
    10  H    1.437172
    11  H    1.436729
    12  H    1.247863
    13  H    1.268525
 Sum of Mulliken charges =   0.00000

 Dipole moment (field-independent basis, Debye):
    X=              1.3255    Y=              0.0001    Z=             -0.3204  Tot=              1.3636

 Test job not archived.
 1\1\GINC-SE117\SP\RHF\Aug-CC-pVDZ\C5H6O2\OHZDE\09-Apr-2025\0\\#t hf au
 g-cc-pvdz iop(5/13=1,5/36=2,99/5=2) pseudo=read geom=check guess=(read
 ,tcheck) scf=(maxcycle=1)\\title\\0,1\O,0,-2.77548285,-0.51860329,0.25
 45392\C,0,-1.62658178,-0.28794524,0.03905878\C,0,-0.79061597,0.9943024
 5,0.03369878\C,0,0.43390177,0.09629181,-0.14679915\C,0,1.7807254,0.254
 2873,0.37458041\O,0,1.49333157,0.40729231,-1.01265106\C,0,-0.41616439,
 -1.16739608,-0.2842285\H,0,-0.84973396,1.59572423,0.94093796\H,0,-0.99
 387007,1.62412909,-0.83508768\H,0,2.05226034,1.16890433,0.89421669\H,0

 Normal termination of Gaussian 16 at Wed Apr  9 19:25:05 2025.
