 Gaussian 16, Revision C.01,

 ----------------------------------------------------------------------
 #t hf aug-cc-pvdz symm=none int=(grid=ultrafine) guess=(read,tcheck) s
 table=(opt,rrhf)
 ----------------------------------------------------------------------
 -----
 title
 -----
 Symbolic Z-matrix:
 Charge =  0 Multiplicity = 1

 SCF Done:  E(RHF) =  -322.430597138     A.U. after   16 cycles
 Normal termination of Gaussian 16 at Wed Apr  9 04:04:46 2025.
 Gaussian 16:  ES64L-G16RevC.01  3-Jul-2019

 ----------------------------------------------------------------------
 #t hf aug-cc-pvdz iop(5/13=1,5/36=2,99/5=2) pseudo=read geom=check gue
 ss=(read,tcheck) scf=(maxcycle=1)
 ----------------------------------------------------------------------
 -----
 title
 -----
 Structure from the checkpoint file:  "Grambow2020_wb97xd3_009202_reverse_mol1.chk"
 Charge =  0 Multiplicity = 1

                         Standard orientation:
 ---------------------------------------------------------------------
 Center     Atomic      Atomic             Coordinates (Angstroms)
 Number     Number       Type             X           Y           Z
 ---------------------------------------------------------------------
      1          8           0        2.052971    1.024446    0.084782
      2          6           0        2.524271   -0.256000   -0.040373
      3          6           0        1.180597   -0.824856   -0.079828
      4          6           0       -0.046161   -0.881559   -0.073845
      5          6           0       -1.138654   -0.069348   -0.012960
      6          6           0       -2.416367    0.214993   -0.663280
      7          7           0       -2.210576    0.132092    0.791184
      8          1           0        0.581137    1.415696    0.021463
      9          1           0        3.089293   -0.457480   -0.961258
     10          1           0        3.103227   -0.615570    0.821411
     11          1           0       -0.255978    1.483370   -0.005608
     12          1           0       -2.890955   -0.611391   -1.182715
     13          1           0       -2.641575    1.208771   -1.027472
     14          1           0       -2.557002   -0.642990    1.339343
 ---------------------------------------------------------------------

 SCF Done:  E(RHF) =  -323.954031680     A.U. after    2 cycles

 The electronic state is 1-A.
 Alpha  occ. eigenvalues --  -20.97536 -15.81631 -11.59096 -11.49446 -11.47177
 Alpha  occ. eigenvalues --  -11.45071 -11.41087  -1.63016  -1.54110  -1.17019
 Alpha  occ. eigenvalues --   -1.01204  -0.99429  -0.89013  -0.78499  -0.70841
 Alpha  occ. eigenvalues --   -0.65862  -0.62219  -0.60490  -0.56960  -0.52852
 Alpha  occ. eigenvalues --   -0.48996  -0.44039  -0.36748  -0.36476  -0.25885
 Alpha  occ. eigenvalues --   -0.25363
 Alpha virt. eigenvalues --    0.02758   0.04294   0.04999   0.05377   0.06729
 Alpha virt. eigenvalues --    0.06991   0.08345   0.09337   0.09864   0.11085
 Alpha virt. eigenvalues --    0.11383   0.12254   0.12920   0.13259   0.14274

 Mulliken charges:
               1
     1  O   -2.227514
     2  C   -2.166125
     3  C    1.766880
     4  C   -0.619902
     5  C    3.079172
     6  C   -2.939151
     7  N   -2.448062
     8  H    0.346248
     9  H    0.985722
    10  H    1.061750
    11  H   -0.075318
    12  H    1.273491
    13  H    1.299521
    14  H    0.663287
 Sum of Mulliken charges =  -0.00000

 Dipole moment (field-independent basis, Debye):
    X=             -3.4592    Y=             -0.7449    Z=             -0.1605  Tot=              3.5421

 Test job not archived.
 1\1\GINC-SE364\SP\RHF\Aug-CC-pVDZ\C5H7N1O1\OHZDE\09-Apr-2025\0\\#t hf
 aug-cc-pvdz iop(5/13=1,5/36=2,99/5=2) pseudo=read geom=check guess=(re
 ad,tcheck) scf=(maxcycle=1)\\title\\0,1\O,0,2.16816711,0.38170211,1.17
 682256\C,0,2.62968649,-0.36928589,0.12784859\C,0,1.28333064,-0.6359906
 3,-0.3689505\C,0,0.05755737,-0.61437201,-0.44105648\C,0,-1.02637869,-0
 .08335108,0.19142524\C,0,-2.26191319,0.66179757,-0.04208062\N,0,-2.139
 14419,-0.5140841,0.83365795\H,0,0.70722142,0.75661002,1.396962\H,0,3.2
 4294395,0.17656013,-0.60279485\H,0,3.15480847,-1.28878638,0.42096633\H

 Normal termination of Gaussian 16 at Wed Apr  9 04:04:50 2025.
