 Gaussian 16, Revision C.01,

 ----------------------------------------------------------------------
 #t hf aug-cc-pvdz symm=none int=(grid=ultrafine) guess=(read,tcheck) s
 table=(opt,rrhf)
 ----------------------------------------------------------------------
 -----
 title
 -----
 Symbolic Z-matrix:
 Charge =  0 Multiplicity = 1

 SCF Done:  E(RHF) =  -323.843907631     A.U. after   14 cycles
 Normal termination of Gaussian 16 at Wed Apr  9 18:16:22 2025.
 Gaussian 16:  ES64L-G16RevC.01  3-Jul-2019

 ----------------------------------------------------------------------
 #t hf aug-cc-pvdz iop(5/13=1,5/36=2,99/5=2) pseudo=read geom=check gue
 ss=(read,tcheck) scf=(maxcycle=1)
 ----------------------------------------------------------------------
 -----
 title
 -----
 Structure from the checkpoint file:  "Grambow2020_wb97xd3_006819_forward_mol2.chk"
 Charge =  0 Multiplicity = 1

                         Standard orientation:
 ---------------------------------------------------------------------
 Center     Atomic      Atomic             Coordinates (Angstroms)
 Number     Number       Type             X           Y           Z
 ---------------------------------------------------------------------
      1          6           0       -1.793797   -1.386781    0.259997
      2          6           0       -1.126471   -0.217725   -0.435294
      3          6           0       -1.347284    1.218921    0.124085
      4          6           0        0.182776    1.476628    0.085456
      5          6           0        0.349658    0.008299   -0.204827
      6          7           0        1.293198   -0.823592   -0.160804
      7          8           0        2.500439   -0.201683    0.155487
      8          1           0       -2.876525   -1.354736    0.119276
      9          1           0       -1.588231   -1.368217    1.332575
     10          1           0       -1.427262   -2.335857   -0.133734
     11          1           0       -1.333910   -0.246071   -1.509569
     12          1           0       -1.965935    1.880985   -0.479593
     13          1           0       -1.738803    1.201094    1.141866
     14          1           0        0.659495    1.831316    0.998860
     15          1           0        0.507587    2.108664   -0.742968
     16          1           0        3.118404   -0.934621    0.178522
 ---------------------------------------------------------------------

 SCF Done:  E(RHF) =  -325.369193007     A.U. after    2 cycles

 The electronic state is 1-A.
 Alpha  occ. eigenvalues --  -21.08754 -15.76289 -11.50740 -11.41660 -11.40845
 Alpha  occ. eigenvalues --  -11.38256 -11.35468  -1.78235  -1.36813  -1.17733
 Alpha  occ. eigenvalues --   -1.08222  -0.91889  -0.88053  -0.72542  -0.65056
 Alpha  occ. eigenvalues --   -0.64288  -0.62670  -0.57289  -0.56687  -0.52964
 Alpha  occ. eigenvalues --   -0.50667  -0.47385  -0.46078  -0.42758  -0.41841
 Alpha  occ. eigenvalues --   -0.33519  -0.28543
 Alpha virt. eigenvalues --    0.03929   0.05443   0.05568   0.05846   0.06097
 Alpha virt. eigenvalues --    0.06231   0.06444   0.06907   0.07482   0.11745
 Alpha virt. eigenvalues --    0.12156   0.13094   0.13409   0.14044   0.14799

 Mulliken charges:
               1
     1  C   -4.283858
     2  C   -1.302248
     3  C   -2.932467
     4  C   -3.551049
     5  C    4.243269
     6  N   -1.116898
     7  O   -2.446199
     8  H    1.229788
     9  H    1.235792
    10  H    1.215916
    11  H    1.412608
    12  H    1.265298
    13  H    1.448032
    14  H    1.328221
    15  H    1.369433
    16  H    0.884361
 Sum of Mulliken charges =   0.00000

 Dipole moment (field-independent basis, Debye):
    X=             -0.4890    Y=              0.8498    Z=              0.0751  Tot=              0.9833

 Test job not archived.
 1\1\GINC-SE035\SP\RHF\Aug-CC-pVDZ\C5H9N1O1\OHZDE\09-Apr-2025\0\\#t hf
 aug-cc-pvdz iop(5/13=1,5/36=2,99/5=2) pseudo=read geom=check guess=(re
 ad,tcheck) scf=(maxcycle=1)\\title\\0,1\C,0,-1.57757391,-1.23923446,-0
 .0796114\C,0,-0.58182756,-0.24718641,-0.64509585\C,0,-0.74350911,1.263
 27826,-0.30162713\C,0,0.7561196,1.34170876,0.09073679\C,0,0.78642402,-
 0.16064592,-0.00983461\N,0,1.55062119,-1.08081508,0.38200862\O,0,2.696
 11012,-0.56327398,0.98553787\H,0,-2.56088743,-1.10414172,-0.53565199\H
 ,0,-1.68147819,-1.11105879,1.00011102\H,0,-1.25456121,-2.26471727,-0.2

 Normal termination of Gaussian 16 at Wed Apr  9 18:16:27 2025.
