 Gaussian 16, Revision C.01,

 ----------------------------------------------------------------------
 #t hf aug-cc-pvdz symm=none int=(grid=ultrafine) guess=(read,tcheck) s
 table=(opt,rrhf)
 ----------------------------------------------------------------------
 -----
 title
 -----
 Symbolic Z-matrix:
 Charge =  0 Multiplicity = 1

 SCF Done:  E(RHF) =  -286.825421085     A.U. after   14 cycles
 Normal termination of Gaussian 16 at Wed Apr  9 18:42:43 2025.
 Gaussian 16:  ES64L-G16RevC.01  3-Jul-2019

 ----------------------------------------------------------------------
 #t hf aug-cc-pvdz iop(5/13=1,5/36=2,99/5=2) pseudo=read geom=check gue
 ss=(read,tcheck) scf=(maxcycle=1)
 ----------------------------------------------------------------------
 -----
 title
 -----
 Structure from the checkpoint file:  "Grambow2020_wb97xd3_007553_forward_mol2.chk"
 Charge =  0 Multiplicity = 1

                         Standard orientation:
 ---------------------------------------------------------------------
 Center     Atomic      Atomic             Coordinates (Angstroms)
 Number     Number       Type             X           Y           Z
 ---------------------------------------------------------------------
      1          6           0       -0.666797    1.602754    0.043789
      2          6           0       -0.642048    0.102869   -0.098727
      3          6           0        0.555794   -0.461063   -0.844708
      4          6           0        1.820037   -0.227579   -0.150365
      5          6           0        2.846024   -0.028067    0.434172
      6          6           0       -1.286860   -0.732837    0.931763
      7          7           0       -1.884504   -0.599123   -0.400490
      8          1           0        0.232916    1.957629    0.549488
      9          1           0       -1.533208    1.926339    0.623825
     10          1           0       -0.712978    2.083120   -0.937337
     11          1           0        0.603611   -0.015384   -1.843029
     12          1           0        0.405213   -1.532933   -0.985987
     13          1           0        3.761379    0.143335    0.949248
     14          1           0       -0.889951   -1.715544    1.159923
     15          1           0       -1.763455   -0.230440    1.766506
     16          1           0       -2.668896    0.041283   -0.374740
 ---------------------------------------------------------------------

 SCF Done:  E(RHF) =  -288.222529716     A.U. after    2 cycles

 The electronic state is 1-A.
 Alpha  occ. eigenvalues --  -15.73080 -11.48208 -11.45026 -11.40818 -11.40188
 Alpha  occ. eigenvalues --  -11.39634 -11.37485  -1.47238  -1.18865  -1.07595
 Alpha  occ. eigenvalues --   -1.00915  -0.93122  -0.81840  -0.72963  -0.68153
 Alpha  occ. eigenvalues --   -0.63859  -0.61979  -0.58192  -0.56223  -0.54115
 Alpha  occ. eigenvalues --   -0.48501  -0.43443  -0.43115  -0.36487  -0.36215
 Alpha  occ. eigenvalues --   -0.34024
 Alpha virt. eigenvalues --    0.03442   0.04773   0.05349   0.05646   0.05929
 Alpha virt. eigenvalues --    0.06538   0.06800   0.07556   0.08882   0.10102
 Alpha virt. eigenvalues --    0.10278   0.12295   0.12807   0.12889   0.13893

 Mulliken charges:
               1
     1  C   -4.743004
     2  C    4.029361
     3  C   -4.378735
     4  C    4.683197
     5  C   -4.306894
     6  C   -3.030145
     7  N   -2.559808
     8  H    1.301615
     9  H    1.197499
    10  H    1.164576
    11  H    1.209169
    12  H    1.254083
    13  H    0.711016
    14  H    1.387487
    15  H    1.453354
    16  H    0.627231
 Sum of Mulliken charges =  -0.00000

 Dipole moment (field-independent basis, Debye):
    X=             -0.5180    Y=              1.0137    Z=              0.6348  Tot=              1.3034

 Test job not archived.
 1\1\GINC-SE192\SP\RHF\Aug-CC-pVDZ\C6H9N1\OHZDE\09-Apr-2025\0\\#t hf au
 g-cc-pvdz iop(5/13=1,5/36=2,99/5=2) pseudo=read geom=check guess=(read
 ,tcheck) scf=(maxcycle=1)\\title\\0,1\C,0,-0.51078109,1.43999757,0.540
 08265\C,0,-0.54793179,-0.02248321,0.17904418\C,0,0.47032227,-0.4633398
 4,-0.85928974\C,0,1.84976764,-0.32669719,-0.3973403\C,0,2.97353553,-0.
 20897822,-0.00057155\C,0,-1.00043218,-1.00447164,1.18255726\N,0,-1.840
 81999,-0.68009417,0.0256286\H,0,0.47741637,1.72220241,0.90747584\H,0,-
 1.24139052,1.6695315,1.31811839\H,0,-0.73460331,2.05903124,-0.33295397

 Normal termination of Gaussian 16 at Wed Apr  9 18:42:49 2025.
