 Gaussian 16, Revision C.01,

 ----------------------------------------------------------------------
 #t hf aug-cc-pvdz symm=none int=(grid=ultrafine) guess=(read,tcheck) s
 table=(opt,rrhf)
 ----------------------------------------------------------------------
 -----
 title
 -----
 Symbolic Z-matrix:
 Charge =  0 Multiplicity = 1

 SCF Done:  E(RHF) =  -306.664435685     A.U. after   14 cycles
 Normal termination of Gaussian 16 at Wed Apr  9 04:05:42 2025.
 Gaussian 16:  ES64L-G16RevC.01  3-Jul-2019

 ----------------------------------------------------------------------
 #t hf aug-cc-pvdz iop(5/13=1,5/36=2,99/5=2) pseudo=read geom=check gue
 ss=(read,tcheck) scf=(maxcycle=1)
 ----------------------------------------------------------------------
 -----
 title
 -----
 Structure from the checkpoint file:  "Grambow2020_wb97xd3_009288_reverse_mol2.chk"
 Charge =  0 Multiplicity = 1

                         Standard orientation:
 ---------------------------------------------------------------------
 Center     Atomic      Atomic             Coordinates (Angstroms)
 Number     Number       Type             X           Y           Z
 ---------------------------------------------------------------------
      1          6           0       -2.117070    0.557656    1.096028
      2          6           0        1.440337   -0.518565   -0.006910
      3          6           0        2.834311   -0.756452    0.511190
      4          6           0        1.016063    0.647002   -0.420803
      5          8           0        0.644495    1.686029   -0.778914
      6          6           0       -2.155371   -0.418356    0.014873
      7          6           0       -2.176284   -1.216658   -0.877747
      8          1           0       -1.940995    1.558418    0.699914
      9          1           0       -1.311241    0.321708    1.792928
     10          1           0       -3.058961    0.562074    1.645739
     11          1           0        0.712751   -1.318195   -0.070077
     12          1           0        3.419798    0.162871    0.508848
     13          1           0        2.813532   -1.134888    1.535032
     14          1           0        3.361344   -1.486891   -0.105910
     15          1           0       -2.204105   -1.921092   -1.674951
 ---------------------------------------------------------------------

 SCF Done:  E(RHF) =  -308.100806585     A.U. after    2 cycles

 The electronic state is 1-A.
 Alpha  occ. eigenvalues --  -21.12291 -11.53133 -11.43896 -11.41588 -11.39472
 Alpha  occ. eigenvalues --  -11.39208 -11.37834  -1.76114  -1.19255  -1.17252
 Alpha  occ. eigenvalues --   -1.00426  -0.97145  -0.73216  -0.70752  -0.61657
 Alpha  occ. eigenvalues --   -0.59306  -0.58997  -0.58732  -0.58649  -0.56188
 Alpha  occ. eigenvalues --   -0.53027  -0.52423  -0.45467  -0.36871  -0.36598
 Alpha  occ. eigenvalues --   -0.27238
 Alpha virt. eigenvalues --    0.02897   0.04699   0.05049   0.05985   0.06405
 Alpha virt. eigenvalues --    0.07276   0.07436   0.07798   0.09428   0.09921
 Alpha virt. eigenvalues --    0.11544   0.12127   0.12199   0.12967   0.13553

 Mulliken charges:
               1
     1  C   -4.851224
     2  C    0.047416
     3  C   -4.374864
     4  C    1.331102
     5  O   -2.344046
     6  C    4.251464
     7  C   -4.018629
     8  H    1.282129
     9  H    1.291958
    10  H    1.095791
    11  H    1.642749
    12  H    1.342384
    13  H    1.214082
    14  H    1.238679
    15  H    0.851010
 Sum of Mulliken charges =   0.00000

 Dipole moment (field-independent basis, Debye):
    X=              0.0423    Y=              0.4435    Z=              0.4736  Tot=              0.6502

 Test job not archived.
 1\1\GINC-SE367\SP\RHF\Aug-CC-pVDZ\C6H8O1\OHZDE\09-Apr-2025\0\\#t hf au
 g-cc-pvdz iop(5/13=1,5/36=2,99/5=2) pseudo=read geom=check guess=(read
 ,tcheck) scf=(maxcycle=1)\\title\\0,1\C,0,0.42358817,1.46716856,-2.079
 42721\C,0,-0.39755855,-0.73547639,1.00341935\C,0,-1.2584692,-1.8838002
 2,1.45989308\C,0,-0.78330142,0.51327441,1.04447789\O,0,-1.13568556,1.6
 1811524,1.07663949\C,0,1.59125951,1.26038992,-1.23281625\C,0,2.5439372
 1,1.08931702,-0.52738671\H,0,-0.20071535,2.26671561,-1.67892259\H,0,-0
 .1778744,0.55791504,-2.12636262\H,0,0.72411085,1.73526409,-3.09292153\

 Normal termination of Gaussian 16 at Wed Apr  9 04:05:46 2025.
