 Gaussian 16, Revision C.01,

 ----------------------------------------------------------------------
 #t hf aug-cc-pvdz symm=none int=(grid=ultrafine) guess=(read,tcheck) s
 table=(opt,rrhf)
 ----------------------------------------------------------------------
 -----
 title
 -----
 Symbolic Z-matrix:
 Charge =  0 Multiplicity = 1

 SCF Done:  E(RHF) =  -360.898756009     A.U. after   13 cycles
 Normal termination of Gaussian 16 at Wed Apr  9 19:20:08 2025.
 Gaussian 16:  ES64L-G16RevC.01  3-Jul-2019

 ----------------------------------------------------------------------
 #t hf aug-cc-pvdz iop(5/13=1,5/36=2,99/5=2) pseudo=read geom=check gue
 ss=(read,tcheck) scf=(maxcycle=1)
 ----------------------------------------------------------------------
 -----
 title
 -----
 Structure from the checkpoint file:  "Grambow2020_wb97xd3_008629_reverse_mol2.chk"
 Charge =  0 Multiplicity = 1

                         Standard orientation:
 ---------------------------------------------------------------------
 Center     Atomic      Atomic             Coordinates (Angstroms)
 Number     Number       Type             X           Y           Z
 ---------------------------------------------------------------------
      1          6           0       -1.906401   -1.578363   -0.188576
      2          6           0       -3.090514   -1.038282    0.050762
      3          6           0       -1.149431    1.620276    0.475565
      4          8           0       -0.533509    2.073974   -0.450136
      5          6           0        1.973344   -0.588113   -0.171594
      6          8           0        2.765336   -1.430309    0.180392
      7          7           0        2.103375    0.740643    0.020375
      8          1           0       -1.366374   -2.134788    0.569269
      9          1           0       -1.435022   -1.497189   -1.161733
     10          1           0        1.034197   -0.843409   -0.697460
     11          1           0       -3.632036   -0.495570   -0.716080
     12          1           0       -3.572789   -1.129248    1.017700
     13          1           0       -2.223932    1.829036    0.612528
     14          1           0       -0.670541    0.976363    1.234359
     15          1           0        2.934291    1.088898    0.465846
     16          1           0        1.391982    1.378977   -0.306058
 ---------------------------------------------------------------------

 SCF Done:  E(RHF) =  -362.517180506     A.U. after    2 cycles

 The electronic state is 1-A.
 Alpha  occ. eigenvalues --  -21.09711 -21.02237 -15.76975 -11.49919 -11.47632
 Alpha  occ. eigenvalues --  -11.42845 -11.38962  -1.74055  -1.69355  -1.33583
 Alpha  occ. eigenvalues --   -1.15679  -0.91940  -0.86040  -0.84075  -0.72755
 Alpha  occ. eigenvalues --   -0.68483  -0.66198  -0.62508  -0.57794  -0.55706
 Alpha  occ. eigenvalues --   -0.52345  -0.51079  -0.49359  -0.47752  -0.38086
 Alpha  occ. eigenvalues --   -0.33411  -0.31706  -0.28720
 Alpha virt. eigenvalues --    0.03036   0.04935   0.05043   0.05263   0.05776
 Alpha virt. eigenvalues --    0.06450   0.06547   0.07891   0.08033   0.10293
 Alpha virt. eigenvalues --    0.11794   0.11817   0.12380   0.13378   0.13917

 Mulliken charges:
               1
     1  C   -2.737500
     2  C   -3.088248
     3  C   -0.854497
     4  O   -2.239755
     5  C    2.134400
     6  O   -2.732186
     7  N   -2.538860
     8  H    1.467393
     9  H    1.546814
    10  H    1.642729
    11  H    1.388424
    12  H    1.374847
    13  H    1.462137
    14  H    1.595459
    15  H    0.627445
    16  H    0.951397
 Sum of Mulliken charges =  -0.00000

 Dipole moment (field-independent basis, Debye):
    X=             -2.4637    Y=              2.0745    Z=              0.4840  Tot=              3.2569

 Test job not archived.
 1\1\GINC-SE159\SP\RHF\Aug-CC-pVDZ\C4H9N1O2\OHZDE\09-Apr-2025\0\\#t hf
 aug-cc-pvdz iop(5/13=1,5/36=2,99/5=2) pseudo=read geom=check guess=(re
 ad,tcheck) scf=(maxcycle=1)\\title\\0,1\C,0,-1.94322834,-0.19464061,-0
 .56218336\C,0,-2.54727419,0.88427999,-0.09085198\C,0,0.59558227,1.5882
 2461,0.71108399\O,0,1.41390543,1.76799604,-0.14923702\C,0,1.70249121,-
 1.84297256,-0.720404\O,0,1.77719649,-3.04678967,-0.64502181\N,0,2.6180
 4403,-0.96903569,-0.25419496\H,0,-1.91209964,-1.12393565,-0.00450287\H
 ,0,-1.46642506,-0.19482371,-1.53608328\H,0,0.84142974,-1.33290138,-1.1

 Normal termination of Gaussian 16 at Wed Apr  9 19:20:13 2025.
