 Gaussian 16, Revision C.01,

 ----------------------------------------------------------------------
 #t hf aug-cc-pvdz symm=none int=(grid=ultrafine) guess=(read,tcheck) s
 table=(opt,rrhf)
 ----------------------------------------------------------------------
 -----
 title
 -----
 Symbolic Z-matrix:
 Charge =  0 Multiplicity = 1

 SCF Done:  E(RHF) =  -269.842979543     A.U. after   16 cycles

 1\1\GINC-SE232\Stability\RHF\Aug-CC-pVDZ\C5H10O1\OHZDE\09-Apr-2025\0\\
 #t hf aug-cc-pvdz symm=none int=(grid=ultrafine) guess=(read,tcheck) s
 table=(opt,rrhf)\\title\\0,1\C,0,2.43485841,0.0007272,0.47350231\C,0,1
 .98954882,0.23753432,-0.89625588\C,0,-0.18149855,0.0295203,-0.13876253
 \O,0,0.20152995,-0.1805624,1.00126709\C,0,-1.67704579,0.06407369,-0.45
 019681\C,0,-2.62081501,-0.26511264,0.71628408\H,0,3.22328022,0.2546045
 4,-0.78410195\H,0,2.66522133,0.84195387,1.11845289\H,0,2.72457533,-1.0
 0034533,0.7756598\H,0,1.78987698,-0.5944137,-1.56588654\H,0,1.7334477,

 Normal termination of Gaussian 16 at Wed Apr  9 16:12:03 2025.
 Gaussian 16:  ES64L-G16RevC.01  3-Jul-2019

 ----------------------------------------------------------------------
 #t hf aug-cc-pvdz iop(5/13=1,5/36=2,99/5=2) pseudo=read geom=check gue
 ss=(read,tcheck) scf=(maxcycle=1)
 ----------------------------------------------------------------------
 -----
 title
 -----
 Structure from the checkpoint file:  "Grambow2020_b97d3_006741_forward_mol1.chk"
 Charge =  0 Multiplicity = 1

                         Standard orientation:
 ---------------------------------------------------------------------
 Center     Atomic      Atomic             Coordinates (Angstroms)
 Number     Number       Type             X           Y           Z
 ---------------------------------------------------------------------
      1          6           0       -2.359771   -0.612589   -0.007599
      2          6           0       -2.068976    0.817495    0.022604
      3          6           0        0.175668    0.277662   -0.003230
      4          8           0       -0.077945   -0.916511   -0.015219
      5          6           0        1.627830    0.752575   -0.026250
      6          6           0        2.701508   -0.344771    0.026557
      7          1           0       -3.284089    0.575736    0.026323
      8          1           0       -2.570960   -1.099847   -0.953468
      9          1           0       -2.560623   -1.136752    0.920999
     10          1           0       -1.891285    1.327247    0.965467
     11          1           0       -1.904984    1.371721   -0.897005
     12          1           0        1.741866    1.469573    0.803627
     13          1           0        1.727555    1.364551   -0.939477
     14          1           0        2.580100   -1.044742   -0.810193
     15          1           0        3.711499    0.086537   -0.022382
     16          1           0        2.616925   -0.924165    0.955371
 ---------------------------------------------------------------------

 SCF Done:  E(RHF) =  -271.167734366     A.U. after    2 cycles

 The electronic state is 1-A.
 Alpha  occ. eigenvalues --  -21.02150 -11.49520 -11.43675 -11.39624 -11.36153
 Alpha  occ. eigenvalues --  -11.33058  -1.66339  -1.21056  -1.13310  -0.90239
 Alpha  occ. eigenvalues --   -0.88186  -0.68011  -0.67093  -0.63517  -0.58756
 Alpha  occ. eigenvalues --   -0.57857  -0.55075  -0.52858  -0.48633  -0.46867
 Alpha  occ. eigenvalues --   -0.43146  -0.37813  -0.35001  -0.19734
 Alpha virt. eigenvalues --    0.03384   0.04918   0.05176   0.05267   0.05625
 Alpha virt. eigenvalues --    0.05935   0.07071   0.07423   0.08239   0.08932
 Alpha virt. eigenvalues --    0.09877   0.10732   0.13674   0.14259   0.14296

 Mulliken charges:
               1
     1  C   -2.921436
     2  C   -3.702114
     3  C    2.623393
     4  O   -2.297476
     5  C   -3.201395
     6  C   -3.680565
     7  H    0.940699
     8  H    1.421887
     9  H    1.423994
    10  H    1.358818
    11  H    1.359449
    12  H    1.449217
    13  H    1.455032
    14  H    1.330482
    15  H    1.128584
    16  H    1.311431
 Sum of Mulliken charges =  -0.00000

 Dipole moment (field-independent basis, Debye):
    X=             -2.4290    Y=             -0.3930    Z=             -0.0091  Tot=              2.4606

 Test job not archived.
 1\1\GINC-SE232\SP\RHF\Aug-CC-pVDZ\C5H10O1\OHZDE\09-Apr-2025\0\\#t hf a
 ug-cc-pvdz iop(5/13=1,5/36=2,99/5=2) pseudo=read geom=check guess=(rea
 d,tcheck) scf=(maxcycle=1)\\title\\0,1\C,0,2.43485841,0.0007272,0.4735
 0231\C,0,1.98954882,0.23753432,-0.89625588\C,0,-0.18149855,0.0295203,-
 0.13876253\O,0,0.20152995,-0.1805624,1.00126709\C,0,-1.67704579,0.0640
 7369,-0.45019681\C,0,-2.62081501,-0.26511264,0.71628408\H,0,3.22328022
 ,0.25460454,-0.78410195\H,0,2.66522133,0.84195387,1.11845289\H,0,2.724
 57533,-1.00034533,0.7756598\H,0,1.78987698,-0.5944137,-1.56588654\H,0,

 Normal termination of Gaussian 16 at Wed Apr  9 16:12:08 2025.
