 Gaussian 16, Revision C.01,

 ----------------------------------------------------------------------
 #t hf aug-cc-pvdz symm=none int=(grid=ultrafine) guess=(read,tcheck) s
 table=(opt,rrhf)
 ----------------------------------------------------------------------
 -----
 title
 -----
 Symbolic Z-matrix:
 Charge =  0 Multiplicity = 1

 SCF Done:  E(RHF) =  -322.483172898     A.U. after   16 cycles
 Normal termination of Gaussian 16 at Wed Apr  9 03:26:51 2025.
 Gaussian 16:  ES64L-G16RevC.01  3-Jul-2019

 ----------------------------------------------------------------------
 #t hf aug-cc-pvdz iop(5/13=1,5/36=2,99/5=2) pseudo=read geom=check gue
 ss=(read,tcheck) scf=(maxcycle=1)
 ----------------------------------------------------------------------
 -----
 title
 -----
 Structure from the checkpoint file:  "Grambow2020_wb97xd3_006646_forward_mol1.chk"
 Charge =  0 Multiplicity = 1

                         Standard orientation:
 ---------------------------------------------------------------------
 Center     Atomic      Atomic             Coordinates (Angstroms)
 Number     Number       Type             X           Y           Z
 ---------------------------------------------------------------------
      1          6           0        2.363191    0.501218    0.080648
      2          7           0        1.579931   -0.596808   -0.165080
      3          6           0        0.380640   -0.054440   -0.206285
      4          6           0       -0.645764    0.386113    0.816290
      5          6           0       -1.478521    0.993788   -0.328164
      6          6           0       -0.992331   -0.397187   -0.780370
      7          8           0       -1.342727   -0.903609    0.570024
      8          1           0        3.121687    0.465154    0.855333
      9          1           0        2.380284    1.286809   -0.654242
     10          1           0        1.854046   -1.559109   -0.338562
     11          1           0       -0.517380    0.713514    1.844845
     12          1           0       -1.077545    1.868625   -0.838246
     13          1           0       -2.547197    1.047928   -0.128104
     14          1           0       -1.294892   -0.993348   -1.638377
 ---------------------------------------------------------------------

 SCF Done:  E(RHF) =  -324.000977120     A.U. after    2 cycles

 The electronic state is 1-A.
 Alpha  occ. eigenvalues --  -21.03802 -15.80267 -11.51590 -11.49996 -11.45600
 Alpha  occ. eigenvalues --  -11.39534 -11.38002  -1.79983  -1.44636  -1.19464
 Alpha  occ. eigenvalues --   -0.97506  -0.94571  -0.90113  -0.78236  -0.73456
 Alpha  occ. eigenvalues --   -0.65975  -0.62599  -0.61420  -0.52408  -0.50821
 Alpha  occ. eigenvalues --   -0.47443  -0.43708  -0.43146  -0.34813  -0.29806
 Alpha  occ. eigenvalues --   -0.23075
 Alpha virt. eigenvalues --    0.03826   0.04726   0.05475   0.05915   0.06245
 Alpha virt. eigenvalues --    0.06273   0.06945   0.08884   0.10395   0.11171
 Alpha virt. eigenvalues --    0.12442   0.12848   0.13438   0.14065   0.14632

 Mulliken charges:
               1
     1  C   -2.953493
     2  N   -3.665075
     3  C    4.997715
     4  C   -0.745284
     5  C   -2.234123
     6  C   -1.192058
     7  O   -2.588490
     8  H    1.393483
     9  H    1.260391
    10  H    0.664947
    11  H    1.259622
    12  H    1.249955
    13  H    1.270348
    14  H    1.282062
 Sum of Mulliken charges =  -0.00000

 Dipole moment (field-independent basis, Debye):
    X=             -0.5266    Y=             -1.3759    Z=             -0.4201  Tot=              1.5320

 Test job not archived.
 1\1\GINC-SE015\SP\RHF\Aug-CC-pVDZ\C5H7N1O1\OHZDE\09-Apr-2025\0\\#t hf
 aug-cc-pvdz iop(5/13=1,5/36=2,99/5=2) pseudo=read geom=check guess=(re
 ad,tcheck) scf=(maxcycle=1)\\title\\0,1\C,0,-1.98729725,-1.047848,0.26
 690061\N,0,-1.63910263,0.2532931,0.01129864\C,0,-0.33250932,0.15050408
 ,-0.11679435\C,0,0.84699809,0.07379616,0.82984706\C,0,1.75930555,-0.20
 336007,-0.37986665\C,0,0.80311761,0.94472246,-0.75840748\O,0,1.0493483
 8,1.52597258,0.58484361\H,0,-2.66090314,-1.27932586,1.08508629\H,0,-1.
 78595064,-1.7849703,-0.49047539\H,0,-2.2330506,1.0672324,-0.11514261\H

 Normal termination of Gaussian 16 at Wed Apr  9 03:26:55 2025.
