 Gaussian 16, Revision C.01,

 ----------------------------------------------------------------------
 #t hf aug-cc-pvdz symm=none int=(grid=ultrafine) guess=(read,tcheck) s
 table=(opt,rrhf)
 ----------------------------------------------------------------------
 -----
 title
 -----
 Symbolic Z-matrix:
 Charge =  0 Multiplicity = 1

 SCF Done:  E(RHF) =  -343.590698803     A.U. after   16 cycles
 Normal termination of Gaussian 16 at Wed Apr  9 18:48:39 2025.
 Gaussian 16:  ES64L-G16RevC.01  3-Jul-2019

 ----------------------------------------------------------------------
 #t hf aug-cc-pvdz iop(5/13=1,5/36=2,99/5=2) pseudo=read geom=check gue
 ss=(read,tcheck) scf=(maxcycle=1)
 ----------------------------------------------------------------------
 -----
 title
 -----
 Structure from the checkpoint file:  "Grambow2020_wb97xd3_007679_reverse_mol2.chk"
 Charge =  0 Multiplicity = 1

                         Standard orientation:
 ---------------------------------------------------------------------
 Center     Atomic      Atomic             Coordinates (Angstroms)
 Number     Number       Type             X           Y           Z
 ---------------------------------------------------------------------
      1          6           0       -0.220437    1.920139    0.264965
      2          6           0       -0.003263    0.755600   -0.676171
      3          6           0        1.220647   -0.132035   -0.501723
      4          8           0        1.311821   -0.357954    0.920890
      5          6           0        0.435217   -1.432712   -0.388703
      6          6           0       -0.817311   -0.567274   -0.489009
      7          8           0       -1.832817   -0.668202    0.456775
      8          1           0        0.510805    2.711380    0.085531
      9          1           0       -0.139874    1.615470    1.307653
     10          1           0       -1.216703    2.338671    0.115231
     11          1           0       -0.082968    1.088700   -1.712887
     12          1           0        2.184619    0.025586   -0.981109
     13          1           0        1.886950   -1.121780    1.061550
     14          1           0       -1.236329   -0.864221   -1.461355
     15          1           0       -1.427655   -0.846866    1.307917
 ---------------------------------------------------------------------

 SCF Done:  E(RHF) =  -345.149981859     A.U. after    2 cycles

 The electronic state is 1-A.
 Alpha  occ. eigenvalues --  -21.11895 -21.07457 -11.50277 -11.46760 -11.41449
 Alpha  occ. eigenvalues --  -11.39447 -11.36755  -1.80043  -1.71653  -1.27383
 Alpha  occ. eigenvalues --   -1.07624  -0.93120  -0.87287  -0.76551  -0.71648
 Alpha  occ. eigenvalues --   -0.62329  -0.59057  -0.57287  -0.55616  -0.53252
 Alpha  occ. eigenvalues --   -0.49695  -0.47967  -0.43662  -0.40331  -0.34753
 Alpha  occ. eigenvalues --   -0.33936  -0.29290
 Alpha virt. eigenvalues --    0.03709   0.04685   0.05219   0.05414   0.05853
 Alpha virt. eigenvalues --    0.06309   0.06609   0.07781   0.08543   0.12138
 Alpha virt. eigenvalues --    0.12976   0.13238   0.13783   0.14485   0.14665

 Mulliken charges:
               1
     1  C   -3.820822
     2  C   -1.670329
     3  C    0.991498
     4  O   -2.592794
     5  C   -1.267678
     6  C    1.967069
     7  O   -3.328788
     8  H    1.221394
     9  H    1.300194
    10  H    1.208334
    11  H    1.341749
    12  H    1.442104
    13  H    1.017261
    14  H    1.561374
    15  H    0.629436
 Sum of Mulliken charges =   0.00000

 Dipole moment (field-independent basis, Debye):
    X=              1.2808    Y=              2.4228    Z=              0.5485  Tot=              2.7949

 Test job not archived.
 1\1\GINC-SE362\SP\RHF\Aug-CC-pVDZ\C5H8O2\OHZDE\09-Apr-2025\0\\#t hf au
 g-cc-pvdz iop(5/13=1,5/36=2,99/5=2) pseudo=read geom=check guess=(read
 ,tcheck) scf=(maxcycle=1)\\title\\0,1\C,0,1.6086808,-0.49728915,-0.023
 91208\C,0,0.41656995,0.17199383,0.62415076\C,0,-0.30513945,1.2932179,-
 0.10952248\O,0,-0.42069324,0.82777526,-1.47084177\C,0,-1.67919969,0.63
 758131,-0.05008144\C,0,-0.9778063,-0.53752343,0.62449013\O,0,-1.133831
 55,-1.8339049,0.1438701\H,0,2.46713338,0.17717516,-0.05753353\H,0,1.38
 785263,-0.81445915,-1.04231725\H,0,1.89449624,-1.38191749,0.54694401\H

 Normal termination of Gaussian 16 at Wed Apr  9 18:48:44 2025.
