 Gaussian 16, Revision C.01,

 ----------------------------------------------------------------------
 #t hf aug-cc-pvdz symm=none int=(grid=ultrafine) guess=(read,tcheck) s
 table=(opt,rrhf)
 ----------------------------------------------------------------------
 -----
 title
 -----
 Symbolic Z-matrix:
 Charge =  0 Multiplicity = 1

 SCF Done:  E(RHF) =  -302.715005483     A.U. after   15 cycles
 Normal termination of Gaussian 16 at Wed Apr  9 19:03:58 2025.
 Gaussian 16:  ES64L-G16RevC.01  3-Jul-2019

 ----------------------------------------------------------------------
 #t hf aug-cc-pvdz iop(5/13=1,5/36=2,99/5=2) pseudo=read geom=check gue
 ss=(read,tcheck) scf=(maxcycle=1)
 ----------------------------------------------------------------------
 -----
 title
 -----
 Structure from the checkpoint file:  "Grambow2020_wb97xd3_008042_reverse_mol1.chk"
 Charge =  0 Multiplicity = 1

                         Standard orientation:
 ---------------------------------------------------------------------
 Center     Atomic      Atomic             Coordinates (Angstroms)
 Number     Number       Type             X           Y           Z
 ---------------------------------------------------------------------
      1          6           0        1.289822    1.200916    0.055004
      2          6           0       -0.056034    1.101065    0.516950
      3          6           0       -1.191078    0.849454   -0.468914
      4          7           0       -1.627024   -0.493996   -0.138965
      5          6           0       -0.551704   -1.144446    0.562744
      6          6           0        0.688473   -1.258377   -0.006400
      7          7           0        1.738636   -0.990700   -0.468835
      8          1           0        1.483532    1.307113   -1.000514
      9          1           0        0.429877    2.260776    0.296027
     10          1           0        2.097483    1.377363    0.751883
     11          1           0       -0.265153    1.153070    1.576694
     12          1           0       -0.783427    0.947447   -1.484935
     13          1           0       -2.004200    1.576968   -0.369880
     14          1           0       -2.020106   -1.004609   -0.918443
     15          1           0       -0.796168   -1.716919    1.447468
 ---------------------------------------------------------------------

 SCF Done:  E(RHF) =  -304.190736279     A.U. after    2 cycles

 The electronic state is 1-A.
 Alpha  occ. eigenvalues --  -15.72467 -15.70246 -11.53642 -11.47561 -11.43069
 Alpha  occ. eigenvalues --  -11.40396 -11.36273  -1.43640  -1.26798  -1.23645
 Alpha  occ. eigenvalues --   -1.02683  -0.95450  -0.84618  -0.71342  -0.70350
 Alpha  occ. eigenvalues --   -0.67721  -0.61216  -0.59461  -0.57086  -0.52785
 Alpha  occ. eigenvalues --   -0.50765  -0.48188  -0.42530  -0.38603  -0.33463
 Alpha  occ. eigenvalues --   -0.24633
 Alpha virt. eigenvalues --    0.03034   0.04621   0.05018   0.05214   0.05272
 Alpha virt. eigenvalues --    0.06271   0.06660   0.07153   0.09417   0.11402
 Alpha virt. eigenvalues --    0.11874   0.12536   0.13134   0.13974   0.14376

 Mulliken charges:
               1
     1  C   -2.801299
     2  C   -2.057086
     3  C   -2.037251
     4  N   -2.449098
     5  C   -0.799341
     6  C    2.604023
     7  N   -2.529104
     8  H    1.298084
     9  H    1.270575
    10  H    1.349089
    11  H    1.337126
    12  H    1.462826
    13  H    1.307347
    14  H    0.573941
    15  H    1.470168
 Sum of Mulliken charges =  -0.00000

 Dipole moment (field-independent basis, Debye):
    X=             -0.9656    Y=              4.4089    Z=              0.4170  Tot=              4.5326

 Test job not archived.
 1\1\GINC-SE113\SP\RHF\Aug-CC-pVDZ\C5H8N2\OHZDE\09-Apr-2025\0\\#t hf au
 g-cc-pvdz iop(5/13=1,5/36=2,99/5=2) pseudo=read geom=check guess=(read
 ,tcheck) scf=(maxcycle=1)\\title\\0,1\C,0,1.22456372,-0.77247076,-0.74
 718454\C,0,0.83034677,0.30078093,0.105703\C,0,-0.31692366,1.22071303,-
 0.29561412\N,0,-1.35698646,0.89249898,0.66058539\C,0,-1.0656198,-0.411
 579,1.19563775\C,0,-0.93145203,-1.49429968,0.36819577\N,0,-0.52968635,
 -2.22844494,-0.46123387\H,0,0.85764747,-0.80903309,-1.76057214\H,0,1.8
 0473811,0.48526792,-0.69827088\H,0,2.0366319,-1.42804016,-0.46458167\H

 Normal termination of Gaussian 16 at Wed Apr  9 19:04:04 2025.
