 Gaussian 16, Revision C.01,

 ----------------------------------------------------------------------
 #t hf aug-cc-pvdz symm=none int=(grid=ultrafine) guess=(read,tcheck) s
 table=(opt,rrhf)
 ----------------------------------------------------------------------
 -----
 title
 -----
 Symbolic Z-matrix:
 Charge =  0 Multiplicity = 1

 SCF Done:  E(RHF) =  -315.497583706     A.U. after   22 cycles
 Normal termination of Gaussian 16 at Wed Apr  9 03:09:41 2025.
 Gaussian 16:  ES64L-G16RevC.01  3-Jul-2019

 ----------------------------------------------------------------------
 #t hf aug-cc-pvdz iop(5/13=1,5/36=2,99/5=2) pseudo=read geom=check gue
 ss=(read,tcheck) scf=(maxcycle=1)
 ----------------------------------------------------------------------
 -----
 title
 -----
 Structure from the checkpoint file:  "Grambow2020_b97d3_006677_forward_mol1.chk"
 Charge =  0 Multiplicity = 1

                         Standard orientation:
 ---------------------------------------------------------------------
 Center     Atomic      Atomic             Coordinates (Angstroms)
 Number     Number       Type             X           Y           Z
 ---------------------------------------------------------------------
      1          8           0        2.155027   -0.586096   -0.094856
      2          6           0        0.976485    0.101267    0.011470
      3          7           0        0.778395    1.350210    0.147800
      4          7           0       -2.524798    0.002406   -0.056354
      5          7           0       -1.298687    0.060627   -0.302282
      6          6           0       -0.261596   -0.657695    0.107272
      7          1           0        2.875045    0.076983   -0.022925
      8          1           0       -2.691341   -0.314700    0.929706
      9          1           0       -0.397627   -1.627648    0.615463
 ---------------------------------------------------------------------

 SCF Done:  E(RHF) =  -316.847214687     A.U. after    2 cycles

 The electronic state is 1-A.
 Alpha  occ. eigenvalues --  -21.12076 -15.83870 -15.83296 -15.77146 -11.52660
 Alpha  occ. eigenvalues --  -11.46839  -1.77353  -1.56672  -1.31169  -1.14316
 Alpha  occ. eigenvalues --   -0.91663  -0.79709  -0.72681  -0.64859  -0.59913
 Alpha  occ. eigenvalues --   -0.58477  -0.52635  -0.50212  -0.45232  -0.39625
 Alpha  occ. eigenvalues --   -0.33573  -0.28569
 Alpha virt. eigenvalues --    0.00074   0.03429   0.05234   0.05494   0.08984
 Alpha virt. eigenvalues --    0.10598   0.11578   0.12044   0.12543   0.13236
 Alpha virt. eigenvalues --    0.15439   0.15653   0.16499   0.17895   0.18541

 Mulliken charges:
               1
     1  O   -3.024933
     2  C    4.750050
     3  N   -2.354536
     4  N   -1.314734
     5  N   -0.553367
     6  C   -0.395298
     7  H    0.888716
     8  H    0.598036
     9  H    1.406068
 Sum of Mulliken charges =   0.00000

 Dipole moment (field-independent basis, Debye):
    X=              0.8206    Y=             -2.9077    Z=              1.3333  Tot=              3.3024

 Test job not archived.
 1\1\GINC-SE040\SP\RHF\Aug-CC-pVDZ\C2H3N3O1\OHZDE\09-Apr-2025\0\\#t hf
 aug-cc-pvdz iop(5/13=1,5/36=2,99/5=2) pseudo=read geom=check guess=(re
 ad,tcheck) scf=(maxcycle=1)\\title\\0,1\O,0,-2.21152166,0.1630155,-0.3
 6944189\C,0,-0.98725091,-0.38638281,-0.10100473\N,0,-0.69624576,-1.562
 02554,0.28740757\N,0,2.49514098,-0.00396612,-0.10862447\N,0,1.28805359
 ,-0.21431446,-0.36535626\C,0,0.18206965,0.47952804,-0.13155476\H,0,-2.
 87896205,-0.53177689,-0.18220036\H,0,2.59736523,0.5151127,0.79730854\H
 ,0,0.22081394,1.53889158,0.17474337\\Version=ES64L-G16RevC.01\State=1-

 Normal termination of Gaussian 16 at Wed Apr  9 03:09:44 2025.
