 Gaussian 16, Revision C.01,

 ----------------------------------------------------------------------
 #t hf aug-cc-pvdz symm=none int=(grid=ultrafine) guess=(read,tcheck) s
 table=(opt,rrhf)
 ----------------------------------------------------------------------
 -----
 title
 -----
 Symbolic Z-matrix:
 Charge =  0 Multiplicity = 1

 SCF Done:  E(RHF) =  -317.618355815     A.U. after   15 cycles
 Normal termination of Gaussian 16 at Wed Apr  9 19:26:53 2025.
 Gaussian 16:  ES64L-G16RevC.01  3-Jul-2019

 ----------------------------------------------------------------------
 #t hf aug-cc-pvdz iop(5/13=1,5/36=2,99/5=2) pseudo=read geom=check gue
 ss=(read,tcheck) scf=(maxcycle=1)
 ----------------------------------------------------------------------
 -----
 title
 -----
 Structure from the checkpoint file:  "Grambow2020_wb97xd3_008983_reverse_mol2.chk"
 Charge =  0 Multiplicity = 1

                         Standard orientation:
 ---------------------------------------------------------------------
 Center     Atomic      Atomic             Coordinates (Angstroms)
 Number     Number       Type             X           Y           Z
 ---------------------------------------------------------------------
      1          7           0        3.819071   -0.101523    0.024980
      2          6           0        0.383876   -0.763064   -0.032933
      3          6           0       -0.830037   -1.142393   -0.007714
      4          7           0       -2.048725   -0.876168    0.018554
      5          6           0       -2.084006    0.501441    0.019431
      6          7           0       -1.003970    1.243969   -0.003984
      7          6           0        0.200036    0.651183   -0.029435
      8          1           0        3.866350    0.471163   -0.806713
      9          1           0        3.813928    0.512860    0.827645
     10          1           0        2.940562   -0.606751    0.009418
     11          1           0       -3.063724    0.959497    0.042629
     12          1           0        1.059041    1.316281   -0.045911
 ---------------------------------------------------------------------

 SCF Done:  E(RHF) =  -319.091806115     A.U. after    2 cycles

 The electronic state is 1-A.
 Alpha  occ. eigenvalues --  -15.81914 -15.77696 -15.73318 -11.52076 -11.49847
 Alpha  occ. eigenvalues --  -11.48795 -11.41152  -1.58547  -1.34820  -1.23805
 Alpha  occ. eigenvalues --   -1.19469  -0.95950  -0.89428  -0.73730  -0.67182
 Alpha  occ. eigenvalues --   -0.63888  -0.60401  -0.60314  -0.57996  -0.56589
 Alpha  occ. eigenvalues --   -0.45058  -0.42339  -0.39072  -0.38240  -0.37001
 Alpha virt. eigenvalues --    0.03008   0.04913   0.05483   0.06447   0.07191
 Alpha virt. eigenvalues --    0.07697   0.08073   0.09334   0.09641   0.09688
 Alpha virt. eigenvalues --    0.11511   0.11714   0.13126   0.13611   0.14400

 Mulliken charges:
               1
     1  N   -2.213601
     2  C   -1.129845
     3  C    2.624439
     4  N   -2.780465
     5  C    0.974125
     6  N   -3.298278
     7  C    0.502950
     8  H    0.623823
     9  H    0.628299
    10  H    0.904343
    11  H    1.547751
    12  H    1.616459
 Sum of Mulliken charges =   0.00000

 Dipole moment (field-independent basis, Debye):
    X=             -3.1411    Y=              1.5598    Z=             -0.0150  Tot=              3.5071

 Test job not archived.
 1\1\GINC-SE037\SP\RHF\Aug-CC-pVDZ\C4H5N3\OHZDE\09-Apr-2025\0\\#t hf au
 g-cc-pvdz iop(5/13=1,5/36=2,99/5=2) pseudo=read geom=check guess=(read
 ,tcheck) scf=(maxcycle=1)\\title\\0,1\N,0,-3.2371624,0.31474323,-0.063
 91925\C,0,0.19723295,0.88138308,0.29020294\C,0,1.40856421,1.20347569,0
 .50710002\N,0,2.62291187,0.91690525,0.50885886\C,0,2.65447675,-0.38207
 782,0.04983818\N,0,1.57573609,-1.04992139,-0.27982178\C,0,0.37685083,-
 0.45628153,-0.17055251\H,0,-3.23706921,0.05441377,-1.04072297\H,0,-3.2
 8072169,-0.5326785,0.48539317\H,0,-2.35793437,0.77651118,0.13857751\H,

 Normal termination of Gaussian 16 at Wed Apr  9 19:26:57 2025.
