 Gaussian 16, Revision C.01,

 ----------------------------------------------------------------------
 #t hf aug-cc-pvdz symm=none int=(grid=ultrafine) guess=(read,tcheck) s
 table=(opt,rrhf)
 ----------------------------------------------------------------------
 -----
 title
 -----
 Symbolic Z-matrix:
 Charge =  0 Multiplicity = 1

 SCF Done:  E(RHF) =  -271.220281807     A.U. after   12 cycles

 1\1\GINC-SE114\Stability\RHF\Aug-CC-pVDZ\C5H12O1\OHZDE\09-Apr-2025\0\\
 #t hf aug-cc-pvdz symm=none int=(grid=ultrafine) guess=(read,tcheck) s
 table=(opt,rrhf)\\title\\0,1\C,0,-0.92345655,1.26687267,-0.15309127\C,
 0,-0.17330601,-0.07142321,-0.0099698\C,0,-0.79543725,-1.12009077,-0.95
 142947\C,0,-0.25612336,-0.56667731,1.4468246\C,0,1.29937308,0.11207539
 ,-0.41535416\O,0,1.90565291,1.0870772,0.434965\H,0,-0.89042112,1.62381
 198,-1.19359411\H,0,-0.47074983,2.03431458,0.48642635\H,0,-1.97892703,
 1.1498234,0.13248072\H,0,-0.74855591,-0.79195556,-2.00070698\H,0,-0.27

 Normal termination of Gaussian 16 at Wed Apr  9 16:57:22 2025.
 Gaussian 16:  ES64L-G16RevC.01  3-Jul-2019

 ----------------------------------------------------------------------
 #t hf aug-cc-pvdz iop(5/13=1,5/36=2,99/5=2) pseudo=read geom=check gue
 ss=(read,tcheck) scf=(maxcycle=1)
 ----------------------------------------------------------------------
 -----
 title
 -----
 Structure from the checkpoint file:  "Grambow2020_b97d3_006881_forward_mol2.chk"
 Charge =  0 Multiplicity = 1

                         Standard orientation:
 ---------------------------------------------------------------------
 Center     Atomic      Atomic             Coordinates (Angstroms)
 Number     Number       Type             X           Y           Z
 ---------------------------------------------------------------------
      1          6           0        0.455798   -0.913593   -1.245073
      2          6           0        0.405596   -0.007444    0.000165
      3          6           0        1.593750    0.972826   -0.021221
      4          6           0        0.463856   -0.866934    1.277768
      5          6           0       -0.890370    0.821482   -0.011925
      6          8           0       -2.015032   -0.059574   -0.001029
      7          1           0        0.435359   -0.312428   -2.166662
      8          1           0       -0.403162   -1.595347   -1.262170
      9          1           0        1.378697   -1.511508   -1.249981
     10          1           0        1.576220    1.601323   -0.924293
     11          1           0        1.580381    1.635119    0.857478
     12          1           0        2.545358    0.422474   -0.012945
     13          1           0        1.385964   -1.465799    1.296782
     14          1           0        0.451560   -0.232326    2.176678
     15          1           0       -0.395788   -1.546331    1.326602
     16          1           0       -0.895303    1.487410    0.873051
     17          1           0       -0.894202    1.463545   -0.914410
     18          1           0       -2.816610    0.492436    0.009824
 ---------------------------------------------------------------------

 SCF Done:  E(RHF) =  -272.558248059     A.U. after    2 cycles

 The electronic state is 1-A.
 Alpha  occ. eigenvalues --  -21.06314 -11.43598 -11.39866 -11.38129 -11.37571
 Alpha  occ. eigenvalues --  -11.34062  -1.70215  -1.26348  -0.99654  -0.99296
 Alpha  occ. eigenvalues --   -0.96004  -0.76171  -0.65031  -0.63654  -0.60704
 Alpha  occ. eigenvalues --   -0.56711  -0.56430  -0.52289  -0.51346  -0.50273
 Alpha  occ. eigenvalues --   -0.44859  -0.41795  -0.41334  -0.39106  -0.31654
 Alpha virt. eigenvalues --    0.03963   0.05194   0.05230   0.05664   0.05917
 Alpha virt. eigenvalues --    0.06138   0.06196   0.06889   0.06971   0.08887
 Alpha virt. eigenvalues --    0.09099   0.09544   0.12198   0.13394   0.13499

 Mulliken charges:
               1
     1  C   -4.651962
     2  C    2.958163
     3  C   -4.387910
     4  C   -4.643518
     5  C   -0.947249
     6  O   -2.859756
     7  H    1.200819
     8  H    1.336801
     9  H    1.189600
    10  H    1.191583
    11  H    1.190346
    12  H    1.201713
    13  H    1.190351
    14  H    1.202075
    15  H    1.336492
    16  H    1.371891
    17  H    1.366507
    18  H    0.754053
 Sum of Mulliken charges =  -0.00000

 Dipole moment (field-independent basis, Debye):
    X=             -0.2525    Y=              0.4993    Z=              0.0072  Tot=              0.5595

 Test job not archived.
 1\1\GINC-SE114\SP\RHF\Aug-CC-pVDZ\C5H12O1\OHZDE\09-Apr-2025\0\\#t hf a
 ug-cc-pvdz iop(5/13=1,5/36=2,99/5=2) pseudo=read geom=check guess=(rea
 d,tcheck) scf=(maxcycle=1)\\title\\0,1\C,0,-0.92345655,1.26687267,-0.1
 5309127\C,0,-0.17330601,-0.07142321,-0.0099698\C,0,-0.79543725,-1.1200
 9077,-0.95142947\C,0,-0.25612336,-0.56667731,1.4468246\C,0,1.29937308,
 0.11207539,-0.41535416\O,0,1.90565291,1.0870772,0.434965\H,0,-0.890421
 12,1.62381198,-1.19359411\H,0,-0.47074983,2.03431458,0.48642635\H,0,-1
 .97892703,1.1498234,0.13248072\H,0,-0.74855591,-0.79195556,-2.00070698

 Normal termination of Gaussian 16 at Wed Apr  9 16:57:29 2025.
