 Gaussian 16, Revision C.01,

 ----------------------------------------------------------------------
 #t hf aug-cc-pvdz symm=none int=(grid=ultrafine) guess=(read,tcheck) s
 table=(opt,rrhf)
 ----------------------------------------------------------------------
 -----
 title
 -----
 Symbolic Z-matrix:
 Charge =  0 Multiplicity = 1

 SCF Done:  E(RHF) =  -191.809364458     A.U. after   15 cycles
 Normal termination of Gaussian 16 at Wed Apr  9 03:21:21 2025.
 Gaussian 16:  ES64L-G16RevC.01  3-Jul-2019

 ----------------------------------------------------------------------
 #t hf aug-cc-pvdz iop(5/13=1,5/36=2,99/5=2) pseudo=read geom=check gue
 ss=(read,tcheck) scf=(maxcycle=1)
 ----------------------------------------------------------------------
 -----
 title
 -----
 Structure from the checkpoint file:  "Grambow2020_wb97xd3_006097_forward_mol1.chk"
 Charge =  0 Multiplicity = 1

                         Standard orientation:
 ---------------------------------------------------------------------
 Center     Atomic      Atomic             Coordinates (Angstroms)
 Number     Number       Type             X           Y           Z
 ---------------------------------------------------------------------
      1          6           0       -1.536361   -0.034089    0.156491
      2          6           0       -0.283052    0.080732   -0.635835
      3          6           0        0.860131    0.696441    0.062797
      4          8           0        1.056379   -0.717754    0.219198
      5          1           0       -2.080696   -0.951668   -0.064004
      6          1           0       -2.165388    0.799195   -0.180968
      7          1           0       -1.396474    0.066614    1.238243
      8          1           0        0.622208   -0.973565   -0.773782
      9          1           0        1.640796    1.192351   -0.510435
     10          1           0        0.684220    1.150602    1.036642
 ---------------------------------------------------------------------

 SCF Done:  E(RHF) =  -192.722712749     A.U. after    2 cycles

 The electronic state is 1-A.
 Alpha  occ. eigenvalues --  -21.08683 -11.45534 -11.41462 -11.37545  -1.77104
 Alpha  occ. eigenvalues --   -1.13712  -0.97547  -0.82904  -0.68043  -0.58944
 Alpha  occ. eigenvalues --   -0.58077  -0.55406  -0.51606  -0.41420  -0.35401
 Alpha  occ. eigenvalues --   -0.30684
 Alpha virt. eigenvalues --    0.04028   0.05644   0.05881   0.06241   0.06719
 Alpha virt. eigenvalues --    0.07200   0.09292   0.10824   0.12863   0.14796
 Alpha virt. eigenvalues --    0.14971   0.15717   0.15945   0.17821   0.18439

 Mulliken charges:
               1
     1  C   -3.434529
     2  C   -1.235208
     3  C   -1.344467
     4  O   -2.034766
     5  H    1.247929
     6  H    1.300579
     7  H    1.341426
     8  H    1.297443
     9  H    1.389310
    10  H    1.472283
 Sum of Mulliken charges =  -0.00000

 Dipole moment (field-independent basis, Debye):
    X=              0.5826    Y=              0.1484    Z=              1.5152  Tot=              1.6301

 Test job not archived.
 1\1\GINC-SE092\SP\RHF\Aug-CC-pVDZ\C3H6O1\OHZDE\09-Apr-2025\0\\#t hf au
 g-cc-pvdz iop(5/13=1,5/36=2,99/5=2) pseudo=read geom=check guess=(read
 ,tcheck) scf=(maxcycle=1)\\title\\0,1\C,0,-1.24965871,0.29516214,0.098
 06247\C,0,-0.08216603,-0.34613202,-0.56333725\C,0,1.24181944,0.1421985
 2,-0.13596377\O,0,1.01262093,-1.03193646,0.6588942\H,0,-2.06045785,-0.
 41007306,0.27727909\H,0,-1.62061948,1.03060874,-0.62679634\H,0,-1.0065
 9287,0.82814081,1.02367045\H,0,0.44954134,-1.56592174,-0.1397007\H,0,2
 .09136999,0.06246195,-0.81114088\H,0,1.28357625,1.01789812,0.50978274\

 Normal termination of Gaussian 16 at Wed Apr  9 03:21:24 2025.
