 Gaussian 16, Revision C.01,

 ----------------------------------------------------------------------
 #t hf aug-cc-pvdz symm=none int=(grid=ultrafine) guess=(read,tcheck) s
 table=(opt,rrhf)
 ----------------------------------------------------------------------
 -----
 title
 -----
 Symbolic Z-matrix:
 Charge =  0 Multiplicity = 1

 SCF Done:  E(RHF) =  -323.650198551     A.U. after   18 cycles
 Normal termination of Gaussian 16 at Wed Apr  9 18:16:56 2025.
 Gaussian 16:  ES64L-G16RevC.01  3-Jul-2019

 ----------------------------------------------------------------------
 #t hf aug-cc-pvdz iop(5/13=1,5/36=2,99/5=2) pseudo=read geom=check gue
 ss=(read,tcheck) scf=(maxcycle=1)
 ----------------------------------------------------------------------
 -----
 title
 -----
 Structure from the checkpoint file:  "Grambow2020_wb97xd3_006829_forward_mol1.chk"
 Charge =  0 Multiplicity = 1

                         Standard orientation:
 ---------------------------------------------------------------------
 Center     Atomic      Atomic             Coordinates (Angstroms)
 Number     Number       Type             X           Y           Z
 ---------------------------------------------------------------------
      1          6           0        0.277088    1.426446   -0.497913
      2          6           0       -1.136729    0.310118    0.950825
      3          6           0       -2.080968   -0.245505   -0.068388
      4          6           0       -0.857994   -0.860741   -0.763825
      5          6           0        0.064429    0.010083    0.208191
      6          7           0        1.240450   -0.406900    0.761862
      7          8           0        2.219959   -0.394742   -0.241994
      8          1           0       -0.572802    1.717791   -1.111133
      9          1           0        1.167171    1.272588   -1.113932
     10          1           0        0.485922    2.186854    0.252075
     11          1           0       -1.273148    0.551248    1.999781
     12          1           0       -2.774736   -0.992212    0.328549
     13          1           0       -2.669072    0.490066   -0.627128
     14          1           0       -0.699833   -0.683796   -1.825704
     15          1           0       -0.736273   -1.914616   -0.531471
     16          1           0        3.034992   -0.464097    0.258539
 ---------------------------------------------------------------------

 SCF Done:  E(RHF) =  -325.175927853     A.U. after    2 cycles

 The electronic state is 1-A.
 Alpha  occ. eigenvalues --  -21.03362 -15.65810 -11.53588 -11.47126 -11.43564
 Alpha  occ. eigenvalues --  -11.41016 -11.37886  -1.72399  -1.39717  -1.13835
 Alpha  occ. eigenvalues --   -1.02449  -0.96819  -0.90446  -0.76306  -0.66565
 Alpha  occ. eigenvalues --   -0.64284  -0.63002  -0.57900  -0.54277  -0.53238
 Alpha  occ. eigenvalues --   -0.49701  -0.49165  -0.44886  -0.44132  -0.36511
 Alpha  occ. eigenvalues --   -0.28407  -0.16951
 Alpha virt. eigenvalues --    0.02344   0.03508   0.04658   0.05048   0.05533
 Alpha virt. eigenvalues --    0.06217   0.06252   0.07190   0.07771   0.08690
 Alpha virt. eigenvalues --    0.10818   0.11885   0.13081   0.13724   0.14444

 Mulliken charges:
               1
     1  C   -3.479359
     2  C   -1.118586
     3  C   -2.908487
     4  C   -2.894860
     5  C    3.007940
     6  N   -1.526646
     7  O   -2.377653
     8  H    1.318380
     9  H    1.465778
    10  H    1.160307
    11  H    1.345487
    12  H    1.266345
    13  H    1.279391
    14  H    1.367971
    15  H    1.216619
    16  H    0.877374
 Sum of Mulliken charges =   0.00000

 Dipole moment (field-independent basis, Debye):
    X=             -2.9131    Y=              0.9690    Z=             -0.8360  Tot=              3.1818

 Test job not archived.
 1\1\GINC-SE114\SP\RHF\Aug-CC-pVDZ\C5H9N1O1\OHZDE\09-Apr-2025\0\\#t hf
 aug-cc-pvdz iop(5/13=1,5/36=2,99/5=2) pseudo=read geom=check guess=(re
 ad,tcheck) scf=(maxcycle=1)\\title\\0,1\C,0,-0.67314736,-1.08560542,0.
 70076019\C,0,-0.47425592,0.05579045,-1.2996321\C,0,-0.87430149,1.41045
 937,-0.80573671\C,0,0.2311123,1.27462413,0.25134473\C,0,0.37503617,-0.
 25875629,-0.17532251\N,0,1.55065398,-0.94806445,-0.25425204\O,0,1.9748
 9209,-1.23157555,1.05225372\H,0,-1.55747393,-0.50368338,0.950892\H,0,-
 0.10734761,-1.34053619,1.60091584\H,0,-0.95171181,-1.9998022,0.1802202

 Normal termination of Gaussian 16 at Wed Apr  9 18:17:01 2025.
