 Gaussian 16, Revision C.01,

 ----------------------------------------------------------------------
 #t hf aug-cc-pvdz symm=none int=(grid=ultrafine) guess=(read,tcheck) s
 table=(opt,rrhf)
 ----------------------------------------------------------------------
 -----
 title
 -----
 Symbolic Z-matrix:
 Charge =  0 Multiplicity = 1

 SCF Done:  E(RHF) =  -324.987978440     A.U. after   14 cycles
 Normal termination of Gaussian 16 at Wed Apr  9 19:26:25 2025.
 Gaussian 16:  ES64L-G16RevC.01  3-Jul-2019

 ----------------------------------------------------------------------
 #t hf aug-cc-pvdz iop(5/13=1,5/36=2,99/5=2) pseudo=read geom=check gue
 ss=(read,tcheck) scf=(maxcycle=1)
 ----------------------------------------------------------------------
 -----
 title
 -----
 Structure from the checkpoint file:  "Grambow2020_wb97xd3_008962_reverse_mol2.chk"
 Charge =  0 Multiplicity = 1

                         Standard orientation:
 ---------------------------------------------------------------------
 Center     Atomic      Atomic             Coordinates (Angstroms)
 Number     Number       Type             X           Y           Z
 ---------------------------------------------------------------------
      1          6           0        2.390879   -0.959791   -0.586059
      2          6           0        1.771695   -0.253243    0.607082
      3          7           0        0.515881    0.435461    0.250882
      4          6           0        0.633496    1.665861   -0.247795
      5          6           0       -0.602922   -0.259159    0.401751
      6          6           0       -1.893299    0.286980   -0.080763
      7          8           0       -2.905369   -0.698453   -0.122294
      8          1           0        3.301975   -1.474313   -0.276592
      9          1           0        2.648180   -0.251191   -1.373232
     10          1           0        1.701532   -1.698792   -0.995296
     11          1           0        1.536830   -0.961728    1.399942
     12          1           0        2.447320    0.496485    1.016924
     13          1           0       -0.247048    2.237087   -0.483048
     14          1           0        1.622879    2.060933   -0.400722
     15          1           0       -0.561263   -1.180630    0.961172
     16          1           0       -2.280865    1.084757    0.568098
     17          1           0       -1.739981    0.752137   -1.072413
     18          1           0       -2.596863   -1.409229   -0.687953
 ---------------------------------------------------------------------

 SCF Done:  E(RHF) =  -326.550128788     A.U. after    2 cycles

 The electronic state is 1-A.
 Alpha  occ. eigenvalues --  -21.06395 -15.83401 -11.44890 -11.44511 -11.38209
 Alpha  occ. eigenvalues --  -11.37109 -11.36596  -1.70921  -1.50423  -1.15912
 Alpha  occ. eigenvalues --   -1.06349  -0.97535  -0.90646  -0.77453  -0.69322
 Alpha  occ. eigenvalues --   -0.66959  -0.65074  -0.60359  -0.58795  -0.56120
 Alpha  occ. eigenvalues --   -0.54613  -0.52611  -0.50461  -0.49822  -0.45401
 Alpha  occ. eigenvalues --   -0.40324  -0.31386  -0.22248
 Alpha virt. eigenvalues --    0.03512   0.05117   0.05156   0.05720   0.05757
 Alpha virt. eigenvalues --    0.06174   0.06486   0.07050   0.07421   0.08637
 Alpha virt. eigenvalues --    0.09088   0.10486   0.11188   0.12778   0.13633

 Mulliken charges:
               1
     1  C   -3.425979
     2  C   -3.069471
     3  N   -3.553996
     4  C   -2.329777
     5  C    0.855110
     6  C   -0.832818
     7  O   -2.878450
     8  H    1.109935
     9  H    1.446285
    10  H    1.418633
    11  H    1.568658
    12  H    1.529976
    13  H    1.653700
    14  H    1.496550
    15  H    1.605501
    16  H    1.347404
    17  H    1.298958
    18  H    0.759783
 Sum of Mulliken charges =  -0.00000

 Dipole moment (field-independent basis, Debye):
    X=              2.2910    Y=             -1.0235    Z=              0.2774  Tot=              2.5245

 Test job not archived.
 1\1\GINC-SE117\SP\RHF\Aug-CC-pVDZ\C5H11N1O1\OHZDE\09-Apr-2025\0\\#t hf
  aug-cc-pvdz iop(5/13=1,5/36=2,99/5=2) pseudo=read geom=check guess=(r
 ead,tcheck) scf=(maxcycle=1)\\title\\0,1\C,0,-2.12055133,-0.98474931,0
 .05646074\C,0,-1.54832491,0.41131844,0.22890535\N,0,-0.08517392,0.3889
 58,0.4211279\C,0,0.34780073,0.20185811,1.66769186\C,0,0.65665937,0.493
 56649,-0.67236214\C,0,2.12637471,0.31839569,-0.59880301\O,0,2.70665385
 ,0.15304968,-1.87670192\H,0,-3.19780379,-0.92315873,-0.10581497\H,0,-1
 .94179826,-1.59556237,0.94128492\H,0,-1.67155677,-1.48044063,-0.804637

 Normal termination of Gaussian 16 at Wed Apr  9 19:26:32 2025.
