 Gaussian 16, Revision C.01,

 ----------------------------------------------------------------------
 #t hf aug-cc-pvdz symm=none int=(grid=ultrafine) guess=(read,tcheck) s
 table=(opt,rrhf)
 ----------------------------------------------------------------------
 -----
 title
 -----
 Symbolic Z-matrix:
 Charge =  0 Multiplicity = 1

 SCF Done:  E(RHF) =  -374.585528157     A.U. after   16 cycles
 Normal termination of Gaussian 16 at Wed Apr  9 18:37:13 2025.
 Gaussian 16:  ES64L-G16RevC.01  3-Jul-2019

 ----------------------------------------------------------------------
 #t hf aug-cc-pvdz iop(5/13=1,5/36=2,99/5=2) pseudo=read geom=check gue
 ss=(read,tcheck) scf=(maxcycle=1)
 ----------------------------------------------------------------------
 -----
 title
 -----
 Structure from the checkpoint file:  "Grambow2020_wb97xd3_007333_reverse_mol2.chk"
 Charge =  0 Multiplicity = 1

                         Standard orientation:
 ---------------------------------------------------------------------
 Center     Atomic      Atomic             Coordinates (Angstroms)
 Number     Number       Type             X           Y           Z
 ---------------------------------------------------------------------
      1          7           0       -2.032947   -0.949105   -0.071057
      2          6           0       -0.818992   -0.346434    0.019972
      3          6           0       -0.870108    1.164888   -0.140333
      4          8           0        0.037637    1.871160    0.174844
      5          6           0        1.515064   -0.434868    0.357782
      6          8           0        2.271253   -0.338785   -0.568216
      7          7           0        0.241895   -0.983651    0.269670
      8          1           0       -2.068586   -1.952875   -0.073818
      9          1           0       -2.822837   -0.450697   -0.435203
     10          1           0       -1.813343    1.576181   -0.553671
     11          1           0        1.815225   -0.203833    1.394852
 ---------------------------------------------------------------------

 SCF Done:  E(RHF) =  -376.191226214     A.U. after    2 cycles

 The electronic state is 1-A.
 Alpha  occ. eigenvalues --  -21.11224 -21.04030 -15.80900 -15.74440 -11.53657
 Alpha  occ. eigenvalues --  -11.49379 -11.47846  -1.76231  -1.70457  -1.47657
 Alpha  occ. eigenvalues --   -1.30780  -1.01843  -0.91171  -0.77716  -0.74053
 Alpha  occ. eigenvalues --   -0.70130  -0.65241  -0.59657  -0.55979  -0.52584
 Alpha  occ. eigenvalues --   -0.49074  -0.46734  -0.39250  -0.35224  -0.31990
 Alpha  occ. eigenvalues --   -0.28322
 Alpha virt. eigenvalues --    0.02387   0.04281   0.05335   0.06488   0.08201
 Alpha virt. eigenvalues --    0.09967   0.10819   0.11377   0.11966   0.12332
 Alpha virt. eigenvalues --    0.13377   0.13980   0.14405   0.15310   0.15948

 Mulliken charges:
               1
     1  N   -3.208014
     2  C    3.859624
     3  C    1.570581
     4  O   -2.656784
     5  C    1.526733
     6  O   -2.409133
     7  N   -3.237069
     8  H    0.771090
     9  H    0.605736
    10  H    1.607476
    11  H    1.569759
 Sum of Mulliken charges =  -0.00000

 Dipole moment (field-independent basis, Debye):
    X=             -4.2295    Y=              0.4315    Z=             -0.0805  Tot=              4.2522

 Test job not archived.
 1\1\GINC-SE168\SP\RHF\Aug-CC-pVDZ\C3H4N2O2\OHZDE\09-Apr-2025\0\\#t hf
 aug-cc-pvdz iop(5/13=1,5/36=2,99/5=2) pseudo=read geom=check guess=(re
 ad,tcheck) scf=(maxcycle=1)\\title\\0,1\N,0,-1.79266546,-0.23255135,-0
 .29984133\C,0,-0.46066998,-0.09371625,-0.07246872\C,0,-0.0449979,1.321
 58464,0.29704839\O,0,1.01414164,1.56846765,0.78636538\C,0,1.71545152,-
 0.99241381,0.09061101\O,0,2.51622597,-0.81874974,-0.78524709\N,0,0.343
 16238,-1.06640915,-0.11244897\H,0,-2.12884412,-1.11421789,-0.64404979\
 H,0,-2.37393035,0.57390221,-0.42907656\H,0,-0.79571026,2.11360343,0.09

 Normal termination of Gaussian 16 at Wed Apr  9 18:37:17 2025.
