 Gaussian 16, Revision C.01,

 ----------------------------------------------------------------------
 #t hf aug-cc-pvdz symm=none int=(grid=ultrafine) guess=(read,tcheck) s
 table=(opt,rrhf)
 ----------------------------------------------------------------------
 -----
 title
 -----
 Symbolic Z-matrix:
 Charge =  0 Multiplicity = 1

 SCF Done:  E(RHF) =  -307.863511419     A.U. after   14 cycles

 1\1\GINC-SE168\Stability\RHF\Aug-CC-pVDZ\C6H10O1\OHZDE\09-Apr-2025\0\\
 #t hf aug-cc-pvdz symm=none int=(grid=ultrafine) guess=(read,tcheck) s
 table=(opt,rrhf)\\title\\0,1\C,0,1.74596267,-0.37166479,-0.38708468\C,
 0,0.83191151,0.3612119,0.57780081\C,0,0.23238609,1.69131826,0.17093609
 \C,0,-1.02777188,1.30665089,0.36205104\O,0,-1.10545195,-0.98105924,-1.
 51448744\C,0,-1.19539082,-1.23031859,-0.12684429\C,0,-0.659242,-0.1105
 3335,0.75322708\H,0,1.96619843,-1.37840294,-0.0236299\H,0,2.69704918,0
 .15723562,-0.48178337\H,0,1.29690589,-0.46422964,-1.37514654\H,0,1.323

 Normal termination of Gaussian 16 at Wed Apr  9 19:16:14 2025.
 Gaussian 16:  ES64L-G16RevC.01  3-Jul-2019

 ----------------------------------------------------------------------
 #t hf aug-cc-pvdz iop(5/13=1,5/36=2,99/5=2) pseudo=read geom=check gue
 ss=(read,tcheck) scf=(maxcycle=1)
 ----------------------------------------------------------------------
 -----
 title
 -----
 Structure from the checkpoint file:  "Grambow2020_wb97xd3_008500_reverse_mol2.chk"
 Charge =  0 Multiplicity = 1

                         Standard orientation:
 ---------------------------------------------------------------------
 Center     Atomic      Atomic             Coordinates (Angstroms)
 Number     Number       Type             X           Y           Z
 ---------------------------------------------------------------------
      1          6           0       -1.012982    1.682540   -0.120707
      2          6           0       -1.123384    0.268583    0.419790
      3          6           0       -1.392740   -0.875093   -0.536037
      4          6           0       -0.313489   -1.569911   -0.182570
      5          8           0        1.764195    0.435749   -0.831883
      6          6           0        1.540994    0.094326    0.520665
      7          6           0        0.180187   -0.526952    0.800163
      8          1           0       -0.659869    2.367342    0.654201
      9          1           0       -1.991797    2.038289   -0.450302
     10          1           0       -0.319213    1.740064   -0.958480
     11          1           0       -1.830008    0.258478    1.256844
     12          1           0       -2.213078   -1.073234   -1.216495
     13          1           0        1.410082   -0.268609   -1.380833
     14          1           0        0.067177   -2.546289   -0.461823
     15          1           0        1.655398    1.018955    1.092337
     16          1           0        2.319072   -0.599463    0.868801
     17          1           0        0.177162   -0.862483    1.842989
 ---------------------------------------------------------------------

 SCF Done:  E(RHF) =  -309.343006554     A.U. after    2 cycles

 The electronic state is 1-A.
 Alpha  occ. eigenvalues --  -21.05790 -11.50582 -11.42809 -11.41934 -11.39992
 Alpha  occ. eigenvalues --  -11.37637 -11.34944  -1.70648  -1.35065  -1.07544
 Alpha  occ. eigenvalues --   -1.03712  -0.88192  -0.86341  -0.72324  -0.69398
 Alpha  occ. eigenvalues --   -0.63852  -0.62622  -0.56901  -0.55826  -0.54202
 Alpha  occ. eigenvalues --   -0.48946  -0.46919  -0.41207  -0.40736  -0.38959
 Alpha  occ. eigenvalues --   -0.34450  -0.30524
 Alpha virt. eigenvalues --    0.03873   0.04616   0.05099   0.05390   0.05567
 Alpha virt. eigenvalues --    0.06118   0.06342   0.07517   0.08412   0.08558
 Alpha virt. eigenvalues --    0.11357   0.11887   0.12724   0.13958   0.14219

 Mulliken charges:
               1
     1  C   -4.067527
     2  C   -1.384287
     3  C   -0.545689
     4  C   -0.387369
     5  O   -2.649893
     6  C   -0.895224
     7  C   -2.605040
     8  H    1.285039
     9  H    1.066149
    10  H    1.441716
    11  H    1.408446
    12  H    1.186698
    13  H    0.922398
    14  H    1.142813
    15  H    1.552313
    16  H    1.173494
    17  H    1.355963
 Sum of Mulliken charges =   0.00000

 Dipole moment (field-independent basis, Debye):
    X=             -0.6769    Y=             -0.5459    Z=              0.3081  Tot=              0.9226

 Test job not archived.
 1\1\GINC-SE168\SP\RHF\Aug-CC-pVDZ\C6H10O1\OHZDE\09-Apr-2025\0\\#t hf a
 ug-cc-pvdz iop(5/13=1,5/36=2,99/5=2) pseudo=read geom=check guess=(rea
 d,tcheck) scf=(maxcycle=1)\\title\\0,1\C,0,1.74596267,-0.37166479,-0.3
 8708468\C,0,0.83191151,0.3612119,0.57780081\C,0,0.23238609,1.69131826,
 0.17093609\C,0,-1.02777188,1.30665089,0.36205104\O,0,-1.10545195,-0.98
 105924,-1.51448744\C,0,-1.19539082,-1.23031859,-0.12684429\C,0,-0.6592
 42,-0.11053335,0.75322708\H,0,1.96619843,-1.37840294,-0.0236299\H,0,2.
 69704918,0.15723562,-0.48178337\H,0,1.29690589,-0.46422964,-1.37514654

 Normal termination of Gaussian 16 at Wed Apr  9 19:16:21 2025.
