 Gaussian 16, Revision C.01,

 ----------------------------------------------------------------------
 #t hf aug-cc-pvdz symm=none int=(grid=ultrafine) guess=(read,tcheck) s
 table=(opt,rrhf)
 ----------------------------------------------------------------------
 -----
 title
 -----
 Symbolic Z-matrix:
 Charge =  0 Multiplicity = 1

 SCF Done:  E(RHF) =  -343.663820368     A.U. after   13 cycles
 Normal termination of Gaussian 16 at Wed Apr  9 03:28:15 2025.
 Gaussian 16:  ES64L-G16RevC.01  3-Jul-2019

 ----------------------------------------------------------------------
 #t hf aug-cc-pvdz iop(5/13=1,5/36=2,99/5=2) pseudo=read geom=check gue
 ss=(read,tcheck) scf=(maxcycle=1)
 ----------------------------------------------------------------------
 -----
 title
 -----
 Structure from the checkpoint file:  "Grambow2020_wb97xd3_006722_reverse_mol2.chk"
 Charge =  0 Multiplicity = 1

                         Standard orientation:
 ---------------------------------------------------------------------
 Center     Atomic      Atomic             Coordinates (Angstroms)
 Number     Number       Type             X           Y           Z
 ---------------------------------------------------------------------
      1          8           0       -2.672782   -0.986038    0.246103
      2          6           0       -0.505017    2.017483   -0.047018
      3          6           0        0.108646    0.850961   -0.030767
      4          8           0       -0.086975   -0.211523   -0.910726
      5          6           0        0.750537   -1.045394   -0.082394
      6          6           0        2.126682   -0.510193   -0.079629
      7          6           0        1.073678    0.110694    0.822739
      8          1           0       -1.983236   -0.790591   -0.398390
      9          1           0       -1.227338    2.255151   -0.816060
     10          1           0       -0.280182    2.751336    0.713047
     11          1           0       -2.690870   -0.209652    0.808202
     12          1           0        0.416822   -2.053036    0.115532
     13          1           0        2.491439    0.030003   -0.944794
     14          1           0        2.860653   -1.108794    0.445885
     15          1           0        1.163617    0.164761    1.895975
 ---------------------------------------------------------------------

 SCF Done:  E(RHF) =  -345.225749310     A.U. after    2 cycles

 The electronic state is 1-A.
 Alpha  occ. eigenvalues --  -21.08110 -21.07237 -11.48730 -11.48149 -11.45024
 Alpha  occ. eigenvalues --  -11.40938 -11.38237  -1.83687  -1.63845  -1.28268
 Alpha  occ. eigenvalues --   -1.12430  -0.93774  -0.87214  -0.75895  -0.71569
 Alpha  occ. eigenvalues --   -0.66495  -0.61340  -0.59513  -0.58768  -0.50986
 Alpha  occ. eigenvalues --   -0.49667  -0.47339  -0.44241  -0.40663  -0.35337
 Alpha  occ. eigenvalues --   -0.33244  -0.28366
 Alpha virt. eigenvalues --    0.03523   0.04670   0.05000   0.05472   0.05946
 Alpha virt. eigenvalues --    0.06274   0.07352   0.08455   0.09443   0.11159
 Alpha virt. eigenvalues --    0.11983   0.12190   0.12722   0.13545   0.14732

 Mulliken charges:
               1
     1  O   -2.183969
     2  C   -4.194652
     3  C    4.756310
     4  O   -3.428254
     5  C    1.118297
     6  C   -3.093541
     7  C   -2.794679
     8  H    1.309520
     9  H    1.417230
    10  H    1.328051
    11  H    0.854080
    12  H    1.409052
    13  H    1.157418
    14  H    1.300862
    15  H    1.044277
 Sum of Mulliken charges =  -0.00000

 Dipole moment (field-independent basis, Debye):
    X=              2.2525    Y=             -0.2979    Z=              0.5809  Tot=              2.3452

 Test job not archived.
 1\1\GINC-SE456\SP\RHF\Aug-CC-pVDZ\C5H8O2\OHZDE\09-Apr-2025\0\\#t hf au
 g-cc-pvdz iop(5/13=1,5/36=2,99/5=2) pseudo=read geom=check guess=(read
 ,tcheck) scf=(maxcycle=1)\\title\\0,1\O,0,1.52187509,0.0525158,2.56617
 823\C,0,1.67366275,0.20676357,-1.14319257\C,0,0.47049845,0.15126702,-0
 .60752966\O,0,-0.07962267,1.04185397,0.31208441\C,0,-1.21091757,0.1616
 5925,0.48039802\C,0,-1.95590174,0.07102795,-0.79121905\C,0,-0.70127947
 ,-0.76219017,-0.59058193\H,0,1.0710825,0.65165767,1.96048886\H,0,2.347
 91267,1.02039146,-0.91285615\H,0,1.99103892,-0.56606256,-1.82788349\H,

 Normal termination of Gaussian 16 at Wed Apr  9 03:28:20 2025.
