 Gaussian 16, Revision C.01,

 ----------------------------------------------------------------------
 #t hf aug-cc-pvdz symm=none int=(grid=ultrafine) guess=(read,tcheck) s
 table=(opt,rrhf)
 ----------------------------------------------------------------------
 -----
 title
 -----
 Symbolic Z-matrix:
 Charge =  0 Multiplicity = 1

 SCF Done:  E(RHF) =  -322.505609262     A.U. after   16 cycles
 Normal termination of Gaussian 16 at Wed Apr  9 18:39:35 2025.
 Gaussian 16:  ES64L-G16RevC.01  3-Jul-2019

 ----------------------------------------------------------------------
 #t hf aug-cc-pvdz iop(5/13=1,5/36=2,99/5=2) pseudo=read geom=check gue
 ss=(read,tcheck) scf=(maxcycle=1)
 ----------------------------------------------------------------------
 -----
 title
 -----
 Structure from the checkpoint file:  "Grambow2020_wb97xd3_007374_reverse_mol1.chk"
 Charge =  0 Multiplicity = 1

                         Standard orientation:
 ---------------------------------------------------------------------
 Center     Atomic      Atomic             Coordinates (Angstroms)
 Number     Number       Type             X           Y           Z
 ---------------------------------------------------------------------
      1          6           0       -1.612480   -0.092094    0.617361
      2          6           0       -0.974365    0.711211   -0.437265
      3          6           0        0.278573    1.330248   -0.229069
      4          8           0        1.418070    0.659563    0.061643
      5          6           0        1.404476   -0.684302    0.128908
      6          7           0        0.421410   -1.440183   -0.074373
      7          6           0       -0.868808   -0.956084   -0.280835
      8          1           0       -0.711751    0.851233    1.713286
      9          1           0       -2.690965   -0.202288    0.507295
     10          1           0       -1.599275    1.208648   -1.170224
     11          1           0       -0.166280    1.502656    1.602016
     12          1           0        0.520748    2.248814   -0.751926
     13          1           0        2.398531   -1.071940    0.314858
     14          1           0       -1.409818   -1.586222   -0.982438
 ---------------------------------------------------------------------

 SCF Done:  E(RHF) =  -324.020202741     A.U. after    2 cycles

 The electronic state is 1-A.
 Alpha  occ. eigenvalues --  -21.14224 -15.74975 -11.52029 -11.48421 -11.47903
 Alpha  occ. eigenvalues --  -11.42495 -11.37066  -1.87296  -1.42472  -1.27213
 Alpha  occ. eigenvalues --   -1.02938  -0.97402  -0.80267  -0.78417  -0.70716
 Alpha  occ. eigenvalues --   -0.67698  -0.63729  -0.63303  -0.57721  -0.56364
 Alpha  occ. eigenvalues --   -0.48051  -0.46553  -0.41565  -0.36323  -0.34912
 Alpha  occ. eigenvalues --   -0.26630
 Alpha virt. eigenvalues --    0.03499   0.04838   0.05152   0.05500   0.05958
 Alpha virt. eigenvalues --    0.07548   0.08374   0.08683   0.10028   0.10347
 Alpha virt. eigenvalues --    0.12027   0.12593   0.12819   0.13475   0.14151

 Mulliken charges:
               1
     1  C   -1.938936
     2  C   -0.553389
     3  C    0.087781
     4  O   -3.477489
     5  C    1.634530
     6  N   -3.422266
     7  C    0.494992
     8  H   -0.212648
     9  H    1.183679
    10  H    1.220450
    11  H    0.256686
    12  H    1.539164
    13  H    1.736145
    14  H    1.451303
 Sum of Mulliken charges =  -0.00000

 Dipole moment (field-independent basis, Debye):
    X=              1.0700    Y=              0.9131    Z=             -2.3371  Tot=              2.7278

 Test job not archived.
 1\1\GINC-SE232\SP\RHF\Aug-CC-pVDZ\C5H7N1O1\OHZDE\09-Apr-2025\0\\#t hf
 aug-cc-pvdz iop(5/13=1,5/36=2,99/5=2) pseudo=read geom=check guess=(re
 ad,tcheck) scf=(maxcycle=1)\\title\\0,1\C,0,-1.43721962,-0.34660958,0.
 20641899\C,0,-0.60567121,0.4884758,-0.67442491\C,0,0.51625066,1.187569
 74,-0.17546184\O,0,1.58538614,0.59293137,0.40431318\C,0,1.6361605,-0.7
 4857067,0.49638498\N,0,0.78207172,-1.56698375,0.0723208\C,0,-0.4425500
 7,-1.16757872,-0.45910839\H,0,-0.89658695,0.65975582,1.47021233\H,0,-2
 .44555092,-0.52610798,-0.16564988\H,0,-1.05674323,0.93999461,-1.550696

 Normal termination of Gaussian 16 at Wed Apr  9 18:39:40 2025.
