 Gaussian 16, Revision C.01,

 ----------------------------------------------------------------------
 #t hf aug-cc-pvdz symm=none int=(grid=ultrafine) guess=(read,tcheck) s
 table=(opt,rrhf)
 ----------------------------------------------------------------------
 -----
 title
 -----
 Symbolic Z-matrix:
 Charge =  0 Multiplicity = 1

 SCF Done:  E(RHF) =  -374.551367168     A.U. after   15 cycles
 Normal termination of Gaussian 16 at Wed Apr  9 18:37:14 2025.
 Gaussian 16:  ES64L-G16RevC.01  3-Jul-2019

 ----------------------------------------------------------------------
 #t hf aug-cc-pvdz iop(5/13=1,5/36=2,99/5=2) pseudo=read geom=check gue
 ss=(read,tcheck) scf=(maxcycle=1)
 ----------------------------------------------------------------------
 -----
 title
 -----
 Structure from the checkpoint file:  "Grambow2020_wb97xd3_007340_reverse_mol2.chk"
 Charge =  0 Multiplicity = 1

                         Standard orientation:
 ---------------------------------------------------------------------
 Center     Atomic      Atomic             Coordinates (Angstroms)
 Number     Number       Type             X           Y           Z
 ---------------------------------------------------------------------
      1          7           0        2.078589   -0.906092    0.039428
      2          6           0        1.137624    0.097679   -0.018496
      3          6           0       -0.154173   -0.298914    0.628813
      4          8           0       -1.167793    0.775051    0.800809
      5          6           0       -1.424377   -0.182894   -0.064101
      6          8           0       -2.260266   -0.517726   -0.826064
      7          7           0        1.255500    1.257526   -0.506895
      8          1           0        2.877211   -0.823839   -0.565624
      9          1           0        1.763211   -1.848899    0.189730
     10          1           0       -0.079691   -0.950589    1.495324
     11          1           0        2.170672    1.409470   -0.922419
 ---------------------------------------------------------------------

 SCF Done:  E(RHF) =  -376.161684205     A.U. after    2 cycles

 The electronic state is 1-A.
 Alpha  occ. eigenvalues --  -21.13070 -21.08789 -15.80035 -15.73604 -11.57041
 Alpha  occ. eigenvalues --  -11.52974 -11.47706  -1.88287  -1.70761  -1.45901
 Alpha  occ. eigenvalues --   -1.26449  -1.07152  -0.87571  -0.79421  -0.73793
 Alpha  occ. eigenvalues --   -0.71494  -0.63342  -0.60012  -0.56626  -0.55475
 Alpha  occ. eigenvalues --   -0.49889  -0.45397  -0.40807  -0.35897  -0.34538
 Alpha  occ. eigenvalues --   -0.29363
 Alpha virt. eigenvalues --    0.02534   0.04410   0.04785   0.06847   0.09332
 Alpha virt. eigenvalues --    0.09881   0.11354   0.11566   0.11770   0.13041
 Alpha virt. eigenvalues --    0.13775   0.14794   0.15234   0.16388   0.16775

 Mulliken charges:
               1
     1  N   -3.044659
     2  C    3.075000
     3  C    0.470242
     4  O   -2.552731
     5  C    4.612283
     6  O   -2.958772
     7  N   -3.284081
     8  H    0.665833
     9  H    0.722709
    10  H    1.551745
    11  H    0.742431
 Sum of Mulliken charges =   0.00000

 Dipole moment (field-independent basis, Debye):
    X=              2.9009    Y=             -2.1803    Z=              0.8878  Tot=              3.7359

 Test job not archived.
 1\1\GINC-SE104\SP\RHF\Aug-CC-pVDZ\C3H4N2O2\OHZDE\09-Apr-2025\0\\#t hf
 aug-cc-pvdz iop(5/13=1,5/36=2,99/5=2) pseudo=read geom=check guess=(re
 ad,tcheck) scf=(maxcycle=1)\\title\\0,1\N,0,-1.63976381,-0.17613697,-0
 .34444264\C,0,-0.41434179,-0.44221728,0.22465181\C,0,0.46713462,0.7687
 8939,0.26330597\O,0,1.73161093,0.64521035,1.03546972\C,0,1.81567514,0.
 7509075,-0.27347025\O,0,2.62470717,0.783426,-1.13127034\N,0,0.00532401
 ,-1.5299121,0.71298984\H,0,-2.19689553,-0.96384255,-0.6268862\H,0,-1.7
 2632304,0.63130895,-0.93729796\H,0,-0.02983639,1.72270477,0.41865685\H

 Normal termination of Gaussian 16 at Wed Apr  9 18:37:18 2025.
