 Gaussian 16, Revision C.01,

 ----------------------------------------------------------------------
 #t hf aug-cc-pvdz symm=none int=(grid=ultrafine) guess=(read,tcheck) s
 table=(opt,rrhf)
 ----------------------------------------------------------------------
 -----
 title
 -----
 Symbolic Z-matrix:
 Charge =  0 Multiplicity = 1

 SCF Done:  E(RHF) =  -322.544028404     A.U. after   16 cycles
 Normal termination of Gaussian 16 at Wed Apr  9 18:39:32 2025.
 Gaussian 16:  ES64L-G16RevC.01  3-Jul-2019

 ----------------------------------------------------------------------
 #t hf aug-cc-pvdz iop(5/13=1,5/36=2,99/5=2) pseudo=read geom=check gue
 ss=(read,tcheck) scf=(maxcycle=1)
 ----------------------------------------------------------------------
 -----
 title
 -----
 Structure from the checkpoint file:  "Grambow2020_wb97xd3_007390_forward_mol1.chk"
 Charge =  0 Multiplicity = 1

                         Standard orientation:
 ---------------------------------------------------------------------
 Center     Atomic      Atomic             Coordinates (Angstroms)
 Number     Number       Type             X           Y           Z
 ---------------------------------------------------------------------
      1          6           0        1.437866   -0.307289    0.605032
      2          6           0        0.715145   -1.051527   -0.465094
      3          6           0       -0.728251   -1.017609   -0.417810
      4          8           0       -1.282766   -0.432835    0.700055
      5          6           0       -1.210261    0.802574    0.003204
      6          7           0       -0.108066    1.430349   -0.285292
      7          6           0        1.115521    0.969825   -0.102072
      8          1           0        1.019975   -0.424435    1.601248
      9          1           0        2.504042   -0.517854    0.615133
     10          1           0        1.195536   -1.373590   -1.379310
     11          1           0       -0.059079   -2.087649   -0.087987
     12          1           0       -1.360762   -1.256027   -1.265952
     13          1           0       -2.178451    1.222923   -0.233510
     14          1           0        1.917203    1.511029   -0.592576
 ---------------------------------------------------------------------

 SCF Done:  E(RHF) =  -324.060089114     A.U. after    2 cycles

 The electronic state is 1-A.
 Alpha  occ. eigenvalues --  -21.08832 -15.73143 -11.53934 -11.45544 -11.43211
 Alpha  occ. eigenvalues --  -11.41928 -11.37765  -1.82283  -1.38914  -1.24625
 Alpha  occ. eigenvalues --   -1.06475  -0.94377  -0.81926  -0.77990  -0.72061
 Alpha  occ. eigenvalues --   -0.67935  -0.62417  -0.60209  -0.56918  -0.52988
 Alpha  occ. eigenvalues --   -0.49479  -0.47940  -0.42296  -0.36468  -0.30913
 Alpha  occ. eigenvalues --   -0.23569
 Alpha virt. eigenvalues --    0.03517   0.04854   0.05133   0.05307   0.05921
 Alpha virt. eigenvalues --    0.06496   0.06646   0.09924   0.10603   0.11574
 Alpha virt. eigenvalues --    0.12790   0.13082   0.13608   0.13970   0.14763

 Mulliken charges:
               1
     1  C   -3.397313
     2  C   -1.283542
     3  C   -0.188189
     4  O   -3.304749
     5  C    1.009678
     6  N   -3.188487
     7  C    0.583181
     8  H    1.206322
     9  H    1.334898
    10  H    1.291049
    11  H    1.289828
    12  H    1.455564
    13  H    1.648489
    14  H    1.543271
 Sum of Mulliken charges =  -0.00000

 Dipole moment (field-independent basis, Debye):
    X=              0.7228    Y=             -2.9387    Z=             -0.0976  Tot=              3.0279

 Test job not archived.
 1\1\GINC-SE454\SP\RHF\Aug-CC-pVDZ\C5H7N1O1\OHZDE\09-Apr-2025\0\\#t hf
 aug-cc-pvdz iop(5/13=1,5/36=2,99/5=2) pseudo=read geom=check guess=(re
 ad,tcheck) scf=(maxcycle=1)\\title\\0,1\C,0,-1.33998435,-0.34067522,0.
 3108424\C,0,-0.63858636,0.75169164,-0.42138844\C,0,0.6807039,1.1053625
 7,0.04889656\O,0,1.08597774,0.50398945,1.22072115\C,0,1.58353156,-0.55
 87706,0.42067333\N,0,0.84481885,-1.40150615,-0.23983113\C,0,-0.4654820
 7,-1.33318445,-0.38564406\H,0,-1.24817736,-0.29414126,1.39260429\H,0,-
 2.38396841,-0.43463412,0.0237201\H,0,-0.94580773,1.08854465,-1.4024257

 Normal termination of Gaussian 16 at Wed Apr  9 18:39:37 2025.
