 Gaussian 16, Revision C.01,

 ----------------------------------------------------------------------
 #t hf aug-cc-pvdz symm=none int=(grid=ultrafine) guess=(read,tcheck) s
 table=(opt,rrhf)
 ----------------------------------------------------------------------
 -----
 title
 -----
 Symbolic Z-matrix:
 Charge =  0 Multiplicity = 1

 SCF Done:  E(RHF) =  -322.684631675     A.U. after   15 cycles
 Normal termination of Gaussian 16 at Wed Apr  9 18:37:28 2025.
 Gaussian 16:  ES64L-G16RevC.01  3-Jul-2019

 ----------------------------------------------------------------------
 #t hf aug-cc-pvdz iop(5/13=1,5/36=2,99/5=2) pseudo=read geom=check gue
 ss=(read,tcheck) scf=(maxcycle=1)
 ----------------------------------------------------------------------
 -----
 title
 -----
 Structure from the checkpoint file:  "Grambow2020_wb97xd3_007345_forward_mol2.chk"
 Charge =  0 Multiplicity = 1

                         Standard orientation:
 ---------------------------------------------------------------------
 Center     Atomic      Atomic             Coordinates (Angstroms)
 Number     Number       Type             X           Y           Z
 ---------------------------------------------------------------------
      1          8           0        2.166931   -0.647828   -0.324955
      2          6           0        1.159881   -0.110283    0.011743
      3          6           0        0.590350    1.307719   -0.079395
      4          7           0       -0.672468    0.836076    0.541914
      5          6           0       -1.640167    0.307141   -0.462368
      6          6           0       -1.208961   -1.149500   -0.191529
      7          6           0       -0.121919   -0.555892    0.716872
      8          1           0        1.124641    2.017129    0.557111
      9          1           0        0.498443    1.731673   -1.082414
     10          1           0       -1.448216    0.663697   -1.478150
     11          1           0       -2.672096    0.542742   -0.203564
     12          1           0       -0.858120   -1.734599   -1.040503
     13          1           0       -1.947699   -1.730364    0.357105
     14          1           0       -0.000218   -0.955298    1.724723
 ---------------------------------------------------------------------

 SCF Done:  E(RHF) =  -324.171119715     A.U. after    2 cycles

 The electronic state is 1-A.
 Alpha  occ. eigenvalues --  -21.07147 -15.71276 -11.50633 -11.48471 -11.43194
 Alpha  occ. eigenvalues --  -11.41755 -11.37986  -1.72386  -1.51764  -1.15092
 Alpha  occ. eigenvalues --   -1.04287  -0.95702  -0.84626  -0.74609  -0.68639
 Alpha  occ. eigenvalues --   -0.67101  -0.61623  -0.58509  -0.55883  -0.52440
 Alpha  occ. eigenvalues --   -0.48571  -0.46327  -0.43197  -0.40771  -0.32708
 Alpha  occ. eigenvalues --   -0.28324
 Alpha virt. eigenvalues --    0.03679   0.05047   0.05357   0.05541   0.06146
 Alpha virt. eigenvalues --    0.06624   0.07511   0.09564   0.10359   0.11110
 Alpha virt. eigenvalues --    0.11758   0.12754   0.13297   0.13940   0.14156

 Mulliken charges:
               1
     1  O   -3.148028
     2  C    3.803349
     3  C   -2.495725
     4  N   -1.572001
     5  C   -2.160652
     6  C   -2.717096
     7  C   -1.099140
     8  H    1.340051
     9  H    1.409955
    10  H    1.495414
    11  H    1.256627
    12  H    1.257051
    13  H    1.198937
    14  H    1.431259
 Sum of Mulliken charges =   0.00000

 Dipole moment (field-independent basis, Debye):
    X=             -1.0971    Y=             -0.1580    Z=             -0.4419  Tot=              1.1933

 Test job not archived.
 1\1\GINC-SE454\SP\RHF\Aug-CC-pVDZ\C5H7N1O1\OHZDE\09-Apr-2025\0\\#t hf
 aug-cc-pvdz iop(5/13=1,5/36=2,99/5=2) pseudo=read geom=check guess=(re
 ad,tcheck) scf=(maxcycle=1)\\title\\0,1\O,0,1.67054756,1.73007165,-1.0
 6449479\C,0,1.14667129,0.7235694,-0.70536307\C,0,1.50929637,-0.4245008
 5,0.24006863\N,0,0.17901064,-1.03739648,-0.00051411\C,0,-0.86706796,-0
 .51272646,0.9242753\C,0,-1.37316992,0.49295905,-0.13097479\C,0,-0.1879
 5786,0.03488327,-0.99391266\H,0,2.32481166,-1.04277783,-0.1427324\H,0,
 1.72787275,-0.15167592,1.27545362\H,0,-0.45598754,-0.06151829,1.831587

 Normal termination of Gaussian 16 at Wed Apr  9 18:37:32 2025.
