 Gaussian 16, Revision C.01,

 ----------------------------------------------------------------------
 #t hf aug-cc-pvdz symm=none int=(grid=ultrafine) guess=(read,tcheck) s
 table=(opt,rrhf)
 ----------------------------------------------------------------------
 -----
 title
 -----
 Symbolic Z-matrix:
 Charge =  0 Multiplicity = 1

 SCF Done:  E(RHF) =  -281.685579556     A.U. after   14 cycles
 Normal termination of Gaussian 16 at Wed Apr  9 03:07:36 2025.
 Gaussian 16:  ES64L-G16RevC.01  3-Jul-2019

 ----------------------------------------------------------------------
 #t hf aug-cc-pvdz iop(5/13=1,5/36=2,99/5=2) pseudo=read geom=check gue
 ss=(read,tcheck) scf=(maxcycle=1)
 ----------------------------------------------------------------------
 -----
 title
 -----
 Structure from the checkpoint file:  "Grambow2020_b97d3_006583_reverse_mol2.chk"
 Charge =  0 Multiplicity = 1

                         Standard orientation:
 ---------------------------------------------------------------------
 Center     Atomic      Atomic             Coordinates (Angstroms)
 Number     Number       Type             X           Y           Z
 ---------------------------------------------------------------------
      1          8           0       -2.263680   -0.129531   -0.000815
      2          6           0       -1.022807    0.367855   -0.001798
      3          7           0        0.019967   -0.382608    0.002790
      4          6           0        1.253218    0.301835    0.002995
      5          8           0        2.328942   -0.260098   -0.003268
      6          1           0       -1.050771    1.466935   -0.008084
      7          1           0       -2.171581   -1.109871    0.003835
      8          1           0        1.178020    1.420082    0.010201
 ---------------------------------------------------------------------

 SCF Done:  E(RHF) =  -282.877223213     A.U. after    2 cycles

 The electronic state is 1-A.
 Alpha  occ. eigenvalues --  -21.15715 -21.06080 -15.75953 -11.51747 -11.49127
 Alpha  occ. eigenvalues --   -1.81635  -1.71043  -1.37749  -0.93797  -0.86090
 Alpha  occ. eigenvalues --   -0.72110  -0.65020  -0.58759  -0.54015  -0.49096
 Alpha  occ. eigenvalues --   -0.46949  -0.43773  -0.33839  -0.30633
 Alpha virt. eigenvalues --    0.03448   0.04871   0.05896   0.08811   0.10361
 Alpha virt. eigenvalues --    0.12024   0.12192   0.12603   0.13700   0.14594
 Alpha virt. eigenvalues --    0.15403   0.17324   0.17770   0.19683   0.20451

 Mulliken charges:
               1
     1  O   -2.817289
     2  C    2.029016
     3  N   -2.634425
     4  C    2.026931
     5  O   -2.524928
     6  H    1.740731
     7  H    0.816549
     8  H    1.363415
 Sum of Mulliken charges =  -0.00000

 Dipole moment (field-independent basis, Debye):
    X=             -3.0001    Y=              1.2191    Z=              0.0002  Tot=              3.2384

 Test job not archived.
 1\1\GINC-SE126\SP\RHF\Aug-CC-pVDZ\C2H3N1O2\OHZDE\09-Apr-2025\0\\#t hf
 aug-cc-pvdz iop(5/13=1,5/36=2,99/5=2) pseudo=read geom=check guess=(re
 ad,tcheck) scf=(maxcycle=1)\\title\\0,1\O,0,-2.04122233,0.35568915,0.1
 9195272\C,0,-0.81379832,-0.04773034,-0.15132856\N,0,0.24062578,0.35736
 86,0.46078082\C,0,1.45693227,-0.1630548,-0.02822677\O,0,2.53974912,0.1
 1196158,0.44597123\H,0,-0.8633572,-0.74661453,-0.99861941\H,0,-1.93013
 909,0.97358658,0.95052658\H,0,1.36093277,-0.86034123,-0.90044161\\Vers
 ion=ES64L-G16RevC.01\State=1-A\HF=-282.8772232\RMSD=5.234e-02\Dipole=-

 Normal termination of Gaussian 16 at Wed Apr  9 03:07:38 2025.
