 Gaussian 16, Revision C.01,

 ----------------------------------------------------------------------
 #t hf aug-cc-pvdz symm=none int=(grid=ultrafine) guess=(read,tcheck) s
 table=(opt,rrhf)
 ----------------------------------------------------------------------
 -----
 title
 -----
 Symbolic Z-matrix:
 Charge =  0 Multiplicity = 1

 SCF Done:  E(RHF) =  -307.780463876     A.U. after   15 cycles

 1\1\GINC-SE174\Stability\RHF\Aug-CC-pVDZ\C6H10O1\OHZDE\09-Apr-2025\0\\
 #t hf aug-cc-pvdz symm=none int=(grid=ultrafine) guess=(read,tcheck) s
 table=(opt,rrhf)\\title\\0,1\C,0,2.09670341,0.22919129,0.40049582\C,0,
 0.63243187,-0.05637515,0.30957389\C,0,-0.01752101,-1.23911569,0.622342
 48\C,0,-1.34939169,-1.16709905,0.18301984\C,0,-1.68341579,0.30322258,0
 .09882764\C,0,-0.32027703,0.77843499,-0.31501613\O,0,-0.13378807,2.078
 22613,-0.65783822\H,0,2.29840512,1.157395,0.94383814\H,0,2.55227808,0.
 31573731,-0.590834\H,0,2.61288407,-0.57480275,0.9243979\H,0,0.47618458

 Normal termination of Gaussian 16 at Wed Apr  9 18:53:00 2025.
 Gaussian 16:  ES64L-G16RevC.01  3-Jul-2019

 ----------------------------------------------------------------------
 #t hf aug-cc-pvdz iop(5/13=1,5/36=2,99/5=2) pseudo=read geom=check gue
 ss=(read,tcheck) scf=(maxcycle=1)
 ----------------------------------------------------------------------
 -----
 title
 -----
 Structure from the checkpoint file:  "Grambow2020_wb97xd3_007737_reverse_mol1.chk"
 Charge =  0 Multiplicity = 1

                         Standard orientation:
 ---------------------------------------------------------------------
 Center     Atomic      Atomic             Coordinates (Angstroms)
 Number     Number       Type             X           Y           Z
 ---------------------------------------------------------------------
      1          6           0       -2.006470   -0.914353   -0.045048
      2          6           0       -0.555301   -0.558207   -0.079313
      3          6           0        0.526049   -1.424111   -0.084806
      4          6           0        1.708182   -0.691750    0.110843
      5          6           0        1.404326    0.719607   -0.332157
      6          6           0       -0.034103    0.742306    0.098714
      7          8           0       -0.741894    1.898055    0.027742
      8          1           0       -2.572839   -0.393727   -0.823278
      9          1           0       -2.458924   -0.667262    0.920356
     10          1           0       -2.143118   -1.983971   -0.201788
     11          1           0        0.449916   -2.503332   -0.041241
     12          1           0        2.701161   -1.119568    0.069081
     13          1           0        1.325230   -0.174606    1.480389
     14          1           0        2.019683    1.493008    0.123427
     15          1           0        1.450879    0.791342   -1.423468
     16          1           0        0.585633    0.425517    1.546833
     17          1           0       -1.678560    1.707203    0.118356
 ---------------------------------------------------------------------

 SCF Done:  E(RHF) =  -309.310638164     A.U. after    2 cycles

 The electronic state is 1-A.
 Alpha  occ. eigenvalues --  -21.10374 -11.49079 -11.45604 -11.41444 -11.40805
 Alpha  occ. eigenvalues --  -11.39253 -11.35414  -1.75877  -1.36477  -1.12192
 Alpha  occ. eigenvalues --   -1.00576  -0.95586  -0.80572  -0.74771  -0.70819
 Alpha  occ. eigenvalues --   -0.67033  -0.61135  -0.57831  -0.54573  -0.50639
 Alpha  occ. eigenvalues --   -0.49921  -0.48425  -0.46724  -0.44100  -0.40491
 Alpha  occ. eigenvalues --   -0.34443  -0.26890
 Alpha virt. eigenvalues --    0.03792   0.05065   0.05260   0.05385   0.05995
 Alpha virt. eigenvalues --    0.06415   0.06634   0.07554   0.08386   0.09018
 Alpha virt. eigenvalues --    0.11352   0.11898   0.12219   0.12885   0.14036

 Mulliken charges:
               1
     1  C   -5.003540
     2  C    3.564830
     3  C   -1.515839
     4  C   -2.710677
     5  C   -3.880309
     6  C    2.754826
     7  O   -3.742989
     8  H    1.131367
     9  H    1.161593
    10  H    1.277026
    11  H    1.548330
    12  H    1.266460
    13  H    0.602478
    14  H    1.229722
    15  H    1.324506
    16  H    0.284899
    17  H    0.707317
 Sum of Mulliken charges =   0.00000

 Dipole moment (field-independent basis, Debye):
    X=             -0.9472    Y=             -0.1130    Z=             -0.6746  Tot=              1.1684

 Test job not archived.
 1\1\GINC-SE174\SP\RHF\Aug-CC-pVDZ\C6H10O1\OHZDE\09-Apr-2025\0\\#t hf a
 ug-cc-pvdz iop(5/13=1,5/36=2,99/5=2) pseudo=read geom=check guess=(rea
 d,tcheck) scf=(maxcycle=1)\\title\\0,1\C,0,2.09670341,0.22919129,0.400
 49582\C,0,0.63243187,-0.05637515,0.30957389\C,0,-0.01752101,-1.2391156
 9,0.62234248\C,0,-1.34939169,-1.16709905,0.18301984\C,0,-1.68341579,0.
 30322258,0.09882764\C,0,-0.32027703,0.77843499,-0.31501613\O,0,-0.1337
 8807,2.07822613,-0.65783822\H,0,2.29840512,1.157395,0.94383814\H,0,2.5
 5227808,0.31573731,-0.590834\H,0,2.61288407,-0.57480275,0.9243979\H,0,

 Normal termination of Gaussian 16 at Wed Apr  9 18:53:06 2025.
