 Gaussian 16, Revision C.01,

 ----------------------------------------------------------------------
 #t hf aug-cc-pvdz symm=none int=(grid=ultrafine) guess=(read,tcheck) s
 table=(opt,rrhf)
 ----------------------------------------------------------------------
 -----
 title
 -----
 Symbolic Z-matrix:
 Charge =  0 Multiplicity = 1

 SCF Done:  E(RHF) =  -317.683671272     A.U. after   15 cycles
 Normal termination of Gaussian 16 at Wed Apr  9 19:00:40 2025.
 Gaussian 16:  ES64L-G16RevC.01  3-Jul-2019

 ----------------------------------------------------------------------
 #t hf aug-cc-pvdz iop(5/13=1,5/36=2,99/5=2) pseudo=read geom=check gue
 ss=(read,tcheck) scf=(maxcycle=1)
 ----------------------------------------------------------------------
 -----
 title
 -----
 Structure from the checkpoint file:  "Grambow2020_wb97xd3_007984_reverse_mol2.chk"
 Charge =  0 Multiplicity = 1

                         Standard orientation:
 ---------------------------------------------------------------------
 Center     Atomic      Atomic             Coordinates (Angstroms)
 Number     Number       Type             X           Y           Z
 ---------------------------------------------------------------------
      1          7           0        2.205708    0.032604   -0.035361
      2          6           0        0.845064   -0.054210   -0.008631
      3          7           0        0.148355    1.104293   -0.028529
      4          6           0       -1.219286    1.062464    0.004930
      5          6           0       -1.825550   -0.138708    0.037882
      6          6           0       -1.087963   -1.390550   -0.015667
      7          7           0        0.275762   -1.233602   -0.013966
      8          1           0        2.654003   -0.858699    0.099204
      9          1           0        2.664182    0.823863    0.380234
     10          1           0       -1.717241    2.024753   -0.005766
     11          1           0       -2.907558   -0.173108    0.075410
     12          1           0        0.624249    1.986151   -0.115180
 ---------------------------------------------------------------------

 SCF Done:  E(RHF) =  -319.135644806     A.U. after    2 cycles

 The electronic state is 1-A.
 Alpha  occ. eigenvalues --  -15.82686 -15.79517 -15.70413 -11.50864 -11.47246
 Alpha  occ. eigenvalues --  -11.38182 -11.34881  -1.57337  -1.37038  -1.30602
 Alpha  occ. eigenvalues --   -1.13052  -0.91793  -0.90610  -0.78157  -0.72251
 Alpha  occ. eigenvalues --   -0.66872  -0.62955  -0.61337  -0.59290  -0.54347
 Alpha  occ. eigenvalues --   -0.47307  -0.39028  -0.37923  -0.32799  -0.25731
 Alpha virt. eigenvalues --    0.02024   0.03643   0.04744   0.06361   0.06787
 Alpha virt. eigenvalues --    0.09197   0.10220   0.10446   0.11745   0.12355
 Alpha virt. eigenvalues --    0.12842   0.13809   0.14036   0.14453   0.15697

 Mulliken charges:
               1
     1  N   -2.807682
     2  C    4.217339
     3  N   -2.795337
     4  C   -0.262038
     5  C    0.809502
     6  C   -1.588863
     7  N   -2.506011
     8  H    0.584384
     9  H    0.614989
    10  H    1.436752
    11  H    1.561812
    12  H    0.735154
 Sum of Mulliken charges =   0.00000

 Dipole moment (field-independent basis, Debye):
    X=              3.6962    Y=              7.4970    Z=              0.6525  Tot=              8.3841

 Test job not archived.
 1\1\GINC-SE125\SP\RHF\Aug-CC-pVDZ\C4H5N3\OHZDE\09-Apr-2025\0\\#t hf au
 g-cc-pvdz iop(5/13=1,5/36=2,99/5=2) pseudo=read geom=check guess=(read
 ,tcheck) scf=(maxcycle=1)\\title\\0,1\N,0,2.1539228,-0.04920015,-0.320
 98552\C,0,0.846674,0.1549174,0.0092287\N,0,-0.04882096,-0.77257156,-0.
 397932\C,0,-1.37249712,-0.60220655,-0.0943401\C,0,-1.7347556,0.4799749
 1,0.61917743\C,0,-0.77078032,1.44365422,1.125223\N,0,0.52176637,1.1952
 3867,0.73535808\H,0,2.7400913,0.73521192,-0.08731897\H,0,2.38503894,-0
 .53497592,-1.16928705\H,0,-2.03884956,-1.37644134,-0.45574039\H,0,-2.7

 Normal termination of Gaussian 16 at Wed Apr  9 19:00:44 2025.
