 Gaussian 16, Revision C.01,

 ----------------------------------------------------------------------
 #t hf aug-cc-pvdz symm=none int=(grid=ultrafine) guess=(read,tcheck) s
 table=(opt,rrhf)
 ----------------------------------------------------------------------
 -----
 title
 -----
 Symbolic Z-matrix:
 Charge =  0 Multiplicity = 1

 SCF Done:  E(RHF) =  -316.454954453     A.U. after   16 cycles
 Normal termination of Gaussian 16 at Wed Apr  9 18:33:26 2025.
 Gaussian 16:  ES64L-G16RevC.01  3-Jul-2019

 ----------------------------------------------------------------------
 #t hf aug-cc-pvdz iop(5/13=1,5/36=2,99/5=2) pseudo=read geom=check gue
 ss=(read,tcheck) scf=(maxcycle=1)
 ----------------------------------------------------------------------
 -----
 title
 -----
 Structure from the checkpoint file:  "Grambow2020_wb97xd3_007267_forward_mol1.chk"
 Charge =  0 Multiplicity = 1

                         Standard orientation:
 ---------------------------------------------------------------------
 Center     Atomic      Atomic             Coordinates (Angstroms)
 Number     Number       Type             X           Y           Z
 ---------------------------------------------------------------------
      1          7           0        2.866607    0.047178    0.013893
      2          6           0        1.723610   -0.037003    0.000139
      3          6           0        0.286376   -0.100851   -0.012915
      4          7           0       -0.411189   -1.196379   -0.002607
      5          6           0       -1.783717   -0.852198   -0.087779
      6          6           0       -1.769617    0.588016   -0.021871
      7          7           0       -0.451025    1.032535   -0.020067
      8          1           0       -2.082141   -0.012313    1.004015
      9          1           0       -2.585619    1.266201   -0.229002
     10          1           0       -0.102898    1.974987    0.021010
 ---------------------------------------------------------------------

 SCF Done:  E(RHF) =  -317.870234311     A.U. after    2 cycles

 The electronic state is 1-A.
 Alpha  occ. eigenvalues --  -15.84186 -15.80752 -15.75498 -11.54640 -11.47582
 Alpha  occ. eigenvalues --  -11.46975 -11.40883  -1.61924  -1.34599  -1.31257
 Alpha  occ. eigenvalues --   -1.17480  -0.94949  -0.83605  -0.82359  -0.69489
 Alpha  occ. eigenvalues --   -0.65985  -0.61105  -0.55693  -0.52769  -0.48630
 Alpha  occ. eigenvalues --   -0.45217  -0.41108  -0.40480  -0.34473
 Alpha virt. eigenvalues --    0.02035   0.04336   0.05066   0.07541   0.08438
 Alpha virt. eigenvalues --    0.09291   0.09681   0.11131   0.11429   0.12360
 Alpha virt. eigenvalues --    0.12402   0.13167   0.13681   0.14255   0.14962

 Mulliken charges:
               1
     1  N   -2.527061
     2  C    1.586116
     3  C    4.269612
     4  N   -2.677118
     5  C   -0.892728
     6  C   -0.467390
     7  N   -2.994441
     8  H    1.364625
     9  H    1.537465
    10  H    0.800920
 Sum of Mulliken charges =   0.00000

 Dipole moment (field-independent basis, Debye):
    X=             -1.0575    Y=              5.6741    Z=              0.3832  Tot=              5.7845

 Test job not archived.
 1\1\GINC-SE114\SP\RHF\Aug-CC-pVDZ\C4H3N3\OHZDE\09-Apr-2025\0\\#t hf au
 g-cc-pvdz iop(5/13=1,5/36=2,99/5=2) pseudo=read geom=check guess=(read
 ,tcheck) scf=(maxcycle=1)\\title\\0,1\N,0,3.2853256,-0.31375722,0.1327
 9574\C,0,2.14152982,-0.36428283,0.07896068\C,0,0.7046432,-0.38564561,0
 .00976673\N,0,-0.03201597,-1.44772521,0.13706481\C,0,-1.38657406,-1.07
 695271,-0.05593424\C,0,-1.3229677,0.35759965,-0.18543569\N,0,0.0097076
 9,0.75792311,-0.18437578\H,0,-1.69845427,-0.0866528,0.89722626\H,0,-2.
 10476524,1.02544907,-0.51930423\H,0,0.38981193,1.68609856,-0.25583927\

 Normal termination of Gaussian 16 at Wed Apr  9 18:33:30 2025.
