 Gaussian 16, Revision C.01,

 ----------------------------------------------------------------------
 #t hf aug-cc-pvdz symm=none int=(grid=ultrafine) guess=(read,tcheck) s
 table=(opt,rrhf)
 ----------------------------------------------------------------------
 -----
 title
 -----
 Symbolic Z-matrix:
 Charge =  0 Multiplicity = 1

 SCF Done:  E(RHF) =  -323.857113392     A.U. after   14 cycles
 Normal termination of Gaussian 16 at Wed Apr  9 18:41:41 2025.
 Gaussian 16:  ES64L-G16RevC.01  3-Jul-2019

 ----------------------------------------------------------------------
 #t hf aug-cc-pvdz iop(5/13=1,5/36=2,99/5=2) pseudo=read geom=check gue
 ss=(read,tcheck) scf=(maxcycle=1)
 ----------------------------------------------------------------------
 -----
 title
 -----
 Structure from the checkpoint file:  "Grambow2020_wb97xd3_007538_reverse_mol2.chk"
 Charge =  0 Multiplicity = 1

                         Standard orientation:
 ---------------------------------------------------------------------
 Center     Atomic      Atomic             Coordinates (Angstroms)
 Number     Number       Type             X           Y           Z
 ---------------------------------------------------------------------
      1          6           0       -3.114534    0.670847    0.121443
      2          8           0       -1.902458    0.287322   -0.471161
      3          6           0       -1.135331   -0.544346    0.372162
      4          6           0        0.096795   -0.990284   -0.345909
      5          6           0        3.100113    0.906059   -0.108805
      6          6           0        1.293095   -0.584494   -0.001648
      7          7           0        2.401732   -0.273369    0.375556
      8          1           0       -3.641127    1.304984   -0.590419
      9          1           0       -2.949341    1.236476    1.048547
     10          1           0       -3.743196   -0.199291    0.354655
     11          1           0       -1.735813   -1.418210    0.665752
     12          1           0       -0.864359   -0.008280    1.292103
     13          1           0        0.003137   -1.653049   -1.197048
     14          1           0        2.506549    1.487620   -0.818673
     15          1           0        4.028535    0.588355   -0.583804
     16          1           0        3.362322    1.529714    0.745828
 ---------------------------------------------------------------------

 SCF Done:  E(RHF) =  -325.373113348     A.U. after    2 cycles

 The electronic state is 1-A.
 Alpha  occ. eigenvalues --  -21.04223 -15.75521 -11.46780 -11.44332 -11.40426
 Alpha  occ. eigenvalues --  -11.39911 -11.38460  -1.75559  -1.40399  -1.15732
 Alpha  occ. eigenvalues --   -1.02846  -0.97317  -0.89238  -0.71516  -0.66189
 Alpha  occ. eigenvalues --   -0.63464  -0.61905  -0.60500  -0.59513  -0.58417
 Alpha  occ. eigenvalues --   -0.53718  -0.51470  -0.46813  -0.40338  -0.38956
 Alpha  occ. eigenvalues --   -0.30370  -0.29715
 Alpha virt. eigenvalues --    0.03514   0.04807   0.05477   0.05891   0.06244
 Alpha virt. eigenvalues --    0.06338   0.06841   0.07208   0.08278   0.10165
 Alpha virt. eigenvalues --    0.11006   0.11919   0.13007   0.13736   0.14750

 Mulliken charges:
               1
     1  C   -2.725222
     2  O   -2.595221
     3  C   -1.718198
     4  C   -1.720436
     5  C   -3.424934
     6  C    2.907015
     7  N   -2.997343
     8  H    1.286225
     9  H    1.317229
    10  H    1.332632
    11  H    1.454580
    12  H    1.508075
    13  H    1.394091
    14  H    1.241173
    15  H    1.372136
    16  H    1.368198
 Sum of Mulliken charges =   0.00000

 Dipole moment (field-independent basis, Debye):
    X=             -0.1327    Y=              0.9411    Z=             -0.3608  Tot=              1.0166

 Test job not archived.
 1\1\GINC-SE104\SP\RHF\Aug-CC-pVDZ\C5H9N1O1\OHZDE\09-Apr-2025\0\\#t hf
 aug-cc-pvdz iop(5/13=1,5/36=2,99/5=2) pseudo=read geom=check guess=(re
 ad,tcheck) scf=(maxcycle=1)\\title\\0,1\C,0,2.95554079,0.37628575,0.38
 719079\O,0,1.59206529,0.63494177,0.59073982\C,0,0.83507989,-0.5503891,
 0.70612159\C,0,-0.58812112,-0.21135261,1.00972716\C,0,-2.92943351,0.24
 480629,-1.63270153\C,0,-1.5544017,-0.41244556,0.14939073\N,0,-2.453728
 64,-0.68029274,-0.61717683\H,0,3.463359,1.33669778,0.31033255\H,0,3.12
 492578,-0.19157672,-0.53778871\H,0,3.3887631,-0.18851837,1.22388611\H,

 Normal termination of Gaussian 16 at Wed Apr  9 18:41:46 2025.
