 Gaussian 16, Revision C.01,

 ----------------------------------------------------------------------
 #t hf aug-cc-pvdz symm=none int=(grid=ultrafine) guess=(read,tcheck) s
 table=(opt,rrhf)
 ----------------------------------------------------------------------
 -----
 title
 -----
 Symbolic Z-matrix:
 Charge =  0 Multiplicity = 1

 SCF Done:  E(RHF) =  -338.610133686     A.U. after   15 cycles
 Normal termination of Gaussian 16 at Wed Apr  9 19:14:55 2025.
 Gaussian 16:  ES64L-G16RevC.01  3-Jul-2019

 ----------------------------------------------------------------------
 #t hf aug-cc-pvdz iop(5/13=1,5/36=2,99/5=2) pseudo=read geom=check gue
 ss=(read,tcheck) scf=(maxcycle=1)
 ----------------------------------------------------------------------
 -----
 title
 -----
 Structure from the checkpoint file:  "Grambow2020_wb97xd3_008473_forward_mol1.chk"
 Charge =  0 Multiplicity = 1

                         Standard orientation:
 ---------------------------------------------------------------------
 Center     Atomic      Atomic             Coordinates (Angstroms)
 Number     Number       Type             X           Y           Z
 ---------------------------------------------------------------------
      1          7           0       -1.408157   -1.504946   -0.077226
      2          6           0       -0.313756   -0.664800    0.009983
      3          6           0       -0.250937    0.746662    0.077756
      4          8           0       -1.377204    1.514919   -0.041312
      5          6           0        1.148122    1.226936   -0.031300
      6          6           0        1.825412    0.014464   -0.039265
      7          7           0        0.959308   -1.064708   -0.057397
      8          1           0       -2.271297   -0.984779   -0.109751
      9          1           0       -1.452572   -2.236659    0.615690
     10          1           0       -1.077799    2.381489   -0.333800
     11          1           0        0.383099    0.978245    1.107745
     12          1           0        2.887651   -0.176340   -0.031694
     13          1           0        1.237444   -2.033307   -0.078377
 ---------------------------------------------------------------------

 SCF Done:  E(RHF) =  -340.148579120     A.U. after    2 cycles

 The electronic state is 1-A.
 Alpha  occ. eigenvalues --  -21.09331 -15.82184 -15.78981 -11.50273 -11.43236
 Alpha  occ. eigenvalues --  -11.39446 -11.33917  -1.75405  -1.53747  -1.34678
 Alpha  occ. eigenvalues --   -1.15339  -1.01832  -0.84069  -0.78901  -0.72655
 Alpha  occ. eigenvalues --   -0.69149  -0.64296  -0.59169  -0.56682  -0.56253
 Alpha  occ. eigenvalues --   -0.49704  -0.44969  -0.40507  -0.34063  -0.30759
 Alpha  occ. eigenvalues --   -0.24951
 Alpha virt. eigenvalues --    0.02787   0.04424   0.05316   0.06117   0.06597
 Alpha virt. eigenvalues --    0.07373   0.10236   0.11286   0.11698   0.12247
 Alpha virt. eigenvalues --    0.13380   0.13670   0.14242   0.14793   0.15296

 Mulliken charges:
               1
     1  N   -3.215349
     2  C    2.795100
     3  C    3.774534
     4  O   -3.673230
     5  C   -2.353600
     6  C    0.293143
     7  N   -3.351488
     8  H    0.569649
     9  H    0.554613
    10  H    0.865781
    11  H    1.426238
    12  H    1.508118
    13  H    0.806492
 Sum of Mulliken charges =   0.00000

 Dipole moment (field-independent basis, Debye):
    X=             -2.3580    Y=             -5.1834    Z=              0.8072  Tot=              5.7514

 Test job not archived.
 1\1\GINC-SE135\SP\RHF\Aug-CC-pVDZ\C4H6N2O1\OHZDE\09-Apr-2025\0\\#t hf
 aug-cc-pvdz iop(5/13=1,5/36=2,99/5=2) pseudo=read geom=check guess=(re
 ad,tcheck) scf=(maxcycle=1)\\title\\0,1\N,0,1.88539704,0.64338417,-0.0
 8678368\C,0,0.53826153,0.33564005,-0.04574131\C,0,-0.10925169,-0.92152
 119,-0.01356467\O,0,0.59743972,-2.08820392,-0.1245251\C,0,-1.57696836,
 -0.77274314,-0.1671791\C,0,-1.68663086,0.61174913,-0.16185635\N,0,-0.4
 4944005,1.23113115,-0.13347992\H,0,2.45372942,-0.18910051,-0.11147309\
 H,0,2.20888583,1.28135819,0.62444984\H,0,-0.02652706,-2.74714514,-0.44

 Normal termination of Gaussian 16 at Wed Apr  9 19:14:59 2025.
