 Gaussian 16, Revision C.01,

 ----------------------------------------------------------------------
 #t hf aug-cc-pvdz symm=none int=(grid=ultrafine) guess=(read,tcheck) s
 table=(opt,rrhf)
 ----------------------------------------------------------------------
 -----
 title
 -----
 Symbolic Z-matrix:
 Charge =  0 Multiplicity = 1

 SCF Done:  E(RHF) =  -268.585045116     A.U. after   18 cycles
 Normal termination of Gaussian 16 at Wed Apr  9 17:15:24 2025.
 Gaussian 16:  ES64L-G16RevC.01  3-Jul-2019

 ----------------------------------------------------------------------
 #t hf aug-cc-pvdz iop(5/13=1,5/36=2,99/5=2) pseudo=read geom=check gue
 ss=(read,tcheck) scf=(maxcycle=1)
 ----------------------------------------------------------------------
 -----
 title
 -----
 Structure from the checkpoint file:  "Grambow2020_b97d3_007080_forward_mol1.chk"
 Charge =  0 Multiplicity = 1

                         Standard orientation:
 ---------------------------------------------------------------------
 Center     Atomic      Atomic             Coordinates (Angstroms)
 Number     Number       Type             X           Y           Z
 ---------------------------------------------------------------------
      1          6           0        2.227334   -0.249582   -0.086210
      2          6           0        0.778375    0.162121    0.085247
      3          6           0        0.287185    1.406669    0.062258
      4          6           0       -1.733276    0.470442    0.117099
      5          8           0       -1.374998   -0.774557   -0.471224
      6          6           0       -0.227216   -0.920267    0.330756
      7          1           0        2.536341   -0.900583    0.747661
      8          1           0        2.895931    0.618502   -0.100435
      9          1           0        2.372634   -0.821358   -1.014794
     10          1           0        0.634801    2.271691   -0.507717
     11          1           0       -1.913630    1.255205   -0.632323
     12          1           0       -2.651466    0.356112    0.713478
     13          1           0        0.112025   -1.964351    0.383036
     14          1           0       -0.981062    0.164946    1.125983
 ---------------------------------------------------------------------

 SCF Done:  E(RHF) =  -269.882021482     A.U. after    2 cycles

 The electronic state is 1-A.
 Alpha  occ. eigenvalues --  -21.05986 -11.48214 -11.43591 -11.41922 -11.40534
 Alpha  occ. eigenvalues --  -11.38235  -1.78067  -1.22468  -1.01443  -0.98467
 Alpha  occ. eigenvalues --   -0.89983  -0.73343  -0.70953  -0.64746  -0.58592
 Alpha  occ. eigenvalues --   -0.58018  -0.53250  -0.50243  -0.47026  -0.43381
 Alpha  occ. eigenvalues --   -0.36671  -0.31343  -0.24778
 Alpha virt. eigenvalues --    0.03530   0.04541   0.05036   0.05574   0.06117
 Alpha virt. eigenvalues --    0.06608   0.07259   0.08149   0.08673   0.10037
 Alpha virt. eigenvalues --    0.10618   0.12255   0.13528   0.14361   0.14878

 Mulliken charges:
               1
     1  C   -4.115963
     2  C    3.499886
     3  C   -3.394421
     4  C   -2.163090
     5  O   -2.706152
     6  C   -1.545083
     7  H    1.198871
     8  H    1.285845
     9  H    1.244455
    10  H    1.289904
    11  H    1.269097
    12  H    0.978700
    13  H    1.411833
    14  H    1.746116
 Sum of Mulliken charges =  -0.00000

 Dipole moment (field-independent basis, Debye):
    X=              0.3000    Y=             -0.6053    Z=             -0.8565  Tot=              1.0908

 Test job not archived.
 1\1\GINC-SE232\SP\RHF\Aug-CC-pVDZ\C5H8O1\OHZDE\09-Apr-2025\0\\#t hf au
 g-cc-pvdz iop(5/13=1,5/36=2,99/5=2) pseudo=read geom=check guess=(read
 ,tcheck) scf=(maxcycle=1)\\title\\0,1\C,0,-1.96578638,0.33514379,-0.40
 359895\C,0,-0.46416141,0.1655756,-0.2821562\C,0,0.48007767,0.94646881,
 -0.82003448\C,0,1.94976097,-0.24062113,0.3600673\O,0,1.06550549,-0.649
 29816,1.39717187\C,0,0.04174745,-1.00738927,0.49967594\H,0,-2.42529539
 ,-0.60461499,-0.75048919\H,0,-2.22777779,1.12183128,-1.12003348\H,0,-2
 .41991599,0.57848232,0.56844094\H,0,0.4538069,2.02151945,-1.0138055\H,

 Normal termination of Gaussian 16 at Wed Apr  9 17:15:28 2025.
