 Gaussian 16, Revision C.01,

 ----------------------------------------------------------------------
 #t hf aug-cc-pvdz symm=none int=(grid=ultrafine) guess=(read,tcheck) s
 table=(opt,rrhf)
 ----------------------------------------------------------------------
 -----
 title
 -----
 Symbolic Z-matrix:
 Charge =  0 Multiplicity = 1

 SCF Done:  E(RHF) =  -359.631839575     A.U. after   15 cycles
 Normal termination of Gaussian 16 at Wed Apr  9 18:34:23 2025.
 Gaussian 16:  ES64L-G16RevC.01  3-Jul-2019

 ----------------------------------------------------------------------
 #t hf aug-cc-pvdz iop(5/13=1,5/36=2,99/5=2) pseudo=read geom=check gue
 ss=(read,tcheck) scf=(maxcycle=1)
 ----------------------------------------------------------------------
 -----
 title
 -----
 Structure from the checkpoint file:  "Grambow2020_wb97xd3_007283_forward_mol1.chk"
 Charge =  0 Multiplicity = 1

                         Standard orientation:
 ---------------------------------------------------------------------
 Center     Atomic      Atomic             Coordinates (Angstroms)
 Number     Number       Type             X           Y           Z
 ---------------------------------------------------------------------
      1          8           0       -1.604624   -1.213186   -0.151870
      2          6           0       -0.454884   -0.660690    0.404986
      3          6           0        0.828868   -1.220850   -0.188189
      4          7           0        1.807281   -0.146870    0.034860
      5          6           0        1.011200    1.207447    0.001179
      6          6           0       -0.356133    0.843525    0.069990
      7          8           0       -1.369551    1.500444   -0.095653
      8          1           0       -2.199377   -0.460409   -0.293415
      9          1           0       -0.458225   -0.776922    1.499836
     10          1           0        1.167554   -2.155306    0.257006
     11          1           0        0.675196   -1.350927   -1.264835
     12          1           0        2.633332   -0.137797   -0.542701
     13          1           0        1.435778    1.997594   -0.596758
     14          1           0        1.713865    0.597200    0.949235
 ---------------------------------------------------------------------

 SCF Done:  E(RHF) =  -361.233934898     A.U. after    2 cycles

 The electronic state is 1-A.
 Alpha  occ. eigenvalues --  -21.06958 -21.02489 -15.80440 -11.50327 -11.47193
 Alpha  occ. eigenvalues --  -11.41608 -11.39223  -1.75064  -1.66727  -1.47818
 Alpha  occ. eigenvalues --   -1.11244  -1.07118  -0.87877  -0.78746  -0.74869
 Alpha  occ. eigenvalues --   -0.69015  -0.63877  -0.62687  -0.57491  -0.53503
 Alpha  occ. eigenvalues --   -0.49229  -0.47272  -0.44361  -0.39956  -0.32774
 Alpha  occ. eigenvalues --   -0.27837  -0.26053
 Alpha virt. eigenvalues --    0.02898   0.04630   0.04846   0.05425   0.05740
 Alpha virt. eigenvalues --    0.06787   0.07793   0.10060   0.10986   0.12239
 Alpha virt. eigenvalues --    0.12777   0.13368   0.14386   0.14764   0.15050

 Mulliken charges:
               1
     1  O   -3.092126
     2  C    0.684630
     3  C   -2.475989
     4  N   -2.164660
     5  C   -2.185519
     6  C    4.553422
     7  O   -3.537111
     8  H    0.589363
     9  H    1.482802
    10  H    1.365824
    11  H    1.476251
    12  H    0.637790
    13  H    1.235210
    14  H    1.430113
 Sum of Mulliken charges =  -0.00000

 Dipole moment (field-independent basis, Debye):
    X=              3.6067    Y=             -1.9383    Z=             -0.7403  Tot=              4.1609

 Test job not archived.
 1\1\GINC-SE340\SP\RHF\Aug-CC-pVDZ\C4H7N1O2\OHZDE\09-Apr-2025\0\\#t hf
 aug-cc-pvdz iop(5/13=1,5/36=2,99/5=2) pseudo=read geom=check guess=(re
 ad,tcheck) scf=(maxcycle=1)\\title\\0,1\O,0,2.19248131,-0.00945308,0.1
 8640425\C,0,0.81772231,0.00645284,0.40326413\C,0,0.12154177,1.19529858
 ,-0.24143376\N,0,-1.25542566,0.72073844,-0.4394991\C,0,-1.17330773,-0.
 83262592,-0.66169818\C,0,0.14329452,-1.19841672,-0.28816488\O,0,0.7583
 5714,-2.24027719,-0.43723256\H,0,2.39986796,-0.93171251,-0.03008833\H,
 0,0.59315264,-0.03611425,1.48028498\H,0,0.13743728,2.1094262,0.3503710

 Normal termination of Gaussian 16 at Wed Apr  9 18:34:26 2025.
