 Gaussian 16, Revision C.01,

 ----------------------------------------------------------------------
 #t hf aug-cc-pvdz symm=none int=(grid=ultrafine) guess=(read,tcheck) s
 table=(opt,rrhf)
 ----------------------------------------------------------------------
 -----
 title
 -----
 Symbolic Z-matrix:
 Charge =  0 Multiplicity = 1

 SCF Done:  E(RHF) =  -338.702541418     A.U. after   14 cycles
 Normal termination of Gaussian 16 at Wed Apr  9 19:17:55 2025.
 Gaussian 16:  ES64L-G16RevC.01  3-Jul-2019

 ----------------------------------------------------------------------
 #t hf aug-cc-pvdz iop(5/13=1,5/36=2,99/5=2) pseudo=read geom=check gue
 ss=(read,tcheck) scf=(maxcycle=1)
 ----------------------------------------------------------------------
 -----
 title
 -----
 Structure from the checkpoint file:  "Grambow2020_wb97xd3_008558_reverse_mol2.chk"
 Charge =  0 Multiplicity = 1

                         Standard orientation:
 ---------------------------------------------------------------------
 Center     Atomic      Atomic             Coordinates (Angstroms)
 Number     Number       Type             X           Y           Z
 ---------------------------------------------------------------------
      1          7           0       -2.015947    1.142276   -0.082839
      2          6           0       -2.309038   -0.122451    0.205785
      3          8           0       -1.324178   -0.993903   -0.025456
      4          6           0       -0.033422   -0.644425   -0.519716
      5          6           0        0.873122   -0.208103    0.633766
      6          6           0        2.196723    0.169999    0.149963
      7          7           0        3.222886    0.470640   -0.264436
      8          1           0       -1.158594    1.503300   -0.481408
      9          1           0       -2.750516    1.811360    0.058668
     10          1           0       -0.080625    0.116148   -1.303756
     11          1           0        0.358146   -1.551222   -0.977714
     12          1           0        0.441856    0.638087    1.171961
     13          1           0        0.970282   -1.026980    1.348036
 ---------------------------------------------------------------------

 SCF Done:  E(RHF) =  -340.231783394     A.U. after    2 cycles

 The electronic state is 1-A.
 Alpha  occ. eigenvalues --  -21.10191 -15.80257 -15.77179 -11.49944 -11.46124
 Alpha  occ. eigenvalues --  -11.42946 -11.42238  -1.82049  -1.36734  -1.33638
 Alpha  occ. eigenvalues --   -1.19055  -0.98342  -0.82651  -0.75711  -0.73210
 Alpha  occ. eigenvalues --   -0.67977  -0.63110  -0.61333  -0.58149  -0.53325
 Alpha  occ. eigenvalues --   -0.51076  -0.45403  -0.44695  -0.42969  -0.36137
 Alpha  occ. eigenvalues --   -0.34320
 Alpha virt. eigenvalues --    0.02648   0.04886   0.05104   0.05762   0.06077
 Alpha virt. eigenvalues --    0.06613   0.09200   0.10371   0.10771   0.11281
 Alpha virt. eigenvalues --    0.12131   0.12942   0.13447   0.14412   0.14800

 Mulliken charges:
               1
     1  N   -1.920630
     2  C    0.850030
     3  O   -2.287251
     4  C   -0.837908
     5  C   -3.444149
     6  C    2.484104
     7  N   -2.503460
     8  H    0.701925
     9  H    0.828427
    10  H    1.740145
    11  H    1.252048
    12  H    1.644805
    13  H    1.491915
 Sum of Mulliken charges =   0.00000

 Dipole moment (field-independent basis, Debye):
    X=             -0.7778    Y=              1.2369    Z=             -0.2029  Tot=              1.4751

 Test job not archived.
 1\1\GINC-SE145\SP\RHF\Aug-CC-pVDZ\C4H6N2O1\OHZDE\09-Apr-2025\0\\#t hf
 aug-cc-pvdz iop(5/13=1,5/36=2,99/5=2) pseudo=read geom=check guess=(re
 ad,tcheck) scf=(maxcycle=1)\\title\\0,1\N,0,-2.12121569,0.37106782,-0.
 20098457\C,0,-2.00209458,-0.90773812,0.14427898\O,0,-0.77776231,-1.418
 53496,-0.00720094\C,0,0.35249413,-0.68670966,-0.47563814\C,0,1.0108223
 4,0.06635798,0.68290041\C,0,2.16231042,0.83634364,0.22448648\N,0,3.054
 53223,1.43884617,-0.1705489\H,0,-1.40882519,0.97614488,-0.58909672\H,0
 ,-3.03907433,0.76887901,-0.11991963\H,0,0.0996965,-0.01450166,-1.30004

 Normal termination of Gaussian 16 at Wed Apr  9 19:17:58 2025.
