 Gaussian 16, Revision C.01,

 ----------------------------------------------------------------------
 #t hf aug-cc-pvdz symm=none int=(grid=ultrafine) guess=(read,tcheck) s
 table=(opt,rrhf)
 ----------------------------------------------------------------------
 -----
 title
 -----
 Symbolic Z-matrix:
 Charge =  0 Multiplicity = 1

 SCF Done:  E(RHF) =  -304.546309369     A.U. after   15 cycles
 Normal termination of Gaussian 16 at Wed Apr  9 03:21:57 2025.
 Gaussian 16:  ES64L-G16RevC.01  3-Jul-2019

 ----------------------------------------------------------------------
 #t hf aug-cc-pvdz iop(5/13=1,5/36=2,99/5=2) pseudo=read geom=check gue
 ss=(read,tcheck) scf=(maxcycle=1)
 ----------------------------------------------------------------------
 -----
 title
 -----
 Structure from the checkpoint file:  "Grambow2020_wb97xd3_006104_reverse_mol1.chk"
 Charge =  0 Multiplicity = 1

                         Standard orientation:
 ---------------------------------------------------------------------
 Center     Atomic      Atomic             Coordinates (Angstroms)
 Number     Number       Type             X           Y           Z
 ---------------------------------------------------------------------
      1          6           0       -0.482858    1.212029    0.102942
      2          8           0       -1.318843    0.198638   -0.415590
      3          6           0       -0.868375   -1.052542    0.077280
      4          6           0        0.528728   -0.918326    0.582348
      5          8           0        1.401353   -0.079900   -0.694882
      6          6           0        0.810652    0.526694    0.463352
      7          1           0       -0.367420    1.987195   -0.656323
      8          1           0       -0.910359    1.663229    1.009332
      9          1           0       -1.456849   -1.373417    0.952927
     10          1           0       -0.987972   -1.804249   -0.703443
     11          1           0        1.624146   -1.079102   -0.185019
     12          1           0        1.509484    1.049305    1.110769
 ---------------------------------------------------------------------

 SCF Done:  E(RHF) =  -305.915644627     A.U. after    2 cycles

 The electronic state is 1-A.
 Alpha  occ. eigenvalues --  -21.09644 -21.04954 -11.50204 -11.44729 -11.43042
 Alpha  occ. eigenvalues --  -11.39700  -1.82954  -1.72794  -1.11234  -1.09243
 Alpha  occ. eigenvalues --   -0.86696  -0.83674  -0.73329  -0.66624  -0.61569
 Alpha  occ. eigenvalues --   -0.55084  -0.52894  -0.51722  -0.43209  -0.41049
 Alpha  occ. eigenvalues --   -0.36555  -0.30969  -0.30498
 Alpha virt. eigenvalues --    0.03758   0.05017   0.05304   0.06221   0.06428
 Alpha virt. eigenvalues --    0.06871   0.08278   0.10793   0.10950   0.13459
 Alpha virt. eigenvalues --    0.14147   0.14615   0.14828   0.15067   0.15351

 Mulliken charges:
               1
     1  C   -0.842724
     2  O   -2.943841
     3  C   -1.231021
     4  C   -1.784808
     5  O   -2.406385
     6  C    0.669109
     7  H    1.406440
     8  H    1.432777
     9  H    1.395403
    10  H    1.488975
    11  H    1.301073
    12  H    1.515002
 Sum of Mulliken charges =   0.00000

 Dipole moment (field-independent basis, Debye):
    X=              0.4017    Y=              1.4630    Z=             -0.9443  Tot=              1.7870

 Test job not archived.
 1\1\GINC-SE102\SP\RHF\Aug-CC-pVDZ\C4H6O2\OHZDE\09-Apr-2025\0\\#t hf au
 g-cc-pvdz iop(5/13=1,5/36=2,99/5=2) pseudo=read geom=check guess=(read
 ,tcheck) scf=(maxcycle=1)\\title\\0,1\C,0,-1.24936562,-0.22605669,0.03
 702056\O,0,-0.8422484,1.08093709,-0.31043957\C,0,0.52371106,1.0410654,
 -0.68972726\C,0,1.14679221,-0.21726573,-0.18636137\O,0,0.67226171,-0.3
 2139702,1.50471162\C,0,0.01485474,-0.96180269,0.40194786\H,0,-1.965467
 55,-0.158494,0.85758448\H,0,-1.72672847,-0.73852972,-0.80996049\H,0,0.
 63373247,0.9931727,-1.78591208\H,0,1.01453724,1.95002822,-0.34076979\H

 Normal termination of Gaussian 16 at Wed Apr  9 03:22:01 2025.
