 Gaussian 16, Revision C.01,

 ----------------------------------------------------------------------
 #t hf aug-cc-pvdz symm=none int=(grid=ultrafine) guess=(read,tcheck) s
 table=(opt,rrhf)
 ----------------------------------------------------------------------
 -----
 title
 -----
 Symbolic Z-matrix:
 Charge =  0 Multiplicity = 1

 SCF Done:  E(RHF) =  -338.573299991     A.U. after   15 cycles
 Normal termination of Gaussian 16 at Wed Apr  9 18:58:43 2025.
 Gaussian 16:  ES64L-G16RevC.01  3-Jul-2019

 ----------------------------------------------------------------------
 #t hf aug-cc-pvdz iop(5/13=1,5/36=2,99/5=2) pseudo=read geom=check gue
 ss=(read,tcheck) scf=(maxcycle=1)
 ----------------------------------------------------------------------
 -----
 title
 -----
 Structure from the checkpoint file:  "Grambow2020_wb97xd3_007969_forward_mol1.chk"
 Charge =  0 Multiplicity = 1

                         Standard orientation:
 ---------------------------------------------------------------------
 Center     Atomic      Atomic             Coordinates (Angstroms)
 Number     Number       Type             X           Y           Z
 ---------------------------------------------------------------------
      1          7           0       -1.257199   -1.588786    0.007616
      2          6           0       -0.837139   -0.414887    0.033346
      3          8           0       -1.472729    0.793061   -0.007955
      4          6           0       -0.206772    1.525893   -0.001115
      5          6           0        0.531097    0.198954    0.092304
      6          6           0        1.670596   -0.231589    0.908706
      7          7           0        1.535327   -0.248061   -0.851148
      8          1           0       -2.270113   -1.643623   -0.053780
      9          1           0       -0.070804    2.080458   -0.928385
     10          1           0       -0.130998    2.168747    0.874000
     11          1           0        1.522813   -1.279168    1.191484
     12          1           0        2.475078   -0.071464   -0.191264
     13          1           0        1.362265   -1.211731   -1.123143
 ---------------------------------------------------------------------

 SCF Done:  E(RHF) =  -340.097970147     A.U. after    2 cycles

 The electronic state is 1-A.
 Alpha  occ. eigenvalues --  -21.09217 -15.80020 -15.74100 -11.53510 -11.49205
 Alpha  occ. eigenvalues --  -11.44410 -11.41485  -1.83921  -1.47780  -1.31960
 Alpha  occ. eigenvalues --   -1.08767  -0.96715  -0.93695  -0.76315  -0.71915
 Alpha  occ. eigenvalues --   -0.68623  -0.66323  -0.61531  -0.52358  -0.51429
 Alpha  occ. eigenvalues --   -0.50296  -0.44653  -0.39954  -0.37694  -0.34274
 Alpha  occ. eigenvalues --   -0.32013
 Alpha virt. eigenvalues --    0.04020   0.05431   0.05782   0.05837   0.06576
 Alpha virt. eigenvalues --    0.06870   0.09287   0.09796   0.10201   0.12590
 Alpha virt. eigenvalues --    0.12657   0.13446   0.13921   0.14578   0.15131

 Mulliken charges:
               1
     1  N   -3.761557
     2  C    6.076315
     3  O   -3.181237
     4  C   -1.799203
     5  C    1.395801
     6  C   -2.485020
     7  N   -2.412715
     8  H    0.803956
     9  H    1.365035
    10  H    1.491089
    11  H    0.999197
    12  H    0.923656
    13  H    0.584683
 Sum of Mulliken charges =  -0.00000

 Dipole moment (field-independent basis, Debye):
    X=             -0.6331    Y=              0.8714    Z=             -1.4504  Tot=              1.8066

 Test job not archived.
 1\1\GINC-SE114\SP\RHF\Aug-CC-pVDZ\C4H6N2O1\OHZDE\09-Apr-2025\0\\#t hf
 aug-cc-pvdz iop(5/13=1,5/36=2,99/5=2) pseudo=read geom=check guess=(re
 ad,tcheck) scf=(maxcycle=1)\\title\\0,1\N,0,1.46365404,-1.21595649,-1.
 20378565\C,0,1.03722248,-0.23976521,-0.55543444\O,0,1.660468,0.8385445
 8,0.00459305\C,0,0.40939254,1.34169292,0.57150524\C,0,-0.32307718,0.17
 744838,-0.07808551\C,0,-1.59005923,0.10616516,-0.81294086\N,0,-1.13320
 064,-0.78432559,0.64100674\H,0,2.47095645,-1.19146231,-1.33612574\H,0,
 0.44218207,1.33405561,1.65995612\H,0,0.16907924,2.327367,0.17713543\H,

 Normal termination of Gaussian 16 at Wed Apr  9 18:58:47 2025.
