 Gaussian 16, Revision C.01,

 ----------------------------------------------------------------------
 #t hf aug-cc-pvdz symm=none int=(grid=ultrafine) guess=(read,tcheck) s
 table=(opt,rrhf)
 ----------------------------------------------------------------------
 -----
 title
 -----
 Symbolic Z-matrix:
 Charge =  0 Multiplicity = 1

 SCF Done:  E(RHF) =  -359.601933571     A.U. after   14 cycles
 Normal termination of Gaussian 16 at Wed Apr  9 18:07:06 2025.
 Gaussian 16:  ES64L-G16RevC.01  3-Jul-2019

 ----------------------------------------------------------------------
 #t hf aug-cc-pvdz iop(5/13=1,5/36=2,99/5=2) pseudo=read geom=check gue
 ss=(read,tcheck) scf=(maxcycle=1)
 ----------------------------------------------------------------------
 -----
 title
 -----
 Structure from the checkpoint file:  "Grambow2020_wb97xd3_006597_reverse_mol2.chk"
 Charge =  0 Multiplicity = 1

                         Standard orientation:
 ---------------------------------------------------------------------
 Center     Atomic      Atomic             Coordinates (Angstroms)
 Number     Number       Type             X           Y           Z
 ---------------------------------------------------------------------
      1          6           0       -1.278438   -1.720825   -0.007283
      2          7           0       -1.760259   -0.370841    0.030760
      3          6           0       -1.370883    0.753992   -0.001069
      4          6           0        1.629577    0.132015    1.173411
      5          8           0        1.818695   -0.395662    0.008556
      6          6           0        1.638081    0.100952   -1.172062
      7          8           0       -1.105986    1.894426   -0.023197
      8          1           0       -0.683823   -1.937762    0.881339
      9          1           0       -2.127927   -2.400203   -0.036944
     10          1           0       -0.662915   -1.882190   -0.893325
     11          1           0        1.879458   -0.501704    2.006385
     12          1           0        1.301795    1.160244    1.247554
     13          1           0        1.895446   -0.555275   -1.985059
     14          1           0        1.308090    1.125863   -1.276125
 ---------------------------------------------------------------------

 SCF Done:  E(RHF) =  -361.237389024     A.U. after    2 cycles

 The electronic state is 1-A.
 Alpha  occ. eigenvalues --  -21.20626 -21.10377 -15.76004 -11.56824 -11.42308
 Alpha  occ. eigenvalues --  -11.41352 -11.41205  -1.88401  -1.75612  -1.39862
 Alpha  occ. eigenvalues --   -1.04685  -1.04159  -0.85095  -0.70827  -0.70460
 Alpha  occ. eigenvalues --   -0.65554  -0.63901  -0.63701  -0.59811  -0.58402
 Alpha  occ. eigenvalues --   -0.55175  -0.54482  -0.53845  -0.43321  -0.34473
 Alpha  occ. eigenvalues --   -0.32221  -0.27945
 Alpha virt. eigenvalues --    0.03180   0.04913   0.05163   0.06375   0.06638
 Alpha virt. eigenvalues --    0.07356   0.07844   0.08189   0.10253   0.11205
 Alpha virt. eigenvalues --    0.12113   0.12682   0.13013   0.14123   0.14586

 Mulliken charges:
               1
     1  C   -3.720099
     2  N   -2.295477
     3  C    4.275574
     4  C   -1.594315
     5  O   -2.860950
     6  C   -1.614596
     7  O   -2.619712
     8  H    1.529772
     9  H    1.275272
    10  H    1.563809
    11  H    1.474738
    12  H    1.554653
    13  H    1.475730
    14  H    1.555601
 Sum of Mulliken charges =  -0.00000

 Dipole moment (field-independent basis, Debye):
    X=              0.9690    Y=             -1.0298    Z=             -0.0445  Tot=              1.4147

 Test job not archived.
 1\1\GINC-SE162\SP\RHF\Aug-CC-pVDZ\C4H7N1O2\OHZDE\09-Apr-2025\0\\#t hf
 aug-cc-pvdz iop(5/13=1,5/36=2,99/5=2) pseudo=read geom=check guess=(re
 ad,tcheck) scf=(maxcycle=1)\\title\\0,1\C,0,1.87623989,-0.14031767,-0.
 98059703\N,0,1.7168676,-0.55994471,0.38122837\C,0,0.87729203,-0.717837
 29,1.21072127\C,0,-1.25594866,1.45369827,-0.01513957\O,0,-1.41901791,0
 .55791463,-0.932786\C,0,-1.70808218,-0.69871122,-0.83060821\O,0,0.1420
 9023,-0.90967914,2.10174554\H,0,1.62255501,0.91557573,-1.08553287\H,0,
 2.91315628,-0.28445095,-1.27740725\H,0,1.23319647,-0.72613039,-1.63885

 Normal termination of Gaussian 16 at Wed Apr  9 18:07:10 2025.
