 Gaussian 16, Revision C.01,

 ----------------------------------------------------------------------
 #t hf aug-cc-pvdz symm=none int=(grid=ultrafine) guess=(read,tcheck) s
 table=(opt,rrhf)
 ----------------------------------------------------------------------
 -----
 title
 -----
 Symbolic Z-matrix:
 Charge =  0 Multiplicity = 1

 SCF Done:  E(RHF) =  -360.964639564     A.U. after   14 cycles
 Normal termination of Gaussian 16 at Wed Apr  9 03:58:46 2025.
 Gaussian 16:  ES64L-G16RevC.01  3-Jul-2019

 ----------------------------------------------------------------------
 #t hf aug-cc-pvdz iop(5/13=1,5/36=2,99/5=2) pseudo=read geom=check gue
 ss=(read,tcheck) scf=(maxcycle=1)
 ----------------------------------------------------------------------
 -----
 title
 -----
 Structure from the checkpoint file:  "Grambow2020_wb97xd3_008722_forward_mol2.chk"
 Charge =  0 Multiplicity = 1

                         Standard orientation:
 ---------------------------------------------------------------------
 Center     Atomic      Atomic             Coordinates (Angstroms)
 Number     Number       Type             X           Y           Z
 ---------------------------------------------------------------------
      1          6           0       -2.417926   -0.785930   -0.103824
      2          6           0       -1.121928   -0.021318   -0.308696
      3          8           0       -1.224680    1.296979    0.235551
      4          6           0        0.048947   -0.709030    0.378782
      5          6           0        1.441581   -0.203922    0.029379
      6          8           0        2.372464   -0.969700   -0.117362
      7          7           0        1.571190    1.138760   -0.082676
      8          1           0       -2.636474   -0.884989    0.961300
      9          1           0       -2.352177   -1.782859   -0.542569
     10          1           0       -3.254994   -0.268202   -0.579010
     11          1           0       -0.908676    0.051648   -1.383794
     12          1           0       -1.957277    1.749312   -0.186543
     13          1           0       -0.083050   -0.617373    1.461888
     14          1           0        0.045965   -1.771454    0.138703
     15          1           0        2.481660    1.513229   -0.278973
     16          1           0        0.780378    1.742336    0.068374
 ---------------------------------------------------------------------

 SCF Done:  E(RHF) =  -362.602754139     A.U. after    2 cycles

 The electronic state is 1-A.
 Alpha  occ. eigenvalues --  -21.08614 -21.01004 -15.76064 -11.49715 -11.46780
 Alpha  occ. eigenvalues --  -11.41170 -11.37671  -1.74273  -1.68931  -1.33599
 Alpha  occ. eigenvalues --   -1.18900  -1.05063  -0.87104  -0.79653  -0.71292
 Alpha  occ. eigenvalues --   -0.69906  -0.61929  -0.59805  -0.58572  -0.54420
 Alpha  occ. eigenvalues --   -0.53444  -0.50457  -0.47707  -0.45943  -0.41725
 Alpha  occ. eigenvalues --   -0.34224  -0.31031  -0.27124
 Alpha virt. eigenvalues --    0.03345   0.04798   0.05010   0.05286   0.05843
 Alpha virt. eigenvalues --    0.06181   0.07150   0.07690   0.09498   0.10368
 Alpha virt. eigenvalues --    0.12404   0.12894   0.14118   0.14541   0.14914

 Mulliken charges:
               1
     1  C   -3.953022
     2  C    1.179308
     3  O   -3.051272
     4  C   -3.724946
     5  C    5.480710
     6  O   -3.415412
     7  N   -3.123774
     8  H    1.193116
     9  H    1.200648
    10  H    1.084796
    11  H    1.844187
    12  H    0.772940
    13  H    1.470266
    14  H    1.375137
    15  H    0.785872
    16  H    0.881447
 Sum of Mulliken charges =  -0.00000

 Dipole moment (field-independent basis, Debye):
    X=             -2.5929    Y=              1.9634    Z=             -0.2744  Tot=              3.2639

 Test job not archived.
 1\1\GINC-SE454\SP\RHF\Aug-CC-pVDZ\C4H9N1O2\OHZDE\09-Apr-2025\0\\#t hf
 aug-cc-pvdz iop(5/13=1,5/36=2,99/5=2) pseudo=read geom=check guess=(re
 ad,tcheck) scf=(maxcycle=1)\\title\\0,1\C,0,-2.0391954,-0.07770826,-0.
 83328471\C,0,-0.56122353,0.24609369,-0.70302918\O,0,-0.37695438,1.4845
 9384,-0.01249902\C,0,0.18069959,-0.82781156,0.07978659\C,0,1.70136146,
 -0.76945335,0.05102154\O,0,2.37040609,-1.7793686,-0.03230668\N,0,2.246
 16727,0.46602931,0.14546266\H,0,-2.49439673,-0.17962383,0.15386817\H,0
 ,-2.18401272,-1.00848554,-1.38407439\H,0,-2.56521743,0.71347929,-1.373

 Normal termination of Gaussian 16 at Wed Apr  9 03:58:51 2025.
