 Gaussian 16, Revision C.01,

 ----------------------------------------------------------------------
 #t hf aug-cc-pvdz symm=none int=(grid=ultrafine) guess=(read,tcheck) s
 table=(opt,rrhf)
 ----------------------------------------------------------------------
 -----
 title
 -----
 Symbolic Z-matrix:
 Charge =  0 Multiplicity = 1

 SCF Done:  E(RHF) =  -264.847021402     A.U. after   16 cycles
 Normal termination of Gaussian 16 at Wed Apr  9 03:08:57 2025.
 Gaussian 16:  ES64L-G16RevC.01  3-Jul-2019

 ----------------------------------------------------------------------
 #t hf aug-cc-pvdz iop(5/13=1,5/36=2,99/5=2) pseudo=read geom=check gue
 ss=(read,tcheck) scf=(maxcycle=1)
 ----------------------------------------------------------------------
 -----
 title
 -----
 Structure from the checkpoint file:  "Grambow2020_b97d3_006630_forward_mol1.chk"
 Charge =  0 Multiplicity = 1

                         Standard orientation:
 ---------------------------------------------------------------------
 Center     Atomic      Atomic             Coordinates (Angstroms)
 Number     Number       Type             X           Y           Z
 ---------------------------------------------------------------------
      1          6           0        1.996620   -0.713462    0.180212
      2          6           0        1.158246    0.405585   -0.439640
      3          6           0       -0.259631    0.535380    0.093156
      4          7           0       -0.868484    1.774433   -0.045988
      5          6           0       -1.047672   -0.701664    0.006921
      6          7           0       -1.735020   -1.642313   -0.114348
      7          1           0        1.493753   -1.686531    0.096442
      8          1           0        2.181306   -0.515270    1.244245
      9          1           0        2.965151   -0.786566   -0.330575
     10          1           0        1.627597    1.391356   -0.330481
     11          1           0        1.016910    0.240817   -1.521179
     12          1           0        0.100835    0.361370    1.673511
     13          1           0       -1.884250    1.656660    0.061636
     14          1           0       -0.362150    1.258293    1.184857
 ---------------------------------------------------------------------

 SCF Done:  E(RHF) =  -266.146944059     A.U. after    2 cycles

 The electronic state is 1-A.
 Alpha  occ. eigenvalues --  -15.80059 -15.73130 -11.58435 -11.46783 -11.44237
 Alpha  occ. eigenvalues --  -11.39246  -1.43595  -1.30619  -1.18741  -0.99841
 Alpha  occ. eigenvalues --   -0.91149  -0.79441  -0.67254  -0.63998  -0.62729
 Alpha  occ. eigenvalues --   -0.56427  -0.52796  -0.51490  -0.51407  -0.47039
 Alpha  occ. eigenvalues --   -0.45827  -0.41195  -0.33776
 Alpha virt. eigenvalues --    0.03507   0.04638   0.05611   0.05785   0.06179
 Alpha virt. eigenvalues --    0.06523   0.06920   0.08072   0.09722   0.10590
 Alpha virt. eigenvalues --    0.11706   0.12862   0.13563   0.13925   0.14578

 Mulliken charges:
               1
     1  C   -3.518180
     2  C   -3.145714
     3  C    2.008561
     4  N   -2.960470
     5  C    1.871569
     6  N   -2.420635
     7  H    1.339726
     8  H    1.286009
     9  H    1.120061
    10  H    1.385048
    11  H    1.295650
    12  H   -0.329670
    13  H    0.609639
    14  H    1.458406
 Sum of Mulliken charges =   0.00000

 Dipole moment (field-independent basis, Debye):
    X=              1.8359    Y=              0.5934    Z=             -0.1613  Tot=              1.9362

 Test job not archived.
 1\1\GINC-SE113\SP\RHF\Aug-CC-pVDZ\C4H8N2\OHZDE\09-Apr-2025\0\\#t hf au
 g-cc-pvdz iop(5/13=1,5/36=2,99/5=2) pseudo=read geom=check guess=(read
 ,tcheck) scf=(maxcycle=1)\\title\\0,1\C,0,-1.71029651,0.17986526,0.332
 72292\C,0,-0.60867142,-0.62110647,-0.36313612\C,0,0.80829317,-0.115947
 43,-0.14377656\N,0,1.83292497,-1.03628088,-0.31239188\C,0,1.00254614,1
 .29645351,-0.49889783\N,0,1.22011776,2.39495009,-0.84232435\H,0,-1.665
 38758,1.24391749,0.06340348\H,0,-1.61722688,0.09980434,1.42381586\H,0,
 -2.6966294,-0.20292246,0.04131108\H,0,-0.6140404,-1.67994384,-0.075413

 Normal termination of Gaussian 16 at Wed Apr  9 03:09:01 2025.
