 Gaussian 16, Revision C.01,

 ----------------------------------------------------------------------
 #t hf aug-cc-pvdz symm=none int=(grid=ultrafine) guess=(read,tcheck) s
 table=(opt,rrhf)
 ----------------------------------------------------------------------
 -----
 title
 -----
 Symbolic Z-matrix:
 Charge =  0 Multiplicity = 1

 SCF Done:  E(RHF) =  -286.624256615     A.U. after   17 cycles
 Normal termination of Gaussian 16 at Wed Apr  9 18:46:50 2025.
 Gaussian 16:  ES64L-G16RevC.01  3-Jul-2019

 ----------------------------------------------------------------------
 #t hf aug-cc-pvdz iop(5/13=1,5/36=2,99/5=2) pseudo=read geom=check gue
 ss=(read,tcheck) scf=(maxcycle=1)
 ----------------------------------------------------------------------
 -----
 title
 -----
 Structure from the checkpoint file:  "Grambow2020_wb97xd3_007634_forward_mol1.chk"
 Charge =  0 Multiplicity = 1

                         Standard orientation:
 ---------------------------------------------------------------------
 Center     Atomic      Atomic             Coordinates (Angstroms)
 Number     Number       Type             X           Y           Z
 ---------------------------------------------------------------------
      1          6           0        1.998084   -0.719648    0.086393
      2          6           0        0.663504   -0.092000   -0.159668
      3          6           0        0.470700    1.315024   -0.602309
      4          6           0       -0.050842    0.886767    0.736757
      5          6           0       -1.402160    0.229749    0.763204
      6          7           0       -1.639359   -0.265941   -0.507085
      7          6           0       -0.490415   -1.032900   -0.526853
      8          1           0        1.930854   -1.481307    0.866570
      9          1           0        2.736565    0.022385    0.392753
     10          1           0        2.353414   -1.208215   -0.824286
     11          1           0        1.362280    1.926173   -0.551981
     12          1           0       -0.221522    1.552356   -1.400489
     13          1           0        0.351246    1.284936    1.655917
     14          1           0       -1.013653   -1.229230    1.433525
     15          1           0       -2.506545   -0.761404   -0.650468
     16          1           0       -0.650357   -1.766054    0.842912
 ---------------------------------------------------------------------

 SCF Done:  E(RHF) =  -288.043957646     A.U. after    2 cycles

 The electronic state is 1-A.
 Alpha  occ. eigenvalues --  -15.78095 -11.48353 -11.45681 -11.42627 -11.42412
 Alpha  occ. eigenvalues --  -11.39470 -11.37349  -1.54937  -1.29264  -1.07731
 Alpha  occ. eigenvalues --   -0.96239  -0.94273  -0.80716  -0.76825  -0.73246
 Alpha  occ. eigenvalues --   -0.64245  -0.62229  -0.57977  -0.55631  -0.51292
 Alpha  occ. eigenvalues --   -0.47906  -0.45307  -0.44047  -0.43760  -0.31842
 Alpha  occ. eigenvalues --   -0.29817
 Alpha virt. eigenvalues --    0.03976   0.05120   0.05358   0.05538   0.05835
 Alpha virt. eigenvalues --    0.05992   0.06442   0.07069   0.07641   0.09239
 Alpha virt. eigenvalues --    0.10810   0.12239   0.12786   0.12896   0.13369

 Mulliken charges:
               1
     1  C   -5.006789
     2  C    3.468477
     3  C   -2.972689
     4  C    0.110821
     5  C   -1.229458
     6  N   -1.870896
     7  C   -1.604708
     8  H    1.322888
     9  H    1.182835
    10  H    1.267186
    11  H    1.360253
    12  H    1.200792
    13  H    1.521154
    14  H    0.666856
    15  H    0.767044
    16  H   -0.183766
 Sum of Mulliken charges =  -0.00000

 Dipole moment (field-independent basis, Debye):
    X=              0.8576    Y=              1.3101    Z=             -0.7500  Tot=              1.7361

 Test job not archived.
 1\1\GINC-SE168\SP\RHF\Aug-CC-pVDZ\C6H9N1\OHZDE\09-Apr-2025\0\\#t hf au
 g-cc-pvdz iop(5/13=1,5/36=2,99/5=2) pseudo=read geom=check guess=(read
 ,tcheck) scf=(maxcycle=1)\\title\\0,1\C,0,1.46410599,-0.65007504,0.968
 64566\C,0,0.46493879,-0.15520512,-0.02752788\C,0,0.7603589,0.86052789,
 -1.07339285\C,0,-0.24586294,1.17377149,-0.00666641\C,0,-1.64984014,0.6
 8667817,-0.2303209\N,0,-1.57986429,-0.35605813,-1.13773997\C,0,-0.6993
 0795,-1.09291569,-0.36939664\H,0,0.97447261,-0.925226,1.90559367\H,0,2
 .21942174,0.10671237,1.18450517\H,0,1.96528871,-1.5410429,0.58227111\H

 Normal termination of Gaussian 16 at Wed Apr  9 18:46:56 2025.
