 Gaussian 16, Revision C.01,

 ----------------------------------------------------------------------
 #t hf aug-cc-pvdz symm=none int=(grid=ultrafine) guess=(read,tcheck) s
 table=(opt,rrhf)
 ----------------------------------------------------------------------
 -----
 title
 -----
 Symbolic Z-matrix:
 Charge =  0 Multiplicity = 1

 SCF Done:  E(RHF) =  -308.826076972     A.U. after   15 cycles

 1\1\GINC-SE051\Stability\RHF\Aug-CC-pVDZ\C6H12O1\OHZDE\09-Apr-2025\0\\
 #t hf aug-cc-pvdz symm=none int=(grid=ultrafine) guess=(read,tcheck) s
 table=(opt,rrhf)\\title\\0,1\C,0,1.49144534,0.96670003,0.30050681\C,0,
 0.65166731,-0.19140604,0.00706962\C,0,1.28166218,-1.37630477,-0.410529
 25\C,0,-0.69750849,0.13017294,-0.56250513\C,0,-1.8843601,-0.74793805,-
 0.27216939\C,0,-1.81877318,0.6159919,0.31575852\O,0,-1.64044993,0.6712
 36,1.70069643\H,0,2.27871524,0.61013133,-1.34974138\H,0,1.01748726,1.9
 2153348,0.50208581\H,0,2.45357308,0.79599512,0.76965169\H,0,0.63998836

 Normal termination of Gaussian 16 at Wed Apr  9 03:52:37 2025.
 Gaussian 16:  ES64L-G16RevC.01  3-Jul-2019

 ----------------------------------------------------------------------
 #t hf aug-cc-pvdz iop(5/13=1,5/36=2,99/5=2) pseudo=read geom=check gue
 ss=(read,tcheck) scf=(maxcycle=1)
 ----------------------------------------------------------------------
 -----
 title
 -----
 Structure from the checkpoint file:  "Grambow2020_wb97xd3_008287_forward_mol1.chk"
 Charge =  0 Multiplicity = 1

                         Standard orientation:
 ---------------------------------------------------------------------
 Center     Atomic      Atomic             Coordinates (Angstroms)
 Number     Number       Type             X           Y           Z
 ---------------------------------------------------------------------
      1          6           0       -1.490961    1.326081    0.284584
      2          6           0       -0.969968    0.023467   -0.120761
      3          6           0       -1.882903   -0.937868   -0.587291
      4          6           0        0.223476   -0.451986    0.652376
      5          6           0        1.272672   -1.309074   -0.002282
      6          6           0        1.599074    0.091454    0.374878
      7          8           0        1.793242    0.976292   -0.689201
      8          1           0       -2.723751    0.343086    1.276655
      9          1           0       -0.821839    2.033714    0.762610
     10          1           0       -2.315686    1.746005   -0.279703
     11          1           0       -0.639531    0.775569   -0.963049
     12          1           0       -2.739353   -0.628411   -1.174618
     13          1           0       -2.817612   -0.420690    0.960771
     14          1           0       -1.562743   -1.965071   -0.710905
     15          1           0       -0.007863   -0.662143    1.691955
     16          1           0        1.718962   -2.120401    0.556260
     17          1           0        1.154003   -1.488962   -1.063525
     18          1           0        2.257186    0.253618    1.223511
     19          1           0        1.643956    1.870906   -0.375374
 ---------------------------------------------------------------------

 SCF Done:  E(RHF) =  -310.352646962     A.U. after    2 cycles

 The electronic state is 1-A.
 Alpha  occ. eigenvalues --  -21.08566 -11.47994 -11.46745 -11.42714 -11.41054
 Alpha  occ. eigenvalues --  -11.37876 -11.36525  -1.73653  -1.33521  -1.20041
 Alpha  occ. eigenvalues --   -0.97863  -0.89661  -0.84892  -0.77814  -0.71080
 Alpha  occ. eigenvalues --   -0.66490  -0.65592  -0.59927  -0.58820  -0.55574
 Alpha  occ. eigenvalues --   -0.52102  -0.49744  -0.46689  -0.45568  -0.41741
 Alpha  occ. eigenvalues --   -0.37908  -0.31683  -0.24979
 Alpha virt. eigenvalues --    0.03928   0.04658   0.04889   0.05494   0.05746
 Alpha virt. eigenvalues --    0.05946   0.06022   0.07132   0.07399   0.08030
 Alpha virt. eigenvalues --    0.09327   0.09836   0.10138   0.12303   0.12408

 Mulliken charges:
               1
     1  C   -2.894553
     2  C   -0.185473
     3  C   -4.297096
     4  C   -1.548840
     5  C   -3.341604
     6  C    1.618716
     7  O   -3.263232
     8  H   -0.017806
     9  H    1.455233
    10  H    1.269502
    11  H    1.945772
    12  H    1.197974
    13  H    0.025664
    14  H    1.548784
    15  H    1.468551
    16  H    1.276791
    17  H    1.440666
    18  H    1.521053
    19  H    0.779901
 Sum of Mulliken charges =   0.00000

 Dipole moment (field-independent basis, Debye):
    X=              1.4240    Y=              1.1526    Z=             -0.0665  Tot=              1.8333

 Test job not archived.
 1\1\GINC-SE051\SP\RHF\Aug-CC-pVDZ\C6H12O1\OHZDE\09-Apr-2025\0\\#t hf a
 ug-cc-pvdz iop(5/13=1,5/36=2,99/5=2) pseudo=read geom=check guess=(rea
 d,tcheck) scf=(maxcycle=1)\\title\\0,1\C,0,1.49144534,0.96670003,0.300
 50681\C,0,0.65166731,-0.19140604,0.00706962\C,0,1.28166218,-1.37630477
 ,-0.41052925\C,0,-0.69750849,0.13017294,-0.56250513\C,0,-1.8843601,-0.
 74793805,-0.27216939\C,0,-1.81877318,0.6159919,0.31575852\O,0,-1.64044
 993,0.671236,1.70069643\H,0,2.27871524,0.61013133,-1.34974138\H,0,1.01
 748726,1.92153348,0.50208581\H,0,2.45357308,0.79599512,0.76965169\H,0,

 Normal termination of Gaussian 16 at Wed Apr  9 03:52:45 2025.
