 Gaussian 16, Revision C.01,

 ----------------------------------------------------------------------
 #t hf aug-cc-pvdz symm=none int=(grid=ultrafine) guess=(read,tcheck) s
 table=(opt,rrhf)
 ----------------------------------------------------------------------
 -----
 title
 -----
 Symbolic Z-matrix:
 Charge =  0 Multiplicity = 1

 SCF Done:  E(RHF) =  -373.333377737     A.U. after   15 cycles
 Normal termination of Gaussian 16 at Wed Apr  9 03:27:59 2025.
 Gaussian 16:  ES64L-G16RevC.01  3-Jul-2019

 ----------------------------------------------------------------------
 #t hf aug-cc-pvdz iop(5/13=1,5/36=2,99/5=2) pseudo=read geom=check gue
 ss=(read,tcheck) scf=(maxcycle=1)
 ----------------------------------------------------------------------
 -----
 title
 -----
 Structure from the checkpoint file:  "Grambow2020_wb97xd3_006707_reverse_mol2.chk"
 Charge =  0 Multiplicity = 1

                         Standard orientation:
 ---------------------------------------------------------------------
 Center     Atomic      Atomic             Coordinates (Angstroms)
 Number     Number       Type             X           Y           Z
 ---------------------------------------------------------------------
      1          8           0        2.681063    0.213124    0.006717
      2          6           0        1.861840   -0.638036   -0.002021
      3          6           0       -2.808247   -0.948339    0.003940
      4          7           0       -2.039682   -0.067587    0.001623
      5          6           0       -1.141004    0.970593   -0.000949
      6          7           0        0.119163    0.853318   -0.003572
      7          8           0        0.503568   -0.470265   -0.004440
      8          1           0        2.037540   -1.721816   -0.009384
      9          1           0       -1.546491    1.973512   -0.001011
 ---------------------------------------------------------------------

 SCF Done:  E(RHF) =  -374.901954594     A.U. after    2 cycles

 The electronic state is 1-A.
 Alpha  occ. eigenvalues --  -21.14457 -21.08424 -15.83062 -15.81792 -11.53157
 Alpha  occ. eigenvalues --  -11.51686 -11.47107  -1.92408  -1.71809  -1.46647
 Alpha  occ. eigenvalues --   -1.29248  -0.99321  -0.88250  -0.77699  -0.69257
 Alpha  occ. eigenvalues --   -0.63823  -0.63535  -0.55788  -0.55682  -0.50333
 Alpha  occ. eigenvalues --   -0.49120  -0.46676  -0.40949  -0.33177  -0.32657
 Alpha virt. eigenvalues --    0.03188   0.04936   0.06683   0.08329   0.08774
 Alpha virt. eigenvalues --    0.09585   0.10095   0.10743   0.11235   0.12404
 Alpha virt. eigenvalues --    0.13506   0.13901   0.14415   0.15096   0.16225

 Mulliken charges:
               1
     1  O   -2.393866
     2  C    2.320897
     3  C   -0.477176
     4  N   -0.968967
     5  C    1.722228
     6  N   -0.754001
     7  O   -2.662980
     8  H    1.507273
     9  H    1.706592
 Sum of Mulliken charges =  -0.00000

 Dipole moment (field-independent basis, Debye):
    X=              0.0974    Y=              1.0690    Z=             -0.0110  Tot=              1.0735

 Test job not archived.
 1\1\GINC-SE424\SP\RHF\Aug-CC-pVDZ\C3H2N2O2\OHZDE\09-Apr-2025\0\\#t hf
 aug-cc-pvdz iop(5/13=1,5/36=2,99/5=2) pseudo=read geom=check guess=(re
 ad,tcheck) scf=(maxcycle=1)\\title\\0,1\O,0,-1.80655456,-1.01649854,-1
 .85210018\C,0,-1.83440527,-0.47594191,-0.80200571\C,0,1.23220467,1.198
 9104,2.31196477\N,0,1.3163741,0.67658942,1.26960275\C,0,1.42070351,0.0
 6323495,0.04552785\N,0,0.45051495,-0.32774569,-0.66696779\O,0,-0.75948
 724,-0.06220322,-0.06279932\H,0,-2.7275202,-0.20530749,-0.22355231\H,0
 ,2.41791602,-0.09850991,-0.34134506\\Version=ES64L-G16RevC.01\State=1-

 Normal termination of Gaussian 16 at Wed Apr  9 03:28:02 2025.
