 Gaussian 16, Revision C.01,

 ----------------------------------------------------------------------
 #t hf aug-cc-pvdz symm=none int=(grid=ultrafine) guess=(read,tcheck) s
 table=(opt,rrhf)
 ----------------------------------------------------------------------
 -----
 title
 -----
 Symbolic Z-matrix:
 Charge =  0 Multiplicity = 1

 SCF Done:  E(RHF) =  -286.741671530     A.U. after   16 cycles
 Normal termination of Gaussian 16 at Wed Apr  9 19:19:14 2025.
 Gaussian 16:  ES64L-G16RevC.01  3-Jul-2019

 ----------------------------------------------------------------------
 #t hf aug-cc-pvdz iop(5/13=1,5/36=2,99/5=2) pseudo=read geom=check gue
 ss=(read,tcheck) scf=(maxcycle=1)
 ----------------------------------------------------------------------
 -----
 title
 -----
 Structure from the checkpoint file:  "Grambow2020_wb97xd3_008590_reverse_mol1.chk"
 Charge =  0 Multiplicity = 1

                         Standard orientation:
 ---------------------------------------------------------------------
 Center     Atomic      Atomic             Coordinates (Angstroms)
 Number     Number       Type             X           Y           Z
 ---------------------------------------------------------------------
      1          6           0       -1.976231   -0.588404   -0.351675
      2          6           0       -0.545797   -0.224470   -0.116350
      3          6           0        0.281462    0.749768   -0.784916
      4          6           0        1.687963    0.491520   -0.601062
      5          6           0       -0.449070    1.350717    0.865898
      6          6           0        1.633872   -0.659071    0.140950
      7          7           0        0.335208   -1.109168    0.411859
      8          1           0       -2.461545   -0.941730    0.561048
      9          1           0       -2.532712    0.270760   -0.724960
     10          1           0       -2.034468   -1.379860   -1.100065
     11          1           0       -0.153588    1.469847   -1.468632
     12          1           0        0.245018    1.064476    1.647754
     13          1           0       -1.493207    1.315952    1.178217
     14          1           0       -0.233333    2.366186    0.544386
     15          1           0        2.446158   -1.252973    0.544298
     16          1           0        0.078018   -1.868855    1.017860
 ---------------------------------------------------------------------

 SCF Done:  E(RHF) =  -288.164205232     A.U. after    2 cycles

 The electronic state is 1-A.
 Alpha  occ. eigenvalues --  -15.77703 -11.50453 -11.44741 -11.43269 -11.40933
 Alpha  occ. eigenvalues --  -11.38212 -11.29008  -1.52270  -1.20115  -1.13132
 Alpha  occ. eigenvalues --   -1.02437  -0.95623  -0.81729  -0.76489  -0.68677
 Alpha  occ. eigenvalues --   -0.65207  -0.61962  -0.60850  -0.57160  -0.54619
 Alpha  occ. eigenvalues --   -0.52289  -0.51104  -0.45630  -0.37643  -0.28125
 Alpha  occ. eigenvalues --   -0.26244
 Alpha virt. eigenvalues --    0.02660   0.04371   0.04575   0.04677   0.05208
 Alpha virt. eigenvalues --    0.06176   0.06392   0.07397   0.07658   0.10336
 Alpha virt. eigenvalues --    0.11444   0.11726   0.12281   0.12625   0.13142

 Mulliken charges:
               1
     1  C   -4.944965
     2  C    3.632818
     3  C    0.299846
     4  C   -2.662037
     5  C   -3.511007
     6  C   -0.158842
     7  N   -3.920944
     8  H    1.138716
     9  H    1.162706
    10  H    1.128237
    11  H    1.538122
    12  H    1.340863
    13  H    1.275946
    14  H    1.240275
    15  H    1.621493
    16  H    0.818773
 Sum of Mulliken charges =  -0.00000

 Dipole moment (field-independent basis, Debye):
    X=             -6.3554    Y=             -2.2666    Z=              2.5082  Tot=              7.1986

 Test job not archived.
 1\1\GINC-SE056\SP\RHF\Aug-CC-pVDZ\C6H9N1\OHZDE\09-Apr-2025\0\\#t hf au
 g-cc-pvdz iop(5/13=1,5/36=2,99/5=2) pseudo=read geom=check guess=(read
 ,tcheck) scf=(maxcycle=1)\\title\\0,1\C,0,1.72746745,-0.62159019,0.246
 45968\C,0,0.42875219,0.04899674,-0.0659813\C,0,-0.49879055,-0.19098163
 ,-1.14419837\C,0,-1.37434794,0.9315006,-1.37261362\C,0,-0.98428852,-1.
 01859489,0.49877148\C,0,-0.8964132,1.81281877,-0.43868383\N,0,0.176999
 84,1.32466612,0.31762267\H,0,1.94210575,-0.61353151,1.31757923\H,0,1.7
 1414957,-1.65703498,-0.09243736\H,0,2.53887256,-0.10729123,-0.27026209

 Normal termination of Gaussian 16 at Wed Apr  9 19:19:20 2025.
