 Gaussian 16, Revision C.01,

 ----------------------------------------------------------------------
 #t hf aug-cc-pvdz symm=none int=(grid=ultrafine) guess=(read,tcheck) s
 table=(opt,rrhf)
 ----------------------------------------------------------------------
 -----
 title
 -----
 Symbolic Z-matrix:
 Charge =  0 Multiplicity = 1

 SCF Done:  E(RHF) =  -343.546651822     A.U. after   16 cycles
 Normal termination of Gaussian 16 at Wed Apr  9 19:31:20 2025.
 Gaussian 16:  ES64L-G16RevC.01  3-Jul-2019

 ----------------------------------------------------------------------
 #t hf aug-cc-pvdz iop(5/13=1,5/36=2,99/5=2) pseudo=read geom=check gue
 ss=(read,tcheck) scf=(maxcycle=1)
 ----------------------------------------------------------------------
 -----
 title
 -----
 Structure from the checkpoint file:  "Grambow2020_wb97xd3_009102_forward_mol1.chk"
 Charge =  0 Multiplicity = 1

                         Standard orientation:
 ---------------------------------------------------------------------
 Center     Atomic      Atomic             Coordinates (Angstroms)
 Number     Number       Type             X           Y           Z
 ---------------------------------------------------------------------
      1          6           0        2.087973    0.067418   -0.588957
      2          6           0        1.198062    0.381501    0.375157
      3          8           0       -0.416693    1.587417   -0.165065
      4          6           0       -1.328718    0.749138    0.257867
      5          6           0       -1.395452   -0.542062   -0.599413
      6          8           0       -0.374484   -1.429467   -0.038303
      7          6           0        0.432730   -0.795890    0.762169
      8          1           0        1.903809   -0.743243   -1.282237
      9          1           0        3.008835    0.624452   -0.701080
     10          1           0        1.451837    1.089501    1.153436
     11          1           0       -2.316101    1.181172    0.492532
     12          1           0       -1.000314    0.255350    1.286167
     13          1           0       -2.318234   -1.119304   -0.526348
     14          1           0       -1.157039   -0.320731   -1.637459
     15          1           0        0.789055   -1.391423    1.601008
 ---------------------------------------------------------------------

 SCF Done:  E(RHF) =  -345.119929577     A.U. after    2 cycles

 The electronic state is 1-A.
 Alpha  occ. eigenvalues --  -21.13209 -20.94015 -11.56060 -11.46474 -11.45827
 Alpha  occ. eigenvalues --  -11.39972 -11.39623  -1.86058  -1.60739  -1.22126
 Alpha  occ. eigenvalues --   -1.07392  -0.97396  -0.86518  -0.79708  -0.73632
 Alpha  occ. eigenvalues --   -0.68199  -0.64240  -0.60458  -0.56938  -0.53865
 Alpha  occ. eigenvalues --   -0.52389  -0.47014  -0.42163  -0.40684  -0.37031
 Alpha  occ. eigenvalues --   -0.23302  -0.20483
 Alpha virt. eigenvalues --    0.03346   0.04395   0.04865   0.05394   0.05583
 Alpha virt. eigenvalues --    0.06436   0.06658   0.06981   0.07476   0.10201
 Alpha virt. eigenvalues --    0.12227   0.12620   0.13381   0.13552   0.13766

 Mulliken charges:
               1
     1  C   -2.515385
     2  C   -1.290736
     3  O   -2.525248
     4  C   -0.071367
     5  C   -1.962809
     6  O   -3.160557
     7  C    0.338784
     8  H    1.350818
     9  H    1.357940
    10  H    1.379723
    11  H    1.343218
    12  H    1.174126
    13  H    1.391299
    14  H    1.541712
    15  H    1.648483
 Sum of Mulliken charges =  -0.00000

 Dipole moment (field-independent basis, Debye):
    X=              0.0905    Y=             -2.5007    Z=              0.4093  Tot=              2.5356

 Test job not archived.
 1\1\GINC-SE125\SP\RHF\Aug-CC-pVDZ\C5H8O2\OHZDE\09-Apr-2025\0\\#t hf au
 g-cc-pvdz iop(5/13=1,5/36=2,99/5=2) pseudo=read geom=check guess=(read
 ,tcheck) scf=(maxcycle=1)\\title\\0,1\C,0,-1.82463515,0.00017101,1.098
 68793\C,0,-1.27155115,0.04663484,-0.13096453\O,0,0.08766522,1.58248342
 ,-0.51464064\C,0,1.05613642,0.78436259,-0.88671659\C,0,1.61681969,-0.0
 6069731,0.28720407\O,0,0.73856095,-1.2294149,0.37361985\C,0,-0.3530287
 ,-1.06855101,-0.31654311\H,0,-1.30374634,-0.45135513,1.9332668\H,0,-2.
 80329506,0.42183344,1.28649685\H,0,-1.85262977,0.36217713,-0.98779839\

 Normal termination of Gaussian 16 at Wed Apr  9 19:31:26 2025.
