 Gaussian 16, Revision C.01,

 ----------------------------------------------------------------------
 #t hf aug-cc-pvdz symm=none int=(grid=ultrafine) guess=(read,tcheck) s
 table=(opt,rrhf)
 ----------------------------------------------------------------------
 -----
 title
 -----
 Symbolic Z-matrix:
 Charge =  0 Multiplicity = 1

 SCF Done:  E(RHF) =  -344.906310232     A.U. after   13 cycles

 1\1\GINC-SE393\Stability\RHF\Aug-CC-pVDZ\C5H10O2\OHZDE\09-Apr-2025\0\\
 #t hf aug-cc-pvdz symm=none int=(grid=ultrafine) guess=(read,tcheck) s
 table=(opt,rrhf)\\title\\0,1\C,0,-2.30995439,-0.62885799,-0.65293271\C
 ,0,-1.22706676,0.43792004,-0.74232351\C,0,-0.11692193,0.21822761,0.257
 3358\O,0,0.62633946,-0.99642173,-0.00332042\C,0,1.1620129,1.05346717,0
 .11285024\C,0,1.86415662,-0.2914729,-0.02801258\O,0,2.67714745,-0.5599
 4309,1.06806479\H,0,-3.0859605,-0.46819905,-1.4028145\H,0,-1.88379827,
 -1.62072387,-0.8116566\H,0,-2.7881023,-0.62292348,0.3295318\H,0,-0.792

 Normal termination of Gaussian 16 at Wed Apr  9 03:45:49 2025.
 Gaussian 16:  ES64L-G16RevC.01  3-Jul-2019

 ----------------------------------------------------------------------
 #t hf aug-cc-pvdz iop(5/13=1,5/36=2,99/5=2) pseudo=read geom=check gue
 ss=(read,tcheck) scf=(maxcycle=1)
 ----------------------------------------------------------------------
 -----
 title
 -----
 Structure from the checkpoint file:  "Grambow2020_wb97xd3_007830_reverse_mol2.chk"
 Charge =  0 Multiplicity = 1

                         Standard orientation:
 ---------------------------------------------------------------------
 Center     Atomic      Atomic             Coordinates (Angstroms)
 Number     Number       Type             X           Y           Z
 ---------------------------------------------------------------------
      1          6           0        2.726551   -0.586442   -0.076172
      2          6           0        1.741796    0.544766    0.187034
      3          6           0        0.387098    0.284922   -0.427195
      4          8           0       -0.281287   -0.850055    0.173505
      5          6           0       -0.775601    1.203505   -0.029058
      6          6           0       -1.442132   -0.075907    0.461405
      7          8           0       -2.540953   -0.411631   -0.322367
      8          1           0        3.688286   -0.392344    0.401018
      9          1           0        2.338476   -1.529474    0.312014
     10          1           0        2.904037   -0.712560   -1.146915
     11          1           0        1.612476    0.690816    1.264075
     12          1           0        2.124032    1.487393   -0.219780
     13          1           0        0.481335    0.134165   -1.508599
     14          1           0       -2.862525   -1.274021   -0.049352
     15          1           0       -1.309384    1.694552   -0.839065
     16          1           0       -0.533113    1.919165    0.755213
     17          1           0       -1.691976   -0.149259    1.526202
 ---------------------------------------------------------------------

 SCF Done:  E(RHF) =  -346.495650464     A.U. after    2 cycles

 The electronic state is 1-A.
 Alpha  occ. eigenvalues --  -21.07659 -21.03031 -11.49552 -11.45437 -11.41071
 Alpha  occ. eigenvalues --  -11.38059 -11.35311  -1.81701  -1.67485  -1.19697
 Alpha  occ. eigenvalues --   -1.09931  -0.96939  -0.87108  -0.77516  -0.70064
 Alpha  occ. eigenvalues --   -0.67052  -0.63635  -0.58248  -0.55629  -0.54319
 Alpha  occ. eigenvalues --   -0.51024  -0.48627  -0.47242  -0.44069  -0.40518
 Alpha  occ. eigenvalues --   -0.35769  -0.32195  -0.28436
 Alpha virt. eigenvalues --    0.04151   0.04885   0.05220   0.05678   0.05876
 Alpha virt. eigenvalues --    0.06141   0.06270   0.06809   0.07794   0.08979
 Alpha virt. eigenvalues --    0.11369   0.12274   0.13098   0.13792   0.14512

 Mulliken charges:
               1
     1  C   -3.844194
     2  C   -3.407004
     3  C    1.521799
     4  O   -3.094174
     5  C   -3.965169
     6  C    2.721965
     7  O   -3.071358
     8  H    1.098444
     9  H    1.323229
    10  H    1.288976
    11  H    1.430221
    12  H    1.324117
    13  H    1.628355
    14  H    0.751406
    15  H    1.274132
    16  H    1.249083
    17  H    1.770172
 Sum of Mulliken charges =  -0.00000

 Dipole moment (field-independent basis, Debye):
    X=              0.1716    Y=              0.3277    Z=              0.3221  Tot=              0.4905

 Test job not archived.
 1\1\GINC-SE393\SP\RHF\Aug-CC-pVDZ\C5H10O2\OHZDE\09-Apr-2025\0\\#t hf a
 ug-cc-pvdz iop(5/13=1,5/36=2,99/5=2) pseudo=read geom=check guess=(rea
 d,tcheck) scf=(maxcycle=1)\\title\\0,1\C,0,-2.30995439,-0.62885799,-0.
 65293271\C,0,-1.22706676,0.43792004,-0.74232351\C,0,-0.11692193,0.2182
 2761,0.2573358\O,0,0.62633946,-0.99642173,-0.00332042\C,0,1.1620129,1.
 05346717,0.11285024\C,0,1.86415662,-0.2914729,-0.02801258\O,0,2.677147
 45,-0.55994309,1.06806479\H,0,-3.0859605,-0.46819905,-1.4028145\H,0,-1
 .88379827,-1.62072387,-0.8116566\H,0,-2.7881023,-0.62292348,0.3295318\

 Normal termination of Gaussian 16 at Wed Apr  9 03:45:54 2025.
