 Gaussian 16, Revision C.01,

 ----------------------------------------------------------------------
 #t hf aug-cc-pvdz symm=none int=(grid=ultrafine) guess=(read,tcheck) s
 table=(opt,rrhf)
 ----------------------------------------------------------------------
 -----
 title
 -----
 Symbolic Z-matrix:
 Charge =  0 Multiplicity = 1

 SCF Done:  E(RHF) =  -306.536537399     A.U. after   17 cycles
 Normal termination of Gaussian 16 at Wed Apr  9 04:05:51 2025.
 Gaussian 16:  ES64L-G16RevC.01  3-Jul-2019

 ----------------------------------------------------------------------
 #t hf aug-cc-pvdz iop(5/13=1,5/36=2,99/5=2) pseudo=read geom=check gue
 ss=(read,tcheck) scf=(maxcycle=1)
 ----------------------------------------------------------------------
 -----
 title
 -----
 Structure from the checkpoint file:  "Grambow2020_wb97xd3_009279_forward_mol1.chk"
 Charge =  0 Multiplicity = 1

                         Standard orientation:
 ---------------------------------------------------------------------
 Center     Atomic      Atomic             Coordinates (Angstroms)
 Number     Number       Type             X           Y           Z
 ---------------------------------------------------------------------
      1          6           0       -3.066366   -0.479997    0.087696
      2          6           0       -0.485412    0.674555    0.578558
      3          6           0       -0.412081    1.873144   -0.363426
      4          6           0        0.299913   -0.504631    0.067741
      5          8           0       -0.203367   -1.532614   -0.310987
      6          6           0        1.749891   -0.325301    0.035443
      7          6           0        2.935843   -0.157901    0.020622
      8          1           0       -2.802605   -0.533897   -0.987145
      9          1           0       -1.543674    0.373852    0.723948
     10          1           0       -2.849396   -1.512355    0.422607
     11          1           0       -0.104112    0.946547    1.567333
     12          1           0       -0.797308    1.616402   -1.351378
     13          1           0       -1.014152    2.691855    0.029097
     14          1           0        0.614632    2.224940   -0.476323
     15          1           0        3.992821   -0.025646   -0.000053
 ---------------------------------------------------------------------

 SCF Done:  E(RHF) =  -307.939688588     A.U. after    2 cycles

 The electronic state is 1-A.
 Alpha  occ. eigenvalues --  -21.07550 -11.53759 -11.45322 -11.43460 -11.42495
 Alpha  occ. eigenvalues --  -11.41336 -11.38197  -1.73520  -1.22685  -1.12409
 Alpha  occ. eigenvalues --   -0.96962  -0.94220  -0.87285  -0.73525  -0.67005
 Alpha  occ. eigenvalues --   -0.63212  -0.58481  -0.54591  -0.54092  -0.52528
 Alpha  occ. eigenvalues --   -0.50328  -0.46988  -0.40185  -0.37788  -0.35376
 Alpha  occ. eigenvalues --   -0.30943
 Alpha virt. eigenvalues --    0.02868   0.04365   0.04643   0.05518   0.06573
 Alpha virt. eigenvalues --    0.06653   0.07273   0.08536   0.08931   0.09400
 Alpha virt. eigenvalues --    0.10037   0.11399   0.12024   0.12495   0.13871

 Mulliken charges:
               1
     1  C   -3.418451
     2  C   -4.132415
     3  C   -3.860466
     4  C    4.482182
     5  O   -3.393850
     6  C    2.794970
     7  C   -3.610668
     8  H    1.472362
     9  H    2.271782
    10  H    1.378764
    11  H    1.293880
    12  H    1.386114
    13  H    1.176153
    14  H    1.385743
    15  H    0.773900
 Sum of Mulliken charges =  -0.00000

 Dipole moment (field-independent basis, Debye):
    X=              1.8029    Y=              0.2942    Z=             -0.4433  Tot=              1.8797

 Test job not archived.
 1\1\GINC-SE452\SP\RHF\Aug-CC-pVDZ\C6H8O1\OHZDE\09-Apr-2025\0\\#t hf au
 g-cc-pvdz iop(5/13=1,5/36=2,99/5=2) pseudo=read geom=check guess=(read
 ,tcheck) scf=(maxcycle=1)\\title\\0,1\C,0,-2.17425815,1.06902548,-1.72
 55092\C,0,-0.08763041,-0.43189049,-0.44938298\C,0,-0.74743057,-1.03915
 68,0.7856144\C,0,0.76560001,0.76300493,-0.11416653\O,0,0.49722092,1.89
 196692,-0.44110992\C,0,1.96478078,0.47643122,0.67035982\C,0,2.94365317
 ,0.21841324,1.3106411\H,0,-2.33470587,1.60063501,-0.76665178\H,0,-0.86
 470583,-0.13220171,-1.18274451\H,0,-1.54185548,1.79048516,-2.27738535\

 Normal termination of Gaussian 16 at Wed Apr  9 04:05:55 2025.
