 Gaussian 16, Revision C.01,

 ----------------------------------------------------------------------
 #t hf aug-cc-pvdz symm=none int=(grid=ultrafine) guess=(read,tcheck) s
 table=(opt,rrhf)
 ----------------------------------------------------------------------
 -----
 title
 -----
 Symbolic Z-matrix:
 Charge =  0 Multiplicity = 1

 SCF Done:  E(RHF) =  -344.758932723     A.U. after   15 cycles

 1\1\GINC-SE126\Stability\RHF\Aug-CC-pVDZ\C5H10O2\OHZDE\09-Apr-2025\0\\
 #t hf aug-cc-pvdz symm=none int=(grid=ultrafine) guess=(read,tcheck) s
 table=(opt,rrhf)\\title\\0,1\C,0,2.10995627,0.79002545,-0.54215298\O,0
 ,0.70458739,0.79766988,-0.39855649\C,0,0.11186939,-0.35600896,-0.88667
 157\C,0,0.23891894,-1.67080691,-0.08412247\O,0,-1.07207119,-1.79626311
 ,-0.03724415\C,0,-1.39588748,-0.49481598,-0.63641192\C,0,-2.03239277,0
 .43949261,0.35211204\H,0,2.55715546,-0.06436774,-0.02609995\H,0,2.3937
 118,0.75456242,-1.60144514\H,0,2.48037883,1.7143677,-0.10338964\H,0,0.

 Normal termination of Gaussian 16 at Wed Apr  9 03:27:33 2025.
 Gaussian 16:  ES64L-G16RevC.01  3-Jul-2019

 ----------------------------------------------------------------------
 #t hf aug-cc-pvdz iop(5/13=1,5/36=2,99/5=2) pseudo=read geom=check gue
 ss=(read,tcheck) scf=(maxcycle=1)
 ----------------------------------------------------------------------
 -----
 title
 -----
 Structure from the checkpoint file:  "Grambow2020_wb97xd3_006655_reverse_mol2.chk"
 Charge =  0 Multiplicity = 1

                         Standard orientation:
 ---------------------------------------------------------------------
 Center     Atomic      Atomic             Coordinates (Angstroms)
 Number     Number       Type             X           Y           Z
 ---------------------------------------------------------------------
      1          6           0        2.477423    0.172437   -0.065982
      2          8           0        1.158592    0.678576   -0.050247
      3          6           0        0.249130   -0.182894   -0.642949
      4          6           0       -0.178519   -1.465432    0.106139
      5          8           0       -1.446818   -1.116211    0.028062
      6          6           0       -1.227466    0.221708   -0.537166
      7          6           0       -1.589350    1.310552    0.431704
      8          1           0        2.539193   -0.790812    0.448432
      9          1           0        2.836010    0.049851   -1.095672
     10          1           0        3.104111    0.899346    0.446854
     11          1           0        0.540763   -0.448690   -1.671802
     12          1           0        0.973141   -0.593491    3.161813
     13          1           0        0.729660   -1.040349    2.614866
     14          1           0       -1.773105    0.314371   -1.478532
     15          1           0       -1.313987    2.276083    0.004755
     16          1           0       -2.662986    1.307724    0.623570
     17          1           0       -1.054300    1.188818    1.372717
 ---------------------------------------------------------------------

 SCF Done:  E(RHF) =  -346.347414576     A.U. after    2 cycles

 The electronic state is 1-A.
 Alpha  occ. eigenvalues --  -21.10983 -21.06385 -11.50124 -11.44376 -11.41348
 Alpha  occ. eigenvalues --  -11.41140 -11.38417  -1.85778  -1.76204  -1.16210
 Alpha  occ. eigenvalues --   -1.06477  -0.96654  -0.89940  -0.74233  -0.69167
 Alpha  occ. eigenvalues --   -0.64925  -0.62443  -0.60788  -0.60127  -0.56793
 Alpha  occ. eigenvalues --   -0.55225  -0.53050  -0.50806  -0.42594  -0.40453
 Alpha  occ. eigenvalues --   -0.39585  -0.34578  -0.27932
 Alpha virt. eigenvalues --    0.03849   0.04789   0.04940   0.05254   0.05761
 Alpha virt. eigenvalues --    0.06143   0.07174   0.07858   0.08990   0.09487
 Alpha virt. eigenvalues --    0.10301   0.11369   0.12568   0.12809   0.13995

 Mulliken charges:
               1
     1  C   -3.175411
     2  O   -3.554666
     3  C    1.155761
     4  C    0.428758
     5  O   -2.502780
     6  C    0.338824
     7  C   -3.793830
     8  H    1.425332
     9  H    1.325648
    10  H    1.344448
    11  H    1.774387
    12  H    0.127165
    13  H   -0.245364
    14  H    1.565872
    15  H    1.244922
    16  H    1.183903
    17  H    1.357030
 Sum of Mulliken charges =  -0.00000

 Dipole moment (field-independent basis, Debye):
    X=             -0.8840    Y=              2.7270    Z=             -1.2300  Tot=              3.1194

 Test job not archived.
 1\1\GINC-SE126\SP\RHF\Aug-CC-pVDZ\C5H10O2\OHZDE\09-Apr-2025\0\\#t hf a
 ug-cc-pvdz iop(5/13=1,5/36=2,99/5=2) pseudo=read geom=check guess=(rea
 d,tcheck) scf=(maxcycle=1)\\title\\0,1\C,0,2.10995627,0.79002545,-0.54
 215298\O,0,0.70458739,0.79766988,-0.39855649\C,0,0.11186939,-0.3560089
 6,-0.88667157\C,0,0.23891894,-1.67080691,-0.08412247\O,0,-1.07207119,-
 1.79626311,-0.03724415\C,0,-1.39588748,-0.49481598,-0.63641192\C,0,-2.
 03239277,0.43949261,0.35211204\H,0,2.55715546,-0.06436774,-0.02609995\
 H,0,2.3937118,0.75456242,-1.60144514\H,0,2.48037883,1.7143677,-0.10338

 Normal termination of Gaussian 16 at Wed Apr  9 03:27:39 2025.
