 Gaussian 16, Revision C.01,

 ----------------------------------------------------------------------
 #t hf aug-cc-pvdz symm=none int=(grid=ultrafine) guess=(read,tcheck) s
 table=(opt,rrhf)
 ----------------------------------------------------------------------
 -----
 title
 -----
 Symbolic Z-matrix:
 Charge =  0 Multiplicity = 1

 SCF Done:  E(RHF) =  -341.199950819     A.U. after   15 cycles
 Normal termination of Gaussian 16 at Wed Apr  9 19:30:55 2025.
 Gaussian 16:  ES64L-G16RevC.01  3-Jul-2019

 ----------------------------------------------------------------------
 #t hf aug-cc-pvdz iop(5/13=1,5/36=2,99/5=2) pseudo=read geom=check gue
 ss=(read,tcheck) scf=(maxcycle=1)
 ----------------------------------------------------------------------
 -----
 title
 -----
 Structure from the checkpoint file:  "Grambow2020_wb97xd3_009095_reverse_mol1.chk"
 Charge =  0 Multiplicity = 1

                         Standard orientation:
 ---------------------------------------------------------------------
 Center     Atomic      Atomic             Coordinates (Angstroms)
 Number     Number       Type             X           Y           Z
 ---------------------------------------------------------------------
      1          8           0       -1.578028   -1.319950   -0.002714
      2          6           0       -0.837184   -0.394256    0.000251
      3          6           0       -1.160430    1.110318    0.002359
      4          6           0        0.174506    1.843378   -0.002468
      5          6           0        1.035454    0.890710   -0.000351
      6          6           0        0.754242   -0.520965    0.001132
      7          8           0        1.411500   -1.514947    0.001635
      8          1           0       -1.765623    1.377434   -0.867000
      9          1           0       -1.754814    1.377140    0.879336
     10          1           0        2.526839    1.178370    0.392954
     11          1           0        2.526291    1.171127   -0.402192
 ---------------------------------------------------------------------

 SCF Done:  E(RHF) =  -342.708310335     A.U. after    2 cycles

 The electronic state is 1-A.
 Alpha  occ. eigenvalues --  -21.10225 -21.09417 -11.55322 -11.51420 -11.47748
 Alpha  occ. eigenvalues --  -11.44560 -11.40539  -1.76825  -1.72625  -1.33681
 Alpha  occ. eigenvalues --   -1.06124  -0.97090  -0.84477  -0.75015  -0.68069
 Alpha  occ. eigenvalues --   -0.64922  -0.57582  -0.55392  -0.54566  -0.53869
 Alpha  occ. eigenvalues --   -0.46333  -0.38615  -0.37995  -0.37314  -0.27011
 Alpha virt. eigenvalues --    0.02717   0.04768   0.04824   0.06233   0.08316
 Alpha virt. eigenvalues --    0.08356   0.08723   0.09432   0.10846   0.11366
 Alpha virt. eigenvalues --    0.11815   0.12858   0.13988   0.14315   0.14478

 Mulliken charges:
               1
     1  O   -3.363262
     2  C    4.132582
     3  C   -3.688031
     4  C   -2.190237
     5  C    1.678753
     6  C    2.528803
     7  O   -3.218927
     8  H    1.352121
     9  H    1.356155
    10  H    0.706276
    11  H    0.705767
 Sum of Mulliken charges =   0.00000

 Dipole moment (field-independent basis, Debye):
    X=              0.9060    Y=             -0.3542    Z=              0.0056  Tot=              0.9727

 Test job not archived.
 1\1\GINC-SE014\SP\RHF\Aug-CC-pVDZ\C5H4O2\OHZDE\09-Apr-2025\0\\#t hf au
 g-cc-pvdz iop(5/13=1,5/36=2,99/5=2) pseudo=read geom=check guess=(read
 ,tcheck) scf=(maxcycle=1)\\title\\0,1\O,0,-0.63849531,2.38271662,-0.14
 308569\C,0,-0.42700858,1.21727065,-0.09038841\C,0,-1.41241994,0.042824
 12,-0.22409599\C,0,-0.59510933,-1.23256644,-0.06650133\C,0,0.60028987,
 -0.79825719,0.11015426\C,0,1.01691077,0.57904495,0.14721813\O,0,2.0542
 0788,1.14580316,0.29818081\H,0,-2.19846987,0.10910812,0.53163218\H,0,-
 1.91877691,0.07085587,-1.1917695\H,0,1.82385428,-1.76223882,-0.077719\

 Normal termination of Gaussian 16 at Wed Apr  9 19:30:59 2025.
