 Gaussian 16, Revision C.01,

 ----------------------------------------------------------------------
 #t hf aug-cc-pvdz symm=none int=(grid=ultrafine) guess=(read,tcheck) s
 table=(opt,rrhf)
 ----------------------------------------------------------------------
 -----
 title
 -----
 Symbolic Z-matrix:
 Charge =  0 Multiplicity = 1

 SCF Done:  E(RHF) =  -269.876845189     A.U. after   16 cycles

 1\1\GINC-SE100\Stability\RHF\Aug-CC-pVDZ\C5H10O1\OHZDE\09-Apr-2025\0\\
 #t hf aug-cc-pvdz symm=none int=(grid=ultrafine) guess=(read,tcheck) s
 table=(opt,rrhf)\\title\\0,1\C,0,-1.40596066,-1.13770428,-0.05189058\C
 ,0,-0.23003702,-0.1533899,0.04843231\C,0,-0.7335312,1.30099697,-0.0511
 4834\C,0,0.57695338,-0.54866594,1.29700691\C,0,1.93186715,0.05234799,-
 0.54604415\O,0,0.70420328,-0.4115227,-1.04128944\H,0,-2.02248005,-0.88
 629046,-0.92677052\H,0,-2.04500884,-1.0733546,0.84067165\H,0,-1.029718
 3,-2.16125956,-0.15004931\H,0,-1.18353436,1.48656061,-1.03718121\H,0,0

 Normal termination of Gaussian 16 at Wed Apr  9 16:14:05 2025.
 Gaussian 16:  ES64L-G16RevC.01  3-Jul-2019

 ----------------------------------------------------------------------
 #t hf aug-cc-pvdz iop(5/13=1,5/36=2,99/5=2) pseudo=read geom=check gue
 ss=(read,tcheck) scf=(maxcycle=1)
 ----------------------------------------------------------------------
 -----
 title
 -----
 Structure from the checkpoint file:  "Grambow2020_b97d3_006766_reverse_mol1.chk"
 Charge =  0 Multiplicity = 1

                         Standard orientation:
 ---------------------------------------------------------------------
 Center     Atomic      Atomic             Coordinates (Angstroms)
 Number     Number       Type             X           Y           Z
 ---------------------------------------------------------------------
      1          6           0       -1.615707   -0.841164   -0.319350
      2          6           0       -0.374150   -0.015595    0.053084
      3          6           0       -0.681071    1.492952   -0.040455
      4          6           0        0.137104   -0.561061    1.397518
      5          6           0        1.869558   -0.054471   -0.130819
      6          8           0        0.710076   -0.340769   -0.866506
      7          1           0       -2.026698   -0.477954   -1.272180
      8          1           0       -2.397421   -0.736287    0.446884
      9          1           0       -1.347169   -1.898349   -0.414778
     10          1           0       -0.916466    1.774977   -1.076915
     11          1           0        0.168807    2.101553    0.297100
     12          1           0       -1.544063    1.743540    0.592765
     13          1           0        1.618305   -0.448763    0.967683
     14          1           0       -0.100248    0.204256    2.178799
     15          1           0        2.711470   -0.673891   -0.465890
     16          1           0        2.138472    1.013101   -0.081282
 ---------------------------------------------------------------------

 SCF Done:  E(RHF) =  -271.171865194     A.U. after    2 cycles

 The electronic state is 1-A.
 Alpha  occ. eigenvalues --  -21.04711 -11.45928 -11.42890 -11.41390 -11.39827
 Alpha  occ. eigenvalues --  -11.36511  -1.76546  -1.19900  -1.02088  -1.00735
 Alpha  occ. eigenvalues --   -0.94536  -0.74288  -0.66053  -0.64544  -0.61147
 Alpha  occ. eigenvalues --   -0.59372  -0.55898  -0.54479  -0.49883  -0.48950
 Alpha  occ. eigenvalues --   -0.43829  -0.37675  -0.33934  -0.28847
 Alpha virt. eigenvalues --    0.03756   0.04825   0.05243   0.05458   0.05738
 Alpha virt. eigenvalues --    0.05983   0.06700   0.06976   0.07850   0.08308
 Alpha virt. eigenvalues --    0.09110   0.11667   0.12543   0.13484   0.14439

 Mulliken charges:
               1
     1  C   -3.913894
     2  C    3.998346
     3  C   -3.978230
     4  C   -2.773835
     5  C   -2.989869
     6  O   -3.474116
     7  H    1.231747
     8  H    1.265714
     9  H    1.307426
    10  H    1.168887
    11  H    1.319060
    12  H    1.163662
    13  H    1.831704
    14  H    1.293231
    15  H    1.135392
    16  H    1.414776
 Sum of Mulliken charges =  -0.00000

 Dipole moment (field-independent basis, Debye):
    X=              0.0827    Y=              1.4095    Z=             -0.7453  Tot=              1.5966

 Test job not archived.
 1\1\GINC-SE100\SP\RHF\Aug-CC-pVDZ\C5H10O1\OHZDE\09-Apr-2025\0\\#t hf a
 ug-cc-pvdz iop(5/13=1,5/36=2,99/5=2) pseudo=read geom=check guess=(rea
 d,tcheck) scf=(maxcycle=1)\\title\\0,1\C,0,-1.40596066,-1.13770428,-0.
 05189058\C,0,-0.23003702,-0.1533899,0.04843231\C,0,-0.7335312,1.300996
 97,-0.05114834\C,0,0.57695338,-0.54866594,1.29700691\C,0,1.93186715,0.
 05234799,-0.54604415\O,0,0.70420328,-0.4115227,-1.04128944\H,0,-2.0224
 8005,-0.88629046,-0.92677052\H,0,-2.04500884,-1.0733546,0.84067165\H,0
 ,-1.0297183,-2.16125956,-0.15004931\H,0,-1.18353436,1.48656061,-1.0371

 Normal termination of Gaussian 16 at Wed Apr  9 16:14:10 2025.
