 Gaussian 16, Revision C.01,

 ----------------------------------------------------------------------
 #t hf aug-cc-pvdz symm=none int=(grid=ultrafine) guess=(read,tcheck) s
 table=(opt,rrhf)
 ----------------------------------------------------------------------
 -----
 title
 -----
 Symbolic Z-matrix:
 Charge =  0 Multiplicity = 1

 SCF Done:  E(RHF) =  -317.612561095     A.U. after   15 cycles
 Normal termination of Gaussian 16 at Wed Apr  9 19:26:53 2025.
 Gaussian 16:  ES64L-G16RevC.01  3-Jul-2019

 ----------------------------------------------------------------------
 #t hf aug-cc-pvdz iop(5/13=1,5/36=2,99/5=2) pseudo=read geom=check gue
 ss=(read,tcheck) scf=(maxcycle=1)
 ----------------------------------------------------------------------
 -----
 title
 -----
 Structure from the checkpoint file:  "Grambow2020_wb97xd3_008972_reverse_mol2.chk"
 Charge =  0 Multiplicity = 1

                         Standard orientation:
 ---------------------------------------------------------------------
 Center     Atomic      Atomic             Coordinates (Angstroms)
 Number     Number       Type             X           Y           Z
 ---------------------------------------------------------------------
      1          7           0        1.686761   -0.145013   -0.628413
      2          6           0        0.414464   -0.046023    0.098289
      3          6           0        1.705495   -0.007390    0.889457
      4          7           0       -0.450882   -1.175499    0.075487
      5          6           0       -1.617980   -0.658698    0.027010
      6          7           0       -1.697711    0.758661   -0.048391
      7          6           0       -0.468827    1.119710   -0.093699
      8          1           0        1.879797   -1.073395   -0.978920
      9          1           0        1.898249    0.597460   -1.284310
     10          1           0        1.940419    1.049693    1.064874
     11          1           0       -2.529112   -1.243665    0.029984
     12          1           0       -0.155435    2.157271   -0.148748
 ---------------------------------------------------------------------

 SCF Done:  E(RHF) =  -319.064610322     A.U. after    2 cycles

 The electronic state is 1-A.
 Alpha  occ. eigenvalues --  -15.85547 -15.75331 -15.73695 -11.50163 -11.44983
 Alpha  occ. eigenvalues --  -11.43885 -11.37554  -1.59444  -1.46039  -1.26268
 Alpha  occ. eigenvalues --   -1.06739  -0.95191  -0.84667  -0.80030  -0.74950
 Alpha  occ. eigenvalues --   -0.68780  -0.62275  -0.58595  -0.56426  -0.50467
 Alpha  occ. eigenvalues --   -0.43088  -0.42362  -0.39119  -0.36997  -0.30417
 Alpha virt. eigenvalues --    0.02602   0.04560   0.05256   0.05717   0.05975
 Alpha virt. eigenvalues --    0.08883   0.09775   0.10299   0.10806   0.11312
 Alpha virt. eigenvalues --    0.12311   0.13243   0.14160   0.14640   0.15412

 Mulliken charges:
               1
     1  N   -2.343356
     2  C    5.261040
     3  C   -2.178129
     4  N   -3.456211
     5  C    1.452840
     6  N   -3.091927
     7  C   -0.759205
     8  H    0.587713
     9  H    0.622349
    10  H    1.035884
    11  H    1.602080
    12  H    1.266921
 Sum of Mulliken charges =  -0.00000

 Dipole moment (field-independent basis, Debye):
    X=              1.2186    Y=              1.6071    Z=             -3.9350  Tot=              4.4218

 Test job not archived.
 1\1\GINC-SE018\SP\RHF\Aug-CC-pVDZ\C4H5N3\OHZDE\09-Apr-2025\0\\#t hf au
 g-cc-pvdz iop(5/13=1,5/36=2,99/5=2) pseudo=read geom=check guess=(read
 ,tcheck) scf=(maxcycle=1)\\title\\0,1\N,0,-1.39653717,0.53208379,-0.49
 982029\C,0,-0.03241242,0.30742629,-0.00451472\C,0,-0.80825589,1.496244
 06,0.52367267\N,0,1.03801678,0.4275536,-0.93446593\C,0,1.85593476,-0.4
 8341578,-0.570192\N,0,1.46232088,-1.31313562,0.51497159\C,0,0.28578623
 ,-0.8898346,0.79630462\H,0,-1.42896661,0.87879081,-1.44890108\H,0,-2.0
 8099458,-0.18694858,-0.29806705\H,0,-1.25425199,1.1877291,1.47723975\H

 Normal termination of Gaussian 16 at Wed Apr  9 19:26:57 2025.
