 Gaussian 16, Revision C.01,

 ----------------------------------------------------------------------
 #t hf aug-cc-pvdz symm=none int=(grid=ultrafine) guess=(read,tcheck) s
 table=(opt,rrhf)
 ----------------------------------------------------------------------
 -----
 title
 -----
 Symbolic Z-matrix:
 Charge =  0 Multiplicity = 1

 SCF Done:  E(RHF) =  -283.482980929     A.U. after   18 cycles
 Normal termination of Gaussian 16 at Wed Apr  9 03:09:26 2025.
 Gaussian 16:  ES64L-G16RevC.01  3-Jul-2019

 ----------------------------------------------------------------------
 #t hf aug-cc-pvdz iop(5/13=1,5/36=2,99/5=2) pseudo=read geom=check gue
 ss=(read,tcheck) scf=(maxcycle=1)
 ----------------------------------------------------------------------
 -----
 title
 -----
 Structure from the checkpoint file:  "Grambow2020_b97d3_006660_forward_mol1.chk"
 Charge =  0 Multiplicity = 1

                         Standard orientation:
 ---------------------------------------------------------------------
 Center     Atomic      Atomic             Coordinates (Angstroms)
 Number     Number       Type             X           Y           Z
 ---------------------------------------------------------------------
      1          7           0        2.916954   -0.170673    0.228526
      2          6           0        1.745907    0.109498   -0.074011
      3          6           0        0.435381    0.563968   -0.270169
      4          6           0       -0.697851   -0.076413    0.407395
      5          6           0       -2.075181    0.431084    0.216173
      6          8           0       -1.689031   -0.793358   -0.406181
      7          1           0        1.890296   -0.795373   -0.770314
      8          1           0        0.248955    1.113289   -1.193445
      9          1           0       -0.469622   -0.580386    1.350190
     10          1           0       -2.788283    0.355070    1.044592
     11          1           0       -2.237315    1.280151   -0.457588
 ---------------------------------------------------------------------

 SCF Done:  E(RHF) =  -284.745559070     A.U. after    2 cycles

 The electronic state is 1-A.
 Alpha  occ. eigenvalues --  -21.06149 -15.83256 -11.51518 -11.49475 -11.43674
 Alpha  occ. eigenvalues --  -11.41287  -1.76912  -1.38825  -1.13857  -0.97383
 Alpha  occ. eigenvalues --   -0.88466  -0.75897  -0.68810  -0.64556  -0.62364
 Alpha  occ. eigenvalues --   -0.55399  -0.54089  -0.47363  -0.45825  -0.40180
 Alpha  occ. eigenvalues --   -0.31865  -0.24820
 Alpha virt. eigenvalues --    0.02168   0.04928   0.05476   0.05886   0.06294
 Alpha virt. eigenvalues --    0.07192   0.09729   0.10671   0.11226   0.11794
 Alpha virt. eigenvalues --    0.12414   0.13403   0.13928   0.14732   0.15045

 Mulliken charges:
               1
     1  N   -1.778739
     2  C    0.187714
     3  C   -1.296741
     4  C    0.102824
     5  C   -1.943165
     6  O   -2.398423
     7  H    1.294845
     8  H    1.429283
     9  H    1.603485
    10  H    1.362345
    11  H    1.436572
 Sum of Mulliken charges =  -0.00000

 Dipole moment (field-independent basis, Debye):
    X=             -0.7515    Y=             -0.3199    Z=             -0.5456  Tot=              0.9822

 Test job not archived.
 1\1\GINC-SE102\SP\RHF\Aug-CC-pVDZ\C4H5N1O1\OHZDE\09-Apr-2025\0\\#t hf
 aug-cc-pvdz iop(5/13=1,5/36=2,99/5=2) pseudo=read geom=check guess=(re
 ad,tcheck) scf=(maxcycle=1)\\title\\0,1\N,0,3.02156985,-0.72961008,0.6
 9862714\C,0,1.91783602,-0.52135964,0.16968536\C,0,0.73010797,-0.094301
 11,-0.43811716\C,0,-0.43659373,0.28902076,0.36516868\C,0,-1.67648706,0
 .76738005,-0.28674615\O,0,-1.64734893,-0.53927778,0.28551964\H,0,1.776
 85679,-1.63433504,0.42637336\H,0,0.57177889,-0.41839464,-1.46711701\H,
 0,-0.22542241,0.64601627,1.37655455\H,0,-2.29263114,1.51310397,0.22787

 Normal termination of Gaussian 16 at Wed Apr  9 03:09:29 2025.
