 Gaussian 16, Revision C.01,

 ----------------------------------------------------------------------
 #t hf aug-cc-pvdz symm=none int=(grid=ultrafine) guess=(read,tcheck) s
 table=(opt,rrhf)
 ----------------------------------------------------------------------
 -----
 title
 -----
 Symbolic Z-matrix:
 Charge =  0 Multiplicity = 1

 SCF Done:  E(RHF) =  -345.908672390     A.U. after   15 cycles

 1\1\GINC-SE125\Stability\RHF\Aug-CC-pVDZ\C5H12O2\OHZDE\09-Apr-2025\0\\
 #t hf aug-cc-pvdz symm=none int=(grid=ultrafine) guess=(read,tcheck) s
 table=(opt,rrhf)\\title\\0,1\C,0,1.86018115,0.73833508,1.28233648\C,0,
 0.93713866,-0.42583555,1.06765488\C,0,0.53982643,-0.79418636,-0.197896
 41\O,0,-0.06560624,-2.01144401,-0.41869067\C,0,-0.89797898,0.74116914,
 -0.7300763\C,0,-1.57825918,-0.03123208,-1.83009659\O,0,-1.56589679,1.0
 7335226,0.28837951\H,0,2.90050236,0.41100846,1.21607403\H,0,1.70043116
 ,1.51079521,0.52920233\H,0,1.71174426,1.19131876,2.26216668\H,0,0.9284

 Normal termination of Gaussian 16 at Wed Apr  9 19:06:26 2025.
 Gaussian 16:  ES64L-G16RevC.01  3-Jul-2019

 ----------------------------------------------------------------------
 #t hf aug-cc-pvdz iop(5/13=1,5/36=2,99/5=2) pseudo=read geom=check gue
 ss=(read,tcheck) scf=(maxcycle=1)
 ----------------------------------------------------------------------
 -----
 title
 -----
 Structure from the checkpoint file:  "Grambow2020_wb97xd3_008071_reverse_mol1.chk"
 Charge =  0 Multiplicity = 1

                         Standard orientation:
 ---------------------------------------------------------------------
 Center     Atomic      Atomic             Coordinates (Angstroms)
 Number     Number       Type             X           Y           Z
 ---------------------------------------------------------------------
      1          6           0       -2.385473   -0.666455   -0.484084
      2          6           0       -1.516149    0.287758    0.282169
      3          6           0       -0.393635    0.842799   -0.289714
      4          8           0        0.236717    1.917513    0.297365
      5          6           0        1.020984   -0.802378   -0.297444
      6          6           0        2.262843    0.036636   -0.449988
      7          8           0        0.875477   -1.496688    0.746814
      8          1           0       -3.135590   -0.115527   -1.056452
      9          1           0       -1.795939   -1.260384   -1.183457
     10          1           0       -2.907615   -1.354063    0.180640
     11          1           0       -1.989708    0.831178    1.094999
     12          1           0       -0.990897   -0.673124    1.456585
     13          1           0       -0.263871    0.838859   -1.362764
     14          1           0        0.163010    1.843739    1.251883
     15          1           0        0.604362   -1.207517   -1.232624
     16          1           0        2.458671    0.608929    0.455252
     17          1           0        3.105621   -0.639485   -0.616105
     18          1           0        2.196449    0.722464   -1.294783
     19          1           0       -0.273467   -1.151836    1.387762
 ---------------------------------------------------------------------

 SCF Done:  E(RHF) =  -347.591159918     A.U. after    2 cycles

 The electronic state is 1-A.
 Alpha  occ. eigenvalues --  -21.08738 -21.03306 -11.48641 -11.46528 -11.41950
 Alpha  occ. eigenvalues --  -11.38775 -11.37209  -1.74070  -1.69557  -1.20798
 Alpha  occ. eigenvalues --   -1.09942  -0.98573  -0.85818  -0.80438  -0.69430
 Alpha  occ. eigenvalues --   -0.65628  -0.62829  -0.60464  -0.57869  -0.55431
 Alpha  occ. eigenvalues --   -0.54796  -0.53512  -0.51688  -0.47479  -0.45573
 Alpha  occ. eigenvalues --   -0.40396  -0.36065  -0.29189  -0.25339
 Alpha virt. eigenvalues --    0.03944   0.04546   0.04986   0.05257   0.05682
 Alpha virt. eigenvalues --    0.05953   0.06276   0.07662   0.08326   0.08837
 Alpha virt. eigenvalues --    0.09012   0.09117   0.11677   0.12853   0.13165

 Mulliken charges:
               1
     1  C   -4.057239
     2  C   -1.397456
     3  C    1.334557
     4  O   -3.623226
     5  C    1.415851
     6  C   -4.037380
     7  O   -3.407010
     8  H    1.118515
     9  H    1.421038
    10  H    1.237926
    11  H    1.476944
    12  H   -0.396165
    13  H    1.651258
    14  H    0.724294
    15  H    1.733701
    16  H    1.384841
    17  H    1.070207
    18  H    1.269644
    19  H    1.079699
 Sum of Mulliken charges =   0.00000

 Dipole moment (field-independent basis, Debye):
    X=             -1.0264    Y=              0.7239    Z=             -0.6518  Tot=              1.4151

 Test job not archived.
 1\1\GINC-SE125\SP\RHF\Aug-CC-pVDZ\C5H12O2\OHZDE\09-Apr-2025\0\\#t hf a
 ug-cc-pvdz iop(5/13=1,5/36=2,99/5=2) pseudo=read geom=check guess=(rea
 d,tcheck) scf=(maxcycle=1)\\title\\0,1\C,0,1.86018115,0.73833508,1.282
 33648\C,0,0.93713866,-0.42583555,1.06765488\C,0,0.53982643,-0.79418636
 ,-0.19789641\O,0,-0.06560624,-2.01144401,-0.41869067\C,0,-0.89797898,0
 .74116914,-0.7300763\C,0,-1.57825918,-0.03123208,-1.83009659\O,0,-1.56
 589679,1.07335226,0.28837951\H,0,2.90050236,0.41100846,1.21607403\H,0,
 1.70043116,1.51079521,0.52920233\H,0,1.71174426,1.19131876,2.26216668\

 Normal termination of Gaussian 16 at Wed Apr  9 19:06:34 2025.
