 Gaussian 16, Revision C.01,

 ----------------------------------------------------------------------
 #t hf aug-cc-pvdz symm=none int=(grid=ultrafine) guess=(read,tcheck) s
 table=(opt,rrhf)
 ----------------------------------------------------------------------
 -----
 title
 -----
 Symbolic Z-matrix:
 Charge =  0 Multiplicity = 1

 SCF Done:  E(RHF) =  -317.622950210     A.U. after   15 cycles
 Normal termination of Gaussian 16 at Wed Apr  9 19:04:40 2025.
 Gaussian 16:  ES64L-G16RevC.01  3-Jul-2019

 ----------------------------------------------------------------------
 #t hf aug-cc-pvdz iop(5/13=1,5/36=2,99/5=2) pseudo=read geom=check gue
 ss=(read,tcheck) scf=(maxcycle=1)
 ----------------------------------------------------------------------
 -----
 title
 -----
 Structure from the checkpoint file:  "Grambow2020_wb97xd3_008061_forward_mol1.chk"
 Charge =  0 Multiplicity = 1

                         Standard orientation:
 ---------------------------------------------------------------------
 Center     Atomic      Atomic             Coordinates (Angstroms)
 Number     Number       Type             X           Y           Z
 ---------------------------------------------------------------------
      1          7           0        2.625690    0.012414   -0.578052
      2          6           0        1.622533    0.018169   -0.022105
      3          6           0        0.345012    0.016420    0.709921
      4          6           0       -0.585931    1.177594    0.306248
      5          7           0       -1.567438    0.553109   -0.610197
      6          6           0       -1.479642   -0.775853   -0.499507
      7          7           0       -0.497179   -1.129552    0.361274
      8          1           0        0.576397    0.025864    1.775725
      9          1           0       -1.107351    1.577709    1.176550
     10          1           0       -0.069644    1.992099   -0.197480
     11          1           0       -2.583409   -0.193412   -0.350211
     12          1           0       -0.155333   -2.072037    0.416894
 ---------------------------------------------------------------------

 SCF Done:  E(RHF) =  -319.078515652     A.U. after    2 cycles

 The electronic state is 1-A.
 Alpha  occ. eigenvalues --  -15.78236 -15.77178 -15.76736 -11.53502 -11.45522
 Alpha  occ. eigenvalues --  -11.43028 -11.41855  -1.56843  -1.33089  -1.29367
 Alpha  occ. eigenvalues --   -1.15827  -0.96325  -0.80984  -0.76369  -0.76274
 Alpha  occ. eigenvalues --   -0.62346  -0.61707  -0.56745  -0.55201  -0.52859
 Alpha  occ. eigenvalues --   -0.46736  -0.45575  -0.43422  -0.37096  -0.34202
 Alpha virt. eigenvalues --    0.02732   0.05013   0.05268   0.06003   0.06508
 Alpha virt. eigenvalues --    0.09093   0.09564   0.09941   0.10380   0.11793
 Alpha virt. eigenvalues --    0.12250   0.12977   0.13476   0.13910   0.14428

 Mulliken charges:
               1
     1  N   -2.658062
     2  C    3.220662
     3  C   -2.212252
     4  C   -1.560514
     5  N   -2.013560
     6  C    0.246453
     7  N   -1.757999
     8  H    1.561884
     9  H    1.362243
    10  H    1.507914
    11  H    1.536585
    12  H    0.766646
 Sum of Mulliken charges =  -0.00000

 Dipole moment (field-independent basis, Debye):
    X=             -1.3173    Y=              0.5334    Z=              3.3797  Tot=              3.6664

 Test job not archived.
 1\1\GINC-SE219\SP\RHF\Aug-CC-pVDZ\C4H5N3\OHZDE\09-Apr-2025\0\\#t hf au
 g-cc-pvdz iop(5/13=1,5/36=2,99/5=2) pseudo=read geom=check guess=(read
 ,tcheck) scf=(maxcycle=1)\\title\\0,1\N,0,2.48828654,-1.14662962,1.152
 6239\C,0,1.67978065,-0.68922301,0.47991963\C,0,0.65808285,-0.09556378,
 -0.39850483\C,0,-0.69424995,-0.83428244,-0.3400376\N,0,-1.53151229,0.0
 1207683,0.54080196\C,0,-0.94012036,1.2013024,0.68945571\N,0,0.24834943
 ,1.23895471,0.04339007\H,0,1.06848562,-0.06765631,-1.40863167\H,0,-1.1
 5008767,-0.88855711,-1.32931134\H,0,-0.62133114,-1.84045659,0.06740541

 Normal termination of Gaussian 16 at Wed Apr  9 19:04:45 2025.
