 Gaussian 16, Revision C.01,

 ----------------------------------------------------------------------
 #t hf aug-cc-pvdz symm=none int=(grid=ultrafine) guess=(read,tcheck) s
 table=(opt,rrhf)
 ----------------------------------------------------------------------
 -----
 title
 -----
 Symbolic Z-matrix:
 Charge =  0 Multiplicity = 1

 SCF Done:  E(RHF) =  -286.638635358     A.U. after   16 cycles
 Normal termination of Gaussian 16 at Wed Apr  9 19:32:24 2025.
 Gaussian 16:  ES64L-G16RevC.01  3-Jul-2019

 ----------------------------------------------------------------------
 #t hf aug-cc-pvdz iop(5/13=1,5/36=2,99/5=2) pseudo=read geom=check gue
 ss=(read,tcheck) scf=(maxcycle=1)
 ----------------------------------------------------------------------
 -----
 title
 -----
 Structure from the checkpoint file:  "Grambow2020_wb97xd3_009357_reverse_mol1.chk"
 Charge =  0 Multiplicity = 1

                         Standard orientation:
 ---------------------------------------------------------------------
 Center     Atomic      Atomic             Coordinates (Angstroms)
 Number     Number       Type             X           Y           Z
 ---------------------------------------------------------------------
      1          6           0        1.989630   -0.190741    0.426428
      2          7           0        0.961478    0.210302   -0.502902
      3          6           0       -0.146721   -0.734649   -0.819665
      4          6           0       -0.832730   -1.182331    0.497882
      5          6           0       -1.143740    0.255831    1.009659
      6          6           0        0.001489    1.185162   -0.202466
      7          6           0       -1.053535    0.421626   -0.758079
      8          1           0        1.550428   -0.834236    1.204667
      9          1           0        2.446411    0.691056    0.878151
     10          1           0        2.764925   -0.748529   -0.099689
     11          1           0       -0.027842   -1.434786   -1.636596
     12          1           0       -1.754657   -1.719474    0.258826
     13          1           0       -0.546981    0.580162    1.868573
     14          1           0       -2.160467    0.631261    1.159691
     15          1           0        0.135269    2.199007    0.138031
     16          1           0       -2.023799    0.634034   -1.173895
 ---------------------------------------------------------------------

 SCF Done:  E(RHF) =  -288.058081314     A.U. after    2 cycles

 The electronic state is 1-A.
 Alpha  occ. eigenvalues --  -15.73103 -11.53572 -11.49742 -11.43960 -11.41448
 Alpha  occ. eigenvalues --  -11.37788 -11.31488  -1.57053  -1.23248  -1.04940
 Alpha  occ. eigenvalues --   -1.02189  -0.91661  -0.80879  -0.75872  -0.74441
 Alpha  occ. eigenvalues --   -0.64105  -0.61718  -0.57992  -0.56766  -0.52612
 Alpha  occ. eigenvalues --   -0.48523  -0.47343  -0.45417  -0.39896  -0.33235
 Alpha  occ. eigenvalues --   -0.19002
 Alpha virt. eigenvalues --    0.03546   0.04300   0.04989   0.05391   0.05514
 Alpha virt. eigenvalues --    0.06379   0.06688   0.07817   0.08873   0.09956
 Alpha virt. eigenvalues --    0.10971   0.11675   0.12644   0.13027   0.13523

 Mulliken charges:
               1
     1  C   -3.551938
     2  N   -2.294082
     3  C   -0.677727
     4  C   -1.665329
     5  C   -2.333659
     6  C   -0.043339
     7  C   -1.548083
     8  H    1.543502
     9  H    1.422806
    10  H    1.326223
    11  H    1.583472
    12  H    1.269334
    13  H    1.436111
    14  H    1.138111
    15  H    1.301260
    16  H    1.093338
 Sum of Mulliken charges =  -0.00000

 Dipole moment (field-independent basis, Debye):
    X=             -0.6274    Y=              3.6325    Z=             -1.6705  Tot=              4.0471

 Test job not archived.
 1\1\GINC-SE226\SP\RHF\Aug-CC-pVDZ\C6H9N1\OHZDE\09-Apr-2025\0\\#t hf au
 g-cc-pvdz iop(5/13=1,5/36=2,99/5=2) pseudo=read geom=check guess=(read
 ,tcheck) scf=(maxcycle=1)\\title\\0,1\C,0,1.96686906,0.38480811,0.0727
 4122\N,0,0.96269522,-0.56784651,-0.33428568\C,0,-0.05353378,-1.0264867
 6,0.65480549\C,0,-0.7735299,0.20671284,1.26125744\C,0,-1.21769193,0.81
 558884,-0.10217371\C,0,-0.08192158,-0.24585933,-1.2102386\C,0,-1.04598
 67,-0.92404657,-0.42575868\H,0,1.53598398,1.08004709,0.81004817\H,0,2.
 33193209,0.93382179,-0.79650036\H,0,2.80851743,-0.13838601,0.5276088\H

 Normal termination of Gaussian 16 at Wed Apr  9 19:32:30 2025.
