 Gaussian 16, Revision C.01,

 ----------------------------------------------------------------------
 #t hf aug-cc-pvdz symm=none int=(grid=ultrafine) guess=(read,tcheck) s
 table=(opt,rrhf)
 ----------------------------------------------------------------------
 -----
 title
 -----
 Symbolic Z-matrix:
 Charge =  0 Multiplicity = 1

 SCF Done:  E(RHF) =  -335.530237631     A.U. after   15 cycles
 Normal termination of Gaussian 16 at Wed Apr  9 16:09:38 2025.
 Gaussian 16:  ES64L-G16RevC.01  3-Jul-2019

 ----------------------------------------------------------------------
 #t hf aug-cc-pvdz iop(5/13=1,5/36=2,99/5=2) pseudo=read geom=check gue
 ss=(read,tcheck) scf=(maxcycle=1)
 ----------------------------------------------------------------------
 -----
 title
 -----
 Structure from the checkpoint file:  "Grambow2020_b97d3_006736_forward_mol2.chk"
 Charge =  0 Multiplicity = 1

                         Standard orientation:
 ---------------------------------------------------------------------
 Center     Atomic      Atomic             Coordinates (Angstroms)
 Number     Number       Type             X           Y           Z
 ---------------------------------------------------------------------
      1          8           0        2.010498    0.015533    0.001085
      2          6           0        0.802661    0.007386   -0.000381
      3          7           0       -0.106172    1.071897   -0.002122
      4          6           0       -1.371998    0.554110    0.000815
      5          7           0       -1.390720   -0.746086    0.000838
      6          8           0       -0.010006   -1.121518   -0.000921
      7          1           0        0.168118    2.046095    0.003746
      8          1           0       -2.277783    1.152127    0.001332
 ---------------------------------------------------------------------

 SCF Done:  E(RHF) =  -336.936471245     A.U. after    2 cycles

 The electronic state is 1-A.
 Alpha  occ. eigenvalues --  -21.13027 -21.06540 -15.83484 -15.80848 -11.55312
 Alpha  occ. eigenvalues --  -11.48838  -1.90962  -1.70337  -1.46169  -1.26044
 Alpha  occ. eigenvalues --   -0.90569  -0.89162  -0.75414  -0.67653  -0.63913
 Alpha  occ. eigenvalues --   -0.55560  -0.48961  -0.48298  -0.46259  -0.44708
 Alpha  occ. eigenvalues --   -0.31866  -0.29025
 Alpha virt. eigenvalues --    0.02165   0.04400   0.08586   0.08889   0.09645
 Alpha virt. eigenvalues --    0.11924   0.11952   0.12513   0.13558   0.16277
 Alpha virt. eigenvalues --    0.16492   0.16817   0.17474   0.17967   0.19927

 Mulliken charges:
               1
     1  O   -2.888790
     2  C    4.954550
     3  N   -2.436660
     4  C    1.201718
     5  N   -0.768393
     6  O   -2.399305
     7  H    0.747079
     8  H    1.589801
 Sum of Mulliken charges =  -0.00000

 Dipole moment (field-independent basis, Debye):
    X=             -1.9623    Y=              3.3861    Z=              0.0063  Tot=              3.9136

 Test job not archived.
 1\1\GINC-SE131\SP\RHF\Aug-CC-pVDZ\C2H2N2O2\OHZDE\09-Apr-2025\0\\#t hf
 aug-cc-pvdz iop(5/13=1,5/36=2,99/5=2) pseudo=read geom=check guess=(re
 ad,tcheck) scf=(maxcycle=1)\\title\\0,1\O,0,2.30555069,0.14487741,0.20
 340701\C,0,1.12805823,-0.11881406,0.25741401\N,0,0.01070748,0.6974067,
 0.04652604\C,0,-1.11330795,-0.06056076,0.22681268\N,0,-0.85062758,-1.2
 9688418,0.53236695\O,0,0.57856462,-1.36094234,0.55745991\H,0,0.0679497
 3,1.68023087,-0.18823442\H,0,-2.12689523,0.31468636,0.12730599\\Versio
 n=ES64L-G16RevC.01\State=1-A\HF=-336.9364712\RMSD=6.640e-02\Dipole=-1.

 Normal termination of Gaussian 16 at Wed Apr  9 16:09:41 2025.
