 Gaussian 16, Revision C.01,

 ----------------------------------------------------------------------
 #t hf aug-cc-pvdz symm=none int=(grid=ultrafine) guess=(read,tcheck) s
 table=(opt,rrhf)
 ----------------------------------------------------------------------
 -----
 title
 -----
 Symbolic Z-matrix:
 Charge =  0 Multiplicity = 1

 SCF Done:  E(RHF) =  -322.521017433     A.U. after   18 cycles
 Normal termination of Gaussian 16 at Wed Apr  9 18:39:38 2025.
 Gaussian 16:  ES64L-G16RevC.01  3-Jul-2019

 ----------------------------------------------------------------------
 #t hf aug-cc-pvdz iop(5/13=1,5/36=2,99/5=2) pseudo=read geom=check gue
 ss=(read,tcheck) scf=(maxcycle=1)
 ----------------------------------------------------------------------
 -----
 title
 -----
 Structure from the checkpoint file:  "Grambow2020_wb97xd3_007381_reverse_mol1.chk"
 Charge =  0 Multiplicity = 1

                         Standard orientation:
 ---------------------------------------------------------------------
 Center     Atomic      Atomic             Coordinates (Angstroms)
 Number     Number       Type             X           Y           Z
 ---------------------------------------------------------------------
      1          6           0       -1.872333   -0.019652    0.742501
      2          6           0       -0.377545    1.134282   -0.472771
      3          6           0        0.914794    1.184254    0.136631
      4          8           0        1.620415    0.071361    0.314727
      5          6           0        1.011831   -1.145053    0.038679
      6          7           0       -0.160324   -1.333341   -0.365897
      7          6           0       -1.092005   -0.208934   -0.453180
      8          1           0       -1.362890    0.036282    1.695865
      9          1           0       -2.950752   -0.078885    0.731704
     10          1           0       -0.953219    2.048186   -0.534642
     11          1           0        1.364875    2.066440    0.573895
     12          1           0        0.543419    1.306635   -1.269161
     13          1           0        1.716026   -1.943605    0.235484
     14          1           0       -1.706964   -0.341929   -1.340842
 ---------------------------------------------------------------------

 SCF Done:  E(RHF) =  -324.008372011     A.U. after    2 cycles

 The electronic state is 1-A.
 Alpha  occ. eigenvalues --  -21.15217 -15.73783 -11.55441 -11.47468 -11.46254
 Alpha  occ. eigenvalues --  -11.43208 -11.30583  -1.88001  -1.39651  -1.25089
 Alpha  occ. eigenvalues --   -1.06096  -0.94614  -0.86052  -0.77570  -0.69520
 Alpha  occ. eigenvalues --   -0.68935  -0.65441  -0.61240  -0.57916  -0.52387
 Alpha  occ. eigenvalues --   -0.51115  -0.48552  -0.46070  -0.35698  -0.34338
 Alpha  occ. eigenvalues --   -0.19319
 Alpha virt. eigenvalues --    0.02314   0.04163   0.04905   0.05662   0.05822
 Alpha virt. eigenvalues --    0.06600   0.06906   0.07775   0.09692   0.10727
 Alpha virt. eigenvalues --    0.11703   0.12271   0.13090   0.13647   0.14339

 Mulliken charges:
               1
     1  C   -2.353500
     2  C   -1.953729
     3  C    0.868672
     4  O   -3.724942
     5  C    1.558397
     6  N   -2.713783
     7  C   -2.074012
     8  H    1.409117
     9  H    1.305534
    10  H    1.433446
    11  H    1.533964
    12  H    1.411061
    13  H    1.756348
    14  H    1.543426
 Sum of Mulliken charges =   0.00000

 Dipole moment (field-independent basis, Debye):
    X=              4.1715    Y=              2.5806    Z=             -1.1195  Tot=              5.0314

 Test job not archived.
 1\1\GINC-SE174\SP\RHF\Aug-CC-pVDZ\C5H7N1O1\OHZDE\09-Apr-2025\0\\#t hf
 aug-cc-pvdz iop(5/13=1,5/36=2,99/5=2) pseudo=read geom=check guess=(re
 ad,tcheck) scf=(maxcycle=1)\\title\\0,1\C,0,-1.58411522,-0.79560497,0.
 39141106\C,0,-0.33745684,0.71808876,-0.70285278\C,0,0.60116161,1.38356
 051,0.14576344\O,0,1.58273021,0.70328639,0.73048581\C,0,1.58039107,-0.
 68030842,0.62140428\N,0,0.73831844,-1.39374809,0.02558723\C,0,-0.47335
 241,-0.78693768,-0.52538913\H,0,-1.43851255,-0.41132792,1.3927582\H,0,
 -2.50808691,-1.30427867,0.15872949\H,0,-1.165152,1.28889654,-1.1022888

 Normal termination of Gaussian 16 at Wed Apr  9 18:39:42 2025.
