 Gaussian 16, Revision C.01,

 ----------------------------------------------------------------------
 #t hf aug-cc-pvdz symm=none int=(grid=ultrafine) guess=(read,tcheck) s
 table=(opt,rrhf)
 ----------------------------------------------------------------------
 -----
 title
 -----
 Symbolic Z-matrix:
 Charge =  0 Multiplicity = 1

 SCF Done:  E(RHF) =  -344.909427521     A.U. after   13 cycles

 1\1\GINC-SE460\Stability\RHF\Aug-CC-pVDZ\C5H10O2\OHZDE\09-Apr-2025\0\\
 #t hf aug-cc-pvdz symm=none int=(grid=ultrafine) guess=(read,tcheck) s
 table=(opt,rrhf)\\title\\0,1\C,0,-2.18157337,-0.56902962,0.15201807\C,
 0,-0.95438896,0.06511655,-0.48479148\O,0,-1.1438075,1.44732943,-0.7131
 8185\C,0,0.30802686,-0.16115015,0.35307859\C,0,1.54915095,0.30093241,-
 0.34851145\C,0,2.62920161,-0.45076459,-0.49583785\O,0,0.1095715,0.5748
 4013,1.55904516\H,0,-3.05928626,-0.3669624,-0.46195381\H,0,-2.06102231
 ,-1.65109487,0.24137926\H,0,-2.35074666,-0.16054879,1.14997649\H,0,-0.

 Normal termination of Gaussian 16 at Wed Apr  9 03:33:32 2025.
 Gaussian 16:  ES64L-G16RevC.01  3-Jul-2019

 ----------------------------------------------------------------------
 #t hf aug-cc-pvdz iop(5/13=1,5/36=2,99/5=2) pseudo=read geom=check gue
 ss=(read,tcheck) scf=(maxcycle=1)
 ----------------------------------------------------------------------
 -----
 title
 -----
 Structure from the checkpoint file:  "Grambow2020_wb97xd3_007049_reverse_mol2.chk"
 Charge =  0 Multiplicity = 1

                         Standard orientation:
 ---------------------------------------------------------------------
 Center     Atomic      Atomic             Coordinates (Angstroms)
 Number     Number       Type             X           Y           Z
 ---------------------------------------------------------------------
      1          6           0       -2.108408    0.344918    0.849931
      2          6           0       -0.907477   -0.461285    0.379346
      3          8           0       -1.196916   -1.182368   -0.801678
      4          6           0        0.327574    0.420098    0.167847
      5          6           0        1.559397   -0.383223   -0.120985
      6          6           0        2.702509   -0.229100    0.529249
      7          8           0        0.012788    1.270047   -0.933933
      8          1           0       -2.969211   -0.313497    0.966899
      9          1           0       -1.905156    0.825779    1.809537
     10          1           0       -2.357605    1.121573    0.124601
     11          1           0       -0.654745   -1.213417    1.131774
     12          1           0       -1.241949   -0.536600   -1.514202
     13          1           0        0.490721    1.022298    1.071664
     14          1           0        1.467102   -1.112401   -0.920869
     15          1           0        0.821900    1.683260   -1.239866
     16          1           0        3.577666   -0.820994    0.290219
     17          1           0        2.802731    0.494110    1.332796
 ---------------------------------------------------------------------

 SCF Done:  E(RHF) =  -346.499043420     A.U. after    2 cycles

 The electronic state is 1-A.
 Alpha  occ. eigenvalues --  -21.07603 -21.05626 -11.47998 -11.43768 -11.41809
 Alpha  occ. eigenvalues --  -11.38547 -11.36143  -1.75008  -1.68702  -1.20198
 Alpha  occ. eigenvalues --   -1.11453  -0.98227  -0.84550  -0.80035  -0.70647
 Alpha  occ. eigenvalues --   -0.62466  -0.61323  -0.59627  -0.56096  -0.54522
 Alpha  occ. eigenvalues --   -0.52042  -0.51044  -0.47623  -0.41853  -0.39163
 Alpha  occ. eigenvalues --   -0.35782  -0.32487  -0.30568
 Alpha virt. eigenvalues --    0.03764   0.04905   0.05182   0.05300   0.06195
 Alpha virt. eigenvalues --    0.06725   0.07062   0.07187   0.07773   0.08463
 Alpha virt. eigenvalues --    0.10433   0.11686   0.12806   0.13885   0.14911

 Mulliken charges:
               1
     1  C   -4.192995
     2  C    1.435397
     3  O   -3.385997
     4  C   -0.267396
     5  C   -0.359584
     6  C   -3.120616
     7  O   -3.016361
     8  H    1.084500
     9  H    1.241474
    10  H    1.242769
    11  H    1.780246
    12  H    0.730814
    13  H    1.628978
    14  H    1.590765
    15  H    0.879535
    16  H    1.331102
    17  H    1.397368
 Sum of Mulliken charges =  -0.00000

 Dipole moment (field-independent basis, Debye):
    X=              0.6611    Y=              0.5798    Z=              0.1780  Tot=              0.8972

 Test job not archived.
 1\1\GINC-SE460\SP\RHF\Aug-CC-pVDZ\C5H10O2\OHZDE\09-Apr-2025\0\\#t hf a
 ug-cc-pvdz iop(5/13=1,5/36=2,99/5=2) pseudo=read geom=check guess=(rea
 d,tcheck) scf=(maxcycle=1)\\title\\0,1\C,0,-2.18157337,-0.56902962,0.1
 5201807\C,0,-0.95438896,0.06511655,-0.48479148\O,0,-1.1438075,1.447329
 43,-0.71318185\C,0,0.30802686,-0.16115015,0.35307859\C,0,1.54915095,0.
 30093241,-0.34851145\C,0,2.62920161,-0.45076459,-0.49583785\O,0,0.1095
 715,0.57484013,1.55904516\H,0,-3.05928626,-0.3669624,-0.46195381\H,0,-
 2.06102231,-1.65109487,0.24137926\H,0,-2.35074666,-0.16054879,1.149976

 Normal termination of Gaussian 16 at Wed Apr  9 03:33:38 2025.
