 Gaussian 16, Revision C.01,

 ----------------------------------------------------------------------
 #t hf aug-cc-pvdz symm=none int=(grid=ultrafine) guess=(read,tcheck) s
 table=(opt,rrhf)
 ----------------------------------------------------------------------
 -----
 title
 -----
 Symbolic Z-matrix:
 Charge =  0 Multiplicity = 1

 SCF Done:  E(RHF) =  -359.691905080     A.U. after   14 cycles
 Normal termination of Gaussian 16 at Wed Apr  9 18:34:42 2025.
 Gaussian 16:  ES64L-G16RevC.01  3-Jul-2019

 ----------------------------------------------------------------------
 #t hf aug-cc-pvdz iop(5/13=1,5/36=2,99/5=2) pseudo=read geom=check gue
 ss=(read,tcheck) scf=(maxcycle=1)
 ----------------------------------------------------------------------
 -----
 title
 -----
 Structure from the checkpoint file:  "Grambow2020_wb97xd3_007286_reverse_mol2.chk"
 Charge =  0 Multiplicity = 1

                         Standard orientation:
 ---------------------------------------------------------------------
 Center     Atomic      Atomic             Coordinates (Angstroms)
 Number     Number       Type             X           Y           Z
 ---------------------------------------------------------------------
      1          8           0        3.144779   -0.291532   -0.405949
      2          6           0       -0.166911   -0.754409    0.234340
      3          6           0        0.422091    0.120528    1.278134
      4          7           0        0.458905    0.581112   -0.094647
      5          6           0       -0.888680    1.165615   -0.365443
      6          6           0       -1.513334   -0.215751   -0.134082
      7          8           0       -2.579536   -0.698435   -0.351623
      8          1           0        3.535745   -0.451309   -1.264697
      9          1           0        0.271624   -1.702564   -0.046294
     10          1           0       -0.223412    0.633682    1.983465
     11          1           0        1.387628   -0.187631    1.659641
     12          1           0        2.328892    0.206325   -0.571329
     13          1           0       -0.986530    1.468163   -1.408003
     14          1           0       -1.167215    1.989379    0.292640
 ---------------------------------------------------------------------

 SCF Done:  E(RHF) =  -361.300745504     A.U. after    2 cycles

 The electronic state is 1-A.
 Alpha  occ. eigenvalues --  -21.07610 -21.07517 -15.75790 -11.52980 -11.48680
 Alpha  occ. eigenvalues --  -11.44265 -11.42283  -1.73380  -1.64407  -1.55426
 Alpha  occ. eigenvalues --   -1.10415  -0.99520  -0.90718  -0.78464  -0.69303
 Alpha  occ. eigenvalues --   -0.66105  -0.63606  -0.60337  -0.56749  -0.54819
 Alpha  occ. eigenvalues --   -0.49302  -0.46413  -0.43877  -0.42877  -0.36034
 Alpha  occ. eigenvalues --   -0.33863  -0.29346
 Alpha virt. eigenvalues --    0.03696   0.05365   0.05402   0.05570   0.06236
 Alpha virt. eigenvalues --    0.06710   0.08527   0.09664   0.10737   0.11771
 Alpha virt. eigenvalues --    0.12182   0.13597   0.13826   0.14171   0.14746

 Mulliken charges:
               1
     1  O   -2.053854
     2  C   -1.087632
     3  C   -1.925590
     4  N   -1.745014
     5  C   -2.738980
     6  C    3.619499
     7  O   -3.199272
     8  H    0.807000
     9  H    1.343062
    10  H    1.393816
    11  H    1.477820
    12  H    1.359315
    13  H    1.375245
    14  H    1.374586
 Sum of Mulliken charges =   0.00000

 Dipole moment (field-independent basis, Debye):
    X=             -0.0890    Y=              0.7295    Z=              0.2190  Tot=              0.7669

 Test job not archived.
 1\1\GINC-SE135\SP\RHF\Aug-CC-pVDZ\C4H7N1O2\OHZDE\09-Apr-2025\0\\#t hf
 aug-cc-pvdz iop(5/13=1,5/36=2,99/5=2) pseudo=read geom=check guess=(re
 ad,tcheck) scf=(maxcycle=1)\\title\\0,1\O,0,2.27096892,0.91573821,-1.8
 8538308\C,0,0.38899511,-0.25409323,0.69941629\C,0,-0.09424923,1.092051
 71,0.30405055\N,0,-0.14772813,0.03382012,-0.68352579\C,0,-1.38771939,-
 0.74276166,-0.38302187\C,0,-0.79697324,-1.12198263,0.98046756\O,0,-1.0
 7094358,-1.92362845,1.81676759\H,0,2.80597841,0.34672606,-2.43839407\H
 ,0,1.43088895,-0.46252556,0.90209553\H,0,-1.02516639,1.47491721,0.7093

 Normal termination of Gaussian 16 at Wed Apr  9 18:34:46 2025.
