 Gaussian 16, Revision C.01,

 ----------------------------------------------------------------------
 #t hf aug-cc-pvdz symm=none int=(grid=ultrafine) guess=(read,tcheck) s
 table=(opt,rrhf)
 ----------------------------------------------------------------------
 -----
 title
 -----
 Symbolic Z-matrix:
 Charge =  0 Multiplicity = 1

 SCF Done:  E(RHF) =  -284.654299951     A.U. after   16 cycles
 Normal termination of Gaussian 16 at Wed Apr  9 17:54:52 2025.
 Gaussian 16:  ES64L-G16RevC.01  3-Jul-2019

 ----------------------------------------------------------------------
 #t hf aug-cc-pvdz iop(5/13=1,5/36=2,99/5=2) pseudo=read geom=check gue
 ss=(read,tcheck) scf=(maxcycle=1)
 ----------------------------------------------------------------------
 -----
 title
 -----
 Structure from the checkpoint file:  "Grambow2020_wb97xd3_006239_reverse_mol1.chk"
 Charge =  0 Multiplicity = 1

                         Standard orientation:
 ---------------------------------------------------------------------
 Center     Atomic      Atomic             Coordinates (Angstroms)
 Number     Number       Type             X           Y           Z
 ---------------------------------------------------------------------
      1          8           0       -2.459781   -0.394653    0.001844
      2          6           0       -1.429551    0.157581   -0.002274
      3          7           0       -0.119241   -0.002760   -0.007523
      4          6           0        0.446653    1.317960    0.002631
      5          6           0        2.110525   -0.160692   -0.001076
      6          6           0        0.985112   -1.078570    0.002812
      7          1           0       -0.824731    1.695960    0.002256
      8          1           0        0.811464    1.731468   -0.928500
      9          1           0        0.803990    1.717440    0.942877
     10          1           0        2.659625   -0.004725   -0.919842
     11          1           0        2.666528   -0.003386    0.913102
     12          1           0        0.857593   -1.681375    0.900960
     13          1           0        0.862023   -1.696517   -0.885511
 ---------------------------------------------------------------------

 SCF Done:  E(RHF) =  -286.028999430     A.U. after    2 cycles

 The electronic state is 1-A.
 Alpha  occ. eigenvalues --  -21.11784 -15.78253 -11.55848 -11.45628 -11.43191
 Alpha  occ. eigenvalues --  -11.36305  -1.76797  -1.48949  -1.13888  -1.00800
 Alpha  occ. eigenvalues --   -0.86718  -0.76432  -0.69234  -0.65901  -0.61374
 Alpha  occ. eigenvalues --   -0.60932  -0.55276  -0.52284  -0.50217  -0.49678
 Alpha  occ. eigenvalues --   -0.41574  -0.33624  -0.24104
 Alpha virt. eigenvalues --    0.03322   0.05556   0.05633   0.05924   0.05942
 Alpha virt. eigenvalues --    0.06927   0.07111   0.08805   0.09519   0.10519
 Alpha virt. eigenvalues --    0.12815   0.12849   0.13879   0.14069   0.14782

 Mulliken charges:
               1
     1  O   -2.565444
     2  C    3.087769
     3  N   -1.808206
     4  C   -2.739394
     5  C   -2.752555
     6  C   -2.436021
     7  H    1.075915
     8  H    1.428184
     9  H    1.434779
    10  H    1.200549
    11  H    1.198959
    12  H    1.439324
    13  H    1.436141
 Sum of Mulliken charges =  -0.00000

 Dipole moment (field-independent basis, Debye):
    X=             -0.9543    Y=             -0.5206    Z=              0.0123  Tot=              1.0871

 Test job not archived.
 1\1\GINC-SE041\SP\RHF\Aug-CC-pVDZ\C4H7N1O1\OHZDE\09-Apr-2025\0\\#t hf
 aug-cc-pvdz iop(5/13=1,5/36=2,99/5=2) pseudo=read geom=check guess=(re
 ad,tcheck) scf=(maxcycle=1)\\title\\0,1\O,0,2.97194687,0.16533822,-0.8
 1958457\C,0,1.85145122,0.46880998,-0.68266273\N,0,0.66025777,0.0522977
 8,-0.29507416\C,0,-0.23347079,1.16158497,-0.483147\C,0,-1.40093088,-0.
 55426381,0.32171105\C,0,-0.09148581,-1.17825087,0.25054555\H,0,0.86307
 957,1.77428517,-0.90914701\H,0,-0.51016521,1.75468208,0.37868675\H,0,-
 0.85999055,1.17372412,-1.36556488\H,0,-1.78396891,-0.2423215,1.2839692

 Normal termination of Gaussian 16 at Wed Apr  9 17:54:56 2025.
