 Gaussian 16, Revision C.01,

 ----------------------------------------------------------------------
 #t hf aug-cc-pvdz symm=none int=(grid=ultrafine) guess=(read,tcheck) s
 table=(opt,rrhf)
 ----------------------------------------------------------------------
 -----
 title
 -----
 Symbolic Z-matrix:
 Charge =  0 Multiplicity = 1

 SCF Done:  E(RHF) =  -360.933511872     A.U. after   12 cycles
 Normal termination of Gaussian 16 at Wed Apr  9 19:20:07 2025.
 Gaussian 16:  ES64L-G16RevC.01  3-Jul-2019

 ----------------------------------------------------------------------
 #t hf aug-cc-pvdz iop(5/13=1,5/36=2,99/5=2) pseudo=read geom=check gue
 ss=(read,tcheck) scf=(maxcycle=1)
 ----------------------------------------------------------------------
 -----
 title
 -----
 Structure from the checkpoint file:  "Grambow2020_wb97xd3_008627_reverse_mol2.chk"
 Charge =  0 Multiplicity = 1

                         Standard orientation:
 ---------------------------------------------------------------------
 Center     Atomic      Atomic             Coordinates (Angstroms)
 Number     Number       Type             X           Y           Z
 ---------------------------------------------------------------------
      1          6           0       -0.287075    0.943692   -0.765577
      2          6           0       -1.624002    0.727886   -0.076673
      3          6           0       -1.555478   -0.769233    0.192989
      4          8           0       -0.191613   -1.044545    0.472909
      5          6           0        0.658327   -0.018848   -0.009263
      6          8           0        1.659186   -0.536784   -0.830470
      7          7           0        1.363506    0.529544    1.115096
      8          1           0       -0.353240    0.638408   -1.814306
      9          1           0        0.083699    1.967067   -0.738730
     10          1           0        1.240620   -0.991249   -1.564215
     11          1           0       -1.674805    1.283154    0.863542
     12          1           0       -2.484197    1.012576   -0.682231
     13          1           0       -2.150206   -1.090733    1.048959
     14          1           0       -1.882208   -1.341097   -0.685421
     15          1           0        2.057458    1.198498    0.812298
     16          1           0        0.727126    0.966227    1.766072
 ---------------------------------------------------------------------

 SCF Done:  E(RHF) =  -362.574963006     A.U. after    2 cycles

 The electronic state is 1-A.
 Alpha  occ. eigenvalues --  -21.06926 -21.03687 -15.72699 -11.50489 -11.45183
 Alpha  occ. eigenvalues --  -11.41265 -11.36848  -1.82281  -1.68210  -1.30372
 Alpha  occ. eigenvalues --   -1.20252  -1.03022  -0.86323  -0.81767  -0.71039
 Alpha  occ. eigenvalues --   -0.68690  -0.65691  -0.59994  -0.58513  -0.54328
 Alpha  occ. eigenvalues --   -0.53307  -0.48755  -0.47092  -0.42420  -0.38331
 Alpha  occ. eigenvalues --   -0.35711  -0.31848  -0.28119
 Alpha virt. eigenvalues --    0.03609   0.04803   0.05018   0.05202   0.05449
 Alpha virt. eigenvalues --    0.05648   0.06625   0.07217   0.08984   0.11777
 Alpha virt. eigenvalues --    0.12999   0.13522   0.13879   0.14096   0.14722

 Mulliken charges:
               1
     1  C   -3.191547
     2  C   -2.908344
     3  C   -1.846640
     4  O   -3.768863
     5  C    9.315722
     6  O   -3.666567
     7  N   -3.442523
     8  H    1.338103
     9  H    1.307765
    10  H    0.569044
    11  H    1.265695
    12  H    1.194235
    13  H    1.420191
    14  H    1.499850
    15  H    0.455327
    16  H    0.458552
 Sum of Mulliken charges =   0.00000

 Dipole moment (field-independent basis, Debye):
    X=             -1.4409    Y=              1.4265    Z=             -0.6022  Tot=              2.1151

 Test job not archived.
 1\1\GINC-SE045\SP\RHF\Aug-CC-pVDZ\C4H9N1O2\OHZDE\09-Apr-2025\0\\#t hf
 aug-cc-pvdz iop(5/13=1,5/36=2,99/5=2) pseudo=read geom=check guess=(re
 ad,tcheck) scf=(maxcycle=1)\\title\\0,1\C,0,-0.6593411,-0.33611909,-0.
 75041338\C,0,-0.89373044,1.06680442,-0.2161847\C,0,-0.30559545,0.93015
 17,1.18174349\O,0,0.79599488,0.04541669,1.04749458\C,0,0.70893313,-0.7
 2119517,-0.14064142\O,0,0.80612791,-2.08553825,0.13043186\N,0,1.868483
 1,-0.42893421,-0.93576444\H,0,-1.42985854,-1.01424564,-0.37113042\H,0,
 -0.64755076,-0.41831441,-1.83604503\H,0,0.09660539,-2.32402085,0.73028

 Normal termination of Gaussian 16 at Wed Apr  9 19:20:12 2025.
