 Gaussian 16, Revision C.01,

 ----------------------------------------------------------------------
 #t hf aug-cc-pvdz symm=none int=(grid=ultrafine) guess=(read,tcheck) s
 table=(opt,rrhf)
 ----------------------------------------------------------------------
 -----
 title
 -----
 Symbolic Z-matrix:
 Charge =  0 Multiplicity = 1

 SCF Done:  E(RHF) =  -283.540127275     A.U. after   16 cycles
 Normal termination of Gaussian 16 at Wed Apr  9 17:42:31 2025.
 Gaussian 16:  ES64L-G16RevC.01  3-Jul-2019

 ----------------------------------------------------------------------
 #t hf aug-cc-pvdz iop(5/13=1,5/36=2,99/5=2) pseudo=read geom=check gue
 ss=(read,tcheck) scf=(maxcycle=1)
 ----------------------------------------------------------------------
 -----
 title
 -----
 Structure from the checkpoint file:  "Grambow2020_wb97xd3_006125_reverse_mol1.chk"
 Charge =  0 Multiplicity = 1

                         Standard orientation:
 ---------------------------------------------------------------------
 Center     Atomic      Atomic             Coordinates (Angstroms)
 Number     Number       Type             X           Y           Z
 ---------------------------------------------------------------------
      1          7           0       -2.481801   -0.095279   -0.439231
      2          6           0       -1.451831   -0.023214    0.061841
      3          6           0       -0.136181    0.088794    0.690416
      4          6           0        0.866634   -0.957242    0.182802
      5          8           0        1.659873   -0.100529   -0.673846
      6          6           0        0.744587    1.233267    0.190859
      7          1           0       -0.268563    0.101151    1.773530
      8          1           0        0.435297   -1.748388   -0.424655
      9          1           0        1.478681   -1.388927    0.976043
     10          1           0        0.302369    1.802457   -0.627301
     11          1           0        2.006586    0.655260    0.012257
 ---------------------------------------------------------------------

 SCF Done:  E(RHF) =  -284.819279727     A.U. after    2 cycles

 The electronic state is 1-A.
 Alpha  occ. eigenvalues --  -21.09815 -15.76685 -11.50639 -11.46599 -11.44436
 Alpha  occ. eigenvalues --  -11.42311  -1.79081  -1.33039  -1.19821  -1.01221
 Alpha  occ. eigenvalues --   -0.87308  -0.75937  -0.69394  -0.65513  -0.61343
 Alpha  occ. eigenvalues --   -0.54225  -0.52663  -0.47935  -0.45134  -0.42915
 Alpha  occ. eigenvalues --   -0.37082  -0.31183
 Alpha virt. eigenvalues --    0.03032   0.04853   0.05818   0.05968   0.06365
 Alpha virt. eigenvalues --    0.08609   0.09395   0.09648   0.10081   0.12274
 Alpha virt. eigenvalues --    0.12490   0.13579   0.15031   0.15248   0.15532

 Mulliken charges:
               1
     1  N   -2.521972
     2  C    2.085817
     3  C   -1.991425
     4  C   -0.939347
     5  O   -2.417987
     6  C   -1.542727
     7  H    1.472389
     8  H    1.502466
     9  H    1.327599
    10  H    1.449383
    11  H    1.575804
 Sum of Mulliken charges =  -0.00000

 Dipole moment (field-independent basis, Debye):
    X=              2.8253    Y=             -1.6981    Z=              0.5388  Tot=              3.3401

 Test job not archived.
 1\1\GINC-SE226\SP\RHF\Aug-CC-pVDZ\C4H5N1O1\OHZDE\09-Apr-2025\0\\#t hf
 aug-cc-pvdz iop(5/13=1,5/36=2,99/5=2) pseudo=read geom=check guess=(re
 ad,tcheck) scf=(maxcycle=1)\\title\\0,1\N,0,1.85950972,-0.74114262,1.9
 9431137\C,0,1.2832593,-0.5789081,1.01516971\C,0,0.5554308,-0.35040591,
 -0.23248487\C,0,-0.96586492,-0.48970501,-0.07835771\O,0,-1.31620695,0.
 91524581,-0.09846934\C,0,0.41768153,1.10881762,-0.66471191\H,0,0.99156
 231,-0.98039389,-1.00947705\H,0,-1.2936208,-0.91347219,0.86713976\H,0,
 -1.43683167,-1.02034661,-0.90708797\H,0,0.83485718,1.81933411,0.049466

 Normal termination of Gaussian 16 at Wed Apr  9 17:42:34 2025.
