 Gaussian 16, Revision C.01,

 ----------------------------------------------------------------------
 #t hf aug-cc-pvdz symm=none int=(grid=ultrafine) guess=(read,tcheck) s
 table=(opt,rrhf)
 ----------------------------------------------------------------------
 -----
 title
 -----
 Symbolic Z-matrix:
 Charge =  0 Multiplicity = 1

 SCF Done:  E(RHF) =  -360.897546626     A.U. after   12 cycles
 Normal termination of Gaussian 16 at Wed Apr  9 03:58:41 2025.
 Gaussian 16:  ES64L-G16RevC.01  3-Jul-2019

 ----------------------------------------------------------------------
 #t hf aug-cc-pvdz iop(5/13=1,5/36=2,99/5=2) pseudo=read geom=check gue
 ss=(read,tcheck) scf=(maxcycle=1)
 ----------------------------------------------------------------------
 -----
 title
 -----
 Structure from the checkpoint file:  "Grambow2020_wb97xd3_008730_reverse_mol2.chk"
 Charge =  0 Multiplicity = 1

                         Standard orientation:
 ---------------------------------------------------------------------
 Center     Atomic      Atomic             Coordinates (Angstroms)
 Number     Number       Type             X           Y           Z
 ---------------------------------------------------------------------
      1          6           0        1.638077    1.033439   -0.347994
      2          6           0        0.730588   -0.084753    0.077109
      3          8           0        1.228124   -1.372950   -0.190395
      4          6           0       -0.039981    0.015064    1.367341
      5          6           0       -0.765955    0.086196    0.054741
      6          8           0       -1.299161    1.337325   -0.248072
      7          7           0       -1.554670   -0.982959   -0.459366
      8          1           0        2.591125    0.966320    0.179564
      9          1           0        1.183546    2.000519   -0.140088
     10          1           0        1.835926    0.985415   -1.423681
     11          1           0       -1.598762    1.286269   -1.160737
     12          1           0        1.493204   -1.403362   -1.113147
     13          1           0       -0.147421   -0.897782    1.939154
     14          1           0        0.068228    0.925244    1.943447
     15          1           0       -0.998562   -1.823266   -0.540436
     16          1           0       -2.352667   -1.173324    0.132037
 ---------------------------------------------------------------------

 SCF Done:  E(RHF) =  -362.540563865     A.U. after    2 cycles

 The electronic state is 1-A.
 Alpha  occ. eigenvalues --  -21.07979 -21.07026 -15.73717 -11.48877 -11.44532
 Alpha  occ. eigenvalues --  -11.39219 -11.36761  -1.75925  -1.71054  -1.33578
 Alpha  occ. eigenvalues --   -1.20788  -1.05149  -0.84999  -0.78442  -0.68367
 Alpha  occ. eigenvalues --   -0.67351  -0.62417  -0.59702  -0.58774  -0.55727
 Alpha  occ. eigenvalues --   -0.52053  -0.48322  -0.45969  -0.41390  -0.39299
 Alpha  occ. eigenvalues --   -0.36798  -0.34162  -0.26083
 Alpha virt. eigenvalues --    0.03708   0.05127   0.05206   0.05945   0.06096
 Alpha virt. eigenvalues --    0.06651   0.06659   0.07167   0.08041   0.11400
 Alpha virt. eigenvalues --    0.12450   0.13342   0.14027   0.14821   0.15610

 Mulliken charges:
               1
     1  C   -4.562299
     2  C    4.197850
     3  O   -3.597813
     4  C   -3.786993
     5  C    6.283240
     6  O   -3.606957
     7  N   -3.347934
     8  H    1.136338
     9  H    1.215559
    10  H    1.143001
    11  H    0.589419
    12  H    0.659470
    13  H    1.211811
    14  H    1.444789
    15  H    0.474819
    16  H    0.545699
 Sum of Mulliken charges =   0.00000

 Dipole moment (field-independent basis, Debye):
    X=              0.2366    Y=             -0.5181    Z=              0.0252  Tot=              0.5701

 Test job not archived.
 1\1\GINC-SE331\SP\RHF\Aug-CC-pVDZ\C4H9N1O2\OHZDE\09-Apr-2025\0\\#t hf
 aug-cc-pvdz iop(5/13=1,5/36=2,99/5=2) pseudo=read geom=check guess=(re
 ad,tcheck) scf=(maxcycle=1)\\title\\0,1\C,0,-1.64808971,-0.11162783,-1
 .03971891\C,0,-0.52408371,0.23374643,-0.10594708\O,0,-0.59861499,1.526
 74312,0.44282992\C,0,0.01436967,-0.80201885,0.84573341\C,0,0.85307977,
 -0.34117282,-0.31150598\O,0,1.04529674,-1.29639759,-1.30746082\N,0,1.9
 7104077,0.52982446,-0.16660106\H,0,-2.6028869,-0.06574302,-0.51304895\
 H,0,-1.51603217,-1.11097024,-1.45074472\H,0,-1.68433346,0.58937851,-1.

 Normal termination of Gaussian 16 at Wed Apr  9 03:58:46 2025.
