 Gaussian 16, Revision C.01,

 ----------------------------------------------------------------------
 #t hf aug-cc-pvdz symm=none int=(grid=ultrafine) guess=(read,tcheck) s
 table=(opt,rrhf)
 ----------------------------------------------------------------------
 -----
 title
 -----
 Symbolic Z-matrix:
 Charge =  0 Multiplicity = 1

 SCF Done:  E(RHF) =  -302.643641301     A.U. after   20 cycles
 Normal termination of Gaussian 16 at Wed Apr  9 04:05:58 2025.
 Gaussian 16:  ES64L-G16RevC.01  3-Jul-2019

 ----------------------------------------------------------------------
 #t hf aug-cc-pvdz iop(5/13=1,5/36=2,99/5=2) pseudo=read geom=check gue
 ss=(read,tcheck) scf=(maxcycle=1)
 ----------------------------------------------------------------------
 -----
 title
 -----
 Structure from the checkpoint file:  "Grambow2020_wb97xd3_009335_reverse_mol1.chk"
 Charge =  0 Multiplicity = 1

                         Standard orientation:
 ---------------------------------------------------------------------
 Center     Atomic      Atomic             Coordinates (Angstroms)
 Number     Number       Type             X           Y           Z
 ---------------------------------------------------------------------
      1          6           0        2.241361   -0.899304   -0.175734
      2          7           0        1.158273    0.074978    0.061065
      3          6           0       -0.017195   -0.408156    0.621656
      4          6           0       -1.301295    0.071466    0.036898
      5          6           0       -2.497620   -0.736159   -0.316244
      6          6           0       -0.884320    1.272975    0.170042
      7          7           0        1.225179    1.241763   -0.334042
      8          1           0        3.177479   -0.357271   -0.266033
      9          1           0        2.030762   -1.452781   -1.090385
     10          1           0        2.291628   -1.595016    0.662021
     11          1           0        0.028423   -1.076397    1.473017
     12          1           0       -2.810562   -1.340260    0.537725
     13          1           0       -2.256668   -1.421650   -1.132282
     14          1           0       -3.330163   -0.099954   -0.614413
     15          1           0       -1.060646    2.321213    0.321483
 ---------------------------------------------------------------------

 SCF Done:  E(RHF) =  -304.115869273     A.U. after    2 cycles

 The electronic state is 1-A.
 Alpha  occ. eigenvalues --  -15.81796 -15.70764 -11.45908 -11.44294 -11.40563
 Alpha  occ. eigenvalues --  -11.40297 -11.38290  -1.57143  -1.24967  -1.10587
 Alpha  occ. eigenvalues --   -1.05415  -0.96666  -0.79368  -0.74159  -0.67957
 Alpha  occ. eigenvalues --   -0.63441  -0.60328  -0.59385  -0.57849  -0.55680
 Alpha  occ. eigenvalues --   -0.51793  -0.48829  -0.45182  -0.37664  -0.32127
 Alpha  occ. eigenvalues --   -0.21500
 Alpha virt. eigenvalues --    0.03215   0.04690   0.05488   0.05719   0.05982
 Alpha virt. eigenvalues --    0.06513   0.07278   0.07671   0.09462   0.10795
 Alpha virt. eigenvalues --    0.11130   0.12141   0.12966   0.13445   0.14137

 Mulliken charges:
               1
     1  C   -3.307188
     2  N   -0.831318
     3  C   -0.212047
     4  C    3.582671
     5  C   -4.827221
     6  C   -2.656171
     7  N   -1.553307
     8  H    1.358400
     9  H    1.379422
    10  H    1.397824
    11  H    1.205838
    12  H    1.175087
    13  H    1.226820
    14  H    1.172048
    15  H    0.889142
 Sum of Mulliken charges =   0.00000

 Dipole moment (field-independent basis, Debye):
    X=             -1.2995    Y=             -1.6962    Z=              0.7086  Tot=              2.2512

 Test job not archived.
 1\1\GINC-SE082\SP\RHF\Aug-CC-pVDZ\C5H8N2\OHZDE\09-Apr-2025\0\\#t hf au
 g-cc-pvdz iop(5/13=1,5/36=2,99/5=2) pseudo=read geom=check guess=(read
 ,tcheck) scf=(maxcycle=1)\\title\\0,1\C,0,-2.39371094,-0.51978959,-0.1
 875646\N,0,-1.26840223,0.4314648,-0.10286978\C,0,-0.05450742,0.0266674
 8,-0.64324374\C,0,1.17521002,0.30906344,0.14981361\C,0,2.3092154,-0.61
 014428,0.42775285\C,0,0.80376538,1.52899963,0.24469058\N,0,-1.3460793,
 1.48748658,0.5301847\H,0,-3.32044563,0.03274833,-0.06866849\H,0,-2.290
 65896,-1.26652659,0.5992248\H,0,-2.37604219,-1.01550241,-1.15830306\H,

 Normal termination of Gaussian 16 at Wed Apr  9 04:06:03 2025.
