 Gaussian 16, Revision C.01,

 ----------------------------------------------------------------------
 #t hf aug-cc-pvdz symm=none int=(grid=ultrafine) guess=(read,tcheck) s
 table=(opt,rrhf)
 ----------------------------------------------------------------------
 -----
 title
 -----
 Symbolic Z-matrix:
 Charge =  0 Multiplicity = 1

 SCF Done:  E(RHF) =  -380.626191571     A.U. after   15 cycles
 Normal termination of Gaussian 16 at Wed Apr  9 03:40:52 2025.
 Gaussian 16:  ES64L-G16RevC.01  3-Jul-2019

 ----------------------------------------------------------------------
 #t hf aug-cc-pvdz iop(5/13=1,5/36=2,99/5=2) pseudo=read geom=check gue
 ss=(read,tcheck) scf=(maxcycle=1)
 ----------------------------------------------------------------------
 -----
 title
 -----
 Structure from the checkpoint file:  "Grambow2020_wb97xd3_007512_forward_mol1.chk"
 Charge =  0 Multiplicity = 1

                         Standard orientation:
 ---------------------------------------------------------------------
 Center     Atomic      Atomic             Coordinates (Angstroms)
 Number     Number       Type             X           Y           Z
 ---------------------------------------------------------------------
      1          8           0        2.135330   -0.410773   -1.029916
      2          6           0        2.060399    0.234661    0.227720
      3          6           0        0.862590   -0.326730    0.967064
      4          6           0       -0.438748    0.100152    0.338277
      5          8           0       -0.651900    1.284114    0.030568
      6          6           0       -1.438295   -0.867029    0.074417
      7          8           0       -2.687804   -0.054637   -0.404363
      8          1           0        2.696078    0.103166   -1.611173
      9          1           0        1.930865    1.315268    0.111340
     10          1           0        2.969948    0.052424    0.813043
     11          1           0        0.865352    0.050961    1.993993
     12          1           0        0.926575   -1.416294    1.007633
     13          1           0       -2.069059   -0.685039   -1.091600
     14          1           0       -1.729249   -1.660929    0.745071
     15          1           0       -2.231192    0.844480   -0.383479
 ---------------------------------------------------------------------

 SCF Done:  E(RHF) =  -382.320023169     A.U. after    2 cycles

 The electronic state is 1-A.
 Alpha  occ. eigenvalues --  -21.12837 -21.07130 -21.03253 -11.49936 -11.44464
 Alpha  occ. eigenvalues --  -11.41506 -11.38608  -1.80450  -1.71695  -1.67666
 Alpha  occ. eigenvalues --   -1.17480  -1.02980  -0.89786  -0.76529  -0.71923
 Alpha  occ. eigenvalues --   -0.68522  -0.66383  -0.60595  -0.57498  -0.51978
 Alpha  occ. eigenvalues --   -0.51920  -0.45938  -0.44996  -0.41923  -0.41032
 Alpha  occ. eigenvalues --   -0.32448  -0.29819  -0.26995
 Alpha virt. eigenvalues --    0.03831   0.04994   0.05501   0.05762   0.06195
 Alpha virt. eigenvalues --    0.06452   0.07096   0.07661   0.10796   0.11504
 Alpha virt. eigenvalues --    0.12816   0.13302   0.13782   0.14283   0.15507

 Mulliken charges:
               1
     1  O   -2.588061
     2  C   -1.106800
     3  C   -2.981161
     4  C    4.830029
     5  O   -3.612006
     6  C   -2.121509
     7  O   -2.516263
     8  H    0.770777
     9  H    1.455702
    10  H    1.247307
    11  H    1.333604
    12  H    1.675545
    13  H    1.227284
    14  H    1.356440
    15  H    1.029111
 Sum of Mulliken charges =  -0.00000

 Dipole moment (field-independent basis, Debye):
    X=             -0.5071    Y=              0.3477    Z=              0.2624  Tot=              0.6685

 Test job not archived.
 1\1\GINC-SE174\SP\RHF\Aug-CC-pVDZ\C4H8O3\OHZDE\09-Apr-2025\0\\#t hf au
 g-cc-pvdz iop(5/13=1,5/36=2,99/5=2) pseudo=read geom=check guess=(read
 ,tcheck) scf=(maxcycle=1)\\title\\0,1\O,0,-1.5497951,1.61917887,0.0370
 0766\C,0,-1.67958912,0.30689476,-0.4776857\C,0,-0.88593877,-0.62347639
 ,0.41733601\C,0,0.59878776,-0.4007515,0.2867024\O,0,1.14620736,-0.3185
 4238,-0.82480941\C,0,1.39068811,-0.26472987,1.45227009\O,0,2.87182743,
 -0.22518209,0.94715111\H,0,-1.80110143,2.2463291,-0.64119502\H,0,-1.28
 574397,0.24028003,-1.4967467\H,0,-2.73129767,-0.0043821,-0.48809751\H,

 Normal termination of Gaussian 16 at Wed Apr  9 03:40:57 2025.
