 Gaussian 16, Revision C.01,

 ----------------------------------------------------------------------
 #t hf aug-cc-pvdz symm=none int=(grid=ultrafine) guess=(read,tcheck) s
 table=(opt,rrhf)
 ----------------------------------------------------------------------
 -----
 title
 -----
 Symbolic Z-matrix:
 Charge =  0 Multiplicity = 1

 SCF Done:  E(RHF) =  -342.585056572     A.U. after   14 cycles
 Normal termination of Gaussian 16 at Wed Apr  9 19:15:51 2025.
 Gaussian 16:  ES64L-G16RevC.01  3-Jul-2019

 ----------------------------------------------------------------------
 #t hf aug-cc-pvdz iop(5/13=1,5/36=2,99/5=2) pseudo=read geom=check gue
 ss=(read,tcheck) scf=(maxcycle=1)
 ----------------------------------------------------------------------
 -----
 title
 -----
 Structure from the checkpoint file:  "Grambow2020_wb97xd3_008521_reverse_mol2.chk"
 Charge =  0 Multiplicity = 1

                         Standard orientation:
 ---------------------------------------------------------------------
 Center     Atomic      Atomic             Coordinates (Angstroms)
 Number     Number       Type             X           Y           Z
 ---------------------------------------------------------------------
      1          8           0        0.348996    1.994957    0.000325
      2          6           0       -0.065558    0.860999   -0.000356
      3          6           0       -1.532633    0.449316   -0.000109
      4          8           0       -1.532428   -0.978108    0.000758
      5          6           0       -0.244893   -1.368134   -0.000367
      6          6           0        2.164528   -0.503093    0.000103
      7          6           0        0.679675   -0.397458   -0.000640
      8          1           0       -2.046504    0.808110   -0.892596
      9          1           0       -2.049374    0.810073    0.889842
     10          1           0       -0.105787   -2.441917   -0.000430
     11          1           0        2.586807   -0.006237   -0.875291
     12          1           0        2.491495   -1.543266   -0.001685
     13          1           0        2.584100   -0.011335    0.879710
 ---------------------------------------------------------------------

 SCF Done:  E(RHF) =  -344.106130575     A.U. after    2 cycles

 The electronic state is 1-A.
 Alpha  occ. eigenvalues --  -21.10058 -21.04605 -11.51043 -11.48882 -11.43616
 Alpha  occ. eigenvalues --  -11.41057 -11.38524  -1.83968  -1.69581  -1.22163
 Alpha  occ. eigenvalues --   -1.08257  -1.01957  -0.85296  -0.73870  -0.67384
 Alpha  occ. eigenvalues --   -0.67371  -0.58259  -0.58142  -0.54702  -0.52148
 Alpha  occ. eigenvalues --   -0.48870  -0.47754  -0.44930  -0.44391  -0.27501
 Alpha  occ. eigenvalues --   -0.27154
 Alpha virt. eigenvalues --    0.02998   0.05018   0.05509   0.05606   0.06619
 Alpha virt. eigenvalues --    0.07444   0.08726   0.09679   0.10617   0.11678
 Alpha virt. eigenvalues --    0.12792   0.13427   0.14142   0.14158   0.14535

 Mulliken charges:
               1
     1  O   -3.738635
     2  C    3.461514
     3  C   -1.953083
     4  O   -3.412434
     5  C    0.131612
     6  C   -4.649109
     7  C    2.476543
     8  H    1.316336
     9  H    1.317640
    10  H    1.446971
    11  H    1.184437
    12  H    1.234930
    13  H    1.183276
 Sum of Mulliken charges =  -0.00000

 Dipole moment (field-independent basis, Debye):
    X=             -0.6357    Y=             -1.9641    Z=              0.0013  Tot=              2.0644

 Test job not archived.
 1\1\GINC-SE362\SP\RHF\Aug-CC-pVDZ\C5H6O2\OHZDE\09-Apr-2025\0\\#t hf au
 g-cc-pvdz iop(5/13=1,5/36=2,99/5=2) pseudo=read geom=check guess=(read
 ,tcheck) scf=(maxcycle=1)\\title\\0,1\O,0,1.02298932,1.32659774,1.3743
 3656\C,0,0.79416474,0.53429125,0.49251642\C,0,1.83183935,-0.10224323,-
 0.42391523\O,0,1.09918693,-0.95980907,-1.2987538\C,0,-0.19688871,-0.85
 361129,-0.95411175\C,0,-1.80425608,0.30604291,0.66612768\C,0,-0.485913
 05,-0.02490439,0.059174\H,0,2.55127685,-0.69551591,0.1415635\H,0,2.359
 23182,0.64836373,-1.0135125\H,0,-0.86623985,-1.46239548,-1.54884846\H,

 Normal termination of Gaussian 16 at Wed Apr  9 19:15:55 2025.
