 Gaussian 16, Revision C.01,

 ----------------------------------------------------------------------
 #t hf aug-cc-pvdz symm=none int=(grid=ultrafine) guess=(read,tcheck) s
 table=(opt,rrhf)
 ----------------------------------------------------------------------
 -----
 title
 -----
 Symbolic Z-matrix:
 Charge =  0 Multiplicity = 1

 SCF Done:  E(RHF) =  -325.008389595     A.U. after   14 cycles
 Normal termination of Gaussian 16 at Wed Apr  9 19:07:13 2025.
 Gaussian 16:  ES64L-G16RevC.01  3-Jul-2019

 ----------------------------------------------------------------------
 #t hf aug-cc-pvdz iop(5/13=1,5/36=2,99/5=2) pseudo=read geom=check gue
 ss=(read,tcheck) scf=(maxcycle=1)
 ----------------------------------------------------------------------
 -----
 title
 -----
 Structure from the checkpoint file:  "Grambow2020_wb97xd3_008098_reverse_mol2.chk"
 Charge =  0 Multiplicity = 1

                         Standard orientation:
 ---------------------------------------------------------------------
 Center     Atomic      Atomic             Coordinates (Angstroms)
 Number     Number       Type             X           Y           Z
 ---------------------------------------------------------------------
      1          6           0        2.740244   -0.217621   -0.034073
      2          6           0        1.432712    0.470806   -0.378748
      3          7           0        0.335844   -0.481819   -0.282654
      4          6           0       -1.332259    1.447091    0.091750
      5          6           0       -0.972873   -0.016160    0.032460
      6          8           0       -0.198791   -0.527648    1.085295
      7          6           0       -2.082247   -0.918574   -0.438964
      8          1           0        3.579452    0.468789   -0.158760
      9          1           0        2.897985   -1.084889   -0.675982
     10          1           0        2.727230   -0.557884    1.002374
     11          1           0        1.438884    0.807957   -1.420317
     12          1           0        1.288674    1.344120    0.261995
     13          1           0       -1.482417    1.840670   -0.916101
     14          1           0       -2.270329    1.562952    0.636879
     15          1           0       -0.576076    2.040594    0.597852
     16          1           0       -1.722148   -1.944246   -0.485221
     17          1           0       -2.426811   -0.614297   -1.429645
     18          1           0       -2.928488   -0.863107    0.248598
 ---------------------------------------------------------------------

 SCF Done:  E(RHF) =  -326.551543682     A.U. after    2 cycles

 The electronic state is 1-A.
 Alpha  occ. eigenvalues --  -21.06087 -15.75671 -11.47709 -11.42201 -11.40190
 Alpha  occ. eigenvalues --  -11.36737 -11.35698  -1.84617  -1.25877  -1.17418
 Alpha  occ. eigenvalues --   -1.05484  -1.02872  -0.87974  -0.79098  -0.66532
 Alpha  occ. eigenvalues --   -0.65222  -0.61437  -0.60635  -0.55973  -0.55025
 Alpha  occ. eigenvalues --   -0.51736  -0.51087  -0.50573  -0.48473  -0.42894
 Alpha  occ. eigenvalues --   -0.38202  -0.36190  -0.28451
 Alpha virt. eigenvalues --    0.03859   0.05065   0.05397   0.05527   0.05835
 Alpha virt. eigenvalues --    0.06094   0.06462   0.07002   0.07686   0.08552
 Alpha virt. eigenvalues --    0.09501   0.10985   0.11801   0.13268   0.14272

 Mulliken charges:
               1
     1  C   -3.526932
     2  C   -3.217986
     3  N   -2.538341
     4  C   -4.010327
     5  C    5.592649
     6  O   -3.145108
     7  C   -3.964533
     8  H    1.094091
     9  H    1.300848
    10  H    1.310348
    11  H    1.651471
    12  H    1.929203
    13  H    1.238990
    14  H    1.187337
    15  H    1.324850
    16  H    1.354591
    17  H    1.241168
    18  H    1.177682
 Sum of Mulliken charges =  -0.00000

 Dipole moment (field-independent basis, Debye):
    X=             -0.4025    Y=              1.1684    Z=             -0.0265  Tot=              1.2361

 Test job not archived.
 1\1\GINC-SE045\SP\RHF\Aug-CC-pVDZ\C5H11N1O1\OHZDE\09-Apr-2025\0\\#t hf
  aug-cc-pvdz iop(5/13=1,5/36=2,99/5=2) pseudo=read geom=check guess=(r
 ead,tcheck) scf=(maxcycle=1)\\title\\0,1\C,0,-2.51894302,-0.06468331,-
 1.0810684\C,0,-1.44337801,-0.24555369,-0.02616701\N,0,-0.13300329,-0.2
 7190773,-0.66025926\C,0,0.97109446,0.47427153,1.54601004\C,0,1.0099151
 7,0.16047041,0.07162874\O,0,0.41014022,1.08676165,-0.79528536\C,0,2.31
 27133,-0.41640995,-0.41543247\H,0,-3.51088123,-0.10199628,-0.62759028\
 H,0,-2.44946057,-0.84677152,-1.83776679\H,0,-2.40493682,0.90064249,-1.

 Normal termination of Gaussian 16 at Wed Apr  9 19:07:19 2025.
