 Gaussian 16, Revision C.01,

 ----------------------------------------------------------------------
 #t hf aug-cc-pvdz symm=none int=(grid=ultrafine) guess=(read,tcheck) s
 table=(opt,rrhf)
 ----------------------------------------------------------------------
 -----
 title
 -----
 Symbolic Z-matrix:
 Charge =  0 Multiplicity = 1

 SCF Done:  E(RHF) =  -283.546192406     A.U. after   15 cycles
 Normal termination of Gaussian 16 at Wed Apr  9 03:09:24 2025.
 Gaussian 16:  ES64L-G16RevC.01  3-Jul-2019

 ----------------------------------------------------------------------
 #t hf aug-cc-pvdz iop(5/13=1,5/36=2,99/5=2) pseudo=read geom=check gue
 ss=(read,tcheck) scf=(maxcycle=1)
 ----------------------------------------------------------------------
 -----
 title
 -----
 Structure from the checkpoint file:  "Grambow2020_b97d3_006661_reverse_mol1.chk"
 Charge =  0 Multiplicity = 1

                         Standard orientation:
 ---------------------------------------------------------------------
 Center     Atomic      Atomic             Coordinates (Angstroms)
 Number     Number       Type             X           Y           Z
 ---------------------------------------------------------------------
      1          7           0       -2.734716    0.514910   -0.048961
      2          6           0       -1.748543   -0.105562    0.058584
      3          6           0       -0.483302   -0.838830    0.174129
      4          6           0        0.550398   -0.085935   -0.663029
      5          6           0        1.334157    0.905874    0.127879
      6          8           0        2.167142   -0.296841    0.153429
      7          1           0       -0.628125   -1.862060   -0.200961
      8          1           0       -0.206777   -0.898630    1.242268
      9          1           0        1.907052   -0.612583   -0.875121
     10          1           0        1.789485    1.756097   -0.390467
     11          1           0        1.027981    1.134251    1.154197
 ---------------------------------------------------------------------

 SCF Done:  E(RHF) =  -284.838229889     A.U. after    2 cycles

 The electronic state is 1-A.
 Alpha  occ. eigenvalues --  -21.11743 -15.77614 -11.50510 -11.47604 -11.44984
 Alpha  occ. eigenvalues --  -11.42868  -1.78136  -1.32679  -1.18224  -1.01779
 Alpha  occ. eigenvalues --   -0.86619  -0.72026  -0.69850  -0.65095  -0.59091
 Alpha  occ. eigenvalues --   -0.57217  -0.52326  -0.45144  -0.44410  -0.43356
 Alpha  occ. eigenvalues --   -0.38154  -0.34524
 Alpha virt. eigenvalues --    0.03459   0.05299   0.05547   0.05773   0.06014
 Alpha virt. eigenvalues --    0.08467   0.09601   0.10428   0.11773   0.12350
 Alpha virt. eigenvalues --    0.13241   0.13905   0.14604   0.14736   0.15250

 Mulliken charges:
               1
     1  N   -2.364312
     2  C    2.272003
     3  C   -2.968972
     4  C   -0.745890
     5  C   -1.356668
     6  O   -2.015159
     7  H    1.455703
     8  H    1.564393
     9  H    1.249195
    10  H    1.443912
    11  H    1.465796
 Sum of Mulliken charges =  -0.00000

 Dipole moment (field-independent basis, Debye):
    X=              3.9665    Y=             -1.1894    Z=              1.8854  Tot=              4.5500

 Test job not archived.
 1\1\GINC-SE123\SP\RHF\Aug-CC-pVDZ\C4H5N1O1\OHZDE\09-Apr-2025\0\\#t hf
 aug-cc-pvdz iop(5/13=1,5/36=2,99/5=2) pseudo=read geom=check guess=(re
 ad,tcheck) scf=(maxcycle=1)\\title\\0,1\N,0,2.95025694,0.66178046,-0.2
 1425264\C,0,1.98958014,-0.00344937,-0.15375833\C,0,0.75571045,-0.79159
 522,-0.06289385\C,0,-0.24811379,0.03616134,0.73921288\C,0,-1.13457872,
 0.87362616,-0.11888516\O,0,-1.90881267,-0.3498322,0.09265867\H,0,0.976
 51125,-1.7437431,0.44042224\H,0,0.40424333,-1.01549101,-1.08627379\H,0
 ,-1.558714,-0.50360145,1.13142702\H,0,-1.59045558,1.77266512,0.3086532

 Normal termination of Gaussian 16 at Wed Apr  9 03:09:27 2025.
