 Gaussian 16, Revision C.01,

 ----------------------------------------------------------------------
 #t hf aug-cc-pvdz symm=none int=(grid=ultrafine) guess=(read,tcheck) s
 table=(opt,rrhf)
 ----------------------------------------------------------------------
 -----
 title
 -----
 Symbolic Z-matrix:
 Charge =  0 Multiplicity = 1

 SCF Done:  E(RHF) =  -304.554131767     A.U. after   16 cycles
 Normal termination of Gaussian 16 at Wed Apr  9 03:14:21 2025.
 Gaussian 16:  ES64L-G16RevC.01  3-Jul-2019

 ----------------------------------------------------------------------
 #t hf aug-cc-pvdz iop(5/13=1,5/36=2,99/5=2) pseudo=read geom=check gue
 ss=(read,tcheck) scf=(maxcycle=1)
 ----------------------------------------------------------------------
 -----
 title
 -----
 Structure from the checkpoint file:  "Grambow2020_b97d3_006923_reverse_mol1.chk"
 Charge =  0 Multiplicity = 1

                         Standard orientation:
 ---------------------------------------------------------------------
 Center     Atomic      Atomic             Coordinates (Angstroms)
 Number     Number       Type             X           Y           Z
 ---------------------------------------------------------------------
      1          8           0        1.938406    0.230444    0.378101
      2          6           0        0.922970    0.130503   -0.507258
      3          6           0       -0.828549    1.378912   -0.315667
      4          6           0       -1.271449    0.360241    0.482524
      5          8           0       -1.222907   -0.941554    0.003608
      6          6           0        0.179129   -1.193631   -0.184428
      7          1           0        2.471000    1.007526    0.110414
      8          1           0       -0.687111    2.366721    0.128945
      9          1           0       -0.932340    1.352713   -1.394117
     10          1           0       -1.469237    0.464525    1.552956
     11          1           0        0.314429   -1.883983   -1.032155
     12          1           0        0.566654   -1.674772    0.729255
 ---------------------------------------------------------------------

 SCF Done:  E(RHF) =  -305.916365618     A.U. after    2 cycles

 The electronic state is 1-A.
 Alpha  occ. eigenvalues --  -21.12461 -21.06528 -11.46172 -11.44270 -11.39928
 Alpha  occ. eigenvalues --  -11.39166  -1.79201  -1.74503  -1.11765  -1.04645
 Alpha  occ. eigenvalues --   -0.82894  -0.78054  -0.66818  -0.63467  -0.61093
 Alpha  occ. eigenvalues --   -0.58524  -0.54030  -0.51025  -0.45637  -0.41592
 Alpha  occ. eigenvalues --   -0.38771  -0.31203  -0.26108
 Alpha virt. eigenvalues --    0.03771   0.05249   0.05427   0.05560   0.06516
 Alpha virt. eigenvalues --    0.07138   0.08207   0.10450   0.11663   0.12577
 Alpha virt. eigenvalues --    0.12946   0.14034   0.14201   0.14994   0.15586

 Mulliken charges:
               1
     1  O   -2.666351
     2  C    1.172734
     3  C   -2.767488
     4  C    0.400819
     5  O   -3.114766
     6  C   -0.999701
     7  H    0.875799
     8  H    1.360169
     9  H    1.391645
    10  H    1.472585
    11  H    1.452588
    12  H    1.421968
 Sum of Mulliken charges =   0.00000

 Dipole moment (field-independent basis, Debye):
    X=              1.2765    Y=              0.5230    Z=              1.1333  Tot=              1.7853

 Test job not archived.
 1\1\GINC-SE159\SP\RHF\Aug-CC-pVDZ\C4H6O2\OHZDE\09-Apr-2025\0\\#t hf au
 g-cc-pvdz iop(5/13=1,5/36=2,99/5=2) pseudo=read geom=check guess=(read
 ,tcheck) scf=(maxcycle=1)\\title\\0,1\O,0,0.55016453,-1.55301919,-1.08
 869204\C,0,0.34587885,-0.97666034,0.11589844\C,0,-1.43972267,0.1777209
 ,0.49283337\C,0,-0.68628614,1.20713379,-0.00072665\O,0,0.57826991,1.43
 016527,0.52609782\C,0,1.30982692,0.2378061,0.19790901\H,0,0.02230839,-
 2.37788579,-1.1002234\H,0,-2.34254724,-0.1145913,-0.04838091\H,0,-1.38
 667436,-0.12902335,1.53091236\H,0,-0.91615084,1.74399809,-0.92525861\H

 Normal termination of Gaussian 16 at Wed Apr  9 03:14:25 2025.
