 Gaussian 16, Revision C.01,

 ----------------------------------------------------------------------
 #t hf aug-cc-pvdz symm=none int=(grid=ultrafine) guess=(read,tcheck) s
 table=(opt,rrhf)
 ----------------------------------------------------------------------
 -----
 title
 -----
 Symbolic Z-matrix:
 Charge =  0 Multiplicity = 1

 SCF Done:  E(RHF) =  -375.771518684     A.U. after   13 cycles
 Normal termination of Gaussian 16 at Wed Apr  9 18:56:41 2025.
 Gaussian 16:  ES64L-G16RevC.01  3-Jul-2019

 ----------------------------------------------------------------------
 #t hf aug-cc-pvdz iop(5/13=1,5/36=2,99/5=2) pseudo=read geom=check gue
 ss=(read,tcheck) scf=(maxcycle=1)
 ----------------------------------------------------------------------
 -----
 title
 -----
 Structure from the checkpoint file:  "Grambow2020_wb97xd3_007865_reverse_mol2.chk"
 Charge =  0 Multiplicity = 1

                         Standard orientation:
 ---------------------------------------------------------------------
 Center     Atomic      Atomic             Coordinates (Angstroms)
 Number     Number       Type             X           Y           Z
 ---------------------------------------------------------------------
      1          7           0       -2.242182   -0.531525   -0.266951
      2          6           0       -1.076183   -0.113496    0.406859
      3          8           0        0.087475   -0.939638    0.145550
      4          6           0       -0.580531    1.253759   -0.046695
      5          8           0        0.830230    1.147552   -0.008207
      6          6           0        1.179430   -0.156499   -0.013721
      7          7           0        2.366662   -0.527253   -0.150483
      8          1           0       -2.112777   -0.585528   -1.267878
      9          1           0       -2.600234   -1.409093    0.078220
     10          1           0       -0.897734    2.061334    0.609841
     11          1           0       -0.911984    1.467319   -1.068069
     12          1           0       -1.256411   -0.151963    1.483401
     13          1           0        2.429835   -1.536522   -0.090883
 ---------------------------------------------------------------------

 SCF Done:  E(RHF) =  -377.412893732     A.U. after    2 cycles

 The electronic state is 1-A.
 Alpha  occ. eigenvalues --  -21.09548 -21.09319 -15.76887 -15.71203 -11.51731
 Alpha  occ. eigenvalues --  -11.50241 -11.43207  -1.92355  -1.71838  -1.37809
 Alpha  occ. eigenvalues --   -1.29337  -1.07818  -0.90244  -0.81051  -0.74840
 Alpha  occ. eigenvalues --   -0.70355  -0.66090  -0.63262  -0.57883  -0.56400
 Alpha  occ. eigenvalues --   -0.54702  -0.47656  -0.42679  -0.39188  -0.36635
 Alpha  occ. eigenvalues --   -0.33967  -0.31251
 Alpha virt. eigenvalues --    0.03400   0.04632   0.04845   0.05486   0.06328
 Alpha virt. eigenvalues --    0.06630   0.09753   0.11305   0.11650   0.12609
 Alpha virt. eigenvalues --    0.13118   0.14110   0.14536   0.15286   0.15574

 Mulliken charges:
               1
     1  N   -2.715847
     2  C    1.483046
     3  O   -3.067561
     4  C   -1.356448
     5  O   -3.010981
     6  C    6.107550
     7  N   -3.327925
     8  H    0.460528
     9  H    0.554373
    10  H    1.382750
    11  H    1.394086
    12  H    1.599334
    13  H    0.497094
 Sum of Mulliken charges =  -0.00000

 Dipole moment (field-independent basis, Debye):
    X=             -3.9136    Y=             -0.6940    Z=              0.2381  Tot=              3.9817

 Test job not archived.
 1\1\GINC-SE118\SP\RHF\Aug-CC-pVDZ\C3H6N2O2\OHZDE\09-Apr-2025\0\\#t hf
 aug-cc-pvdz iop(5/13=1,5/36=2,99/5=2) pseudo=read geom=check guess=(re
 ad,tcheck) scf=(maxcycle=1)\\title\\0,1\N,0,-2.04353457,0.06485064,-0.
 26800215\C,0,-0.70268631,-0.31586978,-0.48130605\O,0,0.22132099,0.7984
 4508,-0.5782998\C,0,-0.10934362,-1.09607979,0.68487876\O,0,1.2367177,-
 0.66369097,0.74940997\C,0,1.35992051,0.5098228,0.09351011\N,0,2.408605
 82,1.19092265,0.13873347\H,0,-2.15652347,0.6400975,0.55530804\H,0,-2.4
 5035442,0.52848994,-1.06612919\H,0,-0.13346209,-2.1732222,0.53316714\H

 Normal termination of Gaussian 16 at Wed Apr  9 18:56:45 2025.
