 Gaussian 16, Revision C.01,

 ----------------------------------------------------------------------
 #t hf aug-cc-pvdz symm=none int=(grid=ultrafine) guess=(read,tcheck) s
 table=(opt,rrhf)
 ----------------------------------------------------------------------
 -----
 title
 -----
 Symbolic Z-matrix:
 Charge =  0 Multiplicity = 1

 SCF Done:  E(RHF) =  -343.611546365     A.U. after   16 cycles
 Normal termination of Gaussian 16 at Wed Apr  9 19:08:01 2025.
 Gaussian 16:  ES64L-G16RevC.01  3-Jul-2019

 ----------------------------------------------------------------------
 #t hf aug-cc-pvdz iop(5/13=1,5/36=2,99/5=2) pseudo=read geom=check gue
 ss=(read,tcheck) scf=(maxcycle=1)
 ----------------------------------------------------------------------
 -----
 title
 -----
 Structure from the checkpoint file:  "Grambow2020_wb97xd3_008127_reverse_mol2.chk"
 Charge =  0 Multiplicity = 1

                         Standard orientation:
 ---------------------------------------------------------------------
 Center     Atomic      Atomic             Coordinates (Angstroms)
 Number     Number       Type             X           Y           Z
 ---------------------------------------------------------------------
      1          6           0        0.209998   -1.050811    0.709271
      2          8           0       -0.804002   -1.192825   -0.311568
      3          6           0       -1.640645   -0.162158   -0.342520
      4          6           0        2.026014    0.007600   -0.669977
      5          6           0        1.012962    0.222861    0.459225
      6          6           0        0.044976    1.338060    0.212766
      7          8           0       -1.232829    1.011049   -0.071747
      8          1           0        0.813664   -1.952184    0.631619
      9          1           0       -0.281504   -1.027947    1.685022
     10          1           0       -2.650832   -0.298443   -0.689126
     11          1           0        2.550321    0.936509   -0.895649
     12          1           0        2.766149   -0.750936   -0.395990
     13          1           0        1.570825    0.441175    1.379067
     14          1           0        0.088702    2.289176    0.719252
     15          1           0        1.517495   -0.316452   -1.580271
 ---------------------------------------------------------------------

 SCF Done:  E(RHF) =  -345.203639809     A.U. after    2 cycles

 The electronic state is 1-A.
 Alpha  occ. eigenvalues --  -21.17680 -21.10450 -11.48786 -11.46213 -11.41321
 Alpha  occ. eigenvalues --  -11.36838 -11.34479  -1.92432  -1.75921  -1.22740
 Alpha  occ. eigenvalues --   -1.02461  -0.96078  -0.90241  -0.77235  -0.70696
 Alpha  occ. eigenvalues --   -0.66047  -0.63429  -0.59945  -0.57932  -0.54019
 Alpha  occ. eigenvalues --   -0.52635  -0.49899  -0.49611  -0.42807  -0.38743
 Alpha  occ. eigenvalues --   -0.35034  -0.22811
 Alpha virt. eigenvalues --    0.03520   0.05009   0.05334   0.05833   0.05907
 Alpha virt. eigenvalues --    0.06207   0.06922   0.07731   0.09931   0.10927
 Alpha virt. eigenvalues --    0.12593   0.12876   0.13453   0.14282   0.14713

 Mulliken charges:
               1
     1  C   -1.800101
     2  O   -3.130780
     3  C    2.335838
     4  C   -3.496584
     5  C   -2.371671
     6  C    0.211392
     7  O   -3.602097
     8  H    1.474288
     9  H    1.445409
    10  H    1.904345
    11  H    1.320678
    12  H    1.255481
    13  H    1.600531
    14  H    1.497144
    15  H    1.356125
 Sum of Mulliken charges =  -0.00000

 Dipole moment (field-independent basis, Debye):
    X=             -0.6121    Y=             -1.0763    Z=              0.8231  Tot=              1.4868

 Test job not archived.
 1\1\GINC-SE207\SP\RHF\Aug-CC-pVDZ\C5H8O2\OHZDE\09-Apr-2025\0\\#t hf au
 g-cc-pvdz iop(5/13=1,5/36=2,99/5=2) pseudo=read geom=check guess=(read
 ,tcheck) scf=(maxcycle=1)\\title\\0,1\C,0,-1.12610485,0.44884391,-0.08
 878443\O,0,-0.500899,1.06802877,-1.23604391\C,0,0.56829588,1.78329327,
 -0.90676869\C,0,0.02750443,-1.78388921,-0.15631367\C,0,-0.12290709,-0.
 46527742,0.60942074\C,0,1.15481191,0.29616091,0.77987066\O,0,1.3186776
 8,1.42137557,0.05343476\H,0,-1.97933313,-0.09146924,-0.49249207\H,0,-1
 .48089556,1.23699676,0.57989033\H,0,0.86068872,2.62479234,-1.51139592\

 Normal termination of Gaussian 16 at Wed Apr  9 19:08:06 2025.
