 Gaussian 16, Revision C.01,

 ----------------------------------------------------------------------
 #t hf aug-cc-pvdz symm=none int=(grid=ultrafine) guess=(read,tcheck) s
 table=(opt,rrhf)
 ----------------------------------------------------------------------
 -----
 title
 -----
 Symbolic Z-matrix:
 Charge =  0 Multiplicity = 1

 SCF Done:  E(RHF) =  -309.102830250     A.U. after   14 cycles

 1\1\GINC-SE340\Stability\RHF\Aug-CC-pVDZ\C6H12O1\OHZDE\09-Apr-2025\0\\
 #t hf aug-cc-pvdz symm=none int=(grid=ultrafine) guess=(read,tcheck) s
 table=(opt,rrhf)\\title\\0,1\C,0,2.24794113,-0.90823863,-1.21489668\C,
 0,0.69655328,0.17730754,0.50547051\O,0,0.77468259,0.55977618,1.6472207
 8\C,0,1.84856123,0.35908792,-0.46208474\C,0,-2.32428887,1.15115511,0.7
 2143647\C,0,-1.79485111,-0.27372187,0.82470201\C,0,-0.55143427,-0.5081
 4898,-0.02132145\H,0,2.52625662,-1.70506824,-0.5223495\H,0,3.10628126,
 -0.71225234,-1.85822559\H,0,1.44057933,-1.27848295,-1.84860956\H,0,-1.

 Normal termination of Gaussian 16 at Wed Apr  9 19:21:16 2025.
 Gaussian 16:  ES64L-G16RevC.01  3-Jul-2019

 ----------------------------------------------------------------------
 #t hf aug-cc-pvdz iop(5/13=1,5/36=2,99/5=2) pseudo=read geom=check gue
 ss=(read,tcheck) scf=(maxcycle=1)
 ----------------------------------------------------------------------
 -----
 title
 -----
 Structure from the checkpoint file:  "Grambow2020_wb97xd3_008679_reverse_mol2.chk"
 Charge =  0 Multiplicity = 1

                         Standard orientation:
 ---------------------------------------------------------------------
 Center     Atomic      Atomic             Coordinates (Angstroms)
 Number     Number       Type             X           Y           Z
 ---------------------------------------------------------------------
      1          6           0       -2.673906   -0.725204   -0.009991
      2          6           0       -0.426207    0.492113   -0.114233
      3          8           0       -0.014800    1.553207   -0.515237
      4          6           0       -1.782019    0.379236    0.553122
      5          6           0        2.607012   -0.015326    0.699767
      6          6           0        1.866795   -0.552344   -0.518811
      7          6           0        0.384781   -0.783039   -0.259556
      8          1           0       -2.847115   -0.583423   -1.078595
      9          1           0       -3.644176   -0.719360    0.487576
     10          1           0       -2.237772   -1.715094    0.132874
     11          1           0        2.202634    0.949193    1.011356
     12          1           0       -2.264107    1.353752    0.471683
     13          1           0       -1.598259    0.193806    1.617665
     14          1           0        3.667553    0.124253    0.484631
     15          1           0        2.528101   -0.705857    1.544037
     16          1           0        2.317637   -1.496003   -0.837243
     17          1           0        1.972517    0.146996   -1.350573
     18          1           0        0.230089   -1.408411    0.626746
     19          1           0       -0.067436   -1.338126   -1.090052
 ---------------------------------------------------------------------

 SCF Done:  E(RHF) =  -310.609285045     A.U. after    2 cycles

 The electronic state is 1-A.
 Alpha  occ. eigenvalues --  -21.04262 -11.49871 -11.42779 -11.41431 -11.38793
 Alpha  occ. eigenvalues --  -11.37223 -11.35100  -1.70588  -1.24104  -1.17078
 Alpha  occ. eigenvalues --   -1.03242  -0.93855  -0.86196  -0.72934  -0.65643
 Alpha  occ. eigenvalues --   -0.63823  -0.62346  -0.58203  -0.56116  -0.54845
 Alpha  occ. eigenvalues --   -0.51547  -0.49906  -0.48069  -0.46333  -0.45138
 Alpha  occ. eigenvalues --   -0.44270  -0.39824  -0.27348
 Alpha virt. eigenvalues --    0.03611   0.04826   0.05073   0.05307   0.05464
 Alpha virt. eigenvalues --    0.05580   0.06376   0.06935   0.07255   0.08263
 Alpha virt. eigenvalues --    0.08702   0.09602   0.11863   0.12555   0.13344

 Mulliken charges:
               1
     1  C   -3.907613
     2  C    5.332961
     3  O   -3.546626
     4  C   -4.026495
     5  C   -3.730766
     6  C   -3.336040
     7  C   -3.201293
     8  H    1.397418
     9  H    1.092389
    10  H    1.399329
    11  H    1.315167
    12  H    1.390448
    13  H    1.365951
    14  H    1.157905
    15  H    1.281860
    16  H    1.178253
    17  H    1.442972
    18  H    1.827249
    19  H    1.566932
 Sum of Mulliken charges =  -0.00000

 Dipole moment (field-independent basis, Debye):
    X=             -0.5293    Y=             -1.2166    Z=              0.3081  Tot=              1.3620

 Test job not archived.
 1\1\GINC-SE340\SP\RHF\Aug-CC-pVDZ\C6H12O1\OHZDE\09-Apr-2025\0\\#t hf a
 ug-cc-pvdz iop(5/13=1,5/36=2,99/5=2) pseudo=read geom=check guess=(rea
 d,tcheck) scf=(maxcycle=1)\\title\\0,1\C,0,2.24794113,-0.90823863,-1.2
 1489668\C,0,0.69655328,0.17730754,0.50547051\O,0,0.77468259,0.55977618
 ,1.64722078\C,0,1.84856123,0.35908792,-0.46208474\C,0,-2.32428887,1.15
 115511,0.72143647\C,0,-1.79485111,-0.27372187,0.82470201\C,0,-0.551434
 27,-0.50814898,-0.02132145\H,0,2.52625662,-1.70506824,-0.5223495\H,0,3
 .10628126,-0.71225234,-1.85822559\H,0,1.44057933,-1.27848295,-1.848609

 Normal termination of Gaussian 16 at Wed Apr  9 19:21:21 2025.
