 Gaussian 16, Revision C.01,

 ----------------------------------------------------------------------
 #t hf aug-cc-pvdz symm=none int=(grid=ultrafine) guess=(read,tcheck) s
 table=(opt,rrhf)
 ----------------------------------------------------------------------
 -----
 title
 -----
 Symbolic Z-matrix:
 Charge =  0 Multiplicity = 1

 SCF Done:  E(RHF) =  -308.945425536     A.U. after   14 cycles

 1\1\GINC-SE179\Stability\RHF\Aug-CC-pVDZ\C6H12O1\OHZDE\09-Apr-2025\0\\
 #t hf aug-cc-pvdz symm=none int=(grid=ultrafine) guess=(read,tcheck) s
 table=(opt,rrhf)\\title\\0,1\C,0,1.62121574,1.08781256,0.08206378\C,0,
 0.75568254,-0.1654193,0.09023947\C,0,1.55277842,-1.38263032,-0.3986966
 \C,0,-0.39925431,-0.08050332,-0.88157933\C,0,-1.60539051,-0.79086287,-
 0.38736859\C,0,-1.90394671,0.61447954,0.09969746\O,0,-1.88113065,0.723
 72141,1.48590153\H,0,1.07078618,1.95209181,0.46467969\H,0,2.5080073,0.
 96006449,0.7075574\H,0,1.940997,1.32211831,-0.93541007\H,0,0.43303216,

 Normal termination of Gaussian 16 at Wed Apr  9 03:53:02 2025.
 Gaussian 16:  ES64L-G16RevC.01  3-Jul-2019

 ----------------------------------------------------------------------
 #t hf aug-cc-pvdz iop(5/13=1,5/36=2,99/5=2) pseudo=read geom=check gue
 ss=(read,tcheck) scf=(maxcycle=1)
 ----------------------------------------------------------------------
 -----
 title
 -----
 Structure from the checkpoint file:  "Grambow2020_wb97xd3_008300_forward_mol1.chk"
 Charge =  0 Multiplicity = 1

                         Standard orientation:
 ---------------------------------------------------------------------
 Center     Atomic      Atomic             Coordinates (Angstroms)
 Number     Number       Type             X           Y           Z
 ---------------------------------------------------------------------
      1          6           0        1.540551    1.440980   -0.339161
      2          6           0        0.979647    0.131899    0.200746
      3          6           0        2.102217   -0.889254    0.431193
      4          6           0        0.064761   -0.558841   -0.784843
      5          6           0       -1.039133   -1.289380   -0.113018
      6          6           0       -1.725692    0.033929   -0.393813
      7          8           0       -2.019654    0.747926    0.762824
      8          1           0        0.750825    2.186235   -0.470592
      9          1           0        2.281797    1.864725    0.342716
     10          1           0        2.010487    1.280611   -1.311711
     11          1           0        0.498621    0.319590    1.171633
     12          1           0        2.830377   -0.484378    1.136370
     13          1           0        2.616369   -1.116093   -0.505075
     14          1           0        1.719384   -1.825346    0.842522
     15          1           0       -0.929669    0.565516   -1.077731
     16          1           0       -1.462582   -2.141475   -0.636733
     17          1           0       -0.966036   -1.460166    0.963282
     18          1           0       -2.552337   -0.055839   -1.100585
     19          1           0       -2.174117    1.667216    0.536690
 ---------------------------------------------------------------------

 SCF Done:  E(RHF) =  -310.462291736     A.U. after    2 cycles

 The electronic state is 1-A.
 Alpha  occ. eigenvalues --  -21.09580 -11.47029 -11.44554 -11.39802 -11.38341
 Alpha  occ. eigenvalues --  -11.38006 -11.34614  -1.74663  -1.30573  -1.16032
 Alpha  occ. eigenvalues --   -0.99747  -0.90045  -0.87758  -0.76426  -0.68701
 Alpha  occ. eigenvalues --   -0.65302  -0.60185  -0.57916  -0.55982  -0.52853
 Alpha  occ. eigenvalues --   -0.52647  -0.51204  -0.46824  -0.45633  -0.43902
 Alpha  occ. eigenvalues --   -0.40274  -0.34709  -0.29184
 Alpha virt. eigenvalues --    0.03933   0.04871   0.05310   0.05397   0.05688
 Alpha virt. eigenvalues --    0.05981   0.06553   0.06937   0.07464   0.08206
 Alpha virt. eigenvalues --    0.08943   0.09390   0.12040   0.13014   0.13380

 Mulliken charges:
               1
     1  C   -4.075962
     2  C   -0.683441
     3  C   -4.114797
     4  C   -0.819235
     5  C   -3.746363
     6  C    0.481255
     7  O   -3.046267
     8  H    1.274207
     9  H    1.151425
    10  H    1.335464
    11  H    2.140217
    12  H    1.195083
    13  H    1.313025
    14  H    1.265072
    15  H    1.536841
    16  H    1.330319
    17  H    1.331081
    18  H    1.436236
    19  H    0.695839
 Sum of Mulliken charges =  -0.00000

 Dipole moment (field-independent basis, Debye):
    X=             -1.4431    Y=              0.8361    Z=              1.3495  Tot=              2.1454

 Test job not archived.
 1\1\GINC-SE179\SP\RHF\Aug-CC-pVDZ\C6H12O1\OHZDE\09-Apr-2025\0\\#t hf a
 ug-cc-pvdz iop(5/13=1,5/36=2,99/5=2) pseudo=read geom=check guess=(rea
 d,tcheck) scf=(maxcycle=1)\\title\\0,1\C,0,1.62121574,1.08781256,0.082
 06378\C,0,0.75568254,-0.1654193,0.09023947\C,0,1.55277842,-1.38263032,
 -0.3986966\C,0,-0.39925431,-0.08050332,-0.88157933\C,0,-1.60539051,-0.
 79086287,-0.38736859\C,0,-1.90394671,0.61447954,0.09969746\O,0,-1.8811
 3065,0.72372141,1.48590153\H,0,1.07078618,1.95209181,0.46467969\H,0,2.
 5080073,0.96006449,0.7075574\H,0,1.940997,1.32211831,-0.93541007\H,0,0

 Normal termination of Gaussian 16 at Wed Apr  9 03:53:10 2025.
