 Gaussian 16, Revision C.01,

 ----------------------------------------------------------------------
 #t hf aug-cc-pvdz symm=none int=(grid=ultrafine) guess=(read,tcheck) s
 table=(opt,rrhf)
 ----------------------------------------------------------------------
 -----
 title
 -----
 Symbolic Z-matrix:
 Charge =  0 Multiplicity = 1

 SCF Done:  E(RHF) =  -318.816701245     A.U. after   16 cycles
 Normal termination of Gaussian 16 at Wed Apr  9 18:58:50 2025.
 Gaussian 16:  ES64L-G16RevC.01  3-Jul-2019

 ----------------------------------------------------------------------
 #t hf aug-cc-pvdz iop(5/13=1,5/36=2,99/5=2) pseudo=read geom=check gue
 ss=(read,tcheck) scf=(maxcycle=1)
 ----------------------------------------------------------------------
 -----
 title
 -----
 Structure from the checkpoint file:  "Grambow2020_wb97xd3_007955_reverse_mol2.chk"
 Charge =  0 Multiplicity = 1

                         Standard orientation:
 ---------------------------------------------------------------------
 Center     Atomic      Atomic             Coordinates (Angstroms)
 Number     Number       Type             X           Y           Z
 ---------------------------------------------------------------------
      1          6           0       -2.392806    0.113929    0.618249
      2          6           0       -1.530749   -0.142270   -0.604367
      3          6           0        0.538469    1.216053   -0.206330
      4          6           0        1.799684    0.753533    0.146144
      5          7           0        1.758080   -0.600954    0.222893
      6          7           0        0.579286   -1.077696   -0.049492
      7          7           0       -0.114148    0.016685   -0.300367
      8          1           0       -3.447966    0.017277    0.358342
      9          1           0       -2.166303   -0.601647    1.410291
     10          1           0       -2.217243    1.121544    0.995983
     11          1           0       -1.669273   -1.152877   -0.988081
     12          1           0       -1.755380    0.571612   -1.394923
     13          1           0        2.715246    1.286251    0.344148
     14          1           0        2.490805   -1.255867    0.440834
 ---------------------------------------------------------------------

 SCF Done:  E(RHF) =  -320.323935682     A.U. after    2 cycles

 The electronic state is 1-A.
 Alpha  occ. eigenvalues --  -15.85283 -15.81000 -15.80287 -11.43931 -11.41333
 Alpha  occ. eigenvalues --  -11.36783 -11.34441  -1.72853  -1.39144  -1.17205
 Alpha  occ. eigenvalues --   -1.14354  -0.95990  -0.86873  -0.79925  -0.72815
 Alpha  occ. eigenvalues --   -0.67723  -0.65293  -0.60824  -0.55283  -0.52903
 Alpha  occ. eigenvalues --   -0.50704  -0.48874  -0.46609  -0.38756  -0.32379
 Alpha  occ. eigenvalues --   -0.32243
 Alpha virt. eigenvalues --    0.03422   0.04809   0.05818   0.06071   0.06592
 Alpha virt. eigenvalues --    0.06935   0.07602   0.10514   0.11160   0.11692
 Alpha virt. eigenvalues --    0.12667   0.13107   0.13676   0.14488   0.15061

 Mulliken charges:
               1
     1  C   -3.274014
     2  C   -2.731280
     3  C   -1.122608
     4  C    1.243071
     5  N   -1.885722
     6  N   -0.947263
     7  N   -0.817301
     8  H    1.130626
     9  H    1.366379
    10  H    1.391517
    11  H    1.586347
    12  H    1.672748
    13  H    1.450299
    14  H    0.937201
 Sum of Mulliken charges =  -0.00000

 Dipole moment (field-independent basis, Debye):
    X=              1.2530    Y=             -3.5302    Z=              0.6472  Tot=              3.8014

 Test job not archived.
 1\1\GINC-SE014\SP\RHF\Aug-CC-pVDZ\C4H7N3\OHZDE\09-Apr-2025\0\\#t hf au
 g-cc-pvdz iop(5/13=1,5/36=2,99/5=2) pseudo=read geom=check guess=(read
 ,tcheck) scf=(maxcycle=1)\\title\\0,1\C,0,-1.87572981,0.80866138,0.370
 69446\C,0,-1.17303853,-0.53631836,0.34198864\C,0,0.64402671,-0.2562961
 1,-1.36241651\C,0,2.00734262,-0.12500176,-1.13229298\N,0,2.22967587,-0
 .19895466,0.20462741\N,0,1.1326127,-0.36944503,0.88169365\N,0,0.218672
 58,-0.40176772,-0.06968798\H,0,-2.921371,0.67795855,0.65319395\H,0,-1.
 40497059,1.47770086,1.09281304\H,0,-1.8358859,1.2732913,-0.61486377\H,

 Normal termination of Gaussian 16 at Wed Apr  9 18:58:54 2025.
