 Gaussian 16, Revision C.01,

 ----------------------------------------------------------------------
 #t hf aug-cc-pvdz symm=none int=(grid=ultrafine) guess=(read,tcheck) s
 table=(opt,rrhf)
 ----------------------------------------------------------------------
 -----
 title
 -----
 Symbolic Z-matrix:
 Charge =  0 Multiplicity = 1

 SCF Done:  E(RHF) =  -360.764343027     A.U. after   16 cycles
 Normal termination of Gaussian 16 at Wed Apr  9 03:58:36 2025.
 Gaussian 16:  ES64L-G16RevC.01  3-Jul-2019

 ----------------------------------------------------------------------
 #t hf aug-cc-pvdz iop(5/13=1,5/36=2,99/5=2) pseudo=read geom=check gue
 ss=(read,tcheck) scf=(maxcycle=1)
 ----------------------------------------------------------------------
 -----
 title
 -----
 Structure from the checkpoint file:  "Grambow2020_wb97xd3_008688_reverse_mol1.chk"
 Charge =  0 Multiplicity = 1

                         Standard orientation:
 ---------------------------------------------------------------------
 Center     Atomic      Atomic             Coordinates (Angstroms)
 Number     Number       Type             X           Y           Z
 ---------------------------------------------------------------------
      1          6           0        2.729610   -0.497642   -0.221065
      2          7           0        1.479467   -0.315807    0.486984
      3          6           0        0.279579   -0.368623   -0.171972
      4          6           0       -0.663629    0.866402   -0.073056
      5          8           0       -0.150454    1.961614    0.088265
      6          8           0       -1.871093    0.528275   -0.186438
      7          6           0       -2.027795   -1.563763    0.118664
      8          1           0        2.680410   -1.404464   -0.825292
      9          1           0        3.541288   -0.621817    0.495154
     10          1           0        2.964727    0.348766   -0.875465
     11          1           0        1.500489    0.387664    1.210448
     12          1           0       -0.522940   -1.128374    0.254185
     13          1           0        0.388044   -0.682626   -1.213842
     14          1           0       -2.572691   -1.456222   -0.805220
     15          1           0       -2.553471   -1.248568    1.006743
     16          1           0       -1.516339   -2.521072    0.214364
 ---------------------------------------------------------------------

 SCF Done:  E(RHF) =  -362.413088411     A.U. after    2 cycles

 The electronic state is 1-A.
 Alpha  occ. eigenvalues --  -21.00998 -20.99274 -15.74677 -11.51808 -11.48157
 Alpha  occ. eigenvalues --  -11.43500 -11.40166  -1.74059  -1.58123  -1.41375
 Alpha  occ. eigenvalues --   -1.10165  -1.05464  -0.93508  -0.75510  -0.68736
 Alpha  occ. eigenvalues --   -0.65591  -0.64778  -0.62482  -0.61351  -0.56369
 Alpha  occ. eigenvalues --   -0.54396  -0.52431  -0.47527  -0.45941  -0.33642
 Alpha  occ. eigenvalues --   -0.29175  -0.25993  -0.24213
 Alpha virt. eigenvalues --    0.01291   0.03626   0.04634   0.05024   0.05360
 Alpha virt. eigenvalues --    0.05690   0.06922   0.07861   0.08095   0.08590
 Alpha virt. eigenvalues --    0.10821   0.11431   0.13036   0.13650   0.13972

 Mulliken charges:
               1
     1  C   -3.430110
     2  N   -2.923060
     3  C   -2.499864
     4  C    6.252664
     5  O   -3.023131
     6  O   -2.669453
     7  C   -3.803624
     8  H    1.311119
     9  H    1.288426
    10  H    1.335266
    11  H    0.655407
    12  H    2.717045
    13  H    1.690857
    14  H    1.297849
    15  H    1.140062
    16  H    0.660547
 Sum of Mulliken charges =  -0.00000

 Dipole moment (field-independent basis, Debye):
    X=              0.4472    Y=             -4.5415    Z=              0.0620  Tot=              4.5638

 Test job not archived.
 1\1\GINC-SE195\SP\RHF\Aug-CC-pVDZ\C4H9N1O2\OHZDE\09-Apr-2025\0\\#t hf
 aug-cc-pvdz iop(5/13=1,5/36=2,99/5=2) pseudo=read geom=check guess=(re
 ad,tcheck) scf=(maxcycle=1)\\title\\0,1\C,0,-2.49922857,-0.09632968,0.
 40068051\N,0,-1.24064094,-0.47020635,-0.21040517\C,0,-0.06675522,0.127
 06564,0.16642864\C,0,0.78002506,0.83309349,-0.93320676\O,0,0.18935055,
 1.29543967,-1.89560146\O,0,2.0049419,0.82280956,-0.64229689\C,0,2.3366
 0707,-0.62202333,0.87319692\H,0,-2.40267421,-0.12570015,1.48679851\H,0
 ,-3.27031544,-0.81250785,0.1183255\H,0,-2.82506474,0.90638172,0.103483

 Normal termination of Gaussian 16 at Wed Apr  9 03:58:45 2025.
