 Gaussian 16, Revision C.01,

 ----------------------------------------------------------------------
 #t hf aug-cc-pvdz symm=none int=(grid=ultrafine) guess=(read,tcheck) s
 table=(opt,rrhf)
 ----------------------------------------------------------------------
 -----
 title
 -----
 Symbolic Z-matrix:
 Charge =  0 Multiplicity = 1

 SCF Done:  E(RHF) =  -322.546951472     A.U. after   16 cycles
 Normal termination of Gaussian 16 at Wed Apr  9 18:22:14 2025.
 Gaussian 16:  ES64L-G16RevC.01  3-Jul-2019

 ----------------------------------------------------------------------
 #t hf aug-cc-pvdz iop(5/13=1,5/36=2,99/5=2) pseudo=read geom=check gue
 ss=(read,tcheck) scf=(maxcycle=1)
 ----------------------------------------------------------------------
 -----
 title
 -----
 Structure from the checkpoint file:  "Grambow2020_wb97xd3_006943_forward_mol1.chk"
 Charge =  0 Multiplicity = 1

                         Standard orientation:
 ---------------------------------------------------------------------
 Center     Atomic      Atomic             Coordinates (Angstroms)
 Number     Number       Type             X           Y           Z
 ---------------------------------------------------------------------
      1          8           0       -2.762619   -0.395003   -0.319740
      2          6           0       -1.573096   -0.581135   -0.265391
      3          7           0       -0.693366    0.094058    1.064562
      4          6           0       -0.260831    0.914105    0.104256
      5          6           0        1.190128    1.117341   -0.268988
      6          6           0        1.984424   -0.100259   -0.160752
      7          6           0        2.605626   -1.117603   -0.058012
      8          1           0       -0.997428   -1.515484   -0.275175
      9          1           0        0.028669   -0.563340    1.349430
     10          1           0       -0.927016    1.738330   -0.144955
     11          1           0       -0.847403    0.052063   -1.088712
     12          1           0        1.257268    1.529565   -1.277663
     13          1           0        1.589755    1.880477    0.409325
     14          1           0        3.173167   -2.014696    0.027054
 ---------------------------------------------------------------------

 SCF Done:  E(RHF) =  -324.065810439     A.U. after    2 cycles

 The electronic state is 1-A.
 Alpha  occ. eigenvalues --  -20.99910 -15.74550 -11.52966 -11.50991 -11.48614
 Alpha  occ. eigenvalues --  -11.44113 -11.43366  -1.67710  -1.42984  -1.21674
 Alpha  occ. eigenvalues --   -1.07052  -0.93018  -0.89949  -0.76814  -0.69897
 Alpha  occ. eigenvalues --   -0.67110  -0.66079  -0.59832  -0.57700  -0.54027
 Alpha  occ. eigenvalues --   -0.50003  -0.41483  -0.40480  -0.39376  -0.28236
 Alpha  occ. eigenvalues --   -0.26341
 Alpha virt. eigenvalues --    0.02325   0.03973   0.04970   0.05637   0.06186
 Alpha virt. eigenvalues --    0.06829   0.06956   0.08944   0.09900   0.11016
 Alpha virt. eigenvalues --    0.11021   0.11584   0.12183   0.12555   0.13234

 Mulliken charges:
               1
     1  O   -3.064417
     2  C    1.208388
     3  N   -2.801567
     4  C    0.913245
     5  C   -4.035207
     6  C    4.551308
     7  C   -4.185720
     8  H    1.073738
     9  H    0.641189
    10  H    1.358615
    11  H    1.102586
    12  H    1.277167
    13  H    1.215990
    14  H    0.744685
 Sum of Mulliken charges =  -0.00000

 Dipole moment (field-independent basis, Debye):
    X=              4.0177    Y=              0.5718    Z=             -0.3499  Tot=              4.0733

 Test job not archived.
 1\1\GINC-SE340\SP\RHF\Aug-CC-pVDZ\C5H7N1O1\OHZDE\09-Apr-2025\0\\#t hf
 aug-cc-pvdz iop(5/13=1,5/36=2,99/5=2) pseudo=read geom=check guess=(re
 ad,tcheck) scf=(maxcycle=1)\\title\\0,1\O,0,-2.95210046,-0.05094547,1.
 0868403\C,0,-1.81529216,0.30462949,0.90299914\N,0,-1.15804497,0.170778
 9,-0.69346472\C,0,-0.48103047,-0.82445521,-0.11647848\C,0,1.02652048,-
 0.92551227,-0.06193192\C,0,1.68143046,0.36843316,0.08629619\C,0,2.1847
 3594,1.44728941,0.20541243\H,0,-1.3277864,1.26604656,1.10918611\H,0,-0
 .56186048,0.97521813,-0.87262382\H,0,-1.01578432,-1.76893424,-0.031324

 Normal termination of Gaussian 16 at Wed Apr  9 18:22:18 2025.
