 Gaussian 16, Revision C.01,

 ----------------------------------------------------------------------
 #t hf aug-cc-pvdz symm=none int=(grid=ultrafine) guess=(read,tcheck) s
 table=(opt,rrhf)
 ----------------------------------------------------------------------
 -----
 title
 -----
 Symbolic Z-matrix:
 Charge =  0 Multiplicity = 1

 SCF Done:  E(RHF) =  -344.841999481     A.U. after   15 cycles

 1\1\GINC-SE029\Stability\RHF\Aug-CC-pVDZ\C5H10O2\OHZDE\09-Apr-2025\0\\
 #t hf aug-cc-pvdz symm=none int=(grid=ultrafine) guess=(read,tcheck) s
 table=(opt,rrhf)\\title\\0,1\C,0,-1.8220358,-1.38743111,1.39914613\C,0
 ,-1.04715018,-0.22568039,0.88263269\C,0,0.99703502,0.53170674,-1.35636
 904\C,0,1.7974002,0.17588316,-0.10168813\O,0,1.62781672,1.10332053,0.9
 3930211\C,0,-0.44712537,0.89143412,-1.07395297\O,0,-1.15103614,-0.1858
 5271,-0.40651572\H,0,-1.13695261,-2.0108634,1.980853\H,0,-2.54606222,-
 1.00471351,2.12414426\H,0,-2.32648562,-1.98261819,0.63283975\H,0,1.443

 Normal termination of Gaussian 16 at Wed Apr  9 18:44:48 2025.
 Gaussian 16:  ES64L-G16RevC.01  3-Jul-2019

 ----------------------------------------------------------------------
 #t hf aug-cc-pvdz iop(5/13=1,5/36=2,99/5=2) pseudo=read geom=check gue
 ss=(read,tcheck) scf=(maxcycle=1)
 ----------------------------------------------------------------------
 -----
 title
 -----
 Structure from the checkpoint file:  "Grambow2020_wb97xd3_007594_reverse_mol2.chk"
 Charge =  0 Multiplicity = 1

                         Standard orientation:
 ---------------------------------------------------------------------
 Center     Atomic      Atomic             Coordinates (Angstroms)
 Number     Number       Type             X           Y           Z
 ---------------------------------------------------------------------
      1          6           0        2.663860   -0.546118    0.274956
      2          6           0        1.326093   -0.289478   -0.326220
      3          6           0       -1.498616    0.824254    0.412751
      4          6           0       -1.540281   -0.694938    0.590901
      5          8           0       -1.434028   -1.393372   -0.622961
      6          6           0       -0.372302    1.300357   -0.481400
      7          8           0        0.924751    0.890890    0.020099
      8          1           0        2.590574   -1.461862    0.868617
      9          1           0        3.350957   -0.788313   -0.540855
     10          1           0        3.062371    0.273133    0.879902
     11          1           0       -2.427299    1.162994   -0.055426
     12          1           0       -1.433598    1.303895    1.394004
     13          1           0       -2.491077   -0.975256    1.048893
     14          1           0       -0.750750   -1.003286    1.289179
     15          1           0       -0.494514   -1.344539   -0.876441
     16          1           0       -0.328299    2.388008   -0.521429
     17          1           0       -0.476667    0.900620   -1.489479
 ---------------------------------------------------------------------

 SCF Done:  E(RHF) =  -346.438734031     A.U. after    2 cycles

 The electronic state is 1-A.
 Alpha  occ. eigenvalues --  -21.11454 -21.04036 -11.45896 -11.43948 -11.42864
 Alpha  occ. eigenvalues --  -11.37266 -11.37068  -1.82649  -1.69249  -1.18289
 Alpha  occ. eigenvalues --   -1.10093  -0.97662  -0.84886  -0.75986  -0.68859
 Alpha  occ. eigenvalues --   -0.66341  -0.60783  -0.59917  -0.57465  -0.54839
 Alpha  occ. eigenvalues --   -0.53053  -0.50122  -0.48189  -0.47038  -0.40859
 Alpha  occ. eigenvalues --   -0.39432  -0.31446  -0.29302
 Alpha virt. eigenvalues --    0.04061   0.04859   0.05141   0.05479   0.05933
 Alpha virt. eigenvalues --    0.06223   0.06300   0.06637   0.08247   0.09033
 Alpha virt. eigenvalues --    0.10695   0.11900   0.12661   0.13545   0.14368

 Mulliken charges:
               1
     1  C   -3.433604
     2  C    0.574130
     3  C   -2.747973
     4  C   -1.063639
     5  O   -2.684271
     6  C   -1.529506
     7  O   -2.688919
     8  H    1.333042
     9  H    1.315207
    10  H    1.392273
    11  H    1.329054
    12  H    1.414535
    13  H    1.108921
    14  H    1.654609
    15  H    1.030723
    16  H    1.204453
    17  H    1.790965
 Sum of Mulliken charges =   0.00000

 Dipole moment (field-independent basis, Debye):
    X=              0.5126    Y=              2.1470    Z=              1.0015  Tot=              2.4239

 Test job not archived.
 1\1\GINC-SE029\SP\RHF\Aug-CC-pVDZ\C5H10O2\OHZDE\09-Apr-2025\0\\#t hf a
 ug-cc-pvdz iop(5/13=1,5/36=2,99/5=2) pseudo=read geom=check guess=(rea
 d,tcheck) scf=(maxcycle=1)\\title\\0,1\C,0,-1.8220358,-1.38743111,1.39
 914613\C,0,-1.04715018,-0.22568039,0.88263269\C,0,0.99703502,0.5317067
 4,-1.35636904\C,0,1.7974002,0.17588316,-0.10168813\O,0,1.62781672,1.10
 332053,0.93930211\C,0,-0.44712537,0.89143412,-1.07395297\O,0,-1.151036
 14,-0.18585271,-0.40651572\H,0,-1.13695261,-2.0108634,1.980853\H,0,-2.
 54606222,-1.00471351,2.12414426\H,0,-2.32648562,-1.98261819,0.63283975

 Normal termination of Gaussian 16 at Wed Apr  9 18:44:54 2025.
