 Gaussian 16, Revision C.01,

 ----------------------------------------------------------------------
 #t hf aug-cc-pvdz symm=none int=(grid=ultrafine) guess=(read,tcheck) s
 table=(opt,rrhf)
 ----------------------------------------------------------------------
 -----
 title
 -----
 Symbolic Z-matrix:
 Charge =  0 Multiplicity = 1

 SCF Done:  E(RHF) =  -338.756387207     A.U. after   14 cycles
 Normal termination of Gaussian 16 at Wed Apr  9 18:17:10 2025.
 Gaussian 16:  ES64L-G16RevC.01  3-Jul-2019

 ----------------------------------------------------------------------
 #t hf aug-cc-pvdz iop(5/13=1,5/36=2,99/5=2) pseudo=read geom=check gue
 ss=(read,tcheck) scf=(maxcycle=1)
 ----------------------------------------------------------------------
 -----
 title
 -----
 Structure from the checkpoint file:  "Grambow2020_wb97xd3_006841_reverse_mol2.chk"
 Charge =  0 Multiplicity = 1

                         Standard orientation:
 ---------------------------------------------------------------------
 Center     Atomic      Atomic             Coordinates (Angstroms)
 Number     Number       Type             X           Y           Z
 ---------------------------------------------------------------------
      1          7           0       -2.404008   -0.526069    0.051515
      2          6           0       -1.083130   -0.197834    0.003238
      3          6           0       -0.610467    1.233491    0.004253
      4          7           0        0.835802    1.194455   -0.004063
      5          6           0        1.139731   -0.044859   -0.001310
      6          8           0        2.423911   -0.441276   -0.006333
      7          6           0        0.015047   -0.978893    0.002435
      8          1           0       -3.073116    0.173781   -0.212467
      9          1           0       -2.673689   -1.471612   -0.150306
     10          1           0       -0.987328    1.773050   -0.871883
     11          1           0       -0.976833    1.762465    0.890245
     12          1           0        2.461174   -1.399021    0.005035
     13          1           0        0.068855   -2.058596    0.006179
 ---------------------------------------------------------------------

 SCF Done:  E(RHF) =  -340.294873009     A.U. after    2 cycles

 The electronic state is 1-A.
 Alpha  occ. eigenvalues --  -21.10631 -15.78688 -15.68164 -11.49629 -11.46763
 Alpha  occ. eigenvalues --  -11.41300 -11.37382  -1.76977  -1.45880  -1.34026
 Alpha  occ. eigenvalues --   -1.09349  -1.02015  -0.81398  -0.77612  -0.70775
 Alpha  occ. eigenvalues --   -0.68054  -0.64010  -0.60803  -0.52194  -0.50412
 Alpha  occ. eigenvalues --   -0.49245  -0.48189  -0.43885  -0.35407  -0.32873
 Alpha  occ. eigenvalues --   -0.27538
 Alpha virt. eigenvalues --    0.02878   0.04395   0.04821   0.06118   0.06713
 Alpha virt. eigenvalues --    0.07647   0.09200   0.11842   0.12038   0.12898
 Alpha virt. eigenvalues --    0.13040   0.13411   0.13612   0.15350   0.15747

 Mulliken charges:
               1
     1  N   -3.741578
     2  C    4.576540
     3  C   -2.471959
     4  N   -2.885683
     5  C    5.085022
     6  O   -3.532402
     7  C   -3.290102
     8  H    0.819016
     9  H    0.684353
    10  H    1.275624
    11  H    1.258882
    12  H    0.830586
    13  H    1.391701
 Sum of Mulliken charges =  -0.00000

 Dipole moment (field-independent basis, Debye):
    X=             -3.3773    Y=             -2.5683    Z=             -0.5282  Tot=              4.2757

 Test job not archived.
 1\1\GINC-SE105\SP\RHF\Aug-CC-pVDZ\C4H6N2O1\OHZDE\09-Apr-2025\0\\#t hf
 aug-cc-pvdz iop(5/13=1,5/36=2,99/5=2) pseudo=read geom=check guess=(re
 ad,tcheck) scf=(maxcycle=1)\\title\\0,1\N,0,-1.97454847,0.4601735,-0.5
 1648867\C,0,-0.69521291,0.12710934,-0.18914082\C,0,-0.20002741,-1.2959
 923,-0.23007777\N,0,1.20132871,-1.2597623,0.12793934\C,0,1.46593166,-0
 .02798722,0.33040987\O,0,2.70169681,0.36401045,0.68468731\C,0,0.351275
 68,0.90209988,0.15769822\H,0,-2.6694202,-0.26366032,-0.49651107\H,0,-2
 .30817387,1.37815143,-0.28513896\H,0,-0.7607227,-1.92804764,0.46769574

 Normal termination of Gaussian 16 at Wed Apr  9 18:17:14 2025.
