 Gaussian 16, Revision C.01,

 ----------------------------------------------------------------------
 #t hf aug-cc-pvdz symm=none int=(grid=ultrafine) guess=(read,tcheck) s
 table=(opt,rrhf)
 ----------------------------------------------------------------------
 -----
 title
 -----
 Symbolic Z-matrix:
 Charge =  0 Multiplicity = 1

 SCF Done:  E(RHF) =  -343.739987346     A.U. after   15 cycles
 Normal termination of Gaussian 16 at Wed Apr  9 18:48:42 2025.
 Gaussian 16:  ES64L-G16RevC.01  3-Jul-2019

 ----------------------------------------------------------------------
 #t hf aug-cc-pvdz iop(5/13=1,5/36=2,99/5=2) pseudo=read geom=check gue
 ss=(read,tcheck) scf=(maxcycle=1)
 ----------------------------------------------------------------------
 -----
 title
 -----
 Structure from the checkpoint file:  "Grambow2020_wb97xd3_007678_reverse_mol2.chk"
 Charge =  0 Multiplicity = 1

                         Standard orientation:
 ---------------------------------------------------------------------
 Center     Atomic      Atomic             Coordinates (Angstroms)
 Number     Number       Type             X           Y           Z
 ---------------------------------------------------------------------
      1          6           0        3.165024   -0.255136   -0.256671
      2          6           0        1.832371   -0.046662    0.385496
      3          6           0        0.700779    0.177218   -0.266119
      4          8           0       -1.311416    1.477903   -0.086610
      5          6           0       -0.635220    0.356727    0.399283
      6          6           0       -1.472093   -0.891718    0.198054
      7          8           0       -2.554198   -0.857746   -0.322094
      8          1           0        3.885390    0.486510    0.096761
      9          1           0        3.101340   -0.181281   -1.342676
     10          1           0        3.569798   -1.238260   -0.003392
     11          1           0        1.809011   -0.077457    1.473580
     12          1           0        0.687146    0.238477   -1.351699
     13          1           0       -0.478761    0.439576    1.486936
     14          1           0       -1.024896   -1.837436    0.555931
     15          1           0       -2.169284    1.166046   -0.406065
 ---------------------------------------------------------------------

 SCF Done:  E(RHF) =  -345.293233850     A.U. after    2 cycles

 The electronic state is 1-A.
 Alpha  occ. eigenvalues --  -21.08244 -21.07047 -11.50213 -11.47254 -11.44957
 Alpha  occ. eigenvalues --  -11.40507 -11.37849  -1.76702  -1.69398  -1.24033
 Alpha  occ. eigenvalues --   -1.09365  -0.96788  -0.82821  -0.79608  -0.70348
 Alpha  occ. eigenvalues --   -0.64955  -0.61938  -0.57625  -0.56517  -0.54697
 Alpha  occ. eigenvalues --   -0.50235  -0.47788  -0.44532  -0.42655  -0.37027
 Alpha  occ. eigenvalues --   -0.32457  -0.30716
 Alpha virt. eigenvalues --    0.03453   0.04816   0.05314   0.05588   0.06032
 Alpha virt. eigenvalues --    0.06864   0.07232   0.07905   0.09235   0.10256
 Alpha virt. eigenvalues --    0.12630   0.13310   0.13486   0.13799   0.14351

 Mulliken charges:
               1
     1  C   -4.377042
     2  C   -0.201182
     3  C    0.070969
     4  O   -3.085664
     5  C   -0.768218
     6  C    1.141721
     7  O   -2.725254
     8  H    1.155894
     9  H    1.258751
    10  H    1.131974
    11  H    1.363950
    12  H    1.400647
    13  H    1.472706
    14  H    1.494627
    15  H    0.666119
 Sum of Mulliken charges =   0.00000

 Dipole moment (field-independent basis, Debye):
    X=              1.3251    Y=             -0.6215    Z=              0.4484  Tot=              1.5308

 Test job not archived.
 1\1\GINC-SE105\SP\RHF\Aug-CC-pVDZ\C5H8O2\OHZDE\09-Apr-2025\0\\#t hf au
 g-cc-pvdz iop(5/13=1,5/36=2,99/5=2) pseudo=read geom=check guess=(read
 ,tcheck) scf=(maxcycle=1)\\title\\0,1\C,0,2.48280375,0.00936804,0.7254
 738\C,0,1.02859411,0.34839906,0.67926373\C,0,0.216506,0.07869211,-0.33
 216931\O,0,-1.63064027,1.04181451,-1.52940713\C,0,-1.25107796,0.404073
 3,-0.34636557\C,0,-2.05295338,-0.86832707,-0.15283071\O,0,-2.87871593,
 -1.2293382,-0.94683684\H,0,3.08566172,0.90895408,0.87103464\H,0,2.8091
 7548,-0.47734477,-0.19404129\H,0,2.70045956,-0.65881324,1.56254325\H,0

 Normal termination of Gaussian 16 at Wed Apr  9 18:48:46 2025.
