 Gaussian 16, Revision C.01,

 ----------------------------------------------------------------------
 #t hf aug-cc-pvdz symm=none int=(grid=ultrafine) guess=(read,tcheck) s
 table=(opt,rrhf)
 ----------------------------------------------------------------------
 -----
 title
 -----
 Symbolic Z-matrix:
 Charge =  0 Multiplicity = 1

 SCF Done:  E(RHF) =  -343.649519820     A.U. after   15 cycles
 Normal termination of Gaussian 16 at Wed Apr  9 19:31:16 2025.
 Gaussian 16:  ES64L-G16RevC.01  3-Jul-2019

 ----------------------------------------------------------------------
 #t hf aug-cc-pvdz iop(5/13=1,5/36=2,99/5=2) pseudo=read geom=check gue
 ss=(read,tcheck) scf=(maxcycle=1)
 ----------------------------------------------------------------------
 -----
 title
 -----
 Structure from the checkpoint file:  "Grambow2020_wb97xd3_009104_reverse_mol2.chk"
 Charge =  0 Multiplicity = 1

                         Standard orientation:
 ---------------------------------------------------------------------
 Center     Atomic      Atomic             Coordinates (Angstroms)
 Number     Number       Type             X           Y           Z
 ---------------------------------------------------------------------
      1          6           0       -0.133566    1.480434    0.365852
      2          6           0        1.200093    1.233633   -0.306874
      3          8           0        1.610575    0.003900   -0.265505
      4          6           0        0.916054   -1.099278    0.385949
      5          6           0       -0.422225   -1.428860   -0.238232
      6          8           0       -1.465362   -0.592590    0.181803
      7          6           0       -1.330364    0.743594   -0.245775
      8          1           0       -0.067373    1.231244    1.434332
      9          1           0       -0.324540    2.552035    0.301501
     10          1           0       -1.274812    0.785065   -1.343147
     11          1           0        0.805209   -0.876436    1.449068
     12          1           0        1.599071   -1.939682    0.268946
     13          1           0       -0.325333   -1.421819   -1.333634
     14          1           0       -0.702742   -2.438620    0.068356
     15          1           0       -2.251140    1.240592    0.058673
 ---------------------------------------------------------------------

 SCF Done:  E(RHF) =  -345.207932246     A.U. after    2 cycles

 The electronic state is 1-A.
 Alpha  occ. eigenvalues --  -21.10902 -21.05731 -11.49214 -11.45223 -11.42199
 Alpha  occ. eigenvalues --  -11.41240 -11.37517  -1.82289  -1.76305  -1.18369
 Alpha  occ. eigenvalues --   -1.09923  -0.97575  -0.85817  -0.74825  -0.70347
 Alpha  occ. eigenvalues --   -0.66860  -0.63769  -0.60811  -0.58961  -0.55991
 Alpha  occ. eigenvalues --   -0.51967  -0.48770  -0.44777  -0.41679  -0.37843
 Alpha  occ. eigenvalues --   -0.31104  -0.29671
 Alpha virt. eigenvalues --    0.03545   0.04787   0.04951   0.05089   0.05988
 Alpha virt. eigenvalues --    0.06332   0.06719   0.08944   0.09734   0.10105
 Alpha virt. eigenvalues --    0.11903   0.12741   0.13258   0.13403   0.14401

 Mulliken charges:
               1
     1  C   -2.459001
     2  C    0.547871
     3  O   -2.583164
     4  C   -1.373740
     5  C   -1.333535
     6  O   -3.125058
     7  C   -1.270289
     8  H    1.511165
     9  H    1.401164
    10  H    1.619489
    11  H    1.622398
    12  H    1.307840
    13  H    1.594070
    14  H    1.280627
    15  H    1.260162
 Sum of Mulliken charges =   0.00000

 Dipole moment (field-independent basis, Debye):
    X=             -1.5182    Y=             -2.3805    Z=              1.1478  Tot=              3.0478

 Test job not archived.
 1\1\GINC-SE145\SP\RHF\Aug-CC-pVDZ\C5H8O2\OHZDE\09-Apr-2025\0\\#t hf au
 g-cc-pvdz iop(5/13=1,5/36=2,99/5=2) pseudo=read geom=check guess=(read
 ,tcheck) scf=(maxcycle=1)\\title\\0,1\C,0,-1.46438396,0.09089445,0.467
 912\C,0,-1.42300601,0.90398969,-0.80852078\O,0,-0.2452303,1.33321553,-
 1.14177469\C,0,0.98022639,1.11917228,-0.38269989\C,0,1.39193404,-0.333
 75189,-0.28928917\O,0,0.71300178,-1.05298683,0.70351662\C,0,-0.6633192
 1,-1.21570928,0.4472008\H,0,-1.12736925,0.704344,1.31539447\H,0,-2.511
 00511,-0.15440697,0.65054215\H,0,-0.81022806,-1.72996313,-0.51352377\H

 Normal termination of Gaussian 16 at Wed Apr  9 19:31:21 2025.
