 Gaussian 16, Revision C.01,

 ----------------------------------------------------------------------
 #t hf aug-cc-pvdz symm=none int=(grid=ultrafine) guess=(read,tcheck) s
 table=(opt,rrhf)
 ----------------------------------------------------------------------
 -----
 title
 -----
 Symbolic Z-matrix:
 Charge =  0 Multiplicity = 1

 SCF Done:  E(RHF) =  -320.640884866     A.U. after   15 cycles
 Normal termination of Gaussian 16 at Wed Apr  9 17:25:08 2025.
 Gaussian 16:  ES64L-G16RevC.01  3-Jul-2019

 ----------------------------------------------------------------------
 #t hf aug-cc-pvdz iop(5/13=1,5/36=2,99/5=2) pseudo=read geom=check gue
 ss=(read,tcheck) scf=(maxcycle=1)
 ----------------------------------------------------------------------
 -----
 title
 -----
 Structure from the checkpoint file:  "Grambow2020_b97d3_007131_reverse_mol2.chk"
 Charge =  0 Multiplicity = 1

                         Standard orientation:
 ---------------------------------------------------------------------
 Center     Atomic      Atomic             Coordinates (Angstroms)
 Number     Number       Type             X           Y           Z
 ---------------------------------------------------------------------
      1          6           0       -2.343754   -0.152408    0.003218
      2          7           0       -0.963703   -0.611735    0.000072
      3          6           0        0.085521    0.237714   -0.002242
      4          8           0        0.112367    1.439870   -0.002607
      5          6           0        2.460765   -0.012286    0.009996
      6          8           0        1.289396   -0.636192   -0.006937
      7          1           0       -2.330149    0.941458   -0.002145
      8          1           0       -2.876272   -0.510527   -0.888789
      9          1           0       -2.869975   -0.501518    0.902613
     10          1           0       -0.754490   -1.604028   -0.001928
     11          1           0        3.147508   -0.910788    0.000264
 ---------------------------------------------------------------------

 SCF Done:  E(RHF) =  -322.032775397     A.U. after    2 cycles

 The electronic state is 1-A.
 Alpha  occ. eigenvalues --  -21.13680 -21.05946 -15.79086 -11.54341 -11.43132
 Alpha  occ. eigenvalues --  -11.41939  -1.84713  -1.69382  -1.41425  -1.05191
 Alpha  occ. eigenvalues --   -0.89276  -0.80123  -0.67404  -0.64730  -0.64163
 Alpha  occ. eigenvalues --   -0.56746  -0.56360  -0.54256  -0.51266  -0.43570
 Alpha  occ. eigenvalues --   -0.34987  -0.33557  -0.30102
 Alpha virt. eigenvalues --    0.02868   0.04914   0.05316   0.05333   0.07355
 Alpha virt. eigenvalues --    0.07933   0.09988   0.10729   0.12905   0.12980
 Alpha virt. eigenvalues --    0.13484   0.14213   0.14795   0.16404   0.17806

 Mulliken charges:
               1
     1  C   -3.305952
     2  N   -2.549524
     3  C    5.474793
     4  O   -2.520549
     5  C   -1.216152
     6  O   -2.144376
     7  H    1.306661
     8  H    1.278890
     9  H    1.277329
    10  H    0.751639
    11  H    1.647240
 Sum of Mulliken charges =  -0.00000

 Dipole moment (field-independent basis, Debye):
    X=             -3.0249    Y=             -3.4253    Z=             -0.0297  Tot=              4.5698

 Test job not archived.
 1\1\GINC-SE229\SP\RHF\Aug-CC-pVDZ\C3H5N1O2\OHZDE\09-Apr-2025\0\\#t hf
 aug-cc-pvdz iop(5/13=1,5/36=2,99/5=2) pseudo=read geom=check guess=(re
 ad,tcheck) scf=(maxcycle=1)\\title\\0,1\C,0,-0.98724635,1.59843813,-0.
 05489927\N,0,0.09227494,0.6259989,-0.12220657\C,0,-0.0936433,-0.686029
 87,0.13557995\O,0,-1.08965495,-1.28352734,0.4468017\C,0,1.30674767,-2.
 62079037,0.14205417\O,0,1.24587477,-1.30792896,-0.04325523\H,0,-1.8979
 3491,1.06491328,0.23276893\H,0,-0.77009982,2.37124498,0.69551363\H,0,-
 1.14373633,2.07712694,-1.03166182\H,0,1.03109019,0.91964437,-0.3688162

 Normal termination of Gaussian 16 at Wed Apr  9 17:25:11 2025.
