 Gaussian 16, Revision C.01,

 ----------------------------------------------------------------------
 #t hf aug-cc-pvdz symm=none int=(grid=ultrafine) guess=(read,tcheck) s
 table=(opt,rrhf)
 ----------------------------------------------------------------------
 -----
 title
 -----
 Symbolic Z-matrix:
 Charge =  0 Multiplicity = 1

 SCF Done:  E(RHF) =  -286.817940583     A.U. after   14 cycles
 Normal termination of Gaussian 16 at Wed Apr  9 18:46:47 2025.
 Gaussian 16:  ES64L-G16RevC.01  3-Jul-2019

 ----------------------------------------------------------------------
 #t hf aug-cc-pvdz iop(5/13=1,5/36=2,99/5=2) pseudo=read geom=check gue
 ss=(read,tcheck) scf=(maxcycle=1)
 ----------------------------------------------------------------------
 -----
 title
 -----
 Structure from the checkpoint file:  "Grambow2020_wb97xd3_007638_reverse_mol2.chk"
 Charge =  0 Multiplicity = 1

                         Standard orientation:
 ---------------------------------------------------------------------
 Center     Atomic      Atomic             Coordinates (Angstroms)
 Number     Number       Type             X           Y           Z
 ---------------------------------------------------------------------
      1          6           0        1.984469   -0.673678    0.002876
      2          6           0        0.666402    0.066860   -0.000490
      3          6           0        0.807110    1.568399    0.021605
      4          6           0       -0.431119   -0.677787    0.773983
      5          6           0       -1.716824    0.054036    0.559120
      6          7           0       -1.698546    0.139406   -0.718907
      7          6           0       -0.429124   -0.640329   -0.736965
      8          1           0        1.838475   -1.755560   -0.021943
      9          1           0        2.558447   -0.430042    0.899655
     10          1           0        2.582876   -0.392318   -0.866187
     11          1           0        1.304111    1.889022    0.939804
     12          1           0        1.416826    1.897066   -0.823006
     13          1           0       -0.212944   -1.495480    1.445622
     14          1           0       -2.451819    0.503160    1.223737
     15          1           0       -0.155986    2.070977   -0.047106
     16          1           0       -0.275644   -1.447676   -1.438994
 ---------------------------------------------------------------------

 SCF Done:  E(RHF) =  -288.220158045     A.U. after    2 cycles

 The electronic state is 1-A.
 Alpha  occ. eigenvalues --  -15.72423 -11.46483 -11.45004 -11.43607 -11.39517
 Alpha  occ. eigenvalues --  -11.38895 -11.36549  -1.51877  -1.22863  -1.04778
 Alpha  occ. eigenvalues --   -1.01416  -0.93957  -0.78420  -0.74651  -0.69132
 Alpha  occ. eigenvalues --   -0.62735  -0.59956  -0.59325  -0.53983  -0.52090
 Alpha  occ. eigenvalues --   -0.51336  -0.45696  -0.44390  -0.40712  -0.35450
 Alpha  occ. eigenvalues --   -0.30996
 Alpha virt. eigenvalues --    0.03631   0.04941   0.05329   0.05340   0.05935
 Alpha virt. eigenvalues --    0.06060   0.06460   0.07681   0.08588   0.09807
 Alpha virt. eigenvalues --    0.11730   0.11798   0.12437   0.12968   0.13810

 Mulliken charges:
               1
     1  C   -4.609919
     2  C    1.411880
     3  C   -5.048004
     4  C   -1.723494
     5  C    0.258334
     6  N   -2.628406
     7  C    1.091523
     8  H    1.324855
     9  H    1.178598
    10  H    1.113820
    11  H    1.174231
    12  H    1.197584
    13  H    1.175059
    14  H    1.300969
    15  H    1.460368
    16  H    1.322601
 Sum of Mulliken charges =  -0.00000

 Dipole moment (field-independent basis, Debye):
    X=              1.4908    Y=             -0.6250    Z=              1.3150  Tot=              2.0838

 Test job not archived.
 1\1\GINC-SE226\SP\RHF\Aug-CC-pVDZ\C6H9N1\OHZDE\09-Apr-2025\0\\#t hf au
 g-cc-pvdz iop(5/13=1,5/36=2,99/5=2) pseudo=read geom=check guess=(read
 ,tcheck) scf=(maxcycle=1)\\title\\0,1\C,0,1.582702,-0.47620112,0.64792
 844\C,0,0.29563651,-0.09748939,-0.04902739\C,0,0.48503108,0.38690644,-
 1.4647939\C,0,-0.73650831,0.51509474,0.90924212\C,0,-2.0140951,0.68837
 711,0.15259557\N,0,-2.12866576,-0.48936119,-0.3381003\C,0,-0.89344892,
 -0.89537331,0.3893186\H,0,1.40095934,-0.82866465,1.66534538\H,0,2.2558
 4622,0.3822552,0.70225587\H,0,2.09420217,-1.27052868,0.10026352\H,0,1.

 Normal termination of Gaussian 16 at Wed Apr  9 18:46:53 2025.
