 Gaussian 16, Revision C.01,

 ----------------------------------------------------------------------
 #t hf aug-cc-pvdz symm=none int=(grid=ultrafine) guess=(read,tcheck) s
 table=(opt,rrhf)
 ----------------------------------------------------------------------
 -----
 title
 -----
 Symbolic Z-matrix:
 Charge =  0 Multiplicity = 1

 SCF Done:  E(RHF) =  -325.001608341     A.U. after   15 cycles
 Normal termination of Gaussian 16 at Wed Apr  9 19:26:26 2025.
 Gaussian 16:  ES64L-G16RevC.01  3-Jul-2019

 ----------------------------------------------------------------------
 #t hf aug-cc-pvdz iop(5/13=1,5/36=2,99/5=2) pseudo=read geom=check gue
 ss=(read,tcheck) scf=(maxcycle=1)
 ----------------------------------------------------------------------
 -----
 title
 -----
 Structure from the checkpoint file:  "Grambow2020_wb97xd3_008963_reverse_mol2.chk"
 Charge =  0 Multiplicity = 1

                         Standard orientation:
 ---------------------------------------------------------------------
 Center     Atomic      Atomic             Coordinates (Angstroms)
 Number     Number       Type             X           Y           Z
 ---------------------------------------------------------------------
      1          6           0       -2.296258   -0.919769   -0.457790
      2          6           0       -1.773543    0.376497    0.130342
      3          7           0       -0.362206    0.258934    0.464351
      4          6           0        0.405093    1.466457    0.499601
      5          6           0        0.562215    0.503123   -0.631443
      6          6           0        1.778830   -0.355201   -0.707622
      7          8           0        2.344889   -0.806043    0.248734
      8          1           0       -3.363994   -0.844470   -0.668932
      9          1           0       -2.134422   -1.745115    0.236103
     10          1           0       -1.784794   -1.159505   -1.392916
     11          1           0       -1.952310    1.212653   -0.565332
     12          1           0       -2.301760    0.611598    1.057686
     13          1           0       -0.094743    2.404526    0.272287
     14          1           0        1.186426    1.504820    1.249619
     15          1           0        0.135956    0.798388   -1.587591
     16          1           0        2.158384   -0.543969   -1.733162
     17          1           0       -0.112619   -2.292539    2.692498
     18          1           0       -0.017816   -1.737215    2.200878
 ---------------------------------------------------------------------

 SCF Done:  E(RHF) =  -326.554150451     A.U. after    2 cycles

 The electronic state is 1-A.
 Alpha  occ. eigenvalues --  -21.06030 -15.73531 -11.49813 -11.46756 -11.42989
 Alpha  occ. eigenvalues --  -11.40435 -11.36510  -1.71319  -1.50081  -1.16972
 Alpha  occ. eigenvalues --   -1.01590  -0.94371  -0.86194  -0.79059  -0.71959
 Alpha  occ. eigenvalues --   -0.65126  -0.62720  -0.58640  -0.58324  -0.55834
 Alpha  occ. eigenvalues --   -0.53209  -0.50309  -0.50056  -0.48729  -0.42943
 Alpha  occ. eigenvalues --   -0.39719  -0.34503  -0.29477
 Alpha virt. eigenvalues --    0.03879   0.04730   0.04891   0.05312   0.05781
 Alpha virt. eigenvalues --    0.06295   0.06607   0.07017   0.07288   0.09000
 Alpha virt. eigenvalues --    0.10742   0.12016   0.12263   0.12462   0.12818

 Mulliken charges:
               1
     1  C   -3.302191
     2  C   -3.060409
     3  N   -1.645498
     4  C   -2.534977
     5  C   -0.427832
     6  C    1.025134
     7  O   -2.898537
     8  H    1.084760
     9  H    1.426962
    10  H    1.321060
    11  H    1.665659
    12  H    1.507824
    13  H    1.480529
    14  H    1.507745
    15  H    1.557203
    16  H    1.438666
    17  H    0.564661
    18  H   -0.710757
 Sum of Mulliken charges =  -0.00000

 Dipole moment (field-independent basis, Debye):
    X=             -1.4959    Y=              1.4407    Z=             -0.9573  Tot=              2.2869

 Test job not archived.
 1\1\GINC-SE162\SP\RHF\Aug-CC-pVDZ\C5H11N1O1\OHZDE\09-Apr-2025\0\\#t hf
  aug-cc-pvdz iop(5/13=1,5/36=2,99/5=2) pseudo=read geom=check guess=(r
 ead,tcheck) scf=(maxcycle=1)\\title\\0,1\C,0,-1.65103803,-1.30242203,0
 .05694618\C,0,-1.2094557,-0.01624816,0.72791321\N,0,0.18038634,0.27837
 615,0.41360071\C,0,0.59060337,1.64783266,0.48003717\C,0,0.40292293,0.9
 7768337,-0.84194476\C,0,1.59454031,0.58262034,-1.64608913\O,0,2.626376
 57,0.19485782,-1.17359354\H,0,-2.68001245,-1.5445784,0.32691437\H,0,-1
 .00687378,-2.12918217,0.35760545\H,0,-1.60094217,-1.21354811,-1.030767

 Normal termination of Gaussian 16 at Wed Apr  9 19:26:32 2025.
