 Gaussian 16, Revision C.01,

 ----------------------------------------------------------------------
 #t hf aug-cc-pvdz symm=none int=(grid=ultrafine) guess=(read,tcheck) s
 table=(opt,rrhf)
 ----------------------------------------------------------------------
 -----
 title
 -----
 Symbolic Z-matrix:
 Charge =  0 Multiplicity = 1

 SCF Done:  E(RHF) =  -324.875779630     A.U. after   14 cycles
 Normal termination of Gaussian 16 at Wed Apr  9 19:26:24 2025.
 Gaussian 16:  ES64L-G16RevC.01  3-Jul-2019

 ----------------------------------------------------------------------
 #t hf aug-cc-pvdz iop(5/13=1,5/36=2,99/5=2) pseudo=read geom=check gue
 ss=(read,tcheck) scf=(maxcycle=1)
 ----------------------------------------------------------------------
 -----
 title
 -----
 Structure from the checkpoint file:  "Grambow2020_wb97xd3_008963_reverse_mol1.chk"
 Charge =  0 Multiplicity = 1

                         Standard orientation:
 ---------------------------------------------------------------------
 Center     Atomic      Atomic             Coordinates (Angstroms)
 Number     Number       Type             X           Y           Z
 ---------------------------------------------------------------------
      1          6           0        2.428773   -1.025182   -0.090573
      2          6           0        1.877627    0.387704   -0.072943
      3          7           0        0.469092    0.394893   -0.433931
      4          6           0       -0.332436    1.499911    0.045999
      5          6           0       -0.459474    0.157067    0.648346
      6          6           0       -1.602066   -0.746987    0.258963
      7          8           0       -2.425040   -0.406018   -0.709626
      8          1           0        3.496160   -1.027706    0.135946
      9          1           0        2.279309   -1.479405   -1.070720
     10          1           0        1.927602   -1.650963    0.651984
     11          1           0        2.040493    0.847450    0.916094
     12          1           0        2.401583    1.006827   -0.805253
     13          1           0        0.162327    2.260636    0.643654
     14          1           0       -1.104285    1.839608   -0.633105
     15          1           0       -0.044914   -0.009252    1.641560
     16          1           0       -1.350112   -1.815032    0.381413
     17          1           0       -2.361690   -0.663651    1.479693
     18          1           0       -2.804334   -0.459698    0.634509
 ---------------------------------------------------------------------

 SCF Done:  E(RHF) =  -326.452021748     A.U. after    2 cycles

 The electronic state is 1-A.
 Alpha  occ. eigenvalues --  -20.99434 -15.72778 -11.53096 -11.46943 -11.42782
 Alpha  occ. eigenvalues --  -11.40153 -11.36315  -1.68720  -1.49402  -1.16812
 Alpha  occ. eigenvalues --   -1.03925  -0.95060  -0.87300  -0.82011  -0.73897
 Alpha  occ. eigenvalues --   -0.70157  -0.65109  -0.62141  -0.56578  -0.55556
 Alpha  occ. eigenvalues --   -0.52157  -0.49793  -0.46888  -0.43512  -0.42038
 Alpha  occ. eigenvalues --   -0.34823  -0.29262  -0.27333
 Alpha virt. eigenvalues --    0.03856   0.04628   0.05004   0.05147   0.05514
 Alpha virt. eigenvalues --    0.06087   0.06377   0.06813   0.07430   0.08097
 Alpha virt. eigenvalues --    0.09314   0.11099   0.12505   0.12979   0.13612

 Mulliken charges:
               1
     1  C   -3.277101
     2  C   -2.886729
     3  N   -2.054639
     4  C   -2.352680
     5  C   -0.446028
     6  C    0.052638
     7  O   -2.652432
     8  H    1.110197
     9  H    1.366242
    10  H    1.327741
    11  H    1.679580
    12  H    1.478455
    13  H    1.502694
    14  H    1.405029
    15  H    1.709717
    16  H    1.317979
    17  H   -0.320278
    18  H    1.039614
 Sum of Mulliken charges =   0.00000

 Dipole moment (field-independent basis, Debye):
    X=              1.6699    Y=              0.4216    Z=              1.2033  Tot=              2.1010

 Test job not archived.
 1\1\GINC-SE135\SP\RHF\Aug-CC-pVDZ\C5H11N1O1\OHZDE\09-Apr-2025\0\\#t hf
  aug-cc-pvdz iop(5/13=1,5/36=2,99/5=2) pseudo=read geom=check guess=(r
 ead,tcheck) scf=(maxcycle=1)\\title\\0,1\C,0,-2.16756844,-0.47348107,-
 0.88402831\C,0,-1.62662858,-0.05745645,0.47045504\N,0,-0.23599474,-0.4
 573496,0.61384363\C,0,0.57828903,0.29727823,1.54191734\C,0,0.74240341,
 0.46547018,0.08350478\C,0,1.87280943,-0.2226472,-0.63977\O,0,2.6484954
 ,-1.07819024,-0.0088441\H,0,-3.22354302,-0.21441998,-0.97588283\H,0,-2
 .05933951,-1.549809,-1.02241005\H,0,-1.62865148,0.02713232,-1.69218636

 Normal termination of Gaussian 16 at Wed Apr  9 19:26:30 2025.
