 Gaussian 16, Revision C.01,

 ----------------------------------------------------------------------
 #t hf aug-cc-pvdz symm=none int=(grid=ultrafine) guess=(read,tcheck) s
 table=(opt,rrhf)
 ----------------------------------------------------------------------
 -----
 title
 -----
 Symbolic Z-matrix:
 Charge =  0 Multiplicity = 1

 SCF Done:  E(RHF) =  -379.411269206     A.U. after   15 cycles
 Normal termination of Gaussian 16 at Wed Apr  9 18:56:41 2025.
 Gaussian 16:  ES64L-G16RevC.01  3-Jul-2019

 ----------------------------------------------------------------------
 #t hf aug-cc-pvdz iop(5/13=1,5/36=2,99/5=2) pseudo=read geom=check gue
 ss=(read,tcheck) scf=(maxcycle=1)
 ----------------------------------------------------------------------
 -----
 title
 -----
 Structure from the checkpoint file:  "Grambow2020_wb97xd3_007852_forward_mol1.chk"
 Charge =  0 Multiplicity = 1

                         Standard orientation:
 ---------------------------------------------------------------------
 Center     Atomic      Atomic             Coordinates (Angstroms)
 Number     Number       Type             X           Y           Z
 ---------------------------------------------------------------------
      1          8           0       -2.035338   -0.845162   -0.091891
      2          6           0       -0.678007   -0.835305   -0.102623
      3          6           0        0.038365    0.628963   -0.658193
      4          8           0       -0.728162    1.547456   -0.047729
      5          6           0        0.001290   -0.128477    0.941797
      6          6           0        1.241114    0.328486    0.255262
      7          8           0        2.103275   -0.706281   -0.111911
      8          1           0       -2.274110    0.096353    0.004008
      9          1           0       -0.198557   -1.685505   -0.572022
     10          1           0        0.193988    0.601732   -1.753080
     11          1           0       -0.421574    0.246039    1.867224
     12          1           0        1.715094    1.208012    0.685835
     13          1           0        2.650389   -0.396730   -0.837170
 ---------------------------------------------------------------------

 SCF Done:  E(RHF) =  -381.062204738     A.U. after    2 cycles

 The electronic state is 1-A.
 Alpha  occ. eigenvalues --  -21.11350 -21.08810 -20.96837 -11.57622 -11.50868
 Alpha  occ. eigenvalues --  -11.48983 -11.42802  -1.79802  -1.73946  -1.64157
 Alpha  occ. eigenvalues --   -1.27070  -0.98231  -0.92156  -0.80593  -0.73181
 Alpha  occ. eigenvalues --   -0.68192  -0.64947  -0.59197  -0.57985  -0.53726
 Alpha  occ. eigenvalues --   -0.47956  -0.44737  -0.40777  -0.36412  -0.35192
 Alpha  occ. eigenvalues --   -0.25102  -0.23136
 Alpha virt. eigenvalues --    0.03357   0.04693   0.04955   0.05400   0.06008
 Alpha virt. eigenvalues --    0.07326   0.08131   0.10197   0.10615   0.11448
 Alpha virt. eigenvalues --    0.12296   0.13856   0.14499   0.14605   0.15270

 Mulliken charges:
               1
     1  O   -3.397844
     2  C    1.809941
     3  C    1.475844
     4  O   -2.944869
     5  C   -2.009004
     6  C    1.163225
     7  O   -3.096016
     8  H    0.695695
     9  H    1.452055
    10  H    1.285146
    11  H    1.234583
    12  H    1.611810
    13  H    0.719432
 Sum of Mulliken charges =   0.00000

 Dipole moment (field-independent basis, Debye):
    X=              1.9796    Y=             -1.2019    Z=              0.5761  Tot=              2.3865

 Test job not archived.
 1\1\GINC-SE226\SP\RHF\Aug-CC-pVDZ\C4H6O3\OHZDE\09-Apr-2025\0\\#t hf au
 g-cc-pvdz iop(5/13=1,5/36=2,99/5=2) pseudo=read geom=check guess=(read
 ,tcheck) scf=(maxcycle=1)\\title\\0,1\O,0,-2.3105168,-0.19256839,0.109
 4363\C,0,-1.02673997,-0.09356493,0.53917613\C,0,0.16183766,-0.66017963
 ,-0.57085008\O,0,-0.29741186,-0.15965055,-1.7294789\C,0,-0.21831081,0.
 96668181,0.01555219\C,0,1.1420929,0.36149745,0.03459911\O,0,1.63867274
 ,0.11661851,1.31613128\H,0,-2.23330647,-0.16257805,-0.86308548\H,0,-0.
 82441,-0.48030892,1.53040647\H,0,0.36622062,-1.73617196,-0.41526844\H,

 Normal termination of Gaussian 16 at Wed Apr  9 18:56:45 2025.
