 Gaussian 16, Revision C.01,

 ----------------------------------------------------------------------
 #t hf aug-cc-pvdz symm=none int=(grid=ultrafine) guess=(read,tcheck) s
 table=(opt,rrhf)
 ----------------------------------------------------------------------
 -----
 title
 -----
 Symbolic Z-matrix:
 Charge =  0 Multiplicity = 1

 SCF Done:  E(RHF) =  -342.437528584     A.U. after   16 cycles
 Normal termination of Gaussian 16 at Wed Apr  9 19:15:58 2025.
 Gaussian 16:  ES64L-G16RevC.01  3-Jul-2019

 ----------------------------------------------------------------------
 #t hf aug-cc-pvdz iop(5/13=1,5/36=2,99/5=2) pseudo=read geom=check gue
 ss=(read,tcheck) scf=(maxcycle=1)
 ----------------------------------------------------------------------
 -----
 title
 -----
 Structure from the checkpoint file:  "Grambow2020_wb97xd3_008521_reverse_mol1.chk"
 Charge =  0 Multiplicity = 1

                         Standard orientation:
 ---------------------------------------------------------------------
 Center     Atomic      Atomic             Coordinates (Angstroms)
 Number     Number       Type             X           Y           Z
 ---------------------------------------------------------------------
      1          8           0       -2.049129   -0.791778    0.093175
      2          6           0       -1.015661   -0.231880   -0.133071
      3          6           0       -0.695845    1.220701    0.205659
      4          8           0        0.704390    1.352040    0.067694
      5          6           0        1.219936    0.139039   -0.444127
      6          6           0        1.396719   -0.996087    0.610344
      7          6           0        0.221775   -0.832556   -0.815259
      8          1           0       -1.012205    1.438133    1.228251
      9          1           0       -1.212430    1.906738   -0.473683
     10          1           0        2.098860    0.335486   -1.045871
     11          1           0        1.210498   -0.609459    1.607788
     12          1           0        2.313547   -1.558646    0.478452
     13          1           0        0.598094   -1.789661    0.376831
 ---------------------------------------------------------------------

 SCF Done:  E(RHF) =  -343.960312550     A.U. after    2 cycles

 The electronic state is 1-A.
 Alpha  occ. eigenvalues --  -21.07708 -21.07207 -11.51204 -11.48873 -11.44271
 Alpha  occ. eigenvalues --  -11.43675 -11.40781  -1.81218  -1.71691  -1.29239
 Alpha  occ. eigenvalues --   -1.08888  -0.97554  -0.85988  -0.75874  -0.69358
 Alpha  occ. eigenvalues --   -0.65293  -0.62447  -0.59416  -0.56240  -0.52399
 Alpha  occ. eigenvalues --   -0.50017  -0.47009  -0.43508  -0.35265  -0.30154
 Alpha  occ. eigenvalues --   -0.28524
 Alpha virt. eigenvalues --    0.03302   0.04535   0.05228   0.05612   0.06072
 Alpha virt. eigenvalues --    0.07200   0.08975   0.09744   0.10347   0.10997
 Alpha virt. eigenvalues --    0.11765   0.13322   0.13681   0.14254   0.14677

 Mulliken charges:
               1
     1  O   -3.349156
     2  C    4.609080
     3  C   -1.840699
     4  O   -3.377341
     5  C    1.224262
     6  C   -3.438130
     7  C   -1.632587
     8  H    1.351212
     9  H    1.386996
    10  H    1.510095
    11  H    1.350361
    12  H    1.187223
    13  H    1.018683
 Sum of Mulliken charges =   0.00000

 Dipole moment (field-independent basis, Debye):
    X=              1.6895    Y=              0.9124    Z=              1.6543  Tot=              2.5345

 Test job not archived.
 1\1\GINC-SE118\SP\RHF\Aug-CC-pVDZ\C5H6O2\OHZDE\09-Apr-2025\0\\#t hf au
 g-cc-pvdz iop(5/13=1,5/36=2,99/5=2) pseudo=read geom=check guess=(read
 ,tcheck) scf=(maxcycle=1)\\title\\0,1\O,0,1.17789158,1.98858095,0.8177
 2487\C,0,0.79367743,1.06713383,0.1573882\C,0,1.56926409,-0.2173274,-0.
 11763606\O,0,0.63003837,-1.13249733,-0.64419371\C,0,-0.60083117,-0.459
 52944,-0.82081301\C,0,-1.44695568,-0.28685,0.47762021\C,0,-0.55536916,
 0.958901,-0.56773181\H,0,2.00349144,-0.5910444,0.81232898\H,0,2.377237
 29,-0.04369658,-0.835998\H,0,-1.14043997,-0.8888187,-1.65611311\H,0,-0

 Normal termination of Gaussian 16 at Wed Apr  9 19:16:02 2025.
