 Gaussian 16, Revision C.01,

 ----------------------------------------------------------------------
 #t hf aug-cc-pvdz symm=none int=(grid=ultrafine) guess=(read,tcheck) s
 table=(opt,rrhf)
 ----------------------------------------------------------------------
 -----
 title
 -----
 Symbolic Z-matrix:
 Charge =  0 Multiplicity = 1

 SCF Done:  E(RHF) =  -320.593159159     A.U. after   16 cycles
 Normal termination of Gaussian 16 at Wed Apr  9 17:26:11 2025.
 Gaussian 16:  ES64L-G16RevC.01  3-Jul-2019

 ----------------------------------------------------------------------
 #t hf aug-cc-pvdz iop(5/13=1,5/36=2,99/5=2) pseudo=read geom=check gue
 ss=(read,tcheck) scf=(maxcycle=1)
 ----------------------------------------------------------------------
 -----
 title
 -----
 Structure from the checkpoint file:  "Grambow2020_b97d3_007135_reverse_mol2.chk"
 Charge =  0 Multiplicity = 1

                         Standard orientation:
 ---------------------------------------------------------------------
 Center     Atomic      Atomic             Coordinates (Angstroms)
 Number     Number       Type             X           Y           Z
 ---------------------------------------------------------------------
      1          8           0        2.049080   -0.009762   -0.006354
      2          6           0        0.721576    0.015923    0.265933
      3          7           0       -0.062371    1.093042    0.055411
      4          6           0       -1.371998    0.777898   -0.261043
      5          6           0       -1.423620   -0.703870    0.048956
      6          8           0       -0.009885   -1.109796   -0.049110
      7          1           0        0.316956    2.034249    0.064727
      8          1           0       -2.157655    1.432354    0.119503
      9          1           0        2.171945   -0.447061   -0.884162
     10          1           0       -2.005196   -1.316032   -0.653529
     11          1           0       -1.758753   -0.938040    1.086221
 ---------------------------------------------------------------------

 SCF Done:  E(RHF) =  -321.993639507     A.U. after    2 cycles

 The electronic state is 1-A.
 Alpha  occ. eigenvalues --  -21.12626 -21.08293 -15.84121 -11.48748 -11.43753
 Alpha  occ. eigenvalues --  -11.35805  -1.85366  -1.71828  -1.42074  -1.07748
 Alpha  occ. eigenvalues --   -0.87582  -0.86180  -0.73725  -0.66115  -0.62294
 Alpha  occ. eigenvalues --   -0.58507  -0.54362  -0.53621  -0.45312  -0.42309
 Alpha  occ. eigenvalues --   -0.38545  -0.37025  -0.20361
 Alpha virt. eigenvalues --    0.03700   0.05125   0.05757   0.06019   0.06621
 Alpha virt. eigenvalues --    0.09856   0.10618   0.11083   0.11552   0.11977
 Alpha virt. eigenvalues --    0.13619   0.14729   0.15724   0.16114   0.16834

 Mulliken charges:
               1
     1  O   -2.852297
     2  C    4.974407
     3  N   -2.224003
     4  C   -1.163163
     5  C   -1.687200
     6  O   -2.612680
     7  H    0.815369
     8  H    1.418531
     9  H    0.537169
    10  H    1.448394
    11  H    1.345473
 Sum of Mulliken charges =  -0.00000

 Dipole moment (field-independent basis, Debye):
    X=              0.9974    Y=              0.5961    Z=              0.1894  Tot=              1.1773

 Test job not archived.
 1\1\GINC-SE232\SP\RHF\Aug-CC-pVDZ\C3H5N1O2\OHZDE\09-Apr-2025\0\\#t hf
 aug-cc-pvdz iop(5/13=1,5/36=2,99/5=2) pseudo=read geom=check guess=(re
 ad,tcheck) scf=(maxcycle=1)\\title\\0,1\O,0,2.21903698,-0.05447886,0.8
 9714454\C,0,1.10485604,-0.01996229,0.12612114\N,0,0.21464888,-1.030749
 59,0.05599004\C,0,-1.08400415,-0.61635136,-0.18140475\C,0,-0.88828663,
 0.84025044,-0.5480166\O,0,0.40422089,1.16688743,0.08108861\H,0,0.48851
 057,-1.99124413,0.23570283\H,0,-1.71089243,-1.24793296,-0.81267318\H,0
 ,2.02640469,0.4356024,1.7335576\H,0,-1.64458289,1.53415471,-0.15690233

 Normal termination of Gaussian 16 at Wed Apr  9 17:26:14 2025.
