 Gaussian 16, Revision C.01,

 ----------------------------------------------------------------------
 #t hf aug-cc-pvdz symm=none int=(grid=ultrafine) guess=(read,tcheck) s
 table=(opt,rrhf)
 ----------------------------------------------------------------------
 -----
 title
 -----
 Symbolic Z-matrix:
 Charge =  0 Multiplicity = 1

 SCF Done:  E(RHF) =  -321.248020546     A.U. after   18 cycles
 Normal termination of Gaussian 16 at Wed Apr  9 19:33:37 2025.
 Gaussian 16:  ES64L-G16RevC.01  3-Jul-2019

 ----------------------------------------------------------------------
 #t hf aug-cc-pvdz iop(5/13=1,5/36=2,99/5=2) pseudo=read geom=check gue
 ss=(read,tcheck) scf=(maxcycle=1)
 ----------------------------------------------------------------------
 -----
 title
 -----
 Structure from the checkpoint file:  "Grambow2020_wb97xd3_009375_forward_mol1.chk"
 Charge =  0 Multiplicity = 1

                         Standard orientation:
 ---------------------------------------------------------------------
 Center     Atomic      Atomic             Coordinates (Angstroms)
 Number     Number       Type             X           Y           Z
 ---------------------------------------------------------------------
      1          8           0       -1.510769   -0.779464   -0.000646
      2          6           0        0.386670   -1.242975   -0.000928
      3          6           0        0.906319   -0.267022   -1.043666
      4          6           0        0.885159    0.894418    0.000872
      5          6           0        0.904963   -0.268503    1.043976
      6          6           0       -0.576674    1.360132    0.000325
      7          7           0       -1.324589    0.449290   -0.000084
      8          1           0        1.948486   -0.544691   -1.232165
      9          1           0        0.390358   -0.171914   -1.997424
     10          1           0        1.646624    1.672191    0.000752
     11          1           0        0.387216   -0.175584    1.996913
     12          1           0        1.946964   -0.545623    1.234204
 ---------------------------------------------------------------------

 SCF Done:  E(RHF) =  -322.733529469     A.U. after    2 cycles

 The electronic state is 1-A.
 Alpha  occ. eigenvalues --  -21.12553 -15.89695 -11.50138 -11.46481 -11.43272
 Alpha  occ. eigenvalues --  -11.42953 -11.38409  -1.87729  -1.40108  -1.27055
 Alpha  occ. eigenvalues --   -0.99152  -0.96175  -0.80779  -0.72481  -0.68540
 Alpha  occ. eigenvalues --   -0.65844  -0.62008  -0.57462  -0.54433  -0.54133
 Alpha  occ. eigenvalues --   -0.52389  -0.43447  -0.34562  -0.30946  -0.30803
 Alpha virt. eigenvalues --    0.03399   0.04731   0.04997   0.05430   0.05965
 Alpha virt. eigenvalues --    0.06705   0.08204   0.10402   0.10741   0.10951
 Alpha virt. eigenvalues --    0.12471   0.12861   0.13508   0.13598   0.13999

 Mulliken charges:
               1
     1  O   -2.242607
     2  C   -0.005433
     3  C   -2.281128
     4  C   -1.477101
     5  C   -2.280482
     6  C    0.745174
     7  N    0.679693
     8  H    1.327984
     9  H    1.304486
    10  H    1.597800
    11  H    1.304232
    12  H    1.327381
 Sum of Mulliken charges =  -0.00000

 Dipole moment (field-independent basis, Debye):
    X=              1.7365    Y=              0.1183    Z=              0.0016  Tot=              1.7405

 Test job not archived.
 1\1\GINC-SE100\SP\RHF\Aug-CC-pVDZ\C5H5N1O1\OHZDE\09-Apr-2025\0\\#t hf
 aug-cc-pvdz iop(5/13=1,5/36=2,99/5=2) pseudo=read geom=check guess=(re
 ad,tcheck) scf=(maxcycle=1)\\title\\0,1\O,0,-0.3021655,0.24799154,2.07
 818589\C,0,-1.20266998,-0.10494777,0.38123469\C,0,-0.52082275,0.921206
 69,-0.50865946\C,0,0.73540569,0.00236925,-0.64311315\C,0,-0.25552308,-
 1.12949832,-0.22147174\C,0,1.53361763,0.28473748,0.6363285\N,0,0.83598
 268,0.32664741,1.585306\H,0,-1.06167834,0.91031308,-1.46055297\H,0,-0.
 42744248,1.95141507,-0.16974079\H,0,1.30165139,-0.05313885,-1.57103804

 Normal termination of Gaussian 16 at Wed Apr  9 19:33:42 2025.
