 Gaussian 16, Revision C.01,

 ----------------------------------------------------------------------
 #t hf aug-cc-pvdz symm=none int=(grid=ultrafine) guess=(read,tcheck) s
 table=(opt,rrhf)
 ----------------------------------------------------------------------
 -----
 title
 -----
 Symbolic Z-matrix:
 Charge =  0 Multiplicity = 1

 SCF Done:  E(RHF) =  -191.935564359     A.U. after   12 cycles
 Normal termination of Gaussian 16 at Wed Apr  9 03:21:18 2025.
 Gaussian 16:  ES64L-G16RevC.01  3-Jul-2019

 ----------------------------------------------------------------------
 #t hf aug-cc-pvdz iop(5/13=1,5/36=2,99/5=2) pseudo=read geom=check gue
 ss=(read,tcheck) scf=(maxcycle=1)
 ----------------------------------------------------------------------
 -----
 title
 -----
 Structure from the checkpoint file:  "Grambow2020_wb97xd3_006093_forward_mol2.chk"
 Charge =  0 Multiplicity = 1

                         Standard orientation:
 ---------------------------------------------------------------------
 Center     Atomic      Atomic             Coordinates (Angstroms)
 Number     Number       Type             X           Y           Z
 ---------------------------------------------------------------------
      1          6           0        1.502014    0.101668   -0.146354
      2          6           0        0.149176   -0.045596    0.484257
      3          6           0       -1.037674    0.610232   -0.054612
      4          8           0       -0.820912   -0.777830   -0.248448
      5          1           0        2.069755   -0.826164   -0.054753
      6          1           0        2.067983    0.894997    0.346468
      7          1           0        1.407316    0.344125   -1.205464
      8          1           0        0.150560   -0.275377    1.548713
      9          1           0       -1.865002    0.865572    0.601600
     10          1           0       -0.944414    1.221664   -0.948728
 ---------------------------------------------------------------------

 SCF Done:  E(RHF) =  -192.827718797     A.U. after    2 cycles

 The electronic state is 1-A.
 Alpha  occ. eigenvalues --  -21.05477 -11.47334 -11.41305 -11.37748  -1.78219
 Alpha  occ. eigenvalues --   -1.11391  -0.95548  -0.84722  -0.69447  -0.61418
 Alpha  occ. eigenvalues --   -0.57529  -0.54151  -0.50147  -0.43608  -0.36142
 Alpha  occ. eigenvalues --   -0.30601
 Alpha virt. eigenvalues --    0.03838   0.05592   0.05702   0.06017   0.06247
 Alpha virt. eigenvalues --    0.06857   0.10678   0.12104   0.12678   0.13995
 Alpha virt. eigenvalues --    0.15017   0.15807   0.17036   0.17349   0.18034

 Mulliken charges:
               1
     1  C   -4.054278
     2  C    0.696743
     3  C   -1.943025
     4  O   -2.538711
     5  H    1.158858
     6  H    1.260696
     7  H    1.204154
     8  H    1.396382
     9  H    1.373170
    10  H    1.446012
 Sum of Mulliken charges =  -0.00000

 Dipole moment (field-independent basis, Debye):
    X=              0.3061    Y=              0.4206    Z=              0.2417  Tot=              0.5736

 Test job not archived.
 1\1\GINC-SE132\SP\RHF\Aug-CC-pVDZ\C3H6O1\OHZDE\09-Apr-2025\0\\#t hf au
 g-cc-pvdz iop(5/13=1,5/36=2,99/5=2) pseudo=read geom=check guess=(read
 ,tcheck) scf=(maxcycle=1)\\title\\0,1\C,0,-1.22773651,0.21902491,0.108
 21356\C,0,0.05661809,-0.47526287,-0.23519116\C,0,1.35927865,0.1499427,
 -0.03197558\O,0,0.88773614,-0.8549408,0.85070929\H,0,-1.96339435,-0.49
 809768,0.47717748\H,0,-1.64471548,0.70786911,-0.77480675\H,0,-1.062726
 38,0.97111047,0.88061615\H,0,-0.01452766,-1.23590981,-1.01122129\H,0,2
 .20365746,-0.13453995,-0.65356765\H,0,1.40581005,1.15080393,0.39004594

 Normal termination of Gaussian 16 at Wed Apr  9 03:21:21 2025.
