 Gaussian 16, Revision C.01,

 ----------------------------------------------------------------------
 #t hf aug-cc-pvdz symm=none int=(grid=ultrafine) guess=(read,tcheck) s
 table=(opt,rrhf)
 ----------------------------------------------------------------------
 -----
 title
 -----
 Symbolic Z-matrix:
 Charge =  0 Multiplicity = 1

 SCF Done:  E(RHF) =  -266.639566579     A.U. after   15 cycles
 Normal termination of Gaussian 16 at Wed Apr  9 03:09:41 2025.
 Gaussian 16:  ES64L-G16RevC.01  3-Jul-2019

 ----------------------------------------------------------------------
 #t hf aug-cc-pvdz iop(5/13=1,5/36=2,99/5=2) pseudo=read geom=check gue
 ss=(read,tcheck) scf=(maxcycle=1)
 ----------------------------------------------------------------------
 -----
 title
 -----
 Structure from the checkpoint file:  "Grambow2020_b97d3_006693_forward_mol1.chk"
 Charge =  0 Multiplicity = 1

                         Standard orientation:
 ---------------------------------------------------------------------
 Center     Atomic      Atomic             Coordinates (Angstroms)
 Number     Number       Type             X           Y           Z
 ---------------------------------------------------------------------
      1          6           0       -0.377475    1.127160    0.078508
      2          6           0       -1.243290   -0.126303   -0.064188
      3          8           0       -0.215768   -1.189035   -0.054913
      4          6           0        0.979026   -0.557761    0.016099
      5          8           0        0.897822    0.715082   -0.304250
      6          1           0        0.168699    0.660719    1.685854
      7          1           0       -0.639618    2.083523   -0.364283
      8          1           0       -1.911602   -0.292618    0.792244
      9          1           0       -1.820005   -0.236532   -1.002224
     10          1           0        0.722526    0.036871    1.816356
     11          1           0        1.874001   -1.118912   -0.237161
 ---------------------------------------------------------------------

 SCF Done:  E(RHF) =  -267.849156327     A.U. after    2 cycles

 The electronic state is 1-A.
 Alpha  occ. eigenvalues --  -21.14829 -21.10508 -11.51284 -11.46743 -11.38547
 Alpha  occ. eigenvalues --   -1.93089  -1.71897  -1.11144  -0.88962  -0.84743
 Alpha  occ. eigenvalues --   -0.76099  -0.70961  -0.59770  -0.56320  -0.55973
 Alpha  occ. eigenvalues --   -0.47106  -0.44653  -0.43580  -0.39141  -0.23824
 Alpha virt. eigenvalues --    0.03730   0.05296   0.05608   0.06105   0.07693
 Alpha virt. eigenvalues --    0.08250   0.09902   0.09999   0.10927   0.12811
 Alpha virt. eigenvalues --    0.14085   0.14706   0.15268   0.15524   0.16445

 Mulliken charges:
               1
     1  C   -0.617661
     2  C   -1.682956
     3  O   -2.733041
     4  C    1.933244
     5  O   -2.795490
     6  H   -0.592754
     7  H    1.365707
     8  H    1.382296
     9  H    1.366151
    10  H    0.650231
    11  H    1.724274
 Sum of Mulliken charges =  -0.00000

 Dipole moment (field-independent basis, Debye):
    X=             -0.0434    Y=             -0.8156    Z=             -1.8176  Tot=              1.9927

 Test job not archived.
 1\1\GINC-SE403\SP\RHF\Aug-CC-pVDZ\C3H6O2\OHZDE\09-Apr-2025\0\\#t hf au
 g-cc-pvdz iop(5/13=1,5/36=2,99/5=2) pseudo=read geom=check guess=(read
 ,tcheck) scf=(maxcycle=1)\\title\\0,1\C,0,0.46272134,0.88532733,0.3639
 3442\C,0,1.03609077,-0.46925252,-0.05740831\O,0,-0.19906985,-1.2598377
 9,-0.24352833\C,0,-1.22384335,-0.44369908,0.09535174\O,0,-0.83043441,0
 .59686551,0.79663724\H,0,-0.32308037,1.12389821,-1.19331719\H,0,0.9725
 1216,1.55989297,1.04546708\H,0,1.56644593,-0.43638484,-1.01939556\H,0,
 1.65949915,-1.00523276,0.68336741\H,0,-1.01207395,0.69543633,-1.427089

 Normal termination of Gaussian 16 at Wed Apr  9 03:09:44 2025.
