 Gaussian 16, Revision C.01,

 ----------------------------------------------------------------------
 #t hf aug-cc-pvdz symm=none int=(grid=ultrafine) guess=(read,tcheck) s
 table=(opt,rrhf)
 ----------------------------------------------------------------------
 -----
 title
 -----
 Symbolic Z-matrix:
 Charge =  0 Multiplicity = 1

 SCF Done:  E(RHF) =  -320.112527546     A.U. after   19 cycles
 Normal termination of Gaussian 16 at Wed Apr  9 19:31:54 2025.
 Gaussian 16:  ES64L-G16RevC.01  3-Jul-2019

 ----------------------------------------------------------------------
 #t hf aug-cc-pvdz iop(5/13=1,5/36=2,99/5=2) pseudo=read geom=check gue
 ss=(read,tcheck) scf=(maxcycle=1)
 ----------------------------------------------------------------------
 -----
 title
 -----
 Structure from the checkpoint file:  "Grambow2020_wb97xd3_009369_reverse_mol1.chk"
 Charge =  0 Multiplicity = 1

                         Standard orientation:
 ---------------------------------------------------------------------
 Center     Atomic      Atomic             Coordinates (Angstroms)
 Number     Number       Type             X           Y           Z
 ---------------------------------------------------------------------
      1          6           0        2.955660   -0.267813   -0.001063
      2          6           0        1.833864    0.157929   -0.000163
      3          6           0        0.524536    0.621063    0.000732
      4          6           0       -0.376409    1.453079    0.001010
      5          8           0       -2.211273    0.262984   -0.001595
      6          7           0       -1.648241   -0.808065   -0.000252
      7          6           0       -0.560905   -1.288831    0.000815
      8          1           0        3.959017   -0.622660   -0.001299
      9          1           0       -0.966305    2.339519    0.002573
     10          1           0       -0.025323   -2.216842    0.005272
 ---------------------------------------------------------------------

 SCF Done:  E(RHF) =  -321.580496772     A.U. after    2 cycles

 The electronic state is 1-A.
 Alpha  occ. eigenvalues --  -21.09386 -15.88723 -11.48416 -11.47297 -11.46291
 Alpha  occ. eigenvalues --  -11.43299 -11.42380  -1.85617  -1.27025  -1.20019
 Alpha  occ. eigenvalues --   -1.06770  -0.86431  -0.82024  -0.73745  -0.68545
 Alpha  occ. eigenvalues --   -0.66275  -0.60937  -0.59832  -0.47944  -0.46524
 Alpha  occ. eigenvalues --   -0.34769  -0.33105  -0.32132  -0.31064
 Alpha virt. eigenvalues --    0.02773   0.04628   0.05748   0.08157   0.09577
 Alpha virt. eigenvalues --    0.10038   0.10411   0.10872   0.11006   0.11604
 Alpha virt. eigenvalues --    0.12158   0.13351   0.14282   0.14884   0.15369

 Mulliken charges:
               1
     1  C   -4.001061
     2  C    3.434356
     3  C    2.990197
     4  C   -3.423210
     5  O   -2.479395
     6  N    0.300016
     7  C    0.722922
     8  H    0.478637
     9  H    0.490958
    10  H    1.486581
 Sum of Mulliken charges =  -0.00000

 Dipole moment (field-independent basis, Debye):
    X=             -0.1022    Y=              0.0235    Z=              0.0071  Tot=              0.1051

 Test job not archived.
 1\1\GINC-SE454\SP\RHF\Aug-CC-pVDZ\C5H3N1O1\OHZDE\09-Apr-2025\0\\#t hf
 aug-cc-pvdz iop(5/13=1,5/36=2,99/5=2) pseudo=read geom=check guess=(re
 ad,tcheck) scf=(maxcycle=1)\\title\\0,1\C,0,2.59271422,-0.11042012,0.3
 3644575\C,0,1.45199353,0.25434441,0.26303674\C,0,0.12317206,0.6472557,
 0.16983682\C,0,-0.83023256,1.41713341,0.21737856\O,0,-2.5518402,0.1792
 8529,-0.31820958\N,0,-1.91426405,-0.83835969,-0.46669379\C,0,-0.803661
 53,-1.25861799,-0.40852774\H,0,3.61094408,-0.41155731,0.40831321\H,0,-
 1.48068188,2.25332774,0.32438405\H,0,-0.20451566,-2.13900744,-0.526891

 Normal termination of Gaussian 16 at Wed Apr  9 19:31:58 2025.
