 Gaussian 16, Revision C.01,

 ----------------------------------------------------------------------
 #t hf aug-cc-pvdz symm=none int=(grid=ultrafine) guess=(read,tcheck) s
 table=(opt,rrhf)
 ----------------------------------------------------------------------
 -----
 title
 -----
 Symbolic Z-matrix:
 Charge =  0 Multiplicity = 1

 SCF Done:  E(RHF) =  -269.634796722     A.U. after   14 cycles
 Normal termination of Gaussian 16 at Wed Apr  9 18:05:09 2025.
 Gaussian 16:  ES64L-G16RevC.01  3-Jul-2019

 ----------------------------------------------------------------------
 #t hf aug-cc-pvdz iop(5/13=1,5/36=2,99/5=2) pseudo=read geom=check gue
 ss=(read,tcheck) scf=(maxcycle=1)
 ----------------------------------------------------------------------
 -----
 title
 -----
 Structure from the checkpoint file:  "Grambow2020_wb97xd3_006583_forward_mol2.chk"
 Charge =  0 Multiplicity = 1

                         Standard orientation:
 ---------------------------------------------------------------------
 Center     Atomic      Atomic             Coordinates (Angstroms)
 Number     Number       Type             X           Y           Z
 ---------------------------------------------------------------------
      1          6           0       -0.265081    1.641270    0.182220
      2          6           0       -0.445517    0.218485   -0.349520
      3          6           0        0.518339   -0.780604    0.325149
      4          6           0        1.921284   -0.471201    0.067023
      5          6           0        3.067431   -0.208802   -0.159636
      6          6           0       -1.825713   -0.238318   -0.172454
      7          6           0       -2.951362   -0.611874   -0.005699
      8          1           0       -0.490391    1.681070    1.249695
      9          1           0        0.763167    1.971957    0.031133
     10          1           0       -0.933966    2.331362   -0.331721
     11          1           0       -0.227788    0.215626   -1.422035
     12          1           0        0.336107   -0.781150    1.403360
     13          1           0        0.301747   -1.789802   -0.031210
     14          1           0        4.088432    0.018826   -0.356106
     15          1           0       -3.953593   -0.941623    0.134391
 ---------------------------------------------------------------------

 SCF Done:  E(RHF) =  -270.960767262     A.U. after    2 cycles

 The electronic state is 1-A.
 Alpha  occ. eigenvalues --  -11.47451 -11.44724 -11.42015 -11.40585 -11.40350
 Alpha  occ. eigenvalues --  -11.39733 -11.37625  -1.29941  -1.12619  -1.05806
 Alpha  occ. eigenvalues --   -1.00579  -0.89634  -0.73785  -0.73361  -0.66124
 Alpha  occ. eigenvalues --   -0.63971  -0.59540  -0.56960  -0.50977  -0.50177
 Alpha  occ. eigenvalues --   -0.49700  -0.38681  -0.36892  -0.36619  -0.34941
 Alpha virt. eigenvalues --    0.03103   0.04764   0.05065   0.05462   0.06465
 Alpha virt. eigenvalues --    0.06957   0.07393   0.07483   0.09626   0.10594
 Alpha virt. eigenvalues --    0.11147   0.11813   0.12228   0.13311   0.13475

 Mulliken charges:
               1
     1  C   -4.038917
     2  C   -2.686832
     3  C   -3.549855
     4  C    4.636901
     5  C   -4.485597
     6  C    5.622460
     7  C   -4.962210
     8  H    1.297436
     9  H    1.352529
    10  H    1.152130
    11  H    1.583531
    12  H    1.346287
    13  H    1.324804
    14  H    0.703537
    15  H    0.703795
 Sum of Mulliken charges =  -0.00000

 Dipole moment (field-independent basis, Debye):
    X=             -0.0233    Y=              0.1895    Z=             -0.0167  Tot=              0.1917

 Test job not archived.
 1\1\GINC-SE362\SP\RHF\Aug-CC-pVDZ\C7H8\OHZDE\09-Apr-2025\0\\#t hf aug-
 cc-pvdz iop(5/13=1,5/36=2,99/5=2) pseudo=read geom=check guess=(read,t
 check) scf=(maxcycle=1)\\title\\0,1\C,0,-0.10187268,-1.51280311,-0.071
 98733\C,0,-0.32255694,-0.11771107,0.51507057\C,0,0.32372185,0.9854858,
 -0.34960123\C,0,1.77471852,0.85368906,-0.4382094\C,0,2.96505348,0.7366
 1969,-0.49546016\C,0,-1.75029989,0.16398013,0.67987657\C,0,-2.92017046
 ,0.39448531,0.79260631\H,0,-0.56830985,-1.59084902,-1.05595704\H,0,0.9
 6519022,-1.71291056,-0.1759603\H,0,-0.53987093,-2.27470397,0.57255515\

 Normal termination of Gaussian 16 at Wed Apr  9 18:05:13 2025.
