 Gaussian 16, Revision C.01,

 ----------------------------------------------------------------------
 #t hf aug-cc-pvdz symm=none int=(grid=ultrafine) guess=(read,tcheck) s
 table=(opt,rrhf)
 ----------------------------------------------------------------------
 -----
 title
 -----
 Symbolic Z-matrix:
 Charge =  0 Multiplicity = 1

 SCF Done:  E(RHF) =  -302.779630836     A.U. after   15 cycles
 Normal termination of Gaussian 16 at Wed Apr  9 19:30:15 2025.
 Gaussian 16:  ES64L-G16RevC.01  3-Jul-2019

 ----------------------------------------------------------------------
 #t hf aug-cc-pvdz iop(5/13=1,5/36=2,99/5=2) pseudo=read geom=check gue
 ss=(read,tcheck) scf=(maxcycle=1)
 ----------------------------------------------------------------------
 -----
 title
 -----
 Structure from the checkpoint file:  "Grambow2020_wb97xd3_009075_forward_mol1.chk"
 Charge =  0 Multiplicity = 1

                         Standard orientation:
 ---------------------------------------------------------------------
 Center     Atomic      Atomic             Coordinates (Angstroms)
 Number     Number       Type             X           Y           Z
 ---------------------------------------------------------------------
      1          6           0        1.525491   -1.317254    0.465556
      2          7           0        1.259507    0.254985   -0.516881
      3          6           0        0.848331    1.396718    0.048239
      4          6           0       -0.510889    1.330035    0.308165
      5          6           0       -0.900076    0.048156   -0.067293
      6          6           0       -2.229714   -0.621747    0.042081
      7          7           0        0.154855   -0.591622   -0.591573
      8          1           0        2.192042   -0.792799    1.142236
      9          1           0        2.052071   -1.902845   -0.273137
     10          1           0        0.791126   -1.899245    1.014638
     11          1           0        1.540187    2.209660    0.209715
     12          1           0       -1.147487    2.121047    0.675118
     13          1           0       -3.037955    0.054958   -0.238264
     14          1           0       -2.422755   -0.959885    1.063730
     15          1           0       -2.266622   -1.489884   -0.615353
 ---------------------------------------------------------------------

 SCF Done:  E(RHF) =  -304.255340556     A.U. after    2 cycles

 The electronic state is 1-A.
 Alpha  occ. eigenvalues --  -15.74212 -15.73651 -11.45794 -11.44481 -11.40897
 Alpha  occ. eigenvalues --  -11.39108 -11.35372  -1.58681  -1.19190  -1.14927
 Alpha  occ. eigenvalues --   -1.02602  -0.99738  -0.79643  -0.75793  -0.67563
 Alpha  occ. eigenvalues --   -0.62317  -0.60881  -0.59493  -0.57079  -0.54473
 Alpha  occ. eigenvalues --   -0.49986  -0.47994  -0.41349  -0.36666  -0.33886
 Alpha  occ. eigenvalues --   -0.29644
 Alpha virt. eigenvalues --    0.03304   0.04939   0.05342   0.05547   0.06043
 Alpha virt. eigenvalues --    0.06552   0.06971   0.07563   0.09843   0.11602
 Alpha virt. eigenvalues --    0.11836   0.12454   0.12945   0.13634   0.14825

 Mulliken charges:
               1
     1  C   -3.758996
     2  N   -2.017193
     3  C   -0.056457
     4  C   -2.172015
     5  C    4.762307
     6  C   -4.497685
     7  N   -2.297646
     8  H    1.348255
     9  H    1.251125
    10  H    1.390288
    11  H    1.314909
    12  H    1.272450
    13  H    1.083206
    14  H    1.128968
    15  H    1.248484
 Sum of Mulliken charges =  -0.00000

 Dipole moment (field-independent basis, Debye):
    X=              0.0098    Y=             -0.5231    Z=              1.7319  Tot=              1.8092

 Test job not archived.
 1\1\GINC-SE207\SP\RHF\Aug-CC-pVDZ\C5H8N2\OHZDE\09-Apr-2025\0\\#t hf au
 g-cc-pvdz iop(5/13=1,5/36=2,99/5=2) pseudo=read geom=check guess=(read
 ,tcheck) scf=(maxcycle=1)\\title\\0,1\C,0,1.83487206,-0.85402448,0.385
 13152\N,0,1.2843286,0.40533174,-0.88718432\C,0,0.74425022,1.58251732,-
 0.54875977\C,0,-0.57293365,1.40113196,-0.15938394\C,0,-0.7915441,0.028
 10912,-0.21104681\C,0,-2.00000756,-0.76586784,0.16028195\N,0,0.3131133
 6,-0.57190443,-0.67664418\H,0,2.45596767,-0.10750616,0.86906177\H,0,2.
 39727995,-1.51901108,-0.25311703\H,0,1.22714813,-1.3859525,1.1112315\H

 Normal termination of Gaussian 16 at Wed Apr  9 19:30:20 2025.
