 Gaussian 16, Revision C.01,

 ----------------------------------------------------------------------
 #t hf aug-cc-pvdz symm=none int=(grid=ultrafine) guess=(read,tcheck) s
 table=(opt,rrhf)
 ----------------------------------------------------------------------
 -----
 title
 -----
 Symbolic Z-matrix:
 Charge =  0 Multiplicity = 1

 SCF Done:  E(RHF) =  -322.628206582     A.U. after   16 cycles
 Normal termination of Gaussian 16 at Wed Apr  9 18:53:46 2025.
 Gaussian 16:  ES64L-G16RevC.01  3-Jul-2019

 ----------------------------------------------------------------------
 #t hf aug-cc-pvdz iop(5/13=1,5/36=2,99/5=2) pseudo=read geom=check gue
 ss=(read,tcheck) scf=(maxcycle=1)
 ----------------------------------------------------------------------
 -----
 title
 -----
 Structure from the checkpoint file:  "Grambow2020_wb97xd3_007760_forward_mol1.chk"
 Charge =  0 Multiplicity = 1

                         Standard orientation:
 ---------------------------------------------------------------------
 Center     Atomic      Atomic             Coordinates (Angstroms)
 Number     Number       Type             X           Y           Z
 ---------------------------------------------------------------------
      1          6           0       -2.484971   -0.423896   -0.173002
      2          6           0       -1.053567   -0.102591    0.174340
      3          6           0        0.040338   -1.022223    0.092643
      4          6           0        1.253111   -0.335985   -0.018449
      5          7           0        2.481125   -0.598464   -0.061098
      6          8           0        0.806216    1.145002   -0.046596
      7          6           0       -0.469268    1.196356   -0.009162
      8          1           0       -3.156348    0.404890    0.057003
      9          1           0       -2.555297   -0.649941   -1.236599
     10          1           0       -2.818879   -1.299913    0.381654
     11          1           0       -0.032153   -2.092754    0.165746
     12          1           0        3.078321    0.204697   -0.194415
     13          1           0       -1.076486    0.434732    1.253965
     14          1           0       -0.970617    2.157543   -0.025118
 ---------------------------------------------------------------------

 SCF Done:  E(RHF) =  -324.125293328     A.U. after    2 cycles

 The electronic state is 1-A.
 Alpha  occ. eigenvalues --  -21.13365 -15.68089 -11.55140 -11.50071 -11.47597
 Alpha  occ. eigenvalues --  -11.42596 -11.35110  -1.85902  -1.29986  -1.27705
 Alpha  occ. eigenvalues --   -1.06046  -1.01779  -0.83135  -0.77397  -0.70027
 Alpha  occ. eigenvalues --   -0.66801  -0.61866  -0.60152  -0.57630  -0.52181
 Alpha  occ. eigenvalues --   -0.49647  -0.47605  -0.44659  -0.41078  -0.34135
 Alpha  occ. eigenvalues --   -0.23201
 Alpha virt. eigenvalues --    0.02035   0.03771   0.04781   0.05456   0.05741
 Alpha virt. eigenvalues --    0.06955   0.07368   0.08093   0.10591   0.11092
 Alpha virt. eigenvalues --    0.11585   0.13119   0.13351   0.13947   0.14333

 Mulliken charges:
               1
     1  C   -4.158716
     2  C   -0.115519
     3  C   -2.296421
     4  C    4.031007
     5  N   -3.783909
     6  O   -3.786912
     7  C    1.417802
     8  H    1.142198
     9  H    1.201352
    10  H    1.119654
    11  H    1.474710
    12  H    0.813631
    13  H    1.384664
    14  H    1.556459
 Sum of Mulliken charges =  -0.00000

 Dipole moment (field-independent basis, Debye):
    X=             -4.4661    Y=              3.7848    Z=             -0.1322  Tot=              5.8556

 Test job not archived.
 1\1\GINC-SE173\SP\RHF\Aug-CC-pVDZ\C5H7N1O1\OHZDE\09-Apr-2025\0\\#t hf
 aug-cc-pvdz iop(5/13=1,5/36=2,99/5=2) pseudo=read geom=check guess=(re
 ad,tcheck) scf=(maxcycle=1)\\title\\0,1\C,0,-1.97353154,-0.0658442,-0.
 47341231\C,0,-0.57206567,-0.03548641,0.08136061\C,0,0.46952881,-0.9558
 0457,-0.2608669\C,0,1.72465529,-0.39602683,-0.00515482\N,0,2.93292094,
 -0.73794047,-0.04900617\O,0,1.36937533,1.02192692,0.50180987\C,0,0.102
 41875,1.17567296,0.45620363\H,0,-2.61707488,0.6750553,0.00350949\H,0,-
 1.94113977,0.13235666,-1.54436918\H,0,-2.41538251,-1.05036136,-0.32496

 Normal termination of Gaussian 16 at Wed Apr  9 18:53:50 2025.
