 Gaussian 16, Revision C.01,

 ----------------------------------------------------------------------
 #t hf aug-cc-pvdz symm=none int=(grid=ultrafine) guess=(read,tcheck) s
 table=(opt,rrhf)
 ----------------------------------------------------------------------
 -----
 title
 -----
 Symbolic Z-matrix:
 Charge =  0 Multiplicity = 1

 SCF Done:  E(RHF) =  -306.644798632     A.U. after   13 cycles
 Normal termination of Gaussian 16 at Wed Apr  9 04:05:45 2025.
 Gaussian 16:  ES64L-G16RevC.01  3-Jul-2019

 ----------------------------------------------------------------------
 #t hf aug-cc-pvdz iop(5/13=1,5/36=2,99/5=2) pseudo=read geom=check gue
 ss=(read,tcheck) scf=(maxcycle=1)
 ----------------------------------------------------------------------
 -----
 title
 -----
 Structure from the checkpoint file:  "Grambow2020_wb97xd3_009277_reverse_mol2.chk"
 Charge =  0 Multiplicity = 1

                         Standard orientation:
 ---------------------------------------------------------------------
 Center     Atomic      Atomic             Coordinates (Angstroms)
 Number     Number       Type             X           Y           Z
 ---------------------------------------------------------------------
      1          6           0       -1.613642    1.282393   -0.418949
      2          6           0       -0.926473    0.000161   -0.040898
      3          6           0       -1.616933   -1.279629   -0.421457
      4          6           0        0.485528   -0.001365    0.233337
      5          8           0       -0.350714   -0.002403    1.309239
      6          6           0        1.742251    0.000243   -0.045143
      7          6           0        3.005008   -0.000180   -0.365122
      8          1           0       -2.622924    1.306744   -0.002306
      9          1           0       -1.693348    1.357092   -1.505104
     10          1           0       -1.055614    2.141503   -0.050368
     11          1           0        3.555495    0.925914   -0.496437
     12          1           0       -2.627958   -1.299062   -0.008766
     13          1           0       -1.692692   -1.355429   -1.507756
     14          1           0       -1.064342   -2.140596   -0.048890
     15          1           0        3.552665   -0.926678   -0.504891
 ---------------------------------------------------------------------

 SCF Done:  E(RHF) =  -308.084306498     A.U. after    2 cycles

 The electronic state is 1-A.
 Alpha  occ. eigenvalues --  -21.07902 -11.50729 -11.45940 -11.42495 -11.41301
 Alpha  occ. eigenvalues --  -11.40350 -11.38609  -1.80949  -1.18591  -1.15492
 Alpha  occ. eigenvalues --   -1.03492  -0.96700  -0.85595  -0.69976  -0.64033
 Alpha  occ. eigenvalues --   -0.63097  -0.60857  -0.59931  -0.55847  -0.55305
 Alpha  occ. eigenvalues --   -0.51287  -0.48315  -0.40707  -0.40421  -0.32225
 Alpha  occ. eigenvalues --   -0.27884
 Alpha virt. eigenvalues --    0.03110   0.05005   0.05181   0.05776   0.06019
 Alpha virt. eigenvalues --    0.06087   0.07246   0.08338   0.09844   0.10803
 Alpha virt. eigenvalues --    0.11440   0.12323   0.12511   0.13707   0.14295

 Mulliken charges:
               1
     1  C   -4.560933
     2  C    1.881912
     3  C   -4.557626
     4  C    4.850267
     5  O   -3.166947
     6  C    1.493097
     7  C   -5.371697
     8  H    1.112170
     9  H    1.180614
    10  H    1.290440
    11  H    1.131867
    12  H    1.113555
    13  H    1.181132
    14  H    1.289821
    15  H    1.132328
 Sum of Mulliken charges =   0.00000

 Dipole moment (field-independent basis, Debye):
    X=             -1.3240    Y=              0.0002    Z=             -0.3402  Tot=              1.3670

 Test job not archived.
 1\1\GINC-SE253\SP\RHF\Aug-CC-pVDZ\C6H8O1\OHZDE\09-Apr-2025\0\\#t hf au
 g-cc-pvdz iop(5/13=1,5/36=2,99/5=2) pseudo=read geom=check guess=(read
 ,tcheck) scf=(maxcycle=1)\\title\\0,1\C,0,-1.06877325,0.87897048,-1.42
 498325\C,0,-0.63855216,0.49353713,-0.03732549\C,0,-1.65758923,-0.19993
 309,0.82295731\C,0,0.76128043,0.3714699,0.27011938\O,0,0.14291812,1.52
 108691,0.6611159\C,0,1.91876047,-0.19089121,0.30003699\C,0,3.07448598,
 -0.7917771,0.31335741\H,0,-1.9595924,1.50942146,-1.38247552\H,0,-1.313
 2853,-0.01494215,-2.00187264\H,0,-0.27481091,1.41886033,-1.93826815\H,

 Normal termination of Gaussian 16 at Wed Apr  9 04:05:51 2025.
