 Gaussian 16, Revision C.01,

 ----------------------------------------------------------------------
 #t hf aug-cc-pvdz symm=none int=(grid=ultrafine) guess=(read,tcheck) s
 table=(opt,rrhf)
 ----------------------------------------------------------------------
 -----
 title
 -----
 Symbolic Z-matrix:
 Charge =  0 Multiplicity = 1

 SCF Done:  E(RHF) =  -307.904134137     A.U. after   14 cycles

 1\1\GINC-SE362\Stability\RHF\Aug-CC-pVDZ\C6H10O1\OHZDE\09-Apr-2025\0\\
 #t hf aug-cc-pvdz symm=none int=(grid=ultrafine) guess=(read,tcheck) s
 table=(opt,rrhf)\\title\\0,1\C,0,-2.2001064,-0.61674197,0.2256051\C,0,
 -1.12587151,-1.2290129,-0.61526054\O,0,-0.26009829,2.13880318,0.043013
 44\C,0,0.89067263,1.98503175,-0.26109808\C,0,1.72212514,0.78049564,0.0
 8815523\C,0,0.92581779,-0.40214788,0.63320092\C,0,0.1882527,-1.1377388
 7,-0.44789237\H,0,-2.85309761,0.00337101,-0.39294527\H,0,-1.8063342,0.
 01706741,1.01716369\H,0,-2.82585417,-1.39319121,0.6742759\H,0,-1.47564

 Normal termination of Gaussian 16 at Wed Apr  9 18:20:22 2025.
 Gaussian 16:  ES64L-G16RevC.01  3-Jul-2019

 ----------------------------------------------------------------------
 #t hf aug-cc-pvdz iop(5/13=1,5/36=2,99/5=2) pseudo=read geom=check gue
 ss=(read,tcheck) scf=(maxcycle=1)
 ----------------------------------------------------------------------
 -----
 title
 -----
 Structure from the checkpoint file:  "Grambow2020_wb97xd3_006912_reverse_mol2.chk"
 Charge =  0 Multiplicity = 1

                         Standard orientation:
 ---------------------------------------------------------------------
 Center     Atomic      Atomic             Coordinates (Angstroms)
 Number     Number       Type             X           Y           Z
 ---------------------------------------------------------------------
      1          6           0       -2.158979    0.922763    0.332986
      2          6           0       -1.841160   -0.275290   -0.503417
      3          8           0        1.135896    1.571718   -0.002648
      4          6           0        1.848461    0.660792   -0.323378
      5          6           0        1.633722   -0.778745    0.058484
      6          6           0        0.266018   -1.074924    0.667983
      7          6           0       -0.821143   -1.114406   -0.366609
      8          1           0       -2.229973    1.812258   -0.297331
      9          1           0       -1.403017    1.121540    1.089521
     10          1           0       -3.127409    0.800867    0.825961
     11          1           0       -2.533371   -0.469314   -1.319305
     12          1           0        2.761666    0.853622   -0.925472
     13          1           0        2.443601   -1.026734    0.756614
     14          1           0        1.821429   -1.393374   -0.829087
     15          1           0        0.049138   -0.334524    1.437833
     16          1           0        0.313425   -2.047141    1.166891
     17          1           0       -0.744168   -1.932090   -1.080734
 ---------------------------------------------------------------------

 SCF Done:  E(RHF) =  -309.373100205     A.U. after    2 cycles

 The electronic state is 1-A.
 Alpha  occ. eigenvalues --  -21.06006 -11.48471 -11.44314 -11.42210 -11.39193
 Alpha  occ. eigenvalues --  -11.38025 -11.35121  -1.71184  -1.25932  -1.14380
 Alpha  occ. eigenvalues --   -1.01546  -0.92913  -0.79596  -0.74385  -0.67764
 Alpha  occ. eigenvalues --   -0.63594  -0.61982  -0.55464  -0.53783  -0.52669
 Alpha  occ. eigenvalues --   -0.51744  -0.49061  -0.46475  -0.43976  -0.41965
 Alpha  occ. eigenvalues --   -0.32951  -0.29066
 Alpha virt. eigenvalues --    0.03684   0.04958   0.05182   0.05448   0.05788
 Alpha virt. eigenvalues --    0.06001   0.06797   0.07347   0.07363   0.09189
 Alpha virt. eigenvalues --    0.11754   0.11875   0.12449   0.13177   0.13771

 Mulliken charges:
               1
     1  C   -4.615353
     2  C   -0.774147
     3  O   -2.860941
     4  C    1.521700
     5  C   -2.971362
     6  C   -3.671576
     7  C   -0.444211
     8  H    1.191754
     9  H    1.525701
    10  H    1.117639
    11  H    1.414175
    12  H    1.533606
    13  H    1.324573
    14  H    1.457480
    15  H    1.650717
    16  H    1.159149
    17  H    1.441095
 Sum of Mulliken charges =   0.00000

 Dipole moment (field-independent basis, Debye):
    X=              0.3898    Y=             -0.7718    Z=              0.0528  Tot=              0.8662

 Test job not archived.
 1\1\GINC-SE362\SP\RHF\Aug-CC-pVDZ\C6H10O1\OHZDE\09-Apr-2025\0\\#t hf a
 ug-cc-pvdz iop(5/13=1,5/36=2,99/5=2) pseudo=read geom=check guess=(rea
 d,tcheck) scf=(maxcycle=1)\\title\\0,1\C,0,-2.2001064,-0.61674197,0.22
 56051\C,0,-1.12587151,-1.2290129,-0.61526054\O,0,-0.26009829,2.1388031
 8,0.04301344\C,0,0.89067263,1.98503175,-0.26109808\C,0,1.72212514,0.78
 049564,0.08815523\C,0,0.92581779,-0.40214788,0.63320092\C,0,0.1882527,
 -1.13773887,-0.44789237\H,0,-2.85309761,0.00337101,-0.39294527\H,0,-1.
 8063342,0.01706741,1.01716369\H,0,-2.82585417,-1.39319121,0.6742759\H,

 Normal termination of Gaussian 16 at Wed Apr  9 18:20:27 2025.
