 Gaussian 16, Revision C.01,

 ----------------------------------------------------------------------
 #t hf aug-cc-pvdz symm=none int=(grid=ultrafine) guess=(read,tcheck) s
 table=(opt,rrhf)
 ----------------------------------------------------------------------
 -----
 title
 -----
 Symbolic Z-matrix:
 Charge =  0 Multiplicity = 1

 SCF Done:  E(RHF) =  -343.504871488     A.U. after   15 cycles
 Normal termination of Gaussian 16 at Wed Apr  9 03:28:23 2025.
 Gaussian 16:  ES64L-G16RevC.01  3-Jul-2019

 ----------------------------------------------------------------------
 #t hf aug-cc-pvdz iop(5/13=1,5/36=2,99/5=2) pseudo=read geom=check gue
 ss=(read,tcheck) scf=(maxcycle=1)
 ----------------------------------------------------------------------
 -----
 title
 -----
 Structure from the checkpoint file:  "Grambow2020_wb97xd3_006709_forward_mol1.chk"
 Charge =  0 Multiplicity = 1

                         Standard orientation:
 ---------------------------------------------------------------------
 Center     Atomic      Atomic             Coordinates (Angstroms)
 Number     Number       Type             X           Y           Z
 ---------------------------------------------------------------------
      1          8           0        2.504184    0.223620   -0.251817
      2          6           0        1.823554   -0.892107    0.044515
      3          6           0        0.036216    0.089989    0.874544
      4          8           0       -0.130645    1.048846   -0.176230
      5          6           0       -1.502925    0.664410   -0.296148
      6          6           0       -1.632212   -0.741681   -0.740350
      7          6           0       -1.361802   -0.443359    0.713544
      8          1           0        2.086697    0.714534   -0.972998
      9          1           0        1.198931   -1.232509   -0.792121
     10          1           0        1.068307   -0.771140    1.003267
     11          1           0        0.245292    0.597547    1.821153
     12          1           0       -2.235049    1.451314   -0.413139
     13          1           0       -0.869420   -1.181266   -1.371475
     14          1           0       -2.645187   -1.067765   -0.941068
     15          1           0       -2.014859   -0.753943    1.514137
 ---------------------------------------------------------------------

 SCF Done:  E(RHF) =  -345.076788537     A.U. after    2 cycles

 The electronic state is 1-A.
 Alpha  occ. eigenvalues --  -21.09296 -21.06642 -11.49799 -11.47865 -11.43707
 Alpha  occ. eigenvalues --  -11.41146 -11.39203  -1.81539  -1.73639  -1.27537
 Alpha  occ. eigenvalues --   -1.04789  -0.92640  -0.86855  -0.78802  -0.74652
 Alpha  occ. eigenvalues --   -0.65701  -0.64391  -0.63342  -0.55252  -0.51955
 Alpha  occ. eigenvalues --   -0.48768  -0.46154  -0.44740  -0.38805  -0.36274
 Alpha  occ. eigenvalues --   -0.30884  -0.25803
 Alpha virt. eigenvalues --    0.03595   0.04663   0.04717   0.05138   0.06377
 Alpha virt. eigenvalues --    0.07012   0.07237   0.07662   0.09681   0.11617
 Alpha virt. eigenvalues --    0.12231   0.12930   0.13174   0.14009   0.14049

 Mulliken charges:
               1
     1  O   -2.420097
     2  C   -1.433702
     3  C   -1.131522
     4  O   -3.096430
     5  C    1.675158
     6  C   -3.251781
     7  C   -1.355863
     8  H    0.941352
     9  H    1.334725
    10  H    2.551643
    11  H    1.237301
    12  H    1.289298
    13  H    1.287635
    14  H    1.270360
    15  H    1.101920
 Sum of Mulliken charges =   0.00000

 Dipole moment (field-independent basis, Debye):
    X=             -3.1099    Y=              1.4205    Z=             -0.5967  Tot=              3.4707

 Test job not archived.
 1\1\GINC-SE334\SP\RHF\Aug-CC-pVDZ\C5H8O2\OHZDE\09-Apr-2025\0\\#t hf au
 g-cc-pvdz iop(5/13=1,5/36=2,99/5=2) pseudo=read geom=check guess=(read
 ,tcheck) scf=(maxcycle=1)\\title\\0,1\O,0,2.46140653,0.99571632,0.7874
 3718\C,0,2.1197559,0.37333724,-0.34915232\C,0,0.39151546,-0.73072943,0
 .45225806\O,0,-0.20588731,0.37265598,1.14292805\C,0,-1.45491051,0.0796
 4133,0.51094196\C,0,-1.37321034,0.26257866,-0.95568099\C,0,-0.85899668
 ,-1.01314331,-0.33596705\H,0,1.79921361,1.65082302,1.04768517\H,0,1.41
 406229,0.96260657,-0.94977205\H,0,1.58715016,-0.71766359,-0.17512671\H

 Normal termination of Gaussian 16 at Wed Apr  9 03:28:28 2025.
