 Gaussian 16, Revision C.01,

 ----------------------------------------------------------------------
 #t hf aug-cc-pvdz symm=none int=(grid=ultrafine) guess=(read,tcheck) s
 table=(opt,rrhf)
 ----------------------------------------------------------------------
 -----
 title
 -----
 Symbolic Z-matrix:
 Charge =  0 Multiplicity = 1

 SCF Done:  E(RHF) =  -338.560201271     A.U. after   17 cycles
 Normal termination of Gaussian 16 at Wed Apr  9 03:59:39 2025.
 Gaussian 16:  ES64L-G16RevC.01  3-Jul-2019

 ----------------------------------------------------------------------
 #t hf aug-cc-pvdz iop(5/13=1,5/36=2,99/5=2) pseudo=read geom=check gue
 ss=(read,tcheck) scf=(maxcycle=1)
 ----------------------------------------------------------------------
 -----
 title
 -----
 Structure from the checkpoint file:  "Grambow2020_wb97xd3_008804_forward_mol1.chk"
 Charge =  0 Multiplicity = 1

                         Standard orientation:
 ---------------------------------------------------------------------
 Center     Atomic      Atomic             Coordinates (Angstroms)
 Number     Number       Type             X           Y           Z
 ---------------------------------------------------------------------
      1          7           0        1.195024   -1.720505   -0.217325
      2          6           0        0.490693   -0.625594    0.153530
      3          6           0       -0.792808   -0.131245    0.161174
      4          8           0       -2.021750   -0.709713    0.084528
      5          7           0       -0.676938    1.233891   -0.076841
      6          6           0        0.581244    1.657020   -0.132661
      7          6           0        1.406974    0.511854    0.106191
      8          1           0        0.949586   -2.612398    0.199022
      9          1           0        2.064597   -0.542932   -0.441373
     10          1           0       -2.018519   -1.350648   -0.633768
     11          1           0       -1.487262    1.816736   -0.217911
     12          1           0        0.814475    2.708267   -0.189403
     13          1           0        2.107908    0.592768    0.936968
 ---------------------------------------------------------------------

 SCF Done:  E(RHF) =  -340.113624393     A.U. after    2 cycles

 The electronic state is 1-A.
 Alpha  occ. eigenvalues --  -21.10326 -15.83981 -15.67722 -11.47316 -11.45902
 Alpha  occ. eigenvalues --  -11.41377 -11.36646  -1.75904  -1.52029  -1.31034
 Alpha  occ. eigenvalues --   -1.08829  -1.02984  -0.87274  -0.77115  -0.73986
 Alpha  occ. eigenvalues --   -0.65880  -0.63239  -0.58974  -0.56351  -0.50889
 Alpha  occ. eigenvalues --   -0.48192  -0.44222  -0.40528  -0.32958  -0.32427
 Alpha  occ. eigenvalues --   -0.22334
 Alpha virt. eigenvalues --    0.03026   0.04917   0.05039   0.06305   0.06917
 Alpha virt. eigenvalues --    0.08028   0.08565   0.09927   0.10978   0.11556
 Alpha virt. eigenvalues --    0.12881   0.13874   0.14068   0.14938   0.15325

 Mulliken charges:
               1
     1  N   -3.298549
     2  C    2.749820
     3  C    3.973621
     4  O   -3.437076
     5  N   -3.055299
     6  C    0.035386
     7  C   -2.829267
     8  H    0.683436
     9  H    1.127672
    10  H    0.623373
    11  H    0.778161
    12  H    1.404957
    13  H    1.243766
 Sum of Mulliken charges =   0.00000

 Dipole moment (field-independent basis, Debye):
    X=             -2.2013    Y=              3.5442    Z=              0.0790  Tot=              4.1729

 Test job not archived.
 1\1\GINC-SE343\SP\RHF\Aug-CC-pVDZ\C4H6N2O1\OHZDE\09-Apr-2025\0\\#t hf
 aug-cc-pvdz iop(5/13=1,5/36=2,99/5=2) pseudo=read geom=check guess=(re
 ad,tcheck) scf=(maxcycle=1)\\title\\0,1\N,0,-1.83578374,0.89249774,0.1
 6761466\C,0,-0.67598137,0.29707943,-0.19677404\C,0,-0.12159876,-0.9498
 7031,-0.36879295\O,0,-0.64442862,-2.19039777,-0.56510646\N,0,1.2051204
 2,-0.83576305,0.03179249\C,0,1.55874605,0.4057659,0.34600985\C,0,0.404
 91473,1.22527414,0.12837237\H,0,-2.66788405,0.69628593,-0.37843357\H,0
 ,-0.73066119,1.74517943,0.66225754\H,0,-1.35427551,-2.33172723,0.06963

 Normal termination of Gaussian 16 at Wed Apr  9 03:59:43 2025.
