 Gaussian 16, Revision C.01,

 ----------------------------------------------------------------------
 #t hf aug-cc-pvdz symm=none int=(grid=ultrafine) guess=(read,tcheck) s
 table=(opt,rrhf)
 ----------------------------------------------------------------------
 -----
 title
 -----
 Symbolic Z-matrix:
 Charge =  0 Multiplicity = 1

 SCF Done:  E(RHF) =  -337.371731958     A.U. after   18 cycles
 Normal termination of Gaussian 16 at Wed Apr  9 19:33:58 2025.
 Gaussian 16:  ES64L-G16RevC.01  3-Jul-2019

 ----------------------------------------------------------------------
 #t hf aug-cc-pvdz iop(5/13=1,5/36=2,99/5=2) pseudo=read geom=check gue
 ss=(read,tcheck) scf=(maxcycle=1)
 ----------------------------------------------------------------------
 -----
 title
 -----
 Structure from the checkpoint file:  "Grambow2020_wb97xd3_009445_reverse_mol1.chk"
 Charge =  0 Multiplicity = 1

                         Standard orientation:
 ---------------------------------------------------------------------
 Center     Atomic      Atomic             Coordinates (Angstroms)
 Number     Number       Type             X           Y           Z
 ---------------------------------------------------------------------
      1          7           0       -2.613318    0.856121   -0.273484
      2          6           0       -1.771194    0.065073    0.067485
      3          6           0       -0.801854   -0.831306    0.469410
      4          8           0        0.160482   -1.207478   -0.427100
      5          6           0        1.476435   -0.849297   -0.065705
      6          6           0        1.628714    0.612933    0.005336
      7          7           0        1.692517    1.756141    0.068926
      8          1           0       -0.713693   -1.112050    1.510591
      9          1           0       -1.211911    1.028596    0.407731
     10          1           0        1.755939   -1.276771    0.903260
     11          1           0        2.138818   -1.250199   -0.832029
 ---------------------------------------------------------------------

 SCF Done:  E(RHF) =  -338.857708996     A.U. after    2 cycles

 The electronic state is 1-A.
 Alpha  occ. eigenvalues --  -21.11810 -15.80259 -15.78630 -11.51558 -11.50055
 Alpha  occ. eigenvalues --  -11.45666 -11.44857  -1.83159  -1.38176  -1.33323
 Alpha  occ. eigenvalues --   -1.12730  -1.02207  -0.77663  -0.75384  -0.70180
 Alpha  occ. eigenvalues --   -0.67629  -0.62310  -0.57141  -0.54617  -0.51129
 Alpha  occ. eigenvalues --   -0.46687  -0.46218  -0.44545  -0.39396  -0.26554
 Alpha virt. eigenvalues --    0.02297   0.04465   0.04988   0.06437   0.07854
 Alpha virt. eigenvalues --    0.08019   0.09360   0.10525   0.10837   0.11288
 Alpha virt. eigenvalues --    0.12367   0.13064   0.13386   0.14444   0.14814

 Mulliken charges:
               1
     1  N   -2.051930
     2  C    0.934938
     3  C    0.254882
     4  O   -2.952928
     5  C   -1.472046
     6  C    1.934998
     7  N   -2.259220
     8  H    1.576144
     9  H    1.181634
    10  H    1.542587
    11  H    1.310940
 Sum of Mulliken charges =  -0.00000

 Dipole moment (field-independent basis, Debye):
    X=              1.2355    Y=             -2.9538    Z=              0.8614  Tot=              3.3156

 Test job not archived.
 1\1\GINC-SE159\SP\RHF\Aug-CC-pVDZ\C4H4N2O1\OHZDE\09-Apr-2025\0\\#t hf
 aug-cc-pvdz iop(5/13=1,5/36=2,99/5=2) pseudo=read geom=check guess=(re
 ad,tcheck) scf=(maxcycle=1)\\title\\0,1\N,0,2.71013963,0.88586485,0.90
 407473\C,0,1.90945243,0.32645185,0.19898757\C,0,0.98634649,-0.30050754
 ,-0.61308283\O,0,0.0985476,-1.17506216,-0.04890756\C,0,-1.25560169,-0.
 79423882,-0.15792735\C,0,-1.51311229,0.46454908,0.56005184\N,0,-1.6597
 9331,1.45769673,1.11428968\H,0,0.86625776,0.0060855,-1.64372587\H,0,1.
 2678995,1.2718999,0.42588374\H,0,-1.55246776,-0.66612544,-1.20444876\H

 Normal termination of Gaussian 16 at Wed Apr  9 19:34:02 2025.
