 Gaussian 16, Revision C.01,

 ----------------------------------------------------------------------
 #t hf aug-cc-pvdz symm=none int=(grid=ultrafine) guess=(read,tcheck) s
 table=(opt,rrhf)
 ----------------------------------------------------------------------
 -----
 title
 -----
 Symbolic Z-matrix:
 Charge =  0 Multiplicity = 1

 SCF Done:  E(RHF) =  -320.587033031     A.U. after   15 cycles
 Normal termination of Gaussian 16 at Wed Apr  9 17:26:19 2025.
 Gaussian 16:  ES64L-G16RevC.01  3-Jul-2019

 ----------------------------------------------------------------------
 #t hf aug-cc-pvdz iop(5/13=1,5/36=2,99/5=2) pseudo=read geom=check gue
 ss=(read,tcheck) scf=(maxcycle=1)
 ----------------------------------------------------------------------
 -----
 title
 -----
 Structure from the checkpoint file:  "Grambow2020_b97d3_007138_forward_mol1.chk"
 Charge =  0 Multiplicity = 1

                         Standard orientation:
 ---------------------------------------------------------------------
 Center     Atomic      Atomic             Coordinates (Angstroms)
 Number     Number       Type             X           Y           Z
 ---------------------------------------------------------------------
      1          8           0       -2.106442   -0.214588    0.344189
      2          6           0       -1.040689    0.127355   -0.005111
      3          7           0       -0.207359    1.016054   -0.537259
      4          6           0        1.076638    0.970479    0.246741
      5          6           0        1.407690   -0.590328    0.309295
      6          8           0        0.365423   -1.211804   -0.406548
      7          1           0        0.147617   -0.001322   -1.151741
      8          1           0        1.809964    1.561308   -0.310932
      9          1           0        0.929803    1.417039    1.235801
     10          1           0        1.451645   -0.937746    1.353635
     11          1           0        2.378810   -0.785555   -0.172631
 ---------------------------------------------------------------------

 SCF Done:  E(RHF) =  -322.033027481     A.U. after    2 cycles

 The electronic state is 1-A.
 Alpha  occ. eigenvalues --  -21.16733 -21.01624 -15.78562 -11.61836 -11.47052
 Alpha  occ. eigenvalues --  -11.40690  -1.80897  -1.69333  -1.41564  -1.08722
 Alpha  occ. eigenvalues --   -0.88593  -0.76323  -0.72809  -0.68169  -0.63024
 Alpha  occ. eigenvalues --   -0.60256  -0.54497  -0.53876  -0.47333  -0.42612
 Alpha  occ. eigenvalues --   -0.41195  -0.29121  -0.28833
 Alpha virt. eigenvalues --    0.03261   0.05387   0.05483   0.06233   0.06581
 Alpha virt. eigenvalues --    0.09278   0.10319   0.10825   0.11016   0.12472
 Alpha virt. eigenvalues --    0.13787   0.14246   0.14872   0.15489   0.16877

 Mulliken charges:
               1
     1  O   -2.874717
     2  C    4.596485
     3  N   -2.367530
     4  C   -2.429589
     5  C   -1.242128
     6  O   -2.065683
     7  H    1.125878
     8  H    1.240980
     9  H    1.446800
    10  H    1.358462
    11  H    1.211043
 Sum of Mulliken charges =   0.00000

 Dipole moment (field-independent basis, Debye):
    X=              0.1028    Y=              0.5061    Z=              0.8187  Tot=              0.9679

 Test job not archived.
 1\1\GINC-SE114\SP\RHF\Aug-CC-pVDZ\C3H5N1O2\OHZDE\09-Apr-2025\0\\#t hf
 aug-cc-pvdz iop(5/13=1,5/36=2,99/5=2) pseudo=read geom=check guess=(re
 ad,tcheck) scf=(maxcycle=1)\\title\\0,1\O,0,2.52311036,0.24920054,0.93
 412211\C,0,1.5205769,-0.16028035,0.48465855\N,0,0.63458136,-1.12977462
 ,0.27850519\C,0,-0.74066738,-0.53017416,0.39913548\C,0,-0.65281659,0.7
 6712401,-0.52764659\O,0,0.65640108,0.75395572,-1.04799322\H,0,0.718550
 82,-0.67184657,-0.87123424\H,0,-1.44846229,-1.28600823,0.04475174\H,0,
 -0.9580013,-0.2944584,1.44623646\H,0,-0.85198895,1.67853113,0.05796801

 Normal termination of Gaussian 16 at Wed Apr  9 17:26:22 2025.
