 Gaussian 16, Revision C.01,

 ----------------------------------------------------------------------
 #t hf aug-cc-pvdz symm=none int=(grid=ultrafine) guess=(read,tcheck) s
 table=(opt,rrhf)
 ----------------------------------------------------------------------
 -----
 title
 -----
 Symbolic Z-matrix:
 Charge =  0 Multiplicity = 1

 SCF Done:  E(RHF) =  -308.886227812     A.U. after   15 cycles

 1\1\GINC-SE168\Stability\RHF\Aug-CC-pVDZ\C6H12O1\OHZDE\09-Apr-2025\0\\
 #t hf aug-cc-pvdz symm=none int=(grid=ultrafine) guess=(read,tcheck) s
 table=(opt,rrhf)\\title\\0,1\C,0,2.6819719,0.63733304,0.0281044\O,0,1.
 67735549,0.60122487,1.0280471\C,0,0.99634986,-0.55376011,1.07635637\C,
 0,-0.77430094,-0.19906519,-0.08885805\C,0,-0.88235455,1.28376404,-0.22
 83939\C,0,-1.38554342,-1.14882687,-1.0760879\C,0,-1.89370126,-1.071894
 97,0.33717179\H,0,2.22747008,0.66492155,-0.96753189\H,0,3.32314549,-0.
 24285767,0.10305147\H,0,3.26064136,1.54632525,0.18466223\H,0,0.3913500

 Normal termination of Gaussian 16 at Wed Apr  9 18:57:10 2025.
 Gaussian 16:  ES64L-G16RevC.01  3-Jul-2019

 ----------------------------------------------------------------------
 #t hf aug-cc-pvdz iop(5/13=1,5/36=2,99/5=2) pseudo=read geom=check gue
 ss=(read,tcheck) scf=(maxcycle=1)
 ----------------------------------------------------------------------
 -----
 title
 -----
 Structure from the checkpoint file:  "Grambow2020_wb97xd3_007845_forward_mol1.chk"
 Charge =  0 Multiplicity = 1

                         Standard orientation:
 ---------------------------------------------------------------------
 Center     Atomic      Atomic             Coordinates (Angstroms)
 Number     Number       Type             X           Y           Z
 ---------------------------------------------------------------------
      1          6           0       -2.591004    0.068214    0.646007
      2          8           0       -1.840719   -0.108604   -0.544056
      3          6           0       -0.864543   -1.023482   -0.443208
      4          6           0        0.907808    0.107900    0.001180
      5          6           0        0.585494    1.525137   -0.341576
      6          6           0        1.960720   -0.259944    1.004352
      7          6           0        2.132435   -0.593021   -0.452020
      8          1           0       -1.979488    0.554339    1.413051
      9          1           0       -2.935989   -0.896170    1.023375
     10          1           0       -3.437431    0.708187    0.401814
     11          1           0       -0.016236   -0.769337    0.391552
     12          1           0       -0.430516   -1.177407   -1.431033
     13          1           0       -0.141206    1.950071    0.353789
     14          1           0        0.170922    1.609574   -1.346968
     15          1           0        1.488045    2.141717   -0.290855
     16          1           0        1.769523   -1.079261    1.688840
     17          1           0        2.550954    0.545415    1.426597
     18          1           0        2.045786   -1.637007   -0.735784
     19          1           0        2.855930   -0.030113   -1.030341
 ---------------------------------------------------------------------

 SCF Done:  E(RHF) =  -310.402101765     A.U. after    2 cycles

 The electronic state is 1-A.
 Alpha  occ. eigenvalues --  -21.06874 -11.43710 -11.43164 -11.41072 -11.39951
 Alpha  occ. eigenvalues --  -11.38631 -11.36796  -1.77947  -1.33083  -1.05606
 Alpha  occ. eigenvalues --   -1.02382  -0.90620  -0.86990  -0.77213  -0.68539
 Alpha  occ. eigenvalues --   -0.64690  -0.62695  -0.59905  -0.57463  -0.55918
 Alpha  occ. eigenvalues --   -0.54403  -0.52105  -0.50447  -0.44533  -0.40572
 Alpha  occ. eigenvalues --   -0.39113  -0.35185  -0.24502
 Alpha virt. eigenvalues --    0.03868   0.05173   0.05262   0.05447   0.05689
 Alpha virt. eigenvalues --    0.05955   0.06187   0.06881   0.06940   0.08419
 Alpha virt. eigenvalues --    0.08971   0.10229   0.11504   0.12512   0.13185

 Mulliken charges:
               1
     1  C   -2.951057
     2  O   -2.693320
     3  C   -1.687825
     4  C    0.006896
     5  C   -4.743872
     6  C   -2.781750
     7  C   -2.699365
     8  H    1.464746
     9  H    1.298989
    10  H    1.254554
    11  H    3.544700
    12  H    1.172422
    13  H    1.316000
    14  H    1.297601
    15  H    1.091480
    16  H    1.110006
    17  H    1.343036
    18  H    1.269038
    19  H    1.387722
 Sum of Mulliken charges =   0.00000

 Dipole moment (field-independent basis, Debye):
    X=              0.7333    Y=              1.6246    Z=              0.0705  Tot=              1.7838

 Test job not archived.
 1\1\GINC-SE168\SP\RHF\Aug-CC-pVDZ\C6H12O1\OHZDE\09-Apr-2025\0\\#t hf a
 ug-cc-pvdz iop(5/13=1,5/36=2,99/5=2) pseudo=read geom=check guess=(rea
 d,tcheck) scf=(maxcycle=1)\\title\\0,1\C,0,2.6819719,0.63733304,0.0281
 044\O,0,1.67735549,0.60122487,1.0280471\C,0,0.99634986,-0.55376011,1.0
 7635637\C,0,-0.77430094,-0.19906519,-0.08885805\C,0,-0.88235455,1.2837
 6404,-0.2283939\C,0,-1.38554342,-1.14882687,-1.0760879\C,0,-1.89370126
 ,-1.07189497,0.33717179\H,0,2.22747008,0.66492155,-0.96753189\H,0,3.32
 314549,-0.24285767,0.10305147\H,0,3.26064136,1.54632525,0.18466223\H,0

 Normal termination of Gaussian 16 at Wed Apr  9 18:57:17 2025.
