 Gaussian 16, Revision C.01,

 ----------------------------------------------------------------------
 #t hf aug-cc-pvdz symm=none int=(grid=ultrafine) guess=(read,tcheck) s
 table=(opt,rrhf)
 ----------------------------------------------------------------------
 -----
 title
 -----
 Symbolic Z-matrix:
 Charge =  0 Multiplicity = 1

 SCF Done:  E(RHF) =  -323.776403804     A.U. after   17 cycles
 Normal termination of Gaussian 16 at Wed Apr  9 18:45:00 2025.
 Gaussian 16:  ES64L-G16RevC.01  3-Jul-2019

 ----------------------------------------------------------------------
 #t hf aug-cc-pvdz iop(5/13=1,5/36=2,99/5=2) pseudo=read geom=check gue
 ss=(read,tcheck) scf=(maxcycle=1)
 ----------------------------------------------------------------------
 -----
 title
 -----
 Structure from the checkpoint file:  "Grambow2020_wb97xd3_007602_reverse_mol1.chk"
 Charge =  0 Multiplicity = 1

                         Standard orientation:
 ---------------------------------------------------------------------
 Center     Atomic      Atomic             Coordinates (Angstroms)
 Number     Number       Type             X           Y           Z
 ---------------------------------------------------------------------
      1          6           0        1.010762    1.495365    0.464131
      2          6           0        1.343580    0.313216   -0.431876
      3          7           0        2.061021   -0.737782    0.007926
      4          6           0        0.357413   -0.965303   -0.378865
      5          6           0       -0.741883   -0.890430    0.656566
      6          6           0       -1.888230    0.012578    0.288989
      7          8           0       -2.001606    0.580536   -0.761816
      8          1           0        0.901736    1.196816    1.506111
      9          1           0        1.850901    2.190492    0.410298
     10          1           0        0.121800    2.027313    0.121974
     11          1           0        1.441528    0.631823   -1.484233
     12          1           0        0.960507   -1.888079   -0.215556
     13          1           0        0.022083   -1.058483   -1.410114
     14          1           0       -0.352982   -0.596763    1.633767
     15          1           0       -1.178544   -1.884124    0.813929
     16          1           0       -2.671184    0.108635    1.069187
 ---------------------------------------------------------------------

 SCF Done:  E(RHF) =  -325.278374059     A.U. after    2 cycles

 The electronic state is 1-A.
 Alpha  occ. eigenvalues --  -21.07465 -15.72926 -11.50298 -11.49035 -11.43702
 Alpha  occ. eigenvalues --  -11.41049 -11.37864  -1.72722  -1.41558  -1.16213
 Alpha  occ. eigenvalues --   -1.07241  -0.94188  -0.82497  -0.80069  -0.68016
 Alpha  occ. eigenvalues --   -0.67449  -0.61409  -0.58231  -0.56582  -0.53341
 Alpha  occ. eigenvalues --   -0.51541  -0.50159  -0.47980  -0.44391  -0.40330
 Alpha  occ. eigenvalues --   -0.31825  -0.29576
 Alpha virt. eigenvalues --    0.03537   0.04702   0.05293   0.05718   0.05899
 Alpha virt. eigenvalues --    0.06380   0.06793   0.07649   0.08808   0.10337
 Alpha virt. eigenvalues --    0.11743   0.12134   0.12639   0.13874   0.14242

 Mulliken charges:
               1
     1  C   -3.832154
     2  C    0.307507
     3  N   -1.996177
     4  C   -2.767669
     5  C   -3.134345
     6  C    1.458199
     7  O   -2.750124
     8  H    1.332076
     9  H    1.040307
    10  H    1.362232
    11  H    1.651766
    12  H    1.334192
    13  H    1.462243
    14  H    1.703192
    15  H    1.358026
    16  H    1.470728
 Sum of Mulliken charges =   0.00000

 Dipole moment (field-independent basis, Debye):
    X=             -1.5397    Y=              0.0221    Z=              0.2857  Tot=              1.5662

 Test job not archived.
 1\1\GINC-SE112\SP\RHF\Aug-CC-pVDZ\C5H9N1O1\OHZDE\09-Apr-2025\0\\#t hf
 aug-cc-pvdz iop(5/13=1,5/36=2,99/5=2) pseudo=read geom=check guess=(re
 ad,tcheck) scf=(maxcycle=1)\\title\\0,1\C,0,-1.25873041,-0.20034763,1.
 2170813\C,0,-1.38920285,0.17283687,-0.2508366\N,0,-1.41843593,1.454220
 58,-0.66308081\C,0,-0.02784975,0.45372848,-1.07410008\C,0,1.24115648,0
 .42548068,-0.25251651\C,0,1.71737918,-0.95329787,0.11738907\O,0,1.2104
 2948,-1.97483154,-0.25556202\H,0,-0.67458037,0.53293117,1.77188806\H,0
 ,-2.26448496,-0.20489331,1.6417799\H,0,-0.84277361,-1.20055523,1.34692

 Normal termination of Gaussian 16 at Wed Apr  9 18:45:05 2025.
