 Gaussian 16, Revision C.01,

 ----------------------------------------------------------------------
 #t hf aug-cc-pvdz symm=none int=(grid=ultrafine) guess=(read,tcheck) s
 table=(opt,rrhf)
 ----------------------------------------------------------------------
 -----
 title
 -----
 Symbolic Z-matrix:
 Charge =  0 Multiplicity = 1

 SCF Done:  E(RHF) =  -268.751101031     A.U. after   14 cycles
 Normal termination of Gaussian 16 at Wed Apr  9 03:05:29 2025.
 Gaussian 16:  ES64L-G16RevC.01  3-Jul-2019

 ----------------------------------------------------------------------
 #t hf aug-cc-pvdz iop(5/13=1,5/36=2,99/5=2) pseudo=read geom=check gue
 ss=(read,tcheck) scf=(maxcycle=1)
 ----------------------------------------------------------------------
 -----
 title
 -----
 Structure from the checkpoint file:  "Grambow2020_b97d3_006492_forward_mol1.chk"
 Charge =  0 Multiplicity = 1

                         Standard orientation:
 ---------------------------------------------------------------------
 Center     Atomic      Atomic             Coordinates (Angstroms)
 Number     Number       Type             X           Y           Z
 ---------------------------------------------------------------------
      1          8           0        2.074409    0.077700   -0.220250
      2          6           0        0.828219    0.105910    0.139456
      3          6           0       -0.124779    1.266740    0.279432
      4          6           0       -1.431336    0.620255   -0.280188
      5          6           0       -1.320202   -0.918195   -0.006508
      6          6           0        0.185384   -1.156361    0.117537
      7          1           0       -0.245477    1.516573    1.346128
      8          1           0        0.181259    2.174724   -0.254541
      9          1           0       -2.332584    1.058239    0.167210
     10          1           0       -1.480228    0.800944   -1.362914
     11          1           0       -1.798756   -1.491152   -0.813764
     12          1           0       -1.842352   -1.182434    0.927432
     13          1           0        0.552726   -1.908388    0.821236
     14          1           0        1.546418   -1.100198   -0.567159
 ---------------------------------------------------------------------

 SCF Done:  E(RHF) =  -270.051438642     A.U. after    2 cycles

 The electronic state is 1-A.
 Alpha  occ. eigenvalues --  -21.05803 -11.50178 -11.45757 -11.41510 -11.38115
 Alpha  occ. eigenvalues --  -11.35126  -1.72881  -1.30116  -1.05896  -1.00683
 Alpha  occ. eigenvalues --   -0.85427  -0.75089  -0.65849  -0.63869  -0.61853
 Alpha  occ. eigenvalues --   -0.57152  -0.50689  -0.48885  -0.46064  -0.45592
 Alpha  occ. eigenvalues --   -0.44429  -0.33624  -0.26865
 Alpha virt. eigenvalues --    0.03541   0.05225   0.05416   0.05699   0.05812
 Alpha virt. eigenvalues --    0.06084   0.06764   0.07426   0.09491   0.11448
 Alpha virt. eigenvalues --    0.13236   0.13428   0.14006   0.14640   0.15087

 Mulliken charges:
               1
     1  O   -3.141456
     2  C    4.501043
     3  C   -3.621567
     4  C   -2.397559
     5  C   -3.243399
     6  C   -2.399007
     7  H    1.423635
     8  H    1.300760
     9  H    1.275054
    10  H    1.396898
    11  H    1.291494
    12  H    1.313648
    13  H    1.243511
    14  H    1.056946
 Sum of Mulliken charges =  -0.00000

 Dipole moment (field-independent basis, Debye):
    X=             -0.8450    Y=              1.3269    Z=              0.5417  Tot=              1.6638

 Test job not archived.
 1\1\GINC-SE070\SP\RHF\Aug-CC-pVDZ\C5H8O1\OHZDE\09-Apr-2025\0\\#t hf au
 g-cc-pvdz iop(5/13=1,5/36=2,99/5=2) pseudo=read geom=check guess=(read
 ,tcheck) scf=(maxcycle=1)\\title\\0,1\O,0,-0.26284837,2.36831836,-0.61
 601824\C,0,-0.21754566,1.19249313,-0.06961334\C,0,-1.30826409,0.175864
 74,0.15869486\C,0,-0.53008789,-1.13999507,-0.15936839\C,0,0.9754318,-0
 .85823299,0.1694165\C,0,1.08925797,0.66366382,0.07055552\H,0,-1.613560
 74,0.19592377,1.21756974\H,0,-2.20230217,0.31966089,-0.46036953\H,0,-0
 .92445175,-1.99783119,0.3999505\H,0,-0.63921675,-1.36621374,-1.2290648

 Normal termination of Gaussian 16 at Wed Apr  9 03:05:33 2025.
