 Gaussian 16, Revision C.01,

 ----------------------------------------------------------------------
 #t hf aug-cc-pvdz symm=none int=(grid=ultrafine) guess=(read,tcheck) s
 table=(opt,rrhf)
 ----------------------------------------------------------------------
 -----
 title
 -----
 Symbolic Z-matrix:
 Charge =  0 Multiplicity = 1

 SCF Done:  E(RHF) =  -322.661802434     A.U. after   15 cycles
 Normal termination of Gaussian 16 at Wed Apr  9 03:33:24 2025.
 Gaussian 16:  ES64L-G16RevC.01  3-Jul-2019

 ----------------------------------------------------------------------
 #t hf aug-cc-pvdz iop(5/13=1,5/36=2,99/5=2) pseudo=read geom=check gue
 ss=(read,tcheck) scf=(maxcycle=1)
 ----------------------------------------------------------------------
 -----
 title
 -----
 Structure from the checkpoint file:  "Grambow2020_wb97xd3_007009_forward_mol1.chk"
 Charge =  0 Multiplicity = 1

                         Standard orientation:
 ---------------------------------------------------------------------
 Center     Atomic      Atomic             Coordinates (Angstroms)
 Number     Number       Type             X           Y           Z
 ---------------------------------------------------------------------
      1          6           0        1.969903   -0.601985   -0.375591
      2          6           0        0.832936   -0.010243    0.456543
      3          6           0        0.507939    1.450282    0.200421
      4          6           0       -0.771569    1.557128   -0.175555
      5          7           0       -1.387248    0.291505   -0.207363
      6          6           0       -0.503421   -0.610069    0.136278
      7          8           0       -1.025487   -1.768530    0.079683
      8          1           0        2.914513   -0.119255   -0.124491
      9          1           0        1.784083   -0.455501   -1.440350
     10          1           0        2.065119   -1.671788   -0.186029
     11          1           0        1.035280   -0.181434    1.519905
     12          1           0        1.212311    2.260211    0.313876
     13          1           0       -1.329286    2.444911   -0.431142
     14          1           0       -1.982113   -0.880128   -0.290275
 ---------------------------------------------------------------------

 SCF Done:  E(RHF) =  -324.174513356     A.U. after    2 cycles

 The electronic state is 1-A.
 Alpha  occ. eigenvalues --  -21.05093 -15.72781 -11.51116 -11.46879 -11.44041
 Alpha  occ. eigenvalues --  -11.40112 -11.37662  -1.76398  -1.44402  -1.20522
 Alpha  occ. eigenvalues --   -1.06288  -0.96909  -0.83824  -0.75965  -0.70228
 Alpha  occ. eigenvalues --   -0.63899  -0.59858  -0.58121  -0.56623  -0.49446
 Alpha  occ. eigenvalues --   -0.49260  -0.46520  -0.44124  -0.41103  -0.34001
 Alpha  occ. eigenvalues --   -0.26187
 Alpha virt. eigenvalues --    0.03397   0.04990   0.05260   0.05724   0.06475
 Alpha virt. eigenvalues --    0.06782   0.07098   0.09869   0.11103   0.11308
 Alpha virt. eigenvalues --    0.12203   0.12535   0.13179   0.14707   0.15536

 Mulliken charges:
               1
     1  C   -3.840337
     2  C   -4.185172
     3  C    0.120035
     4  C    0.132340
     5  N   -3.627167
     6  C    6.064342
     7  O   -3.378194
     8  H    1.211324
     9  H    1.381800
    10  H    1.281015
    11  H    1.591081
    12  H    1.327682
    13  H    1.321331
    14  H    0.599922
 Sum of Mulliken charges =   0.00000

 Dipole moment (field-independent basis, Debye):
    X=              1.2987    Y=              0.7907    Z=              0.2060  Tot=              1.5343

 Test job not archived.
 1\1\GINC-SE128\SP\RHF\Aug-CC-pVDZ\C5H7N1O1\OHZDE\09-Apr-2025\0\\#t hf
 aug-cc-pvdz iop(5/13=1,5/36=2,99/5=2) pseudo=read geom=check guess=(re
 ad,tcheck) scf=(maxcycle=1)\\title\\0,1\C,0,-1.75921953,0.09775169,0.2
 5837775\C,0,-0.42519066,0.25967744,-0.46925332\C,0,0.56786431,1.218617
 19,0.16211828\C,0,1.70061622,0.56171956,0.43647894\N,0,1.59770014,-0.7
 8833822,0.05095509\C,0,0.40732082,-0.98728611,-0.45450633\O,0,0.275429
 77,-2.21044168,-0.77743625\H,0,-2.31665281,1.03441413,0.24109945\H,0,-
 1.59789233,-0.18437487,1.29956769\H,0,-2.36313307,-0.67496144,-0.21878

 Normal termination of Gaussian 16 at Wed Apr  9 03:33:29 2025.
