 Gaussian 16, Revision C.01,

 ----------------------------------------------------------------------
 #t hf aug-cc-pvdz symm=none int=(grid=ultrafine) guess=(read,tcheck) s
 table=(opt,rrhf)
 ----------------------------------------------------------------------
 -----
 title
 -----
 Symbolic Z-matrix:
 Charge =  0 Multiplicity = 1

 SCF Done:  E(RHF) =  -323.803139022     A.U. after   15 cycles
 Normal termination of Gaussian 16 at Wed Apr  9 18:19:28 2025.
 Gaussian 16:  ES64L-G16RevC.01  3-Jul-2019

 ----------------------------------------------------------------------
 #t hf aug-cc-pvdz iop(5/13=1,5/36=2,99/5=2) pseudo=read geom=check gue
 ss=(read,tcheck) scf=(maxcycle=1)
 ----------------------------------------------------------------------
 -----
 title
 -----
 Structure from the checkpoint file:  "Grambow2020_wb97xd3_006877_reverse_mol2.chk"
 Charge =  0 Multiplicity = 1

                         Standard orientation:
 ---------------------------------------------------------------------
 Center     Atomic      Atomic             Coordinates (Angstroms)
 Number     Number       Type             X           Y           Z
 ---------------------------------------------------------------------
      1          6           0        2.421226   -0.187204   -0.680885
      2          7           0        1.200748    0.375012   -0.111853
      3          6           0        0.815183    0.315353    1.361046
      4          6           0        0.131059   -0.535162    0.323804
      5          6           0       -1.287420   -0.231789   -0.064365
      6          8           0       -2.070976   -1.140857   -0.188512
      7          6           0       -1.678367    1.212029   -0.239699
      8          1           0        3.234675    0.525871   -0.549156
      9          1           0        2.289528   -0.409975   -1.741153
     10          1           0        2.663274   -1.100886   -0.141608
     11          1           0        1.600842   -0.287511    1.829717
     12          1           0        0.899978    1.225242   -0.568106
     13          1           0        0.382735   -1.579348    0.148600
     14          1           0       -1.369218    1.557523   -1.231768
     15          1           0       -2.759640    1.306364   -0.175163
     16          1           0       -1.189689    1.825137    0.520298
 ---------------------------------------------------------------------

 SCF Done:  E(RHF) =  -325.320883047     A.U. after    2 cycles

 The electronic state is 1-A.
 Alpha  occ. eigenvalues --  -21.04844 -15.82697 -11.50408 -11.43849 -11.43230
 Alpha  occ. eigenvalues --  -11.38594 -11.35348  -1.71115  -1.53082  -1.15129
 Alpha  occ. eigenvalues --   -1.08798  -0.96498  -0.89836  -0.76501  -0.68638
 Alpha  occ. eigenvalues --   -0.66783  -0.62719  -0.60164  -0.59966  -0.57587
 Alpha  occ. eigenvalues --   -0.53390  -0.49450  -0.47388  -0.44512  -0.38753
 Alpha  occ. eigenvalues --   -0.30769  -0.27209
 Alpha virt. eigenvalues --    0.02716   0.04523   0.04941   0.05021   0.06066
 Alpha virt. eigenvalues --    0.06425   0.07130   0.07787   0.08323   0.10064
 Alpha virt. eigenvalues --    0.11117   0.11997   0.12748   0.13914   0.13950

 Mulliken charges:
               1
     1  C   -3.537643
     2  N   -1.891607
     3  C   -1.768440
     4  C   -0.276824
     5  C    4.129821
     6  O   -3.479412
     7  C   -4.649386
     8  H    1.396947
     9  H    1.440630
    10  H    1.387614
    11  H    1.134812
    12  H    0.771630
    13  H    1.421060
    14  H    1.218960
    15  H    1.154562
    16  H    1.547277
 Sum of Mulliken charges =   0.00000

 Dipole moment (field-independent basis, Debye):
    X=              2.9541    Y=              0.1170    Z=             -3.5202  Tot=              4.5969

 Test job not archived.
 1\1\GINC-SE104\SP\RHF\Aug-CC-pVDZ\C5H9N1O1\OHZDE\09-Apr-2025\0\\#t hf
 aug-cc-pvdz iop(5/13=1,5/36=2,99/5=2) pseudo=read geom=check guess=(re
 ad,tcheck) scf=(maxcycle=1)\\title\\0,1\C,0,1.2555436,-0.03141982,-1.8
 5730981\N,0,0.76066464,0.13586376,-0.4947527\C,0,1.11956886,-0.7632747
 5,0.68184737\C,0,-0.23440145,-0.81395887,0.02498569\C,0,-1.4334346,-0.
 28532029,0.7582354\O,0,-2.46164936,-0.91627676,0.73715978\C,0,-1.28027
 161,0.99956678,1.52881963\H,0,2.23687465,0.43555832,-1.93761049\H,0,0.
 56975792,0.41709236,-2.57819476\H,0,1.35479954,-1.09614274,-2.05913942

 Normal termination of Gaussian 16 at Wed Apr  9 18:19:33 2025.
