 Gaussian 16, Revision C.01,

 ----------------------------------------------------------------------
 #t hf aug-cc-pvdz symm=none int=(grid=ultrafine) guess=(read,tcheck) s
 table=(opt,rrhf)
 ----------------------------------------------------------------------
 -----
 title
 -----
 Symbolic Z-matrix:
 Charge =  0 Multiplicity = 1

 SCF Done:  E(RHF) =  -323.922136128     A.U. after   13 cycles
 Normal termination of Gaussian 16 at Wed Apr  9 19:25:11 2025.
 Gaussian 16:  ES64L-G16RevC.01  3-Jul-2019

 ----------------------------------------------------------------------
 #t hf aug-cc-pvdz iop(5/13=1,5/36=2,99/5=2) pseudo=read geom=check gue
 ss=(read,tcheck) scf=(maxcycle=1)
 ----------------------------------------------------------------------
 -----
 title
 -----
 Structure from the checkpoint file:  "Grambow2020_wb97xd3_008933_reverse_mol2.chk"
 Charge =  0 Multiplicity = 1

                         Standard orientation:
 ---------------------------------------------------------------------
 Center     Atomic      Atomic             Coordinates (Angstroms)
 Number     Number       Type             X           Y           Z
 ---------------------------------------------------------------------
      1          6           0       -2.263965   -1.211492    0.510036
      2          6           0       -1.771555   -0.268010   -0.585394
      3          6           0       -0.958683    0.857755   -0.029097
      4          7           0        0.239357    1.058846   -0.359714
      5          6           0        0.944032    2.163790    0.246443
      6          6           0        1.701572   -1.741277   -0.180990
      7          8           0        2.672730   -1.258783    0.114993
      8          1           0       -2.848905   -0.677402    1.262907
      9          1           0       -1.423217   -1.690935    1.014878
     10          1           0       -2.897242   -1.995197    0.092576
     11          1           0       -1.162781   -0.801480   -1.316355
     12          1           0       -2.632149    0.156253   -1.114125
     13          1           0       -1.460284    1.506665    0.708357
     14          1           0        1.836385    1.784686    0.749401
     15          1           0        1.284278    2.845240   -0.535907
     16          1           0        0.338173    2.725910    0.970323
 ---------------------------------------------------------------------

 SCF Done:  E(RHF) =  -325.437043866     A.U. after    2 cycles

 The electronic state is 1-A.
 Alpha  occ. eigenvalues --  -21.16310 -15.72362 -11.49526 -11.44236 -11.39712
 Alpha  occ. eigenvalues --  -11.37900 -11.35954  -1.79266  -1.39152  -1.17623
 Alpha  occ. eigenvalues --   -1.01226  -0.89787  -0.78663  -0.70849  -0.64484
 Alpha  occ. eigenvalues --   -0.61832  -0.59449  -0.57797  -0.55712  -0.51616
 Alpha  occ. eigenvalues --   -0.51523  -0.50757  -0.49742  -0.48267  -0.45967
 Alpha  occ. eigenvalues --   -0.37877  -0.36010
 Alpha virt. eigenvalues --    0.04070   0.05150   0.05616   0.05776   0.06390
 Alpha virt. eigenvalues --    0.06780   0.07250   0.07358   0.08592   0.10019
 Alpha virt. eigenvalues --    0.11331   0.12143   0.13116   0.13377   0.14069

 Mulliken charges:
               1
     1  C   -3.554188
     2  C   -3.321709
     3  C    0.881673
     4  N   -2.969417
     5  C   -3.328370
     6  C    0.865568
     7  O   -0.928323
     8  H    1.271646
     9  H    1.373179
    10  H    1.189057
    11  H    1.493587
    12  H    1.348292
    13  H    1.695120
    14  H    1.402065
    15  H    1.373858
    16  H    1.207963
 Sum of Mulliken charges =   0.00000

 Dipole moment (field-independent basis, Debye):
    X=              0.3217    Y=              1.1589    Z=              0.9644  Tot=              1.5416

 Test job not archived.
 1\1\GINC-SE104\SP\RHF\Aug-CC-pVDZ\C5H9N1O1\OHZDE\09-Apr-2025\0\\#t hf
 aug-cc-pvdz iop(5/13=1,5/36=2,99/5=2) pseudo=read geom=check guess=(re
 ad,tcheck) scf=(maxcycle=1)\\title\\0,1\C,0,2.24047461,-0.50139355,-0.
 18191198\C,0,1.15107271,0.23844143,-0.95550211\C,0,-0.20809657,-0.3225
 2297,-0.68062864\N,0,-1.13982685,0.3652465,-0.18676996\C,0,-2.41189778
 ,-0.27329195,0.05612683\C,0,0.09555278,1.90647016,2.28490361\O,0,-0.88
 043513,1.87495325,2.84168716\H,0,2.2349479,-1.57026066,-0.40932061\H,0
 ,2.09791865,-0.38551199,0.89411649\H,0,3.22816156,-0.11372422,-0.43428

 Normal termination of Gaussian 16 at Wed Apr  9 19:25:17 2025.
