 Gaussian 16, Revision C.01,

 ----------------------------------------------------------------------
 #t hf aug-cc-pvdz symm=none int=(grid=ultrafine) guess=(read,tcheck) s
 table=(opt,rrhf)
 ----------------------------------------------------------------------
 -----
 title
 -----
 Symbolic Z-matrix:
 Charge =  0 Multiplicity = 1

 SCF Done:  E(RHF) =  -380.705129701     A.U. after   13 cycles
 Normal termination of Gaussian 16 at Wed Apr  9 19:15:00 2025.
 Gaussian 16:  ES64L-G16RevC.01  3-Jul-2019

 ----------------------------------------------------------------------
 #t hf aug-cc-pvdz iop(5/13=1,5/36=2,99/5=2) pseudo=read geom=check gue
 ss=(read,tcheck) scf=(maxcycle=1)
 ----------------------------------------------------------------------
 -----
 title
 -----
 Structure from the checkpoint file:  "Grambow2020_wb97xd3_008483_reverse_mol2.chk"
 Charge =  0 Multiplicity = 1

                         Standard orientation:
 ---------------------------------------------------------------------
 Center     Atomic      Atomic             Coordinates (Angstroms)
 Number     Number       Type             X           Y           Z
 ---------------------------------------------------------------------
      1          6           0       -2.662099   -0.479761    0.313220
      2          8           0       -1.392199   -0.623090   -0.293757
      3          6           0       -0.745862    0.572101   -0.465525
      4          8           0       -0.085030    1.122713    0.647690
      5          6           0        0.704813    0.595283   -0.424334
      6          6           0        1.498377   -0.647153   -0.158224
      7          8           0        2.784845   -0.251232    0.278066
      8          1           0       -3.301421    0.192175   -0.271157
      9          1           0       -3.115858   -1.468332    0.340658
     10          1           0       -2.568416   -0.091792    1.331352
     11          1           0        1.236566    1.351368   -0.997957
     12          1           0       -1.307593    1.296764   -1.057645
     13          1           0        0.979214   -1.250715    0.590751
     14          1           0        1.558501   -1.225534   -1.090318
     15          1           0        3.286710   -1.033883    0.507501
 ---------------------------------------------------------------------

 SCF Done:  E(RHF) =  -382.375510855     A.U. after    2 cycles

 The electronic state is 1-A.
 Alpha  occ. eigenvalues --  -21.07143 -21.06513 -21.05882 -11.55690 -11.45251
 Alpha  occ. eigenvalues --  -11.41534 -11.40652  -1.85292  -1.72054  -1.70317
 Alpha  occ. eigenvalues --   -1.07961  -1.01500  -0.90669  -0.83397  -0.72359
 Alpha  occ. eigenvalues --   -0.66012  -0.63207  -0.61056  -0.60371  -0.55527
 Alpha  occ. eigenvalues --   -0.52523  -0.48651  -0.44321  -0.40202  -0.36551
 Alpha  occ. eigenvalues --   -0.33264  -0.31488  -0.29414
 Alpha virt. eigenvalues --    0.03892   0.04780   0.05285   0.05442   0.06025
 Alpha virt. eigenvalues --    0.06665   0.07068   0.08308   0.10612   0.11312
 Alpha virt. eigenvalues --    0.13606   0.13828   0.14424   0.14954   0.15318

 Mulliken charges:
               1
     1  C   -3.034826
     2  O   -3.377066
     3  C    2.393686
     4  O   -2.685985
     5  C   -0.030052
     6  C   -1.080498
     7  O   -2.705041
     8  H    1.293880
     9  H    1.214958
    10  H    1.310912
    11  H    1.524116
    12  H    1.583667
    13  H    1.389787
    14  H    1.421943
    15  H    0.780520
 Sum of Mulliken charges =  -0.00000

 Dipole moment (field-independent basis, Debye):
    X=             -0.5564    Y=             -0.7098    Z=             -0.0283  Tot=              0.9023

 Test job not archived.
 1\1\GINC-SE105\SP\RHF\Aug-CC-pVDZ\C4H8O3\OHZDE\09-Apr-2025\0\\#t hf au
 g-cc-pvdz iop(5/13=1,5/36=2,99/5=2) pseudo=read geom=check guess=(read
 ,tcheck) scf=(maxcycle=1)\\title\\0,1\C,0,-2.44925948,0.26880206,-0.50
 184789\O,0,-1.21064686,0.48231947,0.14765725\C,0,-0.54638908,-0.682959
 97,0.42446305\O,0,0.17454312,-1.28762045,-0.62136856\C,0,0.90485658,-0
 .67283816,0.44631867\C,0,1.68186684,0.56913111,0.13331584\O,0,2.994606
 46,0.17788557,-0.22128799\H,0,-3.09868941,-0.37970763,0.09765468\H,0,-
 2.92296496,1.24201862,-0.61309244\H,0,-2.30253339,-0.18151409,-1.48753

 Normal termination of Gaussian 16 at Wed Apr  9 19:15:05 2025.
