 Gaussian 16, Revision C.01,

 ----------------------------------------------------------------------
 #t hf aug-cc-pvdz symm=none int=(grid=ultrafine) guess=(read,tcheck) s
 table=(opt,rrhf)
 ----------------------------------------------------------------------
 -----
 title
 -----
 Symbolic Z-matrix:
 Charge =  0 Multiplicity = 1

 SCF Done:  E(RHF) =  -353.573415685     A.U. after   15 cycles
 Normal termination of Gaussian 16 at Wed Apr  9 18:57:28 2025.
 Gaussian 16:  ES64L-G16RevC.01  3-Jul-2019

 ----------------------------------------------------------------------
 #t hf aug-cc-pvdz iop(5/13=1,5/36=2,99/5=2) pseudo=read geom=check gue
 ss=(read,tcheck) scf=(maxcycle=1)
 ----------------------------------------------------------------------
 -----
 title
 -----
 Structure from the checkpoint file:  "Grambow2020_wb97xd3_007942_reverse_mol2.chk"
 Charge =  0 Multiplicity = 1

                         Standard orientation:
 ---------------------------------------------------------------------
 Center     Atomic      Atomic             Coordinates (Angstroms)
 Number     Number       Type             X           Y           Z
 ---------------------------------------------------------------------
      1          8           0       -2.253165   -0.042071   -0.002732
      2          6           0       -1.047512   -0.062342    0.000393
      3          6           0       -0.254593    1.188997    0.002047
      4          7           0        1.026178    1.233262    0.000014
      5          7           0        1.642060    0.038395   -0.002535
      6          6           0        0.972339   -1.131288    0.000287
      7          7           0       -0.305912   -1.246953    0.002776
      8          1           0        2.646162    0.074115   -0.002438
      9          1           0       -0.780002    2.136621    0.005766
     10          1           0        1.601466   -2.019307    0.000385
 ---------------------------------------------------------------------

 SCF Done:  E(RHF) =  -355.114576601     A.U. after    2 cycles

 The electronic state is 1-A.
 Alpha  occ. eigenvalues --  -21.03939 -15.84754 -15.82247 -15.74862 -11.51146
 Alpha  occ. eigenvalues --  -11.50372 -11.44171  -1.72190  -1.62311  -1.38001
 Alpha  occ. eigenvalues --   -1.26626  -0.97925  -0.94425  -0.81070  -0.71721
 Alpha  occ. eigenvalues --   -0.69329  -0.65690  -0.61189  -0.51789  -0.51021
 Alpha  occ. eigenvalues --   -0.48929  -0.45830  -0.39644  -0.30269  -0.28508
 Alpha virt. eigenvalues --    0.02353   0.04801   0.05252   0.08582   0.09625
 Alpha virt. eigenvalues --    0.09997   0.10278   0.10915   0.13225   0.13291
 Alpha virt. eigenvalues --    0.13464   0.13969   0.14204   0.14646   0.16023

 Mulliken charges:
               1
     1  O   -3.291264
     2  C    4.829379
     3  C   -0.284003
     4  N   -2.161631
     5  N   -1.839097
     6  C    1.543794
     7  N   -3.002569
     8  H    0.882008
     9  H    1.645529
    10  H    1.677852
 Sum of Mulliken charges =  -0.00000

 Dipole moment (field-independent basis, Debye):
    X=              4.7726    Y=              0.2117    Z=              0.0001  Tot=              4.7773

 Test job not archived.
 1\1\GINC-SE226\SP\RHF\Aug-CC-pVDZ\C3H3N3O1\OHZDE\09-Apr-2025\0\\#t hf
 aug-cc-pvdz iop(5/13=1,5/36=2,99/5=2) pseudo=read geom=check guess=(re
 ad,tcheck) scf=(maxcycle=1)\\title\\0,1\O,0,2.05918371,-0.00397678,-1.
 51425704\C,0,1.07353585,-0.04007975,-0.82056091\C,0,0.66054662,1.12572
 685,-0.00514283\N,0,-0.37133085,1.14745794,0.75452475\N,0,-1.09266295,
 0.01332957,0.77589812\C,0,-0.76712557,-1.07599492,0.05195757\N,0,0.249
 18279,-1.16477571,-0.72685211\H,0,-1.90238119,0.0318955,1.37046412\H,0
 ,1.26173568,2.02631024,-0.04490538\H,0,-1.44366409,-1.92076994,0.16610

 Normal termination of Gaussian 16 at Wed Apr  9 18:57:31 2025.
