 Gaussian 16, Revision C.01,

 ----------------------------------------------------------------------
 #t hf aug-cc-pvdz symm=none int=(grid=ultrafine) guess=(read,tcheck) s
 table=(opt,rrhf)
 ----------------------------------------------------------------------
 -----
 title
 -----
 Symbolic Z-matrix:
 Charge =  0 Multiplicity = 1

 SCF Done:  E(RHF) =  -302.855182841     A.U. after   14 cycles
 Normal termination of Gaussian 16 at Wed Apr  9 19:22:07 2025.
 Gaussian 16:  ES64L-G16RevC.01  3-Jul-2019

 ----------------------------------------------------------------------
 #t hf aug-cc-pvdz iop(5/13=1,5/36=2,99/5=2) pseudo=read geom=check gue
 ss=(read,tcheck) scf=(maxcycle=1)
 ----------------------------------------------------------------------
 -----
 title
 -----
 Structure from the checkpoint file:  "Grambow2020_wb97xd3_008838_reverse_mol2.chk"
 Charge =  0 Multiplicity = 1

                         Standard orientation:
 ---------------------------------------------------------------------
 Center     Atomic      Atomic             Coordinates (Angstroms)
 Number     Number       Type             X           Y           Z
 ---------------------------------------------------------------------
      1          6           0       -1.980649    1.028914   -0.195949
      2          6           0        0.436994   -1.537272   -0.498398
      3          6           0        1.521958   -0.787712    0.279703
      4          6           0        1.558388    0.650389    0.025613
      5          7           0        1.559188    1.774639   -0.206510
      6          6           0       -1.339466   -0.086749    0.611539
      7          7           0       -0.775351   -1.131322   -0.258367
      8          1           0       -2.446325    1.754570    0.471945
      9          1           0       -1.235005    1.546626   -0.798996
     10          1           0       -2.756017    0.637858   -0.858424
     11          1           0        2.493191   -1.199149    0.007720
     12          1           0        1.396510   -0.952647    1.356369
     13          1           0       -2.077586   -0.569935    1.256708
     14          1           0       -0.556313    0.306795    1.255453
     15          1           0       -1.488658   -1.632757   -0.771683
 ---------------------------------------------------------------------

 SCF Done:  E(RHF) =  -304.297893094     A.U. after    2 cycles

 The electronic state is 1-A.
 Alpha  occ. eigenvalues --  -15.79972 -15.75764 -11.46250 -11.44987 -11.42609
 Alpha  occ. eigenvalues --  -11.39770 -11.37964  -1.45736  -1.31590  -1.16682
 Alpha  occ. eigenvalues --   -1.11405  -0.93111  -0.83029  -0.71063  -0.67306
 Alpha  occ. eigenvalues --   -0.65377  -0.62661  -0.57246  -0.55770  -0.53301
 Alpha  occ. eigenvalues --   -0.52195  -0.50928  -0.44342  -0.43710  -0.41736
 Alpha  occ. eigenvalues --   -0.32412
 Alpha virt. eigenvalues --    0.03150   0.04885   0.05059   0.05386   0.06211
 Alpha virt. eigenvalues --    0.06416   0.07452   0.08123   0.09357   0.10619
 Alpha virt. eigenvalues --    0.11217   0.11839   0.12045   0.12556   0.14439

 Mulliken charges:
               1
     1  C   -3.395327
     2  C    0.386344
     3  C   -2.604108
     4  C    2.349689
     5  N   -2.406094
     6  C   -2.880860
     7  N   -2.256683
     8  H    1.174879
     9  H    1.368336
    10  H    1.252480
    11  H    1.517347
    12  H    1.434306
    13  H    1.318745
    14  H    1.988043
    15  H    0.752903
 Sum of Mulliken charges =  -0.00000

 Dipole moment (field-independent basis, Debye):
    X=             -2.9020    Y=             -1.0767    Z=              2.1008  Tot=              3.7409

 Test job not archived.
 1\1\GINC-SE173\SP\RHF\Aug-CC-pVDZ\C5H8N2\OHZDE\09-Apr-2025\0\\#t hf au
 g-cc-pvdz iop(5/13=1,5/36=2,99/5=2) pseudo=read geom=check guess=(read
 ,tcheck) scf=(maxcycle=1)\\title\\0,1\C,0,-1.36068241,0.95451905,1.004
 51945\C,0,0.216714,-0.84612112,-1.60149268\C,0,1.63514991,-0.6415596,-
 1.06240005\C,0,1.87111244,0.67590164,-0.47704442\N,0,2.01845446,1.7240
 8456,-0.03272115\C,0,-0.71653452,-0.39274718,0.7255834\N,0,-0.72227213
 ,-0.71004073,-0.71156151\H,0,-1.40153597,1.13467145,2.0794093\H,0,-0.7
 8825779,1.75900299,0.54320422\H,0,-2.38261406,0.9876792,0.62039742\H,0

 Normal termination of Gaussian 16 at Wed Apr  9 19:22:12 2025.
