 Gaussian 16, Revision C.01,

 ----------------------------------------------------------------------
 #t hf aug-cc-pvdz symm=none int=(grid=ultrafine) guess=(read,tcheck) s
 table=(opt,rrhf)
 ----------------------------------------------------------------------
 -----
 title
 -----
 Symbolic Z-matrix:
 Charge =  0 Multiplicity = 1

 SCF Done:  E(RHF) =  -307.778932642     A.U. after   16 cycles

 1\1\GINC-SE108\Stability\RHF\Aug-CC-pVDZ\C6H10O1\OHZDE\09-Apr-2025\0\\
 #t hf aug-cc-pvdz symm=none int=(grid=ultrafine) guess=(read,tcheck) s
 table=(opt,rrhf)\\title\\0,1\O,0,0.85424113,-0.19020243,1.59928842\C,0
 ,1.19618514,-0.3525365,-0.22678322\C,0,0.11311001,-1.37663388,-0.42849
 272\C,0,-1.27869286,-0.73893453,-0.21065306\C,0,-1.16453554,0.71195905
 ,0.25099716\C,0,-0.21443146,1.50313823,-0.41396088\C,0,1.01520256,0.95
 20642,-0.74138701\H,0,1.45750649,0.51277667,1.85439071\H,0,2.20521466,
 -0.74733156,-0.16628568\H,0,0.28473085,-2.22079713,0.24034193\H,0,0.21

 Normal termination of Gaussian 16 at Wed Apr  9 19:13:17 2025.
 Gaussian 16:  ES64L-G16RevC.01  3-Jul-2019

 ----------------------------------------------------------------------
 #t hf aug-cc-pvdz iop(5/13=1,5/36=2,99/5=2) pseudo=read geom=check gue
 ss=(read,tcheck) scf=(maxcycle=1)
 ----------------------------------------------------------------------
 -----
 title
 -----
 Structure from the checkpoint file:  "Grambow2020_wb97xd3_008408_forward_mol1.chk"
 Charge =  0 Multiplicity = 1

                         Standard orientation:
 ---------------------------------------------------------------------
 Center     Atomic      Atomic             Coordinates (Angstroms)
 Number     Number       Type             X           Y           Z
 ---------------------------------------------------------------------
      1          8           0        0.931312   -0.654474    1.331062
      2          6           0        0.924515   -0.568851   -0.531849
      3          6           0       -0.393444   -1.284383   -0.648087
      4          6           0       -1.533933   -0.408726   -0.079107
      5          6           0       -0.996668    0.881221    0.536220
      6          6           0       -0.002307    1.551332   -0.193868
      7          6           0        0.986553    0.812861   -0.826093
      8          1           0        1.720725   -0.153191    1.551806
      9          1           0        1.803005   -1.176525   -0.723297
     10          1           0       -0.327335   -2.248227   -0.142082
     11          1           0       -0.553870   -1.484903   -1.709608
     12          1           0       -2.102459   -0.967880    0.665276
     13          1           0       -2.230862   -0.163526   -0.885569
     14          1           0       -1.720674    1.479599    1.078695
     15          1           0        0.051551    0.152033    1.275973
     16          1           0        0.106296    2.629597   -0.107245
     17          1           0        1.894827    1.268093   -1.195734
 ---------------------------------------------------------------------

 SCF Done:  E(RHF) =  -309.295837584     A.U. after    2 cycles

 The electronic state is 1-A.
 Alpha  occ. eigenvalues --  -21.05651 -11.51466 -11.44635 -11.44079 -11.37467
 Alpha  occ. eigenvalues --  -11.36178 -11.33860  -1.66737  -1.31109  -1.10452
 Alpha  occ. eigenvalues --   -1.08454  -0.87836  -0.85658  -0.73141  -0.68336
 Alpha  occ. eigenvalues --   -0.66473  -0.57926  -0.56945  -0.55455  -0.52810
 Alpha  occ. eigenvalues --   -0.51595  -0.46728  -0.43850  -0.42006  -0.40919
 Alpha  occ. eigenvalues --   -0.31452  -0.22462
 Alpha virt. eigenvalues --    0.03810   0.04657   0.04736   0.05324   0.05813
 Alpha virt. eigenvalues --    0.06226   0.06633   0.07368   0.08332   0.08991
 Alpha virt. eigenvalues --    0.10734   0.12269   0.13268   0.14438   0.14824

 Mulliken charges:
               1
     1  O   -2.331133
     2  C   -1.124225
     3  C   -3.090973
     4  C   -3.551733
     5  C   -3.280882
     6  C   -0.004822
     7  C   -1.247827
     8  H    0.812650
     9  H    1.407551
    10  H    1.450980
    11  H    1.351660
    12  H    1.276064
    13  H    1.404794
    14  H    1.342138
    15  H    2.670910
    16  H    1.487619
    17  H    1.427230
 Sum of Mulliken charges =  -0.00000

 Dipole moment (field-independent basis, Debye):
    X=              1.0830    Y=             -1.0002    Z=              0.5348  Tot=              1.5682

 Test job not archived.
 1\1\GINC-SE108\SP\RHF\Aug-CC-pVDZ\C6H10O1\OHZDE\09-Apr-2025\0\\#t hf a
 ug-cc-pvdz iop(5/13=1,5/36=2,99/5=2) pseudo=read geom=check guess=(rea
 d,tcheck) scf=(maxcycle=1)\\title\\0,1\O,0,0.85424113,-0.19020243,1.59
 928842\C,0,1.19618514,-0.3525365,-0.22678322\C,0,0.11311001,-1.3766338
 8,-0.42849272\C,0,-1.27869286,-0.73893453,-0.21065306\C,0,-1.16453554,
 0.71195905,0.25099716\C,0,-0.21443146,1.50313823,-0.41396088\C,0,1.015
 20256,0.9520642,-0.74138701\H,0,1.45750649,0.51277667,1.85439071\H,0,2
 .20521466,-0.74733156,-0.16628568\H,0,0.28473085,-2.22079713,0.2403419

 Normal termination of Gaussian 16 at Wed Apr  9 19:13:23 2025.
