 Gaussian 16, Revision C.01,

 ----------------------------------------------------------------------
 #t hf aug-cc-pvdz symm=none int=(grid=ultrafine) guess=(read,tcheck) s
 table=(opt,rrhf)
 ----------------------------------------------------------------------
 -----
 title
 -----
 Symbolic Z-matrix:
 Charge =  0 Multiplicity = 1

 SCF Done:  E(RHF) =  -308.869166245     A.U. after   17 cycles

 1\1\GINC-SE340\Stability\RHF\Aug-CC-pVDZ\C6H12O1\OHZDE\09-Apr-2025\0\\
 #t hf aug-cc-pvdz symm=none int=(grid=ultrafine) guess=(read,tcheck) s
 table=(opt,rrhf)\\title\\0,1\C,0,2.10106084,-0.15194463,-1.16827103\O,
 0,0.70451236,-0.28177074,-1.12435928\C,0,0.13947692,-0.17786696,0.1841
 7675\C,0,0.03515761,1.4857715,0.43719418\C,0,-0.74657495,1.9364015,-0.
 65052173\C,0,-1.19671657,-0.61272442,0.3965489\C,0,-1.49944376,-1.9726
 3297,0.90912488\H,0,2.59334392,-0.82858826,-0.45754882\H,0,2.44127284,
 0.87184993,-0.96337329\H,0,2.40994162,-0.41652201,-2.17880606\H,0,0.85

 Normal termination of Gaussian 16 at Wed Apr  9 19:12:16 2025.
 Gaussian 16:  ES64L-G16RevC.01  3-Jul-2019

 ----------------------------------------------------------------------
 #t hf aug-cc-pvdz iop(5/13=1,5/36=2,99/5=2) pseudo=read geom=check gue
 ss=(read,tcheck) scf=(maxcycle=1)
 ----------------------------------------------------------------------
 -----
 title
 -----
 Structure from the checkpoint file:  "Grambow2020_wb97xd3_008401_forward_mol1.chk"
 Charge =  0 Multiplicity = 1

                         Standard orientation:
 ---------------------------------------------------------------------
 Center     Atomic      Atomic             Coordinates (Angstroms)
 Number     Number       Type             X           Y           Z
 ---------------------------------------------------------------------
      1          6           0        1.839659   -1.478747    0.049429
      2          8           0        0.780354   -0.797955   -0.569865
      3          6           0       -0.142917   -0.188135    0.334578
      4          6           0        0.607828    1.265055    0.743495
      5          6           0        0.811880    1.893763   -0.505660
      6          6           0       -1.408354    0.237661   -0.152231
      7          6           0       -2.615335   -0.618287   -0.032732
      8          1           0        1.478222   -2.190373    0.803264
      9          1           0        2.559284   -0.802281    0.529445
     10          1           0        2.360620   -2.028612   -0.733410
     11          1           0       -0.243539   -0.894735    1.179138
     12          1           0        0.001415    1.804788    1.463768
     13          1           0        1.508728    0.882976    1.229249
     14          1           0        1.535662    1.506212   -1.206505
     15          1           0        0.291707    2.802186   -0.779451
     16          1           0       -1.504536    1.237962   -0.547430
     17          1           0       -3.538550   -0.040698    0.040983
     18          1           0       -2.717898   -1.297088   -0.889761
     19          1           0       -2.530520   -1.264553    0.848348
 ---------------------------------------------------------------------

 SCF Done:  E(RHF) =  -310.384833534     A.U. after    2 cycles

 The electronic state is 1-A.
 Alpha  occ. eigenvalues --  -21.03669 -11.47473 -11.42485 -11.40328 -11.39888
 Alpha  occ. eigenvalues --  -11.38559 -11.36183  -1.75179  -1.23084  -1.11625
 Alpha  occ. eigenvalues --   -1.00816  -0.93363  -0.85668  -0.78487  -0.66492
 Alpha  occ. eigenvalues --   -0.63357  -0.61754  -0.59606  -0.58044  -0.55485
 Alpha  occ. eigenvalues --   -0.53162  -0.52691  -0.50511  -0.46440  -0.45060
 Alpha  occ. eigenvalues --   -0.37213  -0.28849  -0.20641
 Alpha virt. eigenvalues --    0.04069   0.04208   0.05147   0.05350   0.05579
 Alpha virt. eigenvalues --    0.05810   0.05945   0.06623   0.06797   0.07850
 Alpha virt. eigenvalues --    0.08548   0.08776   0.09707   0.11684   0.12773

 Mulliken charges:
               1
     1  C   -2.922810
     2  O   -2.888959
     3  C    0.627521
     4  C   -4.015027
     5  C   -2.690244
     6  C   -0.470667
     7  C   -4.605240
     8  H    1.348069
     9  H    1.486684
    10  H    1.198765
    11  H    1.811006
    12  H    1.296601
    13  H    1.601873
    14  H    1.434930
    15  H    1.449687
    16  H    1.647859
    17  H    1.223867
    18  H    1.273191
    19  H    1.192893
 Sum of Mulliken charges =  -0.00000

 Dipole moment (field-independent basis, Debye):
    X=              0.2922    Y=             -0.1291    Z=              0.7198  Tot=              0.7875

 Test job not archived.
 1\1\GINC-SE340\SP\RHF\Aug-CC-pVDZ\C6H12O1\OHZDE\09-Apr-2025\0\\#t hf a
 ug-cc-pvdz iop(5/13=1,5/36=2,99/5=2) pseudo=read geom=check guess=(rea
 d,tcheck) scf=(maxcycle=1)\\title\\0,1\C,0,2.10106084,-0.15194463,-1.1
 6827103\O,0,0.70451236,-0.28177074,-1.12435928\C,0,0.13947692,-0.17786
 696,0.18417675\C,0,0.03515761,1.4857715,0.43719418\C,0,-0.74657495,1.9
 364015,-0.65052173\C,0,-1.19671657,-0.61272442,0.3965489\C,0,-1.499443
 76,-1.97263297,0.90912488\H,0,2.59334392,-0.82858826,-0.45754882\H,0,2
 .44127284,0.87184993,-0.96337329\H,0,2.40994162,-0.41652201,-2.1788060

 Normal termination of Gaussian 16 at Wed Apr  9 19:12:22 2025.
