 Gaussian 16, Revision C.01,

 ----------------------------------------------------------------------
 #t hf aug-cc-pvdz symm=none int=(grid=ultrafine) guess=(read,tcheck) s
 table=(opt,rrhf)
 ----------------------------------------------------------------------
 -----
 title
 -----
 Symbolic Z-matrix:
 Charge =  0 Multiplicity = 1

 SCF Done:  E(RHF) =  -337.475839329     A.U. after   17 cycles
 Normal termination of Gaussian 16 at Wed Apr  9 03:58:28 2025.
 Gaussian 16:  ES64L-G16RevC.01  3-Jul-2019

 ----------------------------------------------------------------------
 #t hf aug-cc-pvdz iop(5/13=1,5/36=2,99/5=2) pseudo=read geom=check gue
 ss=(read,tcheck) scf=(maxcycle=1)
 ----------------------------------------------------------------------
 -----
 title
 -----
 Structure from the checkpoint file:  "Grambow2020_wb97xd3_008702_reverse_mol2.chk"
 Charge =  0 Multiplicity = 1

                         Standard orientation:
 ---------------------------------------------------------------------
 Center     Atomic      Atomic             Coordinates (Angstroms)
 Number     Number       Type             X           Y           Z
 ---------------------------------------------------------------------
      1          8           0        2.774631    0.055753   -0.030003
      2          6           0        1.756600   -0.574282   -0.002611
      3          6           0        0.393922    0.088964    0.023169
      4          6           0       -0.737016   -0.817414    0.041000
      5          7           0       -1.929695   -0.333457    0.009888
      6          6           0       -2.959572    0.233444   -0.171536
      7          7           0        0.269243    1.354265    0.026248
      8          1           0        1.768130   -1.682296    0.005498
      9          1           0       -0.620465   -1.891910    0.069150
     10          1           0       -3.641439    0.617943    0.577408
     11          1           0        1.196287    1.780306   -0.005119
 ---------------------------------------------------------------------

 SCF Done:  E(RHF) =  -338.965279070     A.U. after    2 cycles

 The electronic state is 1-A.
 Alpha  occ. eigenvalues --  -21.09086 -15.86289 -15.74964 -11.50603 -11.47840
 Alpha  occ. eigenvalues --  -11.46182 -11.42142  -1.74029  -1.48020  -1.34530
 Alpha  occ. eigenvalues --   -1.10715  -0.98518  -0.81634  -0.76202  -0.72204
 Alpha  occ. eigenvalues --   -0.68755  -0.60368  -0.58490  -0.54304  -0.51558
 Alpha  occ. eigenvalues --   -0.46930  -0.41891  -0.41622  -0.31891  -0.29426
 Alpha virt. eigenvalues --    0.03020   0.04818   0.05299   0.05640   0.07140
 Alpha virt. eigenvalues --    0.09449   0.09753   0.10027   0.11136   0.11634
 Alpha virt. eigenvalues --    0.12289   0.13592   0.14028   0.14478   0.14732

 Mulliken charges:
               1
     1  O   -2.790471
     2  C    0.696763
     3  C    2.817170
     4  C    1.233794
     5  N   -2.934033
     6  C   -1.035470
     7  N   -3.570446
     8  H    1.527150
     9  H    1.591266
    10  H    1.630762
    11  H    0.833513
 Sum of Mulliken charges =  -0.00000

 Dipole moment (field-independent basis, Debye):
    X=             -0.5191    Y=             -1.6414    Z=              1.2592  Tot=              2.1329

 Test job not archived.
 1\1\GINC-SE125\SP\RHF\Aug-CC-pVDZ\C4H4N2O1\OHZDE\09-Apr-2025\0\\#t hf
 aug-cc-pvdz iop(5/13=1,5/36=2,99/5=2) pseudo=read geom=check guess=(re
 ad,tcheck) scf=(maxcycle=1)\\title\\0,1\O,0,-2.72582737,-1.09053145,0.
 08781058\C,0,-1.96336251,-0.16879586,0.03184941\C,0,-0.4600012,-0.3611
 0362,0.01248553\C,0,0.32033596,0.8574636,-0.07134965\N,0,1.60316674,0.
 77731647,-0.14609694\C,0,2.75287099,0.55797938,-0.35825212\N,0,0.06391
 291,-1.51840507,0.06452318\H,0,-2.32932508,0.87636298,-0.00826623\H,0,
 -0.13351926,1.83867028,-0.0842686\H,0,3.54966283,0.4555405,0.36860934\

 Normal termination of Gaussian 16 at Wed Apr  9 03:58:32 2025.
