 Gaussian 16, Revision C.01,

 ----------------------------------------------------------------------
 #t hf aug-cc-pvdz symm=none int=(grid=ultrafine) guess=(read,tcheck) s
 table=(opt,rrhf)
 ----------------------------------------------------------------------
 -----
 title
 -----
 Symbolic Z-matrix:
 Charge =  0 Multiplicity = 1

 SCF Done:  E(RHF) =  -317.605630696     A.U. after   16 cycles
 Normal termination of Gaussian 16 at Wed Apr  9 19:04:40 2025.
 Gaussian 16:  ES64L-G16RevC.01  3-Jul-2019

 ----------------------------------------------------------------------
 #t hf aug-cc-pvdz iop(5/13=1,5/36=2,99/5=2) pseudo=read geom=check gue
 ss=(read,tcheck) scf=(maxcycle=1)
 ----------------------------------------------------------------------
 -----
 title
 -----
 Structure from the checkpoint file:  "Grambow2020_wb97xd3_008056_reverse_mol1.chk"
 Charge =  0 Multiplicity = 1

                         Standard orientation:
 ---------------------------------------------------------------------
 Center     Atomic      Atomic             Coordinates (Angstroms)
 Number     Number       Type             X           Y           Z
 ---------------------------------------------------------------------
      1          7           0        2.702072   -0.049578   -0.498785
      2          6           0        1.661232    0.060069   -0.010058
      3          6           0        0.414960    0.156768    0.651364
      4          6           0       -0.585087    1.236769    0.244087
      5          7           0       -1.664664    0.578031   -0.511171
      6          6           0       -1.569380   -0.662872   -0.386754
      7          7           0       -0.456839   -1.144025    0.381463
      8          1           0       -0.222569   -0.850077    1.443858
      9          1           0       -1.051853    1.726448    1.102229
     10          1           0       -0.127077    2.017454   -0.365455
     11          1           0       -2.255254   -1.387902   -0.808478
     12          1           0        0.062415   -1.941317    0.035466
 ---------------------------------------------------------------------

 SCF Done:  E(RHF) =  -319.060184835     A.U. after    2 cycles

 The electronic state is 1-A.
 Alpha  occ. eigenvalues --  -15.83807 -15.76788 -15.74025 -11.47603 -11.47167
 Alpha  occ. eigenvalues --  -11.43543 -11.39906  -1.57263  -1.33427  -1.28890
 Alpha  occ. eigenvalues --   -1.12978  -0.93258  -0.87148  -0.81032  -0.74627
 Alpha  occ. eigenvalues --   -0.62579  -0.61793  -0.57603  -0.54303  -0.50861
 Alpha  occ. eigenvalues --   -0.48264  -0.44705  -0.40460  -0.39821  -0.28783
 Alpha virt. eigenvalues --    0.02412   0.04493   0.05345   0.05742   0.06919
 Alpha virt. eigenvalues --    0.08280   0.09632   0.10063   0.10539   0.11777
 Alpha virt. eigenvalues --    0.12292   0.13289   0.13950   0.14373   0.14845

 Mulliken charges:
               1
     1  N   -2.582298
     2  C    2.824724
     3  C   -1.043942
     4  C   -2.166472
     5  N   -2.508355
     6  C    1.454151
     7  N   -2.451568
     8  H    1.179768
     9  H    1.399082
    10  H    1.511631
    11  H    1.592324
    12  H    0.790955
 Sum of Mulliken charges =  -0.00000

 Dipole moment (field-independent basis, Debye):
    X=             -4.2855    Y=             -2.7254    Z=              0.7274  Tot=              5.1306

 Test job not archived.
 1\1\GINC-SE036\SP\RHF\Aug-CC-pVDZ\C4H5N3\OHZDE\09-Apr-2025\0\\#t hf au
 g-cc-pvdz iop(5/13=1,5/36=2,99/5=2) pseudo=read geom=check guess=(read
 ,tcheck) scf=(maxcycle=1)\\title\\0,1\N,0,2.50907419,-1.02053012,1.343
 94574\C,0,1.68408919,-0.73190089,0.58875265\C,0,0.72985289,-0.3476046,
 -0.38169684\C,0,-0.62133302,-1.05631159,-0.44804451\N,0,-1.63109343,-0
 .13630569,0.10314521\C,0,-1.13627253,1.0053948,0.22991761\N,0,0.247790
 89,1.14424028,-0.12293355\H,0,0.6957583,0.87684143,-1.12182975\H,0,-0.
 92807405,-1.2874399,-1.47105649\H,0,-0.62623146,-1.99305635,0.11165866

 Normal termination of Gaussian 16 at Wed Apr  9 19:04:44 2025.
