 Gaussian 16, Revision C.01,

 ----------------------------------------------------------------------
 #t hf aug-cc-pvdz symm=none int=(grid=ultrafine) guess=(read,tcheck) s
 table=(opt,rrhf)
 ----------------------------------------------------------------------
 -----
 title
 -----
 Symbolic Z-matrix:
 Charge =  0 Multiplicity = 1

 SCF Done:  E(RHF) =  -286.693034474     A.U. after   15 cycles
 Normal termination of Gaussian 16 at Wed Apr  9 19:19:10 2025.
 Gaussian 16:  ES64L-G16RevC.01  3-Jul-2019

 ----------------------------------------------------------------------
 #t hf aug-cc-pvdz iop(5/13=1,5/36=2,99/5=2) pseudo=read geom=check gue
 ss=(read,tcheck) scf=(maxcycle=1)
 ----------------------------------------------------------------------
 -----
 title
 -----
 Structure from the checkpoint file:  "Grambow2020_wb97xd3_008601_forward_mol1.chk"
 Charge =  0 Multiplicity = 1

                         Standard orientation:
 ---------------------------------------------------------------------
 Center     Atomic      Atomic             Coordinates (Angstroms)
 Number     Number       Type             X           Y           Z
 ---------------------------------------------------------------------
      1          6           0        1.783784    0.164222   -0.219148
      2          6           0        0.843518   -0.274943    0.844408
      3          6           0       -0.349970    0.586044    1.142339
      4          6           0       -1.529896   -0.788493    0.102236
      5          6           0       -0.582687   -0.139870   -0.908619
      6          6           0       -0.664866    1.221055   -0.234373
      7          7           0        0.719157   -0.755511   -0.561005
      8          1           0        2.763631   -0.297510   -0.234462
      9          1           0        1.772778    1.186377   -0.573090
     10          1           0        1.173084   -0.999335    1.578444
     11          1           0       -1.336249   -0.202730    1.277891
     12          1           0       -1.380142   -1.849321    0.297394
     13          1           0       -2.578318   -0.513362   -0.011402
     14          1           0       -0.812500   -0.285286   -1.967710
     15          1           0        0.032428    1.998982   -0.536663
     16          1           0       -1.668109    1.642675   -0.264429
 ---------------------------------------------------------------------

 SCF Done:  E(RHF) =  -288.110213751     A.U. after    2 cycles

 The electronic state is 1-A.
 Alpha  occ. eigenvalues --  -15.71640 -11.48576 -11.46322 -11.43401 -11.41237
 Alpha  occ. eigenvalues --  -11.39531 -11.36619  -1.55074  -1.24456  -1.05521
 Alpha  occ. eigenvalues --   -0.99453  -0.92588  -0.80138  -0.78432  -0.70063
 Alpha  occ. eigenvalues --   -0.67107  -0.63483  -0.57176  -0.54584  -0.53897
 Alpha  occ. eigenvalues --   -0.47644  -0.45470  -0.43701  -0.39953  -0.32948
 Alpha  occ. eigenvalues --   -0.27724
 Alpha virt. eigenvalues --    0.04133   0.05018   0.05226   0.05324   0.05666
 Alpha virt. eigenvalues --    0.06412   0.06889   0.07195   0.08839   0.09771
 Alpha virt. eigenvalues --    0.11097   0.11206   0.12850   0.13267   0.13803

 Mulliken charges:
               1
     1  C   -2.249841
     2  C   -0.235692
     3  C   -2.013938
     4  C   -2.604003
     5  C   -1.249849
     6  C   -2.619871
     7  N   -1.910949
     8  H    1.354570
     9  H    1.490428
    10  H    1.516540
    11  H    1.518829
    12  H    1.379837
    13  H    1.236038
    14  H    1.800211
    15  H    1.361445
    16  H    1.226248
 Sum of Mulliken charges =   0.00000

 Dipole moment (field-independent basis, Debye):
    X=             -0.7358    Y=             -0.4953    Z=             -1.8853  Tot=              2.0835

 Test job not archived.
 1\1\GINC-SE229\SP\RHF\Aug-CC-pVDZ\C6H9N1\OHZDE\09-Apr-2025\0\\#t hf au
 g-cc-pvdz iop(5/13=1,5/36=2,99/5=2) pseudo=read geom=check guess=(read
 ,tcheck) scf=(maxcycle=1)\\title\\0,1\C,0,1.71414809,0.82776466,-0.117
 14971\C,0,1.11621462,-0.30234185,0.64011676\C,0,-0.2315884,-0.10482005
 ,1.27169097\C,0,-1.05922426,-1.23987556,-0.27428969\C,0,-0.51250955,0.
 047839,-0.89286831\C,0,-0.91835781,0.89169157,0.305747\N,0,0.95147033,
 -0.17151136,-0.83546478\H,0,2.77663844,0.77820054,-0.32255006\H,0,1.33
 621316,1.83346355,0.00907115\H,0,1.75434505,-1.10447595,0.98873665\H,0

 Normal termination of Gaussian 16 at Wed Apr  9 19:19:16 2025.
