 Gaussian 16, Revision C.01,

 ----------------------------------------------------------------------
 #t hf aug-cc-pvdz symm=none int=(grid=ultrafine) guess=(read,tcheck) s
 table=(opt,rrhf)
 ----------------------------------------------------------------------
 -----
 title
 -----
 Symbolic Z-matrix:
 Charge =  0 Multiplicity = 1

 SCF Done:  E(RHF) =  -323.922387170     A.U. after   14 cycles
 Normal termination of Gaussian 16 at Wed Apr  9 18:32:36 2025.
 Gaussian 16:  ES64L-G16RevC.01  3-Jul-2019

 ----------------------------------------------------------------------
 #t hf aug-cc-pvdz iop(5/13=1,5/36=2,99/5=2) pseudo=read geom=check gue
 ss=(read,tcheck) scf=(maxcycle=1)
 ----------------------------------------------------------------------
 -----
 title
 -----
 Structure from the checkpoint file:  "Grambow2020_wb97xd3_007249_forward_mol2.chk"
 Charge =  0 Multiplicity = 1

                         Standard orientation:
 ---------------------------------------------------------------------
 Center     Atomic      Atomic             Coordinates (Angstroms)
 Number     Number       Type             X           Y           Z
 ---------------------------------------------------------------------
      1          6           0        1.312080    1.206233    0.559467
      2          6           0        0.572526    0.000410   -0.011494
      3          6           0        1.549277   -1.039396   -0.542405
      4          6           0       -0.427491   -0.600653    1.007418
      5          8           0       -1.722527   -0.234222    0.502863
      6          6           0       -1.487825    0.311347   -0.707753
      7          7           0       -0.303934    0.467167   -1.103696
      8          1           0        1.904538    1.687375   -0.219522
      9          1           0        1.980681    0.903975    1.369241
     10          1           0        0.605365    1.940754    0.950640
     11          1           0        2.179294   -1.426259    0.262427
     12          1           0        1.013179   -1.875435   -0.994788
     13          1           0        2.192946   -0.596482   -1.303280
     14          1           0       -0.377695   -1.691151    1.053590
     15          1           0       -0.323033   -0.192866    2.013192
     16          1           0       -2.378925    0.586051   -1.259922
 ---------------------------------------------------------------------

 SCF Done:  E(RHF) =  -325.441971583     A.U. after    2 cycles

 The electronic state is 1-A.
 Alpha  occ. eigenvalues --  -21.08224 -15.71151 -11.48815 -11.45277 -11.42272
 Alpha  occ. eigenvalues --  -11.39371 -11.35803  -1.82375  -1.37774  -1.18679
 Alpha  occ. eigenvalues --   -1.01545  -1.00545  -0.84969  -0.77707  -0.69071
 Alpha  occ. eigenvalues --   -0.66705  -0.60474  -0.57106  -0.56151  -0.53747
 Alpha  occ. eigenvalues --   -0.53008  -0.49386  -0.47075  -0.45283  -0.39600
 Alpha  occ. eigenvalues --   -0.36633  -0.29177
 Alpha virt. eigenvalues --    0.03660   0.05348   0.05552   0.05944   0.06014
 Alpha virt. eigenvalues --    0.06039   0.06355   0.07213   0.09195   0.10356
 Alpha virt. eigenvalues --    0.11635   0.11747   0.12115   0.13839   0.14621

 Mulliken charges:
               1
     1  C   -3.931319
     2  C    1.921749
     3  C   -3.874796
     4  C   -1.084008
     5  O   -3.241277
     6  C    1.732161
     7  N   -3.463435
     8  H    1.170460
     9  H    1.184411
    10  H    1.277859
    11  H    1.193397
    12  H    1.215408
    13  H    1.139459
    14  H    1.469639
    15  H    1.486293
    16  H    1.804000
 Sum of Mulliken charges =   0.00000

 Dipole moment (field-independent basis, Debye):
    X=             -0.3185    Y=             -0.6066    Z=              1.3261  Tot=              1.4927

 Test job not archived.
 1\1\GINC-SE117\SP\RHF\Aug-CC-pVDZ\C5H9N1O1\OHZDE\09-Apr-2025\0\\#t hf
 aug-cc-pvdz iop(5/13=1,5/36=2,99/5=2) pseudo=read geom=check guess=(re
 ad,tcheck) scf=(maxcycle=1)\\title\\0,1\C,0,0.9151512,1.16073876,0.641
 81566\C,0,0.17896986,0.05216845,-0.10387465\C,0,1.15847274,-0.89008044
 ,-0.78932682\C,0,-0.81494985,-0.70166349,0.81446833\O,0,-2.11327963,-0
 .26906736,0.37496223\C,0,-1.88506844,0.45535019,-0.73924606\N,0,-0.703
 21754,0.67529899,-1.11005758\H,0,1.50285539,1.75759156,-0.05653845\H,0
 ,1.58780597,0.74212573,1.39442395\H,0,0.20654676,1.82381067,1.1420143\

 Normal termination of Gaussian 16 at Wed Apr  9 18:32:42 2025.
