 Gaussian 16, Revision C.01,

 ----------------------------------------------------------------------
 #t hf aug-cc-pvdz symm=none int=(grid=ultrafine) guess=(read,tcheck) s
 table=(opt,rrhf)
 ----------------------------------------------------------------------
 -----
 title
 -----
 Symbolic Z-matrix:
 Charge =  0 Multiplicity = 1

 SCF Done:  E(RHF) =  -358.356439540     A.U. after   16 cycles
 Normal termination of Gaussian 16 at Wed Apr  9 03:34:09 2025.
 Gaussian 16:  ES64L-G16RevC.01  3-Jul-2019

 ----------------------------------------------------------------------
 #t hf aug-cc-pvdz iop(5/13=1,5/36=2,99/5=2) pseudo=read geom=check gue
 ss=(read,tcheck) scf=(maxcycle=1)
 ----------------------------------------------------------------------
 -----
 title
 -----
 Structure from the checkpoint file:  "Grambow2020_wb97xd3_007069_forward_mol1.chk"
 Charge =  0 Multiplicity = 1

                         Standard orientation:
 ---------------------------------------------------------------------
 Center     Atomic      Atomic             Coordinates (Angstroms)
 Number     Number       Type             X           Y           Z
 ---------------------------------------------------------------------
      1          8           0        2.188842   -0.180151    0.149922
      2          6           0        1.008975   -0.059670    0.100253
      3          7           0        0.363302    1.170413   -0.315932
      4          6           0       -0.926039    1.123575   -0.057427
      5          6           0       -1.407368   -0.279578    0.255011
      6          8           0       -0.880096   -1.143818   -0.790230
      7          6           0       -0.128563   -1.001242    0.400545
      8          1           0        0.880474    1.926926   -0.737997
      9          1           0       -1.566485    1.968580   -0.274922
     10          1           0       -1.661448    1.229245    1.690118
     11          1           0       -1.998261    0.440626    1.438325
     12          1           0        0.050606   -1.865018    1.028179
 ---------------------------------------------------------------------

 SCF Done:  E(RHF) =  -359.947014929     A.U. after    2 cycles

 The electronic state is 1-A.
 Alpha  occ. eigenvalues --  -21.10046 -21.06678 -15.84841 -11.55787 -11.53684
 Alpha  occ. eigenvalues --  -11.48071 -11.41201  -1.81909  -1.75188  -1.48952
 Alpha  occ. eigenvalues --   -1.08809  -1.05449  -0.87258  -0.84433  -0.76337
 Alpha  occ. eigenvalues --   -0.67591  -0.63473  -0.60199  -0.58843  -0.54988
 Alpha  occ. eigenvalues --   -0.48707  -0.42663  -0.38227  -0.36189  -0.31794
 Alpha  occ. eigenvalues --   -0.26889
 Alpha virt. eigenvalues --    0.02459   0.04514   0.05731   0.06231   0.06804
 Alpha virt. eigenvalues --    0.08000   0.09381   0.10468   0.11048   0.11706
 Alpha virt. eigenvalues --    0.12200   0.12904   0.13959   0.14438   0.14633

 Mulliken charges:
               1
     1  O   -3.281560
     2  C    4.622779
     3  N   -2.992088
     4  C    0.497281
     5  C   -0.781861
     6  O   -2.495036
     7  C   -0.137032
     8  H    0.839576
     9  H    1.583535
    10  H    0.068251
    11  H    0.480673
    12  H    1.595481
 Sum of Mulliken charges =  -0.00000

 Dipole moment (field-independent basis, Debye):
    X=              1.8385    Y=              2.7092    Z=             -2.1658  Tot=              3.9257

 Test job not archived.
 1\1\GINC-SE029\SP\RHF\Aug-CC-pVDZ\C4H5N1O2\OHZDE\09-Apr-2025\0\\#t hf
 aug-cc-pvdz iop(5/13=1,5/36=2,99/5=2) pseudo=read geom=check guess=(re
 ad,tcheck) scf=(maxcycle=1)\\title\\0,1\O,0,0.98219547,2.3527066,0.315
 41042\C,0,0.48630315,1.2745735,0.28734965\N,0,1.25885663,0.06072347,0.
 1058625\C,0,0.46280031,-0.96094528,-0.12631586\C,0,-0.98510448,-0.6591
 8422,0.20631731\O,0,-0.9927902,-0.06476646,1.53449862\C,0,-0.93833857,
 0.80067375,0.41596218\H,0,2.26641628,0.05791958,0.1581529\H,0,0.866711
 01,-1.94712728,-0.31554736\H,0,-0.48372586,-1.21937478,-1.75211078\H,0

 Normal termination of Gaussian 16 at Wed Apr  9 03:34:13 2025.
