 Gaussian 16, Revision C.01,

 ----------------------------------------------------------------------
 #t hf aug-cc-pvdz symm=none int=(grid=ultrafine) guess=(read,tcheck) s
 table=(opt,rrhf)
 ----------------------------------------------------------------------
 -----
 title
 -----
 Symbolic Z-matrix:
 Charge =  0 Multiplicity = 1

 SCF Done:  E(RHF) =  -308.942809220     A.U. after   14 cycles

 1\1\GINC-SE393\Stability\RHF\Aug-CC-pVDZ\C6H12O1\OHZDE\09-Apr-2025\0\\
 #t hf aug-cc-pvdz symm=none int=(grid=ultrafine) guess=(read,tcheck) s
 table=(opt,rrhf)\\title\\0,1\C,0,1.56233399,1.16022113,0.32309794\C,0,
 0.72266639,-0.10729793,0.13915318\C,0,1.53638745,-1.19726263,-0.548148
 34\C,0,-0.45860224,0.33752637,-0.70542966\C,0,-1.880261,-0.79015297,-0
 .3739625\C,0,-1.69075678,0.63960982,0.06602449\O,0,-1.67258076,0.74456
 453,1.47293753\H,0,0.99532262,1.95707836,0.81014244\H,0,2.43569578,0.9
 4759109,0.94268982\H,0,1.90315885,1.53833382,-0.64284027\H,0,0.4282418

 Normal termination of Gaussian 16 at Wed Apr  9 03:52:27 2025.
 Gaussian 16:  ES64L-G16RevC.01  3-Jul-2019

 ----------------------------------------------------------------------
 #t hf aug-cc-pvdz iop(5/13=1,5/36=2,99/5=2) pseudo=read geom=check gue
 ss=(read,tcheck) scf=(maxcycle=1)
 ----------------------------------------------------------------------
 -----
 title
 -----
 Structure from the checkpoint file:  "Grambow2020_wb97xd3_008289_forward_mol1.chk"
 Charge =  0 Multiplicity = 1

                         Standard orientation:
 ---------------------------------------------------------------------
 Center     Atomic      Atomic             Coordinates (Angstroms)
 Number     Number       Type             X           Y           Z
 ---------------------------------------------------------------------
      1          6           0       -1.574304    1.354179    0.288630
      2          6           0       -0.947340    0.052754   -0.219987
      3          6           0       -1.997152   -1.047394   -0.320569
      4          6           0        0.125897   -0.278065    0.802415
      5          6           0        1.425003   -1.301694   -0.014380
      6          6           0        1.496959    0.141469    0.416695
      7          8           0        1.724765    0.994213   -0.684070
      8          1           0       -0.836616    2.155665    0.373075
      9          1           0       -2.353575    1.690991   -0.397782
     10          1           0       -2.018020    1.206455    1.275271
     11          1           0       -0.540255    0.249320   -1.219765
     12          1           0       -2.816829   -0.747978   -0.977868
     13          1           0       -2.407796   -1.277588    0.664975
     14          1           0       -1.570442   -1.967210   -0.730334
     15          1           0        0.392191   -1.620227    0.525961
     16          1           0        2.075310   -1.993158    0.510961
     17          1           0        1.369501   -1.421364   -1.091116
     18          1           0        2.190718    0.349967    1.229837
     19          1           0        1.543319    1.893929   -0.407478
 ---------------------------------------------------------------------

 SCF Done:  E(RHF) =  -310.458680714     A.U. after    2 cycles

 The electronic state is 1-A.
 Alpha  occ. eigenvalues --  -21.07589 -11.48416 -11.43899 -11.40762 -11.38390
 Alpha  occ. eigenvalues --  -11.37928 -11.34661  -1.72789  -1.30960  -1.17245
 Alpha  occ. eigenvalues --   -0.99798  -0.91248  -0.86853  -0.76759  -0.69038
 Alpha  occ. eigenvalues --   -0.64523  -0.60386  -0.58517  -0.56261  -0.52943
 Alpha  occ. eigenvalues --   -0.52077  -0.50887  -0.47839  -0.45365  -0.43881
 Alpha  occ. eigenvalues --   -0.40669  -0.32407  -0.28412
 Alpha virt. eigenvalues --    0.04048   0.04925   0.05280   0.05466   0.05697
 Alpha virt. eigenvalues --    0.05924   0.06378   0.06896   0.07415   0.08325
 Alpha virt. eigenvalues --    0.09071   0.09598   0.12177   0.12767   0.13168

 Mulliken charges:
               1
     1  C   -3.962445
     2  C   -1.105196
     3  C   -4.035504
     4  C   -1.164520
     5  C   -3.973330
     6  C    1.311924
     7  O   -3.350153
     8  H    1.347689
     9  H    1.182787
    10  H    1.312188
    11  H    2.102912
    12  H    1.148861
    13  H    1.345201
    14  H    1.148744
    15  H    1.778482
    16  H    1.174688
    17  H    1.336981
    18  H    1.624319
    19  H    0.776373
 Sum of Mulliken charges =   0.00000

 Dipole moment (field-independent basis, Debye):
    X=              1.0393    Y=             -0.1630    Z=             -1.3536  Tot=              1.7143

 Test job not archived.
 1\1\GINC-SE393\SP\RHF\Aug-CC-pVDZ\C6H12O1\OHZDE\09-Apr-2025\0\\#t hf a
 ug-cc-pvdz iop(5/13=1,5/36=2,99/5=2) pseudo=read geom=check guess=(rea
 d,tcheck) scf=(maxcycle=1)\\title\\0,1\C,0,1.56233399,1.16022113,0.323
 09794\C,0,0.72266639,-0.10729793,0.13915318\C,0,1.53638745,-1.19726263
 ,-0.54814834\C,0,-0.45860224,0.33752637,-0.70542966\C,0,-1.880261,-0.7
 9015297,-0.3739625\C,0,-1.69075678,0.63960982,0.06602449\O,0,-1.672580
 76,0.74456453,1.47293753\H,0,0.99532262,1.95707836,0.81014244\H,0,2.43
 569578,0.94759109,0.94268982\H,0,1.90315885,1.53833382,-0.64284027\H,0

 Normal termination of Gaussian 16 at Wed Apr  9 03:52:34 2025.
