 Gaussian 16, Revision C.01,

 ----------------------------------------------------------------------
 #t hf aug-cc-pvdz symm=none int=(grid=ultrafine) guess=(read,tcheck) s
 table=(opt,rrhf)
 ----------------------------------------------------------------------
 -----
 title
 -----
 Symbolic Z-matrix:
 Charge =  0 Multiplicity = 1

 SCF Done:  E(RHF) =  -317.634345073     A.U. after   14 cycles
 Normal termination of Gaussian 16 at Wed Apr  9 19:25:53 2025.
 Gaussian 16:  ES64L-G16RevC.01  3-Jul-2019

 ----------------------------------------------------------------------
 #t hf aug-cc-pvdz iop(5/13=1,5/36=2,99/5=2) pseudo=read geom=check gue
 ss=(read,tcheck) scf=(maxcycle=1)
 ----------------------------------------------------------------------
 -----
 title
 -----
 Structure from the checkpoint file:  "Grambow2020_wb97xd3_008968_reverse_mol2.chk"
 Charge =  0 Multiplicity = 1

                         Standard orientation:
 ---------------------------------------------------------------------
 Center     Atomic      Atomic             Coordinates (Angstroms)
 Number     Number       Type             X           Y           Z
 ---------------------------------------------------------------------
      1          7           0       -2.078009   -0.012016   -0.526634
      2          6           0       -0.781469    0.041474   -0.072036
      3          6           0        0.330607    1.068765    0.057881
      4          7           0        1.554765    0.569676   -0.529118
      5          6           0        1.424681   -0.676943   -0.336791
      6          7           0        0.219511   -1.056401    0.334267
      7          6           0       -0.120743    0.140697    1.162654
      8          1           0       -2.166845   -0.275479   -1.495013
      9          1           0       -2.703817   -0.538409    0.062764
     10          1           0        0.128862    2.131191    0.061813
     11          1           0        2.121408   -1.439157   -0.660913
     12          1           0       -0.371937    0.169079    2.211495
 ---------------------------------------------------------------------

 SCF Done:  E(RHF) =  -319.094824528     A.U. after    2 cycles

 The electronic state is 1-A.
 Alpha  occ. eigenvalues --  -15.77462 -15.73788 -15.72135 -11.52384 -11.48745
 Alpha  occ. eigenvalues --  -11.43981 -11.41545  -1.62948  -1.35324  -1.26766
 Alpha  occ. eigenvalues --   -1.13024  -0.86048  -0.83304  -0.81801  -0.72503
 Alpha  occ. eigenvalues --   -0.68586  -0.63415  -0.57705  -0.53400  -0.49693
 Alpha  occ. eigenvalues --   -0.43636  -0.38824  -0.36781  -0.35559  -0.33486
 Alpha virt. eigenvalues --    0.03416   0.05088   0.05405   0.06029   0.06113
 Alpha virt. eigenvalues --    0.10114   0.10339   0.10700   0.10928   0.12168
 Alpha virt. eigenvalues --    0.13087   0.13651   0.14096   0.14774   0.15854

 Mulliken charges:
               1
     1  N   -3.787379
     2  C    4.018688
     3  C   -0.940785
     4  N   -2.773773
     5  C    1.264321
     6  N   -2.199450
     7  C   -0.559910
     8  H    0.528773
     9  H    0.469426
    10  H    1.444050
    11  H    1.523340
    12  H    1.012700
 Sum of Mulliken charges =  -0.00000

 Dipole moment (field-independent basis, Debye):
    X=             -2.4057    Y=             -0.4598    Z=              0.5921  Tot=              2.5198

 Test job not archived.
 1\1\GINC-SE036\SP\RHF\Aug-CC-pVDZ\C4H5N3\OHZDE\09-Apr-2025\0\\#t hf au
 g-cc-pvdz iop(5/13=1,5/36=2,99/5=2) pseudo=read geom=check guess=(read
 ,tcheck) scf=(maxcycle=1)\\title\\0,1\N,0,-1.77100246,0.15054267,-0.68
 970225\C,0,-0.52144781,-0.01119406,-0.13925606\C,0,0.32930906,0.629831
 21,0.94435763\N,0,1.63632337,0.97263952,0.42820142\C,0,1.79075893,0.07
 560524,-0.45466205\N,0,0.70053647,-0.8434067,-0.57117036\C,0,0.0960957
 1,-0.85650373,0.79613449\H,0,-1.79512601,0.76241342,-1.48976136\H,0,-2
 .26340609,-0.71165581,-0.86368172\H,0,-0.10732661,1.21821752,1.7397297

 Normal termination of Gaussian 16 at Wed Apr  9 19:25:57 2025.
