 Gaussian 16, Revision C.01,

 ----------------------------------------------------------------------
 #t hf aug-cc-pvdz symm=none int=(grid=ultrafine) guess=(read,tcheck) s
 table=(opt,rrhf)
 ----------------------------------------------------------------------
 -----
 title
 -----
 Symbolic Z-matrix:
 Charge =  0 Multiplicity = 1

 SCF Done:  E(RHF) =  -394.264846413     A.U. after   17 cycles
 Normal termination of Gaussian 16 at Wed Apr  9 18:30:06 2025.
 Gaussian 16:  ES64L-G16RevC.01  3-Jul-2019

 ----------------------------------------------------------------------
 #t hf aug-cc-pvdz iop(5/13=1,5/36=2,99/5=2) pseudo=read geom=check gue
 ss=(read,tcheck) scf=(maxcycle=1)
 ----------------------------------------------------------------------
 -----
 title
 -----
 Structure from the checkpoint file:  "Grambow2020_wb97xd3_007196_reverse_mol1.chk"
 Charge =  0 Multiplicity = 1

                         Standard orientation:
 ---------------------------------------------------------------------
 Center     Atomic      Atomic             Coordinates (Angstroms)
 Number     Number       Type             X           Y           Z
 ---------------------------------------------------------------------
      1          7           0        1.423197   -1.528236    0.320201
      2          6           0        0.737762   -0.538664   -0.014969
      3          8           0       -0.404407   -0.623014   -0.805347
      4          6           0       -1.563752   -0.176687   -0.263245
      5          8           0       -1.712794    0.108879    0.880666
      6          6           0        1.204707    0.854885    0.299001
      7          8           0        0.571971    1.807041   -0.294266
      8          1           0        1.002478   -2.400330    0.001632
      9          1           0       -2.335442   -0.154498   -1.041056
     10          1           0        1.460110    2.072016    0.424871
 ---------------------------------------------------------------------

 SCF Done:  E(RHF) =  -395.912618623     A.U. after    2 cycles

 The electronic state is 1-A.
 Alpha  occ. eigenvalues --  -21.13752 -21.12679 -21.08830 -15.78876 -11.53870
 Alpha  occ. eigenvalues --  -11.53182 -11.46801  -1.89655  -1.79236  -1.70654
 Alpha  occ. eigenvalues --   -1.36363  -1.00370  -0.90087  -0.76206  -0.73094
 Alpha  occ. eigenvalues --   -0.70373  -0.64190  -0.57046  -0.55287  -0.51550
 Alpha  occ. eigenvalues --   -0.48643  -0.44265  -0.42768  -0.36264  -0.33548
 Alpha  occ. eigenvalues --   -0.29246
 Alpha virt. eigenvalues --    0.03505   0.05134   0.05514   0.07081   0.09535
 Alpha virt. eigenvalues --    0.10084   0.10777   0.10864   0.11909   0.12496
 Alpha virt. eigenvalues --    0.13459   0.14050   0.14754   0.16486   0.16925

 Mulliken charges:
               1
     1  N   -3.184157
     2  C    5.261962
     3  O   -3.347418
     4  C    1.917038
     5  O   -2.350413
     6  C    0.034041
     7  O   -2.089240
     8  H    0.802126
     9  H    1.587818
    10  H    1.368243
 Sum of Mulliken charges =   0.00000

 Dipole moment (field-independent basis, Debye):
    X=             -1.9145    Y=              0.3421    Z=             -2.1495  Tot=              2.8987

 Test job not archived.
 1\1\GINC-SE035\SP\RHF\Aug-CC-pVDZ\C3H3N1O3\OHZDE\09-Apr-2025\0\\#t hf
 aug-cc-pvdz iop(5/13=1,5/36=2,99/5=2) pseudo=read geom=check guess=(re
 ad,tcheck) scf=(maxcycle=1)\\title\\0,1\N,0,-0.81501496,1.58548588,-0.
 98359296\C,0,-0.49958742,0.51006201,-0.43097869\O,0,0.58892528,-0.2659
 3485,-0.81741238\C,0,1.54987831,-0.4868547,0.11260211\O,0,1.62293799,0
 .07117552,1.15929169\C,0,-1.39028385,-0.10111228,0.61387447\O,0,-1.118
 20856,-1.31596672,0.94406727\H,0,-0.13900662,1.85133814,-1.69869758\H,
 0,2.25384393,-1.2331009,-0.27280332\H,0,-2.0276141,-0.77569711,1.45126

 Normal termination of Gaussian 16 at Wed Apr  9 18:30:10 2025.
