 Gaussian 16, Revision C.01,

 ----------------------------------------------------------------------
 #t hf aug-cc-pvdz symm=none int=(grid=ultrafine) guess=(read,tcheck) s
 table=(opt,rrhf)
 ----------------------------------------------------------------------
 -----
 title
 -----
 Symbolic Z-matrix:
 Charge =  0 Multiplicity = 1

 SCF Done:  E(RHF) =  -354.777103789     A.U. after   14 cycles
 Normal termination of Gaussian 16 at Wed Apr  9 03:40:11 2025.
 Gaussian 16:  ES64L-G16RevC.01  3-Jul-2019

 ----------------------------------------------------------------------
 #t hf aug-cc-pvdz iop(5/13=1,5/36=2,99/5=2) pseudo=read geom=check gue
 ss=(read,tcheck) scf=(maxcycle=1)
 ----------------------------------------------------------------------
 -----
 title
 -----
 Structure from the checkpoint file:  "Grambow2020_wb97xd3_007470_reverse_mol2.chk"
 Charge =  0 Multiplicity = 1

                         Standard orientation:
 ---------------------------------------------------------------------
 Center     Atomic      Atomic             Coordinates (Angstroms)
 Number     Number       Type             X           Y           Z
 ---------------------------------------------------------------------
      1          7           0       -2.369194   -0.577065   -0.082240
      2          6           0       -1.079340   -0.062210   -0.013003
      3          6           0       -0.654046    1.231336   -0.002236
      4          7           0        0.743780    1.143876    0.005401
      5          6           0        1.040419   -0.160077    0.000169
      6          8           0        2.316814   -0.564729    0.010414
      7          7           0       -0.009635   -0.929873   -0.009124
      8          1           0       -2.402957   -1.530678    0.241676
      9          1           0       -3.064434   -0.008290    0.371512
     10          1           0       -1.171609    2.173399   -0.018767
     11          1           0        1.404862    1.897124    0.017485
     12          1           0        2.302778   -1.526594   -0.003057
 ---------------------------------------------------------------------

 SCF Done:  E(RHF) =  -356.360432833     A.U. after    2 cycles

 The electronic state is 1-A.
 Alpha  occ. eigenvalues --  -21.12502 -15.78561 -15.74737 -15.70322 -11.47591
 Alpha  occ. eigenvalues --  -11.45004 -11.37119  -1.79917  -1.54621  -1.34399
 Alpha  occ. eigenvalues --   -1.24853  -1.03424  -0.84357  -0.81054  -0.72922
 Alpha  occ. eigenvalues --   -0.66974  -0.63693  -0.59721  -0.56021  -0.54865
 Alpha  occ. eigenvalues --   -0.48163  -0.45740  -0.41887  -0.39723  -0.33673
 Alpha  occ. eigenvalues --   -0.24033
 Alpha virt. eigenvalues --    0.03567   0.05282   0.05554   0.05763   0.07296
 Alpha virt. eigenvalues --    0.11186   0.11618   0.11714   0.12735   0.13207
 Alpha virt. eigenvalues --    0.13759   0.14589   0.14907   0.16268   0.17310

 Mulliken charges:
               1
     1  N   -3.320772
     2  C    4.368358
     3  C   -0.815588
     4  N   -2.736702
     5  C    5.017069
     6  O   -3.145222
     7  N   -3.308992
     8  H    0.705434
     9  H    0.504064
    10  H    1.294398
    11  H    0.790023
    12  H    0.647930
 Sum of Mulliken charges =   0.00000

 Dipole moment (field-independent basis, Debye):
    X=              0.9009    Y=              1.5620    Z=              0.8886  Tot=              2.0103

 Test job not archived.
 1\1\GINC-SE009\SP\RHF\Aug-CC-pVDZ\C3H5N3O1\OHZDE\09-Apr-2025\0\\#t hf
 aug-cc-pvdz iop(5/13=1,5/36=2,99/5=2) pseudo=read geom=check guess=(re
 ad,tcheck) scf=(maxcycle=1)\\title\\0,1\N,0,2.21883444,0.16224385,0.03
 357364\C,0,0.82834201,0.16580868,0.02303709\C,0,-0.0433126,1.21109177,
 0.06608807\N,0,-1.30977033,0.61409413,0.10219554\C,0,-1.10506554,-0.70
 71895,0.07726982\O,0,-2.142081,-1.55409075,0.0970089\N,0,0.15401551,-1
 .03518332,0.02806671\H,0,2.58757325,-0.70619314,-0.32038767\H,0,2.6360
 7146,0.95474208,-0.42535341\H,0,0.0913177,2.27725564,0.09431443\H,0,-2

 Normal termination of Gaussian 16 at Wed Apr  9 03:40:16 2025.
