 Gaussian 16, Revision C.01,

 ----------------------------------------------------------------------
 #t hf aug-cc-pvdz symm=none int=(grid=ultrafine) guess=(read,tcheck) s
 table=(opt,rrhf)
 ----------------------------------------------------------------------
 -----
 title
 -----
 Symbolic Z-matrix:
 Charge =  0 Multiplicity = 1

 SCF Done:  E(RHF) =  -308.965164337     A.U. after   16 cycles

 1\1\GINC-SE135\Stability\RHF\Aug-CC-pVDZ\C6H12O1\OHZDE\09-Apr-2025\0\\
 #t hf aug-cc-pvdz symm=none int=(grid=ultrafine) guess=(read,tcheck) s
 table=(opt,rrhf)\\title\\0,1\C,0,2.5179373,-0.2023825,0.04212454\C,0,1
 .06399281,-0.49612245,0.30716888\O,0,0.80442076,-1.01325771,1.62735452
 \C,0,0.18099071,0.66686262,0.59994484\C,0,-1.12082182,1.33197137,-1.20
 666405\C,0,-1.21970782,0.54753271,0.1270399\C,0,-1.85308923,-0.8266779
 ,-0.08975142\H,0,2.63172336,0.22288991,-0.95799814\H,0,3.11521411,-1.1
 1468182,0.09981214\H,0,2.8925968,0.52970755,0.76003394\H,0,0.69249657,

 Normal termination of Gaussian 16 at Wed Apr  9 18:44:04 2025.
 Gaussian 16:  ES64L-G16RevC.01  3-Jul-2019

 ----------------------------------------------------------------------
 #t hf aug-cc-pvdz iop(5/13=1,5/36=2,99/5=2) pseudo=read geom=check gue
 ss=(read,tcheck) scf=(maxcycle=1)
 ----------------------------------------------------------------------
 -----
 title
 -----
 Structure from the checkpoint file:  "Grambow2020_wb97xd3_007566_reverse_mol2.chk"
 Charge =  0 Multiplicity = 1

                         Standard orientation:
 ---------------------------------------------------------------------
 Center     Atomic      Atomic             Coordinates (Angstroms)
 Number     Number       Type             X           Y           Z
 ---------------------------------------------------------------------
      1          6           0       -2.265373    0.920332    0.363938
      2          6           0       -1.084390   -0.011699    0.279777
      3          8           0       -1.383936   -1.278733   -0.338765
      4          6           0       -0.081787    0.260862   -0.787201
      5          6           0        1.839467    1.318435   -0.018276
      6          6           0        1.323072   -0.077402   -0.452861
      7          6           0        1.637884   -1.133650    0.606317
      8          1           0       -1.954202    1.870805    0.804193
      9          1           0       -3.053946    0.492715    0.986556
     10          1           0       -2.655297    1.127441   -0.634453
     11          1           0       -0.718310   -0.266839    1.278546
     12          1           0       -1.740091   -1.080700   -1.214605
     13          1           0        1.679546    2.072088   -0.789009
     14          1           0        1.351532    1.651045    0.901561
     15          1           0        2.909417    1.244605    0.180589
     16          1           0        1.852052   -0.329482   -1.376380
     17          1           0        1.325134   -0.824519    1.605722
     18          1           0        2.715254   -1.309121    0.643284
     19          1           0        1.147159   -2.079443    0.373940
 ---------------------------------------------------------------------

 SCF Done:  E(RHF) =  -310.467609159     A.U. after    2 cycles

 The electronic state is 1-A.
 Alpha  occ. eigenvalues --  -21.08530 -11.46722 -11.42309 -11.40271 -11.38835
 Alpha  occ. eigenvalues --  -11.38121 -11.35569  -1.74147  -1.26071  -1.12400
 Alpha  occ. eigenvalues --   -1.00826  -0.96613  -0.86431  -0.75337  -0.66283
 Alpha  occ. eigenvalues --   -0.62092  -0.59727  -0.58690  -0.55672  -0.54707
 Alpha  occ. eigenvalues --   -0.54079  -0.49586  -0.48596  -0.47643  -0.43394
 Alpha  occ. eigenvalues --   -0.40046  -0.33642  -0.30736
 Alpha virt. eigenvalues --    0.04095   0.05187   0.05358   0.05431   0.05774
 Alpha virt. eigenvalues --    0.05993   0.06086   0.06613   0.07046   0.08473
 Alpha virt. eigenvalues --    0.08644   0.09334   0.11763   0.12022   0.12900

 Mulliken charges:
               1
     1  C   -4.491888
     2  C    2.000709
     3  O   -2.878080
     4  C   -1.089783
     5  C   -3.615325
     6  C   -1.367884
     7  C   -4.390656
     8  H    1.235170
     9  H    1.087263
    10  H    1.252276
    11  H    1.895805
    12  H    0.857874
    13  H    1.249023
    14  H    1.463280
    15  H    1.264841
    16  H    1.688194
    17  H    1.400295
    18  H    1.089772
    19  H    1.349115
 Sum of Mulliken charges =  -0.00000

 Dipole moment (field-independent basis, Debye):
    X=              0.2934    Y=             -0.6530    Z=              1.4273  Tot=              1.5968

 Test job not archived.
 1\1\GINC-SE135\SP\RHF\Aug-CC-pVDZ\C6H12O1\OHZDE\09-Apr-2025\0\\#t hf a
 ug-cc-pvdz iop(5/13=1,5/36=2,99/5=2) pseudo=read geom=check guess=(rea
 d,tcheck) scf=(maxcycle=1)\\title\\0,1\C,0,2.5179373,-0.2023825,0.0421
 2454\C,0,1.06399281,-0.49612245,0.30716888\O,0,0.80442076,-1.01325771,
 1.62735452\C,0,0.18099071,0.66686262,0.59994484\C,0,-1.12082182,1.3319
 7137,-1.20666405\C,0,-1.21970782,0.54753271,0.1270399\C,0,-1.85308923,
 -0.8266779,-0.08975142\H,0,2.63172336,0.22288991,-0.95799814\H,0,3.115
 21411,-1.11468182,0.09981214\H,0,2.8925968,0.52970755,0.76003394\H,0,0

 Normal termination of Gaussian 16 at Wed Apr  9 18:44:11 2025.
