 Gaussian 16, Revision C.01,

 ----------------------------------------------------------------------
 #t hf aug-cc-pvdz symm=none int=(grid=ultrafine) guess=(read,tcheck) s
 table=(opt,rrhf)
 ----------------------------------------------------------------------
 -----
 title
 -----
 Symbolic Z-matrix:
 Charge =  0 Multiplicity = 1

 SCF Done:  E(RHF) =  -338.668458324     A.U. after   15 cycles
 Normal termination of Gaussian 16 at Wed Apr  9 03:40:20 2025.
 Gaussian 16:  ES64L-G16RevC.01  3-Jul-2019

 ----------------------------------------------------------------------
 #t hf aug-cc-pvdz iop(5/13=1,5/36=2,99/5=2) pseudo=read geom=check gue
 ss=(read,tcheck) scf=(maxcycle=1)
 ----------------------------------------------------------------------
 -----
 title
 -----
 Structure from the checkpoint file:  "Grambow2020_wb97xd3_007488_reverse_mol2.chk"
 Charge =  0 Multiplicity = 1

                         Standard orientation:
 ---------------------------------------------------------------------
 Center     Atomic      Atomic             Coordinates (Angstroms)
 Number     Number       Type             X           Y           Z
 ---------------------------------------------------------------------
      1          6           0        1.603181   -1.667965   -0.101868
      2          8           0        1.833227   -0.291670   -0.368488
      3          6           0        0.335738    1.423725    0.124783
      4          6           0        1.202722    0.528972    0.523839
      5          7           0       -2.677388   -1.492078    0.088122
      6          6           0       -2.415925   -0.384676   -0.035885
      7          7           0       -0.569941    2.175689   -0.216123
      8          1           0        1.947271   -1.932580    0.904071
      9          1           0        2.176727   -2.228313   -0.837387
     10          1           0        0.540919   -1.911068   -0.193863
     11          1           0        1.468873    0.463878    1.575556
     12          1           0       -2.146433    0.652399   -0.154819
     13          1           0       -0.276173    3.103438   -0.514861
 ---------------------------------------------------------------------

 SCF Done:  E(RHF) =  -340.192231808     A.U. after    2 cycles

 The electronic state is 1-A.
 Alpha  occ. eigenvalues --  -21.08086 -15.79854 -15.76585 -11.49640 -11.44783
 Alpha  occ. eigenvalues --  -11.42606 -11.41481  -1.78984  -1.38039  -1.30043
 Alpha  occ. eigenvalues --   -1.09170  -0.96776  -0.80932  -0.78259  -0.69831
 Alpha  occ. eigenvalues --   -0.64564  -0.61083  -0.57614  -0.56545  -0.52828
 Alpha  occ. eigenvalues --   -0.48159  -0.45678  -0.45546  -0.43814  -0.36696
 Alpha  occ. eigenvalues --   -0.29769
 Alpha virt. eigenvalues --    0.03000   0.04805   0.05501   0.06005   0.06299
 Alpha virt. eigenvalues --    0.08451   0.10191   0.10679   0.11022   0.11878
 Alpha virt. eigenvalues --    0.12115   0.12574   0.13507   0.13842   0.14472

 Mulliken charges:
               1
     1  C   -2.969132
     2  O   -3.091977
     3  C    1.404388
     4  C    1.431510
     5  N   -2.447350
     6  C    0.657014
     7  N   -3.052055
     8  H    1.307212
     9  H    1.212950
    10  H    1.354979
    11  H    1.576334
    12  H    1.746572
    13  H    0.869555
 Sum of Mulliken charges =   0.00000

 Dipole moment (field-independent basis, Debye):
    X=              2.3835    Y=              2.5748    Z=             -0.0088  Tot=              3.5086

 Test job not archived.
 1\1\GINC-SE398\SP\RHF\Aug-CC-pVDZ\C4H6N2O1\OHZDE\09-Apr-2025\0\\#t hf
 aug-cc-pvdz iop(5/13=1,5/36=2,99/5=2) pseudo=read geom=check guess=(re
 ad,tcheck) scf=(maxcycle=1)\\title\\0,1\C,0,-1.87153098,0.2664219,-0.8
 5719185\O,0,-1.58370204,-0.35219673,0.38886702\C,0,0.50644576,-0.35315
 745,1.41825918\C,0,-0.58379713,0.28137448,1.07151976\N,0,2.13573035,0.
 34089492,-2.38251804\C,0,2.30828902,-0.0684808,-1.32766506\N,0,1.58404
 557,-0.89432929,1.63697021\H,0,-2.16790023,1.31139783,-0.71393202\H,0,
 -2.70026242,-0.28580969,-1.29557073\H,0,-1.00422547,0.22678277,-1.5221

 Normal termination of Gaussian 16 at Wed Apr  9 03:40:25 2025.
