 Gaussian 16, Revision C.01,

 ----------------------------------------------------------------------
 #t hf aug-cc-pvdz symm=none int=(grid=ultrafine) guess=(read,tcheck) s
 table=(opt,rrhf)
 ----------------------------------------------------------------------
 -----
 title
 -----
 Symbolic Z-matrix:
 Charge =  0 Multiplicity = 1

 SCF Done:  E(RHF) =  -360.791649323     A.U. after   16 cycles
 Normal termination of Gaussian 16 at Wed Apr  9 18:13:22 2025.
 Gaussian 16:  ES64L-G16RevC.01  3-Jul-2019

 ----------------------------------------------------------------------
 #t hf aug-cc-pvdz iop(5/13=1,5/36=2,99/5=2) pseudo=read geom=check gue
 ss=(read,tcheck) scf=(maxcycle=1)
 ----------------------------------------------------------------------
 -----
 title
 -----
 Structure from the checkpoint file:  "Grambow2020_wb97xd3_006760_forward_mol1.chk"
 Charge =  0 Multiplicity = 1

                         Standard orientation:
 ---------------------------------------------------------------------
 Center     Atomic      Atomic             Coordinates (Angstroms)
 Number     Number       Type             X           Y           Z
 ---------------------------------------------------------------------
      1          6           0        2.614931   -0.788529    0.078289
      2          7           0        1.288481   -0.228554    0.042171
      3          6           0        1.049277    1.060813    0.006040
      4          8           0       -0.076131    1.582231   -0.057919
      5          6           0       -2.020913    0.588303   -0.013806
      6          6           0       -2.043609   -0.817548    0.363859
      7          8           0       -1.020233   -1.172302   -0.481536
      8          1           0        2.736353   -1.441335    0.944596
      9          1           0        2.812845   -1.373623   -0.822010
     10          1           0        3.359202    0.007979    0.141796
     11          1           0        1.931850    1.719256    0.040351
     12          1           0       -2.010696    1.415146    0.679943
     13          1           0       -2.221018    0.810651   -1.051878
     14          1           0       -1.839300   -0.968817    1.435964
     15          1           0       -3.016109   -1.295541    0.143724
     16          1           0        0.400304   -0.811504   -0.098332
 ---------------------------------------------------------------------

 SCF Done:  E(RHF) =  -362.428521655     A.U. after    2 cycles

 The electronic state is 1-A.
 Alpha  occ. eigenvalues --  -21.02661 -20.94369 -15.73341 -11.51360 -11.47416
 Alpha  occ. eigenvalues --  -11.40650 -11.39895  -1.70847  -1.61199  -1.38598
 Alpha  occ. eigenvalues --   -1.09100  -1.00780  -0.88656  -0.83244  -0.68358
 Alpha  occ. eigenvalues --   -0.65207  -0.64121  -0.61378  -0.60987  -0.55456
 Alpha  occ. eigenvalues --   -0.54558  -0.49428  -0.49084  -0.40851  -0.34134
 Alpha  occ. eigenvalues --   -0.29696  -0.24537  -0.21720
 Alpha virt. eigenvalues --    0.03301   0.04699   0.05399   0.05568   0.05797
 Alpha virt. eigenvalues --    0.06053   0.07190   0.07376   0.09084   0.10611
 Alpha virt. eigenvalues --    0.11079   0.11963   0.12840   0.13984   0.14077

 Mulliken charges:
               1
     1  C   -3.144265
     2  N   -2.611130
     3  C    2.173416
     4  O   -2.974698
     5  C   -2.351573
     6  C   -1.547826
     7  O   -2.595563
     8  H    1.336794
     9  H    1.360685
    10  H    1.375069
    11  H    1.883498
    12  H    1.517266
    13  H    1.429252
    14  H    1.444101
    15  H    1.290223
    16  H    1.414750
 Sum of Mulliken charges =  -0.00000

 Dipole moment (field-independent basis, Debye):
    X=              0.5807    Y=              1.4728    Z=              0.7046  Tot=              1.7329

 Test job not archived.
 1\1\GINC-SE131\SP\RHF\Aug-CC-pVDZ\C4H9N1O2\OHZDE\09-Apr-2025\0\\#t hf
 aug-cc-pvdz iop(5/13=1,5/36=2,99/5=2) pseudo=read geom=check guess=(re
 ad,tcheck) scf=(maxcycle=1)\\title\\0,1\C,0,2.29503002,-0.56124062,-1.
 16848139\N,0,1.09462724,-0.07664865,-0.53717291\C,0,1.04937944,1.01737
 729,0.18535829\O,0,0.0302425,1.48553391,0.71893164\C,0,-1.97939955,0.6
 2999545,0.75646312\C,0,-2.12554635,-0.75030233,0.31716702\O,0,-1.38726
 982,-0.57700501,-0.82858949\H,0,2.51189974,-1.5839617,-0.8548006\H,0,2
 .19218735,-0.55077044,-2.25538348\H,0,3.14480729,0.06848779,-0.8969705

 Normal termination of Gaussian 16 at Wed Apr  9 18:13:27 2025.
