 Gaussian 16, Revision C.01,

 ----------------------------------------------------------------------
 #t hf aug-cc-pvdz symm=none int=(grid=ultrafine) guess=(read,tcheck) s
 table=(opt,rrhf)
 ----------------------------------------------------------------------
 -----
 title
 -----
 Symbolic Z-matrix:
 Charge =  0 Multiplicity = 1

 SCF Done:  E(RHF) =  -360.771250441     A.U. after   16 cycles
 Normal termination of Gaussian 16 at Wed Apr  9 18:48:47 2025.
 Gaussian 16:  ES64L-G16RevC.01  3-Jul-2019

 ----------------------------------------------------------------------
 #t hf aug-cc-pvdz iop(5/13=1,5/36=2,99/5=2) pseudo=read geom=check gue
 ss=(read,tcheck) scf=(maxcycle=1)
 ----------------------------------------------------------------------
 -----
 title
 -----
 Structure from the checkpoint file:  "Grambow2020_wb97xd3_007670_reverse_mol2.chk"
 Charge =  0 Multiplicity = 1

                         Standard orientation:
 ---------------------------------------------------------------------
 Center     Atomic      Atomic             Coordinates (Angstroms)
 Number     Number       Type             X           Y           Z
 ---------------------------------------------------------------------
      1          6           0        2.355206   -0.339236    0.513281
      2          8           0        1.690297   -0.089279   -0.702693
      3          6           0        0.351463   -0.506318   -0.703513
      4          6           0       -0.577343    0.517916   -0.108503
      5          7           0       -1.944612    0.164690    0.148478
      6          8           0       -2.228632   -0.963199   -0.160730
      7          6           0       -0.274360    1.774179    0.195289
      8          1           0        3.379429    0.011556    0.397246
      9          1           0        1.891003    0.190779    1.353673
     10          1           0        2.367538   -1.411802    0.741228
     11          1           0        0.225813   -1.458433   -0.173894
     12          1           0        0.065798   -0.686595   -1.742772
     13          1           0       -0.742301   -1.385240    2.482096
     14          1           0        0.718335    2.171274    0.028966
     15          1           0       -0.075815   -1.259554    2.790436
     16          1           0       -1.040630    2.415766    0.611735
 ---------------------------------------------------------------------

 SCF Done:  E(RHF) =  -362.414148076     A.U. after    2 cycles

 The electronic state is 1-A.
 Alpha  occ. eigenvalues --  -21.11876 -21.05805 -15.86090 -11.47026 -11.43813
 Alpha  occ. eigenvalues --  -11.41389 -11.40213  -1.86776  -1.76993  -1.26100
 Alpha  occ. eigenvalues --   -1.05224  -0.99535  -0.94561  -0.76359  -0.67715
 Alpha  occ. eigenvalues --   -0.67285  -0.64353  -0.62323  -0.60736  -0.58710
 Alpha  occ. eigenvalues --   -0.54826  -0.54171  -0.50772  -0.49951  -0.39483
 Alpha  occ. eigenvalues --   -0.36489  -0.32648  -0.26688
 Alpha virt. eigenvalues --    0.03695   0.05017   0.05375   0.05750   0.06222
 Alpha virt. eigenvalues --    0.06413   0.07331   0.07689   0.09599   0.10418
 Alpha virt. eigenvalues --    0.11042   0.11940   0.13048   0.13250   0.14432

 Mulliken charges:
               1
     1  C   -3.065490
     2  O   -3.107646
     3  C   -0.473164
     4  C    2.539882
     5  N    0.158026
     6  O   -2.380436
     7  C   -3.577353
     8  H    1.212889
     9  H    1.558356
    10  H    1.352408
    11  H    1.528689
    12  H    1.299847
    13  H   -0.194100
    14  H    1.653339
    15  H    0.047492
    16  H    1.447260
 Sum of Mulliken charges =   0.00000

 Dipole moment (field-independent basis, Debye):
    X=              1.6383    Y=              0.1024    Z=              0.0470  Tot=              1.6422

 Test job not archived.
 1\1\GINC-SE041\SP\RHF\Aug-CC-pVDZ\C4H9N1O2\OHZDE\09-Apr-2025\0\\#t hf
 aug-cc-pvdz iop(5/13=1,5/36=2,99/5=2) pseudo=read geom=check guess=(re
 ad,tcheck) scf=(maxcycle=1)\\title\\0,1\C,0,1.9978497,-0.2296117,-0.03
 488509\O,0,1.25799631,-0.23844581,1.16332795\C,0,0.06979051,0.50281217
 ,1.09189447\C,0,-1.072249,-0.28360128,0.50617204\N,0,-2.29707459,0.389
 49151,0.17909317\O,0,-2.29324979,1.56733256,0.42625117\C,0,-1.09054813
 ,-1.58996616,0.27088392\H,0,2.89554991,-0.82115816,0.13762594\H,0,1.43
 742482,-0.66901368,-0.86885627\H,0,2.2888865,0.79134664,-0.3095687\H,0

 Normal termination of Gaussian 16 at Wed Apr  9 18:48:52 2025.
