 Gaussian 16, Revision C.01,

 ----------------------------------------------------------------------
 #t hf aug-cc-pvdz symm=none int=(grid=ultrafine) guess=(read,tcheck) s
 table=(opt,rrhf)
 ----------------------------------------------------------------------
 -----
 title
 -----
 Symbolic Z-matrix:
 Charge =  0 Multiplicity = 1

 SCF Done:  E(RHF) =  -342.492745448     A.U. after   14 cycles
 Normal termination of Gaussian 16 at Wed Apr  9 19:15:57 2025.
 Gaussian 16:  ES64L-G16RevC.01  3-Jul-2019

 ----------------------------------------------------------------------
 #t hf aug-cc-pvdz iop(5/13=1,5/36=2,99/5=2) pseudo=read geom=check gue
 ss=(read,tcheck) scf=(maxcycle=1)
 ----------------------------------------------------------------------
 -----
 title
 -----
 Structure from the checkpoint file:  "Grambow2020_wb97xd3_008518_reverse_mol2.chk"
 Charge =  0 Multiplicity = 1

                         Standard orientation:
 ---------------------------------------------------------------------
 Center     Atomic      Atomic             Coordinates (Angstroms)
 Number     Number       Type             X           Y           Z
 ---------------------------------------------------------------------
      1          8           0       -1.419679   -1.592120   -0.152881
      2          6           0       -0.663450   -0.659538   -0.023942
      3          6           0       -1.218728    0.701289    0.398110
      4          8           0       -0.706982    1.808393   -0.311790
      5          6           0        1.761082    0.259867   -0.520723
      6          6           0        1.794740   -0.140323    0.695770
      7          6           0        0.807603   -0.857777   -0.197767
      8          1           0       -1.069012    0.806365    1.481097
      9          1           0       -2.292611    0.664066    0.219778
     10          1           0        2.122717    0.878442   -1.322317
     11          1           0        0.124662    2.075496    0.082307
     12          1           0        2.207171   -0.109372    1.688237
     13          1           0        1.032875   -1.866296   -0.540427
 ---------------------------------------------------------------------

 SCF Done:  E(RHF) =  -344.016465011     A.U. after    2 cycles

 The electronic state is 1-A.
 Alpha  occ. eigenvalues --  -21.08336 -21.04757 -11.50314 -11.46441 -11.46025
 Alpha  occ. eigenvalues --  -11.42946 -11.41223  -1.73877  -1.69430  -1.32992
 Alpha  occ. eigenvalues --   -1.05030  -0.93526  -0.82702  -0.76729  -0.71150
 Alpha  occ. eigenvalues --   -0.67203  -0.60565  -0.56627  -0.54139  -0.50311
 Alpha  occ. eigenvalues --   -0.47114  -0.42720  -0.38606  -0.37000  -0.35503
 Alpha  occ. eigenvalues --   -0.25759
 Alpha virt. eigenvalues --    0.03075   0.04309   0.05192   0.05852   0.06276
 Alpha virt. eigenvalues --    0.06911   0.08540   0.09851   0.10293   0.11620
 Alpha virt. eigenvalues --    0.12980   0.13592   0.13634   0.14305   0.15114

 Mulliken charges:
               1
     1  O   -3.531609
     2  C    3.569096
     3  C   -1.700098
     4  O   -2.482779
     5  C   -0.115895
     6  C   -0.266554
     7  C   -1.594956
     8  H    1.326737
     9  H    1.332973
    10  H    0.732427
    11  H    0.870864
    12  H    0.711780
    13  H    1.148013
 Sum of Mulliken charges =  -0.00000

 Dipole moment (field-independent basis, Debye):
    X=              2.2818    Y=              1.3779    Z=              0.7192  Tot=              2.7608

 Test job not archived.
 1\1\GINC-SE115\SP\RHF\Aug-CC-pVDZ\C5H6O2\OHZDE\09-Apr-2025\0\\#t hf au
 g-cc-pvdz iop(5/13=1,5/36=2,99/5=2) pseudo=read geom=check guess=(read
 ,tcheck) scf=(maxcycle=1)\\title\\0,1\O,0,1.46443936,1.89521391,-0.072
 1451\C,0,0.7870485,0.89591871,-0.04444532\C,0,1.46462373,-0.46250733,0
 .13961923\O,0,0.98949237,-1.49256617,-0.6998747\C,0,-1.59186207,-0.134
 08135,-0.54478461\C,0,-1.5763582,0.08144861,0.71792944\C,0,-0.70255116
 ,0.99807724,-0.10901723\H,0,1.39241532,-0.73523512,1.20109101\H,0,2.51
 943941,-0.31340537,-0.08741359\H,0,-1.95858284,-0.65698763,-1.40968494

 Normal termination of Gaussian 16 at Wed Apr  9 19:16:01 2025.
