 Gaussian 16, Revision C.01,

 ----------------------------------------------------------------------
 #t hf aug-cc-pvdz symm=none int=(grid=ultrafine) guess=(read,tcheck) s
 table=(opt,rrhf)
 ----------------------------------------------------------------------
 -----
 title
 -----
 Symbolic Z-matrix:
 Charge =  0 Multiplicity = 1

 SCF Done:  E(RHF) =  -262.677967623     A.U. after   15 cycles
 Normal termination of Gaussian 16 at Wed Apr  9 17:03:21 2025.
 Gaussian 16:  ES64L-G16RevC.01  3-Jul-2019

 ----------------------------------------------------------------------
 #t hf aug-cc-pvdz iop(5/13=1,5/36=2,99/5=2) pseudo=read geom=check gue
 ss=(read,tcheck) scf=(maxcycle=1)
 ----------------------------------------------------------------------
 -----
 title
 -----
 Structure from the checkpoint file:  "Grambow2020_b97d3_006911_reverse_mol2.chk"
 Charge =  0 Multiplicity = 1

                         Standard orientation:
 ---------------------------------------------------------------------
 Center     Atomic      Atomic             Coordinates (Angstroms)
 Number     Number       Type             X           Y           Z
 ---------------------------------------------------------------------
      1          6           0       -1.380545    0.730031   -0.000323
      2          6           0       -1.286847   -0.759425   -0.000694
      3          7           0       -0.068345   -1.213196    0.000267
      4          7           0        2.039232   -0.145933    0.000064
      5          6           0        0.757577   -0.041690   -0.000953
      6          6           0       -0.103769    1.178245    0.000257
      7          1           0       -2.297924    1.311743    0.000861
      8          1           0       -2.137761   -1.440400    0.004039
      9          1           0        2.456480    0.798797    0.002501
     10          1           0        0.264500    2.200796    0.000557
 ---------------------------------------------------------------------

 SCF Done:  E(RHF) =  -263.874192360     A.U. after    2 cycles

 The electronic state is 1-A.
 Alpha  occ. eigenvalues --  -15.76314 -15.74148 -11.50458 -11.46350 -11.45014
 Alpha  occ. eigenvalues --  -11.40450  -1.49302  -1.29243  -1.14630  -0.97380
 Alpha  occ. eigenvalues --   -0.82259  -0.76377  -0.72012  -0.59399  -0.56403
 Alpha  occ. eigenvalues --   -0.54797  -0.54152  -0.42423  -0.39052  -0.37717
 Alpha  occ. eigenvalues --   -0.35442
 Alpha virt. eigenvalues --    0.02920   0.04218   0.04518   0.05203   0.06124
 Alpha virt. eigenvalues --    0.10194   0.11782   0.11852   0.12900   0.12978
 Alpha virt. eigenvalues --    0.13602   0.13624   0.13902   0.14066   0.15422

 Mulliken charges:
               1
     1  C   -0.566424
     2  C    0.211112
     3  N   -3.155443
     4  N   -3.107371
     5  C    3.600539
     6  C   -1.715240
     7  H    1.258994
     8  H    1.545576
     9  H    0.659364
    10  H    1.268894
 Sum of Mulliken charges =   0.00000

 Dipole moment (field-independent basis, Debye):
    X=             -2.1794    Y=              2.9251    Z=              0.0047  Tot=              3.6477

 Test job not archived.
 1\1\GINC-SE041\SP\RHF\Aug-CC-pVDZ\C4H4N2\OHZDE\09-Apr-2025\0\\#t hf au
 g-cc-pvdz iop(5/13=1,5/36=2,99/5=2) pseudo=read geom=check guess=(read
 ,tcheck) scf=(maxcycle=1)\\title\\0,1\C,0,0.7869598,1.024061,-0.109538
 \C,0,1.48186646,-0.2966254,-0.12184819\N,0,0.68274797,-1.31633681,-0.0
 1114938\N,0,-1.66230897,-1.49816977,0.20925469\C,0,-0.62780341,-0.7442
 134,0.08736993\C,0,-0.53061838,0.74448698,0.02038373\H,0,1.26359051,1.
 99674581,-0.1912686\H,0,2.5582703,-0.43697196,-0.21911865\H,0,-2.50815
 533,-0.90785823,0.26114573\H,0,-1.37513395,1.42675276,0.07078474\\Vers

 Normal termination of Gaussian 16 at Wed Apr  9 17:03:30 2025.
