 Gaussian 16, Revision C.01,

 ----------------------------------------------------------------------
 #t hf aug-cc-pvdz symm=none int=(grid=ultrafine) guess=(read,tcheck) s
 table=(opt,rrhf)
 ----------------------------------------------------------------------
 -----
 title
 -----
 Symbolic Z-matrix:
 Charge =  0 Multiplicity = 1

 SCF Done:  E(RHF) =  -343.470646609     A.U. after   16 cycles
 Normal termination of Gaussian 16 at Wed Apr  9 03:28:20 2025.
 Gaussian 16:  ES64L-G16RevC.01  3-Jul-2019

 ----------------------------------------------------------------------
 #t hf aug-cc-pvdz iop(5/13=1,5/36=2,99/5=2) pseudo=read geom=check gue
 ss=(read,tcheck) scf=(maxcycle=1)
 ----------------------------------------------------------------------
 -----
 title
 -----
 Structure from the checkpoint file:  "Grambow2020_wb97xd3_006712_reverse_mol1.chk"
 Charge =  0 Multiplicity = 1

                         Standard orientation:
 ---------------------------------------------------------------------
 Center     Atomic      Atomic             Coordinates (Angstroms)
 Number     Number       Type             X           Y           Z
 ---------------------------------------------------------------------
      1          8           0       -2.582980   -0.268667    0.084525
      2          6           0       -1.608461    0.671168   -0.273723
      3          6           0       -0.217591    0.230310    0.061948
      4          8           0        0.236783   -0.967855   -0.318405
      5          6           0        1.418969   -0.629345    0.479196
      6          6           0        2.252805    0.108649   -0.453426
      7          6           0        1.072422    0.858796    0.257885
      8          1           0       -2.270909   -1.143973   -0.158852
      9          1           0       -1.633689    0.884296   -1.352999
     10          1           0       -1.823635    1.599097    0.256430
     11          1           0       -0.309084   -0.267167    1.643680
     12          1           0        0.576391   -0.675846    1.683070
     13          1           0        2.248922   -0.096802   -1.519310
     14          1           0        3.186303    0.493994   -0.058974
     15          1           0        1.286418    1.661105    0.946719
 ---------------------------------------------------------------------

 SCF Done:  E(RHF) =  -345.071440625     A.U. after    2 cycles

 The electronic state is 1-A.
 Alpha  occ. eigenvalues --  -21.09451 -21.08395 -11.53430 -11.47454 -11.45564
 Alpha  occ. eigenvalues --  -11.45484 -11.39979  -1.87314  -1.72608  -1.27038
 Alpha  occ. eigenvalues --   -1.10006  -0.96890  -0.84567  -0.77080  -0.74719
 Alpha  occ. eigenvalues --   -0.68183  -0.63846  -0.62902  -0.57920  -0.52764
 Alpha  occ. eigenvalues --   -0.46711  -0.45122  -0.41794  -0.38183  -0.34651
 Alpha  occ. eigenvalues --   -0.34258  -0.32027
 Alpha virt. eigenvalues --    0.03806   0.04949   0.05132   0.05518   0.05984
 Alpha virt. eigenvalues --    0.06756   0.07483   0.08593   0.09524   0.10900
 Alpha virt. eigenvalues --    0.11571   0.11925   0.12709   0.13647   0.14393

 Mulliken charges:
               1
     1  O   -2.744978
     2  C   -1.110558
     3  C    4.588874
     4  O   -3.126309
     5  C    0.445441
     6  C   -3.301653
     7  C   -2.029652
     8  H    0.820578
     9  H    1.055377
    10  H    1.155954
    11  H    0.199686
    12  H    0.428204
    13  H    1.253253
    14  H    1.326922
    15  H    1.038860
 Sum of Mulliken charges =   0.00000

 Dipole moment (field-independent basis, Debye):
    X=              0.6975    Y=              0.8796    Z=             -1.7269  Tot=              2.0597

 Test job not archived.
 1\1\GINC-SE367\SP\RHF\Aug-CC-pVDZ\C5H8O2\OHZDE\09-Apr-2025\0\\#t hf au
 g-cc-pvdz iop(5/13=1,5/36=2,99/5=2) pseudo=read geom=check guess=(read
 ,tcheck) scf=(maxcycle=1)\\title\\0,1\O,0,2.46186609,0.45071766,1.1211
 2668\C,0,1.83739089,-0.01485123,-0.0427434\C,0,0.34352074,-0.02228461,
 0.05649614\O,0,-0.32682749,1.06464819,0.45137998\C,0,-1.50495478,0.193
 46435,0.41429726\C,0,-1.94613461,0.28445147,-0.96656589\C,0,-0.7576088
 3,-0.67863211,-0.61747715\H,0,1.98498375,1.22153272,1.43926203\H,0,2.1
 052563,0.59959229,-0.91544311\H,0,2.18514671,-1.03115908,-0.22874928\H

 Normal termination of Gaussian 16 at Wed Apr  9 03:28:24 2025.
