 Gaussian 16, Revision C.01,

 ----------------------------------------------------------------------
 #t hf aug-cc-pvdz symm=none int=(grid=ultrafine) guess=(read,tcheck) s
 table=(opt,rrhf)
 ----------------------------------------------------------------------
 -----
 title
 -----
 Symbolic Z-matrix:
 Charge =  0 Multiplicity = 1

 SCF Done:  E(RHF) =  -358.422521709     A.U. after   17 cycles
 Normal termination of Gaussian 16 at Wed Apr  9 18:13:58 2025.
 Gaussian 16:  ES64L-G16RevC.01  3-Jul-2019

 ----------------------------------------------------------------------
 #t hf aug-cc-pvdz iop(5/13=1,5/36=2,99/5=2) pseudo=read geom=check gue
 ss=(read,tcheck) scf=(maxcycle=1)
 ----------------------------------------------------------------------
 -----
 title
 -----
 Structure from the checkpoint file:  "Grambow2020_wb97xd3_006782_forward_mol1.chk"
 Charge =  0 Multiplicity = 1

                         Standard orientation:
 ---------------------------------------------------------------------
 Center     Atomic      Atomic             Coordinates (Angstroms)
 Number     Number       Type             X           Y           Z
 ---------------------------------------------------------------------
      1          8           0        1.860412   -0.736128   -0.424760
      2          6           0        0.941250   -0.652363    0.334330
      3          6           0       -0.590621   -0.744441   -0.398700
      4          6           0       -1.619658   -0.967705    0.508167
      5          7           0       -0.942401    0.619870   -0.847693
      6          6           0       -0.228770    1.466582   -0.150676
      7          8           0        0.579768    1.114296    0.754615
      8          1           0        0.950903   -0.993980    1.376285
      9          1           0       -0.483213   -1.453898   -1.212981
     10          1           0       -1.765823   -0.249483    1.308115
     11          1           0       -2.308709   -1.806423    0.456699
     12          1           0       -0.331001    2.526907   -0.391841
 ---------------------------------------------------------------------

 SCF Done:  E(RHF) =  -360.009893772     A.U. after    2 cycles

 The electronic state is 1-A.
 Alpha  occ. eigenvalues --  -21.04247 -21.02318 -15.72916 -11.55092 -11.51668
 Alpha  occ. eigenvalues --  -11.45892 -11.44042  -1.76006  -1.67194  -1.38542
 Alpha  occ. eigenvalues --   -1.15709  -0.96294  -0.84964  -0.80833  -0.72182
 Alpha  occ. eigenvalues --   -0.68813  -0.62880  -0.56799  -0.54632  -0.51180
 Alpha  occ. eigenvalues --   -0.49342  -0.45100  -0.37882  -0.30709  -0.27714
 Alpha  occ. eigenvalues --   -0.25746
 Alpha virt. eigenvalues --    0.00042   0.02198   0.04535   0.04983   0.05852
 Alpha virt. eigenvalues --    0.06184   0.09748   0.10316   0.10608   0.11373
 Alpha virt. eigenvalues --    0.12142   0.13587   0.14110   0.14265   0.14999

 Mulliken charges:
               1
     1  O   -3.004585
     2  C    2.078359
     3  C   -2.138012
     4  C   -1.850391
     5  N   -2.151873
     6  C    2.266778
     7  O   -2.615930
     8  H    1.369397
     9  H    1.441527
    10  H    1.475807
    11  H    1.435791
    12  H    1.693132
 Sum of Mulliken charges =   0.00000

 Dipole moment (field-independent basis, Debye):
    X=             -2.7792    Y=             -1.7725    Z=              2.1368  Tot=              3.9283

 Test job not archived.
 1\1\GINC-SE162\SP\RHF\Aug-CC-pVDZ\C4H5N1O2\OHZDE\09-Apr-2025\0\\#t hf
 aug-cc-pvdz iop(5/13=1,5/36=2,99/5=2) pseudo=read geom=check guess=(re
 ad,tcheck) scf=(maxcycle=1)\\title\\0,1\O,0,2.04049207,-0.99890136,-0.
 3738768\C,0,1.0928009,-0.3615451,-0.7256592\C,0,0.34960507,0.53967868,
 0.51042175\C,0,-0.5286403,1.50491431,0.03274099\N,0,-0.60876858,-0.358
 54614,1.18968687\C,0,-0.89812968,-1.33194211,0.36458446\O,0,-0.4285410
 8,-1.41390559,-0.80595362\H,0,0.95857133,0.06943206,-1.7250123\H,0,1.1
 5692523,0.87667256,1.15275195\H,0,-1.36329657,1.182964,-0.58111546\H,0

 Normal termination of Gaussian 16 at Wed Apr  9 18:14:02 2025.
