 Gaussian 16, Revision C.01,

 ----------------------------------------------------------------------
 #t hf aug-cc-pvdz symm=none int=(grid=ultrafine) guess=(read,tcheck) s
 table=(opt,rrhf)
 ----------------------------------------------------------------------
 -----
 title
 -----
 Symbolic Z-matrix:
 Charge =  0 Multiplicity = 1

 SCF Done:  E(RHF) =  -247.766984207     A.U. after   17 cycles
 Normal termination of Gaussian 16 at Wed Apr  9 17:47:47 2025.
 Gaussian 16:  ES64L-G16RevC.01  3-Jul-2019

 ----------------------------------------------------------------------
 #t hf aug-cc-pvdz iop(5/13=1,5/36=2,99/5=2) pseudo=read geom=check gue
 ss=(read,tcheck) scf=(maxcycle=1)
 ----------------------------------------------------------------------
 -----
 title
 -----
 Structure from the checkpoint file:  "Grambow2020_wb97xd3_006167_reverse_mol2.chk"
 Charge =  0 Multiplicity = 1

                         Standard orientation:
 ---------------------------------------------------------------------
 Center     Atomic      Atomic             Coordinates (Angstroms)
 Number     Number       Type             X           Y           Z
 ---------------------------------------------------------------------
      1          6           0       -0.966790    1.408601   -0.173240
      2          6           0       -0.920117    0.034984    0.487966
      3          6           0       -1.354122   -1.089313   -0.510726
      4          6           0        0.375104   -0.509127    0.897703
      5          6           0        1.480441   -0.147773    0.126466
      6          7           0        2.473546    0.084246   -0.429845
      7          1           0       -0.610782    2.181368    0.509452
      8          1           0       -1.991184    1.658026   -0.456385
      9          1           0       -0.345155    1.436705   -1.070442
     10          1           0       -1.618941   -0.020868    1.325887
     11          1           0       -0.708077   -1.109456   -1.389198
     12          1           0       -2.367040   -0.845430   -0.832366
     13          1           0       -1.360738   -2.074296   -0.047045
 ---------------------------------------------------------------------

 SCF Done:  E(RHF) =  -248.943022125     A.U. after    2 cycles

 The electronic state is 1-A.
 Alpha  occ. eigenvalues --  -15.78741 -11.47516 -11.44721 -11.43962 -11.41131
 Alpha  occ. eigenvalues --  -11.38879  -1.35226  -1.26855  -1.03457  -1.01688
 Alpha  occ. eigenvalues --   -0.86406  -0.67042  -0.64971  -0.59251  -0.56936
 Alpha  occ. eigenvalues --   -0.56397  -0.51815  -0.50890  -0.50090  -0.47982
 Alpha  occ. eigenvalues --   -0.45463  -0.33455
 Alpha virt. eigenvalues --    0.02230   0.03313   0.05313   0.05394   0.05752
 Alpha virt. eigenvalues --    0.06269   0.06516   0.07398   0.09551   0.09978
 Alpha virt. eigenvalues --    0.11618   0.13530   0.13659   0.14787   0.14901

 Mulliken charges:
               1
     1  C   -4.146702
     2  C   -1.106046
     3  C   -3.698499
     4  C   -1.136847
     5  C    3.251565
     6  N   -2.445313
     7  H    1.238586
     8  H    1.154041
     9  H    1.335052
    10  H    1.549446
    11  H    1.479094
    12  H    1.290252
    13  H    1.235372
 Sum of Mulliken charges =  -0.00000

 Dipole moment (field-independent basis, Debye):
    X=             -3.5469    Y=              0.6487    Z=             -0.5417  Tot=              3.6462

 Test job not archived.
 1\1\GINC-SE029\SP\RHF\Aug-CC-pVDZ\C5H7N1\OHZDE\09-Apr-2025\0\\#t hf au
 g-cc-pvdz iop(5/13=1,5/36=2,99/5=2) pseudo=read geom=check guess=(read
 ,tcheck) scf=(maxcycle=1)\\title\\0,1\C,0,1.29825632,0.47302139,0.0784
 5641\C,0,0.20396025,-0.43731003,-0.46927406\C,0,-0.56196323,-1.1615730
 2,0.68770274\C,0,-0.93767866,0.1649153,-1.15885629\C,0,-1.33438766,1.4
 3165193,-0.72856177\N,0,-1.75465259,2.48254966,-0.46671739\H,0,1.79176
 831,1.01699231,-0.72809289\H,0,2.05642127,-0.11627423,0.59776644\H,0,0
 .8902566,1.2037286,0.77973789\H,0,0.62753333,-1.22918755,-1.09144831\H

 Normal termination of Gaussian 16 at Wed Apr  9 17:47:51 2025.
