 Gaussian 16, Revision C.01,

 ----------------------------------------------------------------------
 #t hf aug-cc-pvdz symm=none int=(grid=ultrafine) guess=(read,tcheck) s
 table=(opt,rrhf)
 ----------------------------------------------------------------------
 -----
 title
 -----
 Symbolic Z-matrix:
 Charge =  0 Multiplicity = 1

 SCF Done:  E(RHF) =  -302.753612593     A.U. after   15 cycles
 Normal termination of Gaussian 16 at Wed Apr  9 19:24:10 2025.
 Gaussian 16:  ES64L-G16RevC.01  3-Jul-2019

 ----------------------------------------------------------------------
 #t hf aug-cc-pvdz iop(5/13=1,5/36=2,99/5=2) pseudo=read geom=check gue
 ss=(read,tcheck) scf=(maxcycle=1)
 ----------------------------------------------------------------------
 -----
 title
 -----
 Structure from the checkpoint file:  "Grambow2020_wb97xd3_008879_reverse_mol1.chk"
 Charge =  0 Multiplicity = 1

                         Standard orientation:
 ---------------------------------------------------------------------
 Center     Atomic      Atomic             Coordinates (Angstroms)
 Number     Number       Type             X           Y           Z
 ---------------------------------------------------------------------
      1          6           0       -2.502780   -0.388364    0.023370
      2          7           0       -1.098062   -0.062177   -0.031773
      3          6           0       -0.578591    1.219087   -0.009849
      4          6           0        0.799167    1.176893    0.012404
      5          6           0        1.052033   -0.204841    0.012056
      6          7           0        2.500249   -0.353002    0.004973
      7          6           0       -0.080527   -0.974943   -0.014010
      8          1           0       -3.073046    0.403716   -0.461076
      9          1           0       -2.690254   -1.319995   -0.510225
     10          1           0       -2.852592   -0.492171    1.053392
     11          1           0       -1.269826    2.050581   -0.021683
     12          1           0        2.389239    0.857794    0.008658
     13          1           0        2.904602   -0.755272   -0.834237
     14          1           0        2.912786   -0.769361    0.833159
     15          1           0       -0.272024   -2.036034   -0.024210
 ---------------------------------------------------------------------

 SCF Done:  E(RHF) =  -304.237035015     A.U. after    2 cycles

 The electronic state is 1-A.
 Alpha  occ. eigenvalues --  -15.83003 -15.74741 -11.42463 -11.39986 -11.37646
 Alpha  occ. eigenvalues --  -11.37036 -11.29061  -1.51837  -1.40037  -1.13847
 Alpha  occ. eigenvalues --   -1.01422  -0.96079  -0.79526  -0.74074  -0.71840
 Alpha  occ. eigenvalues --   -0.70778  -0.61819  -0.60305  -0.57928  -0.52530
 Alpha  occ. eigenvalues --   -0.49921  -0.49337  -0.41541  -0.29487  -0.29148
 Alpha  occ. eigenvalues --   -0.25790
 Alpha virt. eigenvalues --    0.02808   0.04517   0.05240   0.05350   0.06375
 Alpha virt. eigenvalues --    0.06549   0.07272   0.08248   0.10520   0.11962
 Alpha virt. eigenvalues --    0.12630   0.12741   0.13653   0.14533   0.14797

 Mulliken charges:
               1
     1  C   -3.429223
     2  N   -3.311579
     3  C    0.513866
     4  C   -2.798257
     5  C    4.228748
     6  N   -3.562937
     7  C   -0.658826
     8  H    1.361713
     9  H    1.326265
    10  H    1.413707
    11  H    1.610401
    12  H    0.794065
    13  H    0.482675
    14  H    0.481262
    15  H    1.548120
 Sum of Mulliken charges =  -0.00000

 Dipole moment (field-independent basis, Debye):
    X=              0.8568    Y=             -4.5629    Z=             -0.0667  Tot=              4.6431

 Test job not archived.
 1\1\GINC-SE054\SP\RHF\Aug-CC-pVDZ\C5H8N2\OHZDE\09-Apr-2025\0\\#t hf au
 g-cc-pvdz iop(5/13=1,5/36=2,99/5=2) pseudo=read geom=check guess=(read
 ,tcheck) scf=(maxcycle=1)\\title\\0,1\C,0,2.38607634,0.15829099,0.0378
 824\N,0,0.96636104,-0.09974337,0.01556239\C,0,0.3730118,-1.30605209,0.
 33917063\C,0,-1.00012571,-1.18994793,0.30035931\C,0,-1.17226555,0.1579
 7436,-0.05545715\N,0,-2.60891893,0.372643,-0.15175444\C,0,0.00339896,0
 .838263,-0.23280045\H,0,2.92001154,-0.75819028,-0.21163116\H,0,2.63913
 835,0.91445814,-0.70506953\H,0,2.71835295,0.50074895,1.02094128\H,0,1.

 Normal termination of Gaussian 16 at Wed Apr  9 19:24:16 2025.
