 Gaussian 16, Revision C.01,

 ----------------------------------------------------------------------
 #t hf aug-cc-pvdz symm=none int=(grid=ultrafine) guess=(read,tcheck) s
 table=(opt,rrhf)
 ----------------------------------------------------------------------
 -----
 title
 -----
 Symbolic Z-matrix:
 Charge =  0 Multiplicity = 1

 SCF Done:  E(RHF) =  -232.992024493     A.U. after   13 cycles
 Normal termination of Gaussian 16 at Wed Apr  9 03:15:06 2025.
 Gaussian 16:  ES64L-G16RevC.01  3-Jul-2019

 ----------------------------------------------------------------------
 #t hf aug-cc-pvdz iop(5/13=1,5/36=2,99/5=2) pseudo=read geom=check gue
 ss=(read,tcheck) scf=(maxcycle=1)
 ----------------------------------------------------------------------
 -----
 title
 -----
 Structure from the checkpoint file:  "Grambow2020_b97d3_006949_reverse_mol2.chk"
 Charge =  0 Multiplicity = 1

                         Standard orientation:
 ---------------------------------------------------------------------
 Center     Atomic      Atomic             Coordinates (Angstroms)
 Number     Number       Type             X           Y           Z
 ---------------------------------------------------------------------
      1          6           0        1.541794   -1.235067   -0.431763
      2          6           0        1.393879   -0.129211    0.622432
      3          6           0       -2.308161   -0.812602    0.180877
      4          6           0       -1.478195    0.172937   -0.083736
      5          6           0       -0.630539    1.142426   -0.353299
      6          6           0        0.831945    1.183210    0.054386
      7          1           0        2.221069   -0.917834   -1.237157
      8          1           0        0.573007   -1.481304   -0.884725
      9          1           0        1.950981   -2.152625    0.014132
     10          1           0        2.376506    0.079957    1.072578
     11          1           0       -2.449098   -1.643813   -0.515253
     12          1           0       -2.894457   -0.837821    1.102873
     13          1           0        0.741244   -0.477357    1.437718
     14          1           0       -1.004160    2.017138   -0.897193
     15          1           0        1.427688    1.491333   -0.821844
     16          1           0        0.952885    1.992174    0.795484
 ---------------------------------------------------------------------

 SCF Done:  E(RHF) =  -234.172470844     A.U. after    2 cycles

 The electronic state is 1-A.
 Alpha  occ. eigenvalues --  -11.44826 -11.42223 -11.40909 -11.39540 -11.37747
 Alpha  occ. eigenvalues --  -11.35027  -1.25717  -1.13903  -1.03959  -0.93790
 Alpha  occ. eigenvalues --   -0.83724  -0.69951  -0.63996  -0.61490  -0.59430
 Alpha  occ. eigenvalues --   -0.58029  -0.54259  -0.52503  -0.46176  -0.45987
 Alpha  occ. eigenvalues --   -0.44184  -0.34574  -0.33702
 Alpha virt. eigenvalues --    0.03563   0.05346   0.05445   0.05773   0.05909
 Alpha virt. eigenvalues --    0.06075   0.06740   0.07061   0.07543   0.09325
 Alpha virt. eigenvalues --    0.10812   0.11340   0.12861   0.13391   0.13695

 Mulliken charges:
               1
     1  C   -3.870235
     2  C   -3.128048
     3  C   -4.640690
     4  C    2.836845
     5  C   -1.173375
     6  C   -3.231645
     7  H    1.240679
     8  H    1.563683
     9  H    1.184084
    10  H    1.272163
    11  H    1.266159
    12  H    1.250020
    13  H    1.548519
    14  H    1.231819
    15  H    1.380494
    16  H    1.269528
 Sum of Mulliken charges =  -0.00000

 Dipole moment (field-independent basis, Debye):
    X=              0.4000    Y=              0.1542    Z=              0.1353  Tot=              0.4496

 Test job not archived.
 1\1\GINC-SE080\SP\RHF\Aug-CC-pVDZ\C6H10\OHZDE\09-Apr-2025\0\\#t hf aug
 -cc-pvdz iop(5/13=1,5/36=2,99/5=2) pseudo=read geom=check guess=(read,
 tcheck) scf=(maxcycle=1)\\title\\0,1\C,0,1.81415298,-0.10880232,0.1292
 8457\C,0,0.68376067,-0.13823343,1.16729681\C,0,-1.40608248,-1.25992187
 ,-1.78929965\C,0,-1.33279468,-0.19810096,-1.01643701\C,0,-1.23531527,0
 .86103443,-0.24195401\C,0,-0.34412577,0.98859067,0.9812544\H,0,2.36714
 283,0.84102471,0.18164158\H,0,1.41839503,-0.21325436,-0.8889599\H,0,2.
 52865375,-0.9261754,0.30120723\H,0,1.1132182,-0.053046,2.17737029\H,0,

 Normal termination of Gaussian 16 at Wed Apr  9 03:15:10 2025.
