 Gaussian 16, Revision C.01,

 ----------------------------------------------------------------------
 #t hf aug-cc-pvdz symm=none int=(grid=ultrafine) guess=(read,tcheck) s
 table=(opt,rrhf)
 ----------------------------------------------------------------------
 -----
 title
 -----
 Symbolic Z-matrix:
 Charge =  0 Multiplicity = 1

 SCF Done:  E(RHF) =  -355.693889324     A.U. after   17 cycles
 Normal termination of Gaussian 16 at Wed Apr  9 19:28:13 2025.
 Gaussian 16:  ES64L-G16RevC.01  3-Jul-2019

 ----------------------------------------------------------------------
 #t hf aug-cc-pvdz iop(5/13=1,5/36=2,99/5=2) pseudo=read geom=check gue
 ss=(read,tcheck) scf=(maxcycle=1)
 ----------------------------------------------------------------------
 -----
 title
 -----
 Structure from the checkpoint file:  "Grambow2020_wb97xd3_009002_forward_mol1.chk"
 Charge =  0 Multiplicity = 1

                         Standard orientation:
 ---------------------------------------------------------------------
 Center     Atomic      Atomic             Coordinates (Angstroms)
 Number     Number       Type             X           Y           Z
 ---------------------------------------------------------------------
      1          6           0       -2.104918   -0.036810    0.149070
      2          7           0       -0.824877   -0.160744   -0.542569
      3          6           0        0.148330   -1.054104   -0.050404
      4          8           0        0.525236   -0.417484    1.173134
      5          7           0        1.405072   -0.604307   -0.656682
      6          6           0        1.176248    0.528264    0.269400
      7          7           0        0.213015    1.392065   -0.302059
      8          1           0       -1.907999   -0.022075    1.217814
      9          1           0       -2.737795   -0.888628   -0.095409
     10          1           0       -2.587685    0.887295   -0.164470
     11          1           0       -0.921612   -0.186880   -1.551188
     12          1           0        1.346916   -0.350017   -1.640090
     13          1           0        2.037104    1.038762    0.699474
     14          1           0       -0.301252    1.848210    0.449574
 ---------------------------------------------------------------------

 SCF Done:  E(RHF) =  -357.317439325     A.U. after    2 cycles

 The electronic state is 1-A.
 Alpha  occ. eigenvalues --  -21.03744 -15.85703 -15.77565 -15.72120 -11.51869
 Alpha  occ. eigenvalues --  -11.43072 -11.42038  -1.83783  -1.46240  -1.32526
 Alpha  occ. eigenvalues --   -1.25794  -1.04576  -0.90025  -0.82883  -0.72103
 Alpha  occ. eigenvalues --   -0.71293  -0.68197  -0.61913  -0.59337  -0.58363
 Alpha  occ. eigenvalues --   -0.52166  -0.46358  -0.42465  -0.38130  -0.35374
 Alpha  occ. eigenvalues --   -0.31128  -0.25313
 Alpha virt. eigenvalues --    0.03196   0.04777   0.05169   0.05247   0.06056
 Alpha virt. eigenvalues --    0.06780   0.07522   0.10269   0.10400   0.11848
 Alpha virt. eigenvalues --    0.12289   0.13656   0.14392   0.14777   0.15698

 Mulliken charges:
               1
     1  C   -3.455802
     2  N   -0.591601
     3  C    1.245690
     4  O   -2.796263
     5  N   -1.808033
     6  C    2.603938
     7  N   -2.417301
     8  H    1.361245
     9  H    1.320332
    10  H    1.360451
    11  H    0.508201
    12  H    0.514336
    13  H    1.612783
    14  H    0.542023
 Sum of Mulliken charges =  -0.00000

 Dipole moment (field-independent basis, Debye):
    X=             -3.0387    Y=              2.7212    Z=             -0.7171  Tot=              4.1416

 Test job not archived.
 1\1\GINC-SE162\SP\RHF\Aug-CC-pVDZ\C3H7N3O1\OHZDE\09-Apr-2025\0\\#t hf
 aug-cc-pvdz iop(5/13=1,5/36=2,99/5=2) pseudo=read geom=check guess=(re
 ad,tcheck) scf=(maxcycle=1)\\title\\0,1\C,0,1.59572362,0.75904895,0.22
 897234\N,0,0.47287363,-0.15918257,0.39716462\C,0,0.18811561,-1.1022325
 8,-0.6113105\O,0,-0.26780153,-0.25657397,-1.67026631\N,0,-1.19710506,-
 1.509741,-0.35755652\C,0,-1.4434954,-0.12248206,-0.81308746\N,0,-1.164
 22039,0.76071792,0.25579024\H,0,1.58763614,1.11322543,-0.79850109\H,0,
 2.52991529,0.23650632,0.42930399\H,0,1.47873442,1.59058746,0.92193578\

 Normal termination of Gaussian 16 at Wed Apr  9 19:28:18 2025.
