 Gaussian 16, Revision C.01,

 ----------------------------------------------------------------------
 #t hf aug-cc-pvdz symm=none int=(grid=ultrafine) guess=(read,tcheck) s
 table=(opt,rrhf)
 ----------------------------------------------------------------------
 -----
 title
 -----
 Symbolic Z-matrix:
 Charge =  0 Multiplicity = 1

 SCF Done:  E(RHF) =  -358.412831552     A.U. after   15 cycles
 Normal termination of Gaussian 16 at Wed Apr  9 18:14:58 2025.
 Gaussian 16:  ES64L-G16RevC.01  3-Jul-2019

 ----------------------------------------------------------------------
 #t hf aug-cc-pvdz iop(5/13=1,5/36=2,99/5=2) pseudo=read geom=check gue
 ss=(read,tcheck) scf=(maxcycle=1)
 ----------------------------------------------------------------------
 -----
 title
 -----
 Structure from the checkpoint file:  "Grambow2020_wb97xd3_006803_reverse_mol1.chk"
 Charge =  0 Multiplicity = 1

                         Standard orientation:
 ---------------------------------------------------------------------
 Center     Atomic      Atomic             Coordinates (Angstroms)
 Number     Number       Type             X           Y           Z
 ---------------------------------------------------------------------
      1          8           0        1.855217   -0.907032   -0.493820
      2          6           0        1.435249   -0.300643    0.430559
      3          6           0       -0.812187   -1.020795    0.314644
      4          6           0       -2.179665   -0.374896    0.127122
      5          7           0       -0.978563    0.234344   -0.382352
      6          6           0       -0.235129    1.257745   -0.215769
      7          8           0        0.979928    1.100429    0.211476
      8          1           0        1.637736   -0.422058    1.492762
      9          1           0       -0.650327   -1.826208   -0.406850
     10          1           0       -2.652795    0.142906    0.956424
     11          1           0       -2.857881   -0.727292   -0.643493
     12          1           0       -0.557557    2.276605   -0.402971
 ---------------------------------------------------------------------

 SCF Done:  E(RHF) =  -359.985037563     A.U. after    2 cycles

 The electronic state is 1-A.
 Alpha  occ. eigenvalues --  -21.13360 -21.06998 -15.79099 -11.53747 -11.53367
 Alpha  occ. eigenvalues --  -11.44672 -11.34768  -1.87716  -1.70444  -1.50562
 Alpha  occ. eigenvalues --   -1.11062  -0.93174  -0.87590  -0.79887  -0.72224
 Alpha  occ. eigenvalues --   -0.69179  -0.65446  -0.59082  -0.55422  -0.51401
 Alpha  occ. eigenvalues --   -0.50726  -0.44600  -0.41652  -0.36327  -0.30863
 Alpha  occ. eigenvalues --   -0.26804
 Alpha virt. eigenvalues --    0.03086   0.04748   0.05372   0.06029   0.07367
 Alpha virt. eigenvalues --    0.08802   0.09489   0.10537   0.10893   0.11500
 Alpha virt. eigenvalues --    0.12647   0.13201   0.13701   0.14267   0.14477

 Mulliken charges:
               1
     1  O   -2.531280
     2  C    2.083340
     3  C   -1.558410
     4  C   -2.351925
     5  N   -2.135821
     6  C    2.025022
     7  O   -3.019139
     8  H    1.613242
     9  H    1.274974
    10  H    1.458875
    11  H    1.404020
    12  H    1.737105
 Sum of Mulliken charges =   0.00000

 Dipole moment (field-independent basis, Debye):
    X=             -1.1003    Y=              3.1859    Z=             -0.4626  Tot=              3.4021

 Test job not archived.
 1\1\GINC-SE162\SP\RHF\Aug-CC-pVDZ\C4H5N1O2\OHZDE\09-Apr-2025\0\\#t hf
 aug-cc-pvdz iop(5/13=1,5/36=2,99/5=2) pseudo=read geom=check guess=(re
 ad,tcheck) scf=(maxcycle=1)\\title\\0,1\O,0,2.14800951,-1.20416966,-0.
 02050941\C,0,1.3120678,-1.03602622,-0.83995277\C,0,0.42811563,0.992067
 38,-0.01020222\C,0,-0.91782048,1.49402656,0.49856178\N,0,-0.54948245,0
 .10422682,0.57707869\C,0,-0.86694365,-1.03676866,0.10258774\O,0,-0.016
 83515,-1.67786412,-0.63900547\H,0,1.4114814,-0.80183628,-1.89791736\H,
 0,1.22573374,1.1928527,0.71016754\H,0,-1.70978487,1.73022769,-0.206218

 Normal termination of Gaussian 16 at Wed Apr  9 18:15:02 2025.
