 Gaussian 16, Revision C.01,

 ----------------------------------------------------------------------
 #t hf aug-cc-pvdz symm=none int=(grid=ultrafine) guess=(read,tcheck) s
 table=(opt,rrhf)
 ----------------------------------------------------------------------
 -----
 title
 -----
 Symbolic Z-matrix:
 Charge =  0 Multiplicity = 1

 SCF Done:  E(RHF) =  -310.226190771     A.U. after   13 cycles

 1\1\GINC-SE105\Stability\RHF\Aug-CC-pVDZ\C6H14O1\OHZDE\09-Apr-2025\0\\
 #t hf aug-cc-pvdz symm=none int=(grid=ultrafine) guess=(read,tcheck) s
 table=(opt,rrhf)\\title\\0,1\C,0,-2.42882035,0.70608929,0.52652615\C,0
 ,-1.34819463,-0.35220354,0.35448232\C,0,-0.87564251,-0.4732073,-1.0952
 8303\C,0,0.19701929,-1.50086792,-1.28139591\C,0,1.37183215,-1.28702187
 ,-1.85962886\O,0,2.11986137,0.14961758,1.06209031\C,0,2.04549887,1.450
 88153,0.52828497\H,0,-2.75366858,0.77642563,1.56575496\H,0,-3.30674544
 ,0.47887736,-0.08362107\H,0,-2.06460018,1.69177011,0.22567924\H,0,-0.4

 Normal termination of Gaussian 16 at Wed Apr  9 18:52:14 2025.
 Gaussian 16:  ES64L-G16RevC.01  3-Jul-2019

 ----------------------------------------------------------------------
 #t hf aug-cc-pvdz iop(5/13=1,5/36=2,99/5=2) pseudo=read geom=check gue
 ss=(read,tcheck) scf=(maxcycle=1)
 ----------------------------------------------------------------------
 -----
 title
 -----
 Structure from the checkpoint file:  "Grambow2020_wb97xd3_007727_reverse_mol2.chk"
 Charge =  0 Multiplicity = 1

                         Standard orientation:
 ---------------------------------------------------------------------
 Center     Atomic      Atomic             Coordinates (Angstroms)
 Number     Number       Type             X           Y           Z
 ---------------------------------------------------------------------
      1          6           0        2.550697   -1.188108   -0.163677
      2          6           0        1.527503   -0.284618    0.510202
      3          6           0        1.064040    0.853183   -0.401049
      4          6           0        0.047206    1.745008    0.240844
      5          6           0       -1.136406    2.052942   -0.273459
      6          8           0       -1.963160   -1.009442    0.774495
      7          6           0       -1.956612   -1.540601   -0.529956
      8          1           0        2.869913   -1.991722    0.501737
      9          1           0        3.440231   -0.626791   -0.460849
     10          1           0        2.135544   -1.648445   -1.063938
     11          1           0        0.661137   -0.873171    0.825859
     12          1           0        1.955515    0.140021    1.424087
     13          1           0        1.935079    1.457666   -0.681497
     14          1           0        0.656951    0.447211   -1.332761
     15          1           0        0.323871    2.165649    1.206220
     16          1           0       -1.694990   -0.086179    0.726465
     17          1           0       -1.824261    2.715889    0.237447
     18          1           0       -1.451545    1.665696   -1.237959
     19          1           0       -2.262612   -2.584097   -0.458690
     20          1           0       -0.958807   -1.510069   -0.986276
     21          1           0       -2.659318   -1.022961   -1.193226
 ---------------------------------------------------------------------

 SCF Done:  E(RHF) =  -311.764105689     A.U. after    2 cycles

 The electronic state is 1-A.
 Alpha  occ. eigenvalues --  -21.05390 -11.44374 -11.41073 -11.39609 -11.39316
 Alpha  occ. eigenvalues --  -11.37684 -11.35202  -1.69471  -1.26385  -1.12821
 Alpha  occ. eigenvalues --   -0.98959  -0.96692  -0.85420  -0.79517  -0.66202
 Alpha  occ. eigenvalues --   -0.63128  -0.62462  -0.59193  -0.58087  -0.56703
 Alpha  occ. eigenvalues --   -0.53947  -0.53266  -0.49843  -0.47045  -0.46355
 Alpha  occ. eigenvalues --   -0.43789  -0.40878  -0.34761  -0.30794
 Alpha virt. eigenvalues --    0.03998   0.04945   0.05166   0.05436   0.05478
 Alpha virt. eigenvalues --    0.05643   0.06012   0.06547   0.07542   0.08108
 Alpha virt. eigenvalues --    0.08298   0.08905   0.09834   0.10109   0.11838

 Mulliken charges:
               1
     1  C   -3.990903
     2  C   -3.071254
     3  C   -3.564700
     4  C   -0.477587
     5  C   -3.592709
     6  O   -2.633422
     7  C   -2.888802
     8  H    1.120458
     9  H    1.236817
    10  H    1.357104
    11  H    1.997948
    12  H    1.374522
    13  H    1.279078
    14  H    1.804152
    15  H    1.423224
    16  H    1.509493
    17  H    1.383376
    18  H    1.511936
    19  H    1.201165
    20  H    1.711819
    21  H    1.308286
 Sum of Mulliken charges =  -0.00000

 Dipole moment (field-independent basis, Debye):
    X=              0.7480    Y=              0.4688    Z=             -0.3955  Tot=              0.9673

 Test job not archived.
 1\1\GINC-SE105\SP\RHF\Aug-CC-pVDZ\C6H14O1\OHZDE\09-Apr-2025\0\\#t hf a
 ug-cc-pvdz iop(5/13=1,5/36=2,99/5=2) pseudo=read geom=check guess=(rea
 d,tcheck) scf=(maxcycle=1)\\title\\0,1\C,0,-2.42882035,0.70608929,0.52
 652615\C,0,-1.34819463,-0.35220354,0.35448232\C,0,-0.87564251,-0.47320
 73,-1.09528303\C,0,0.19701929,-1.50086792,-1.28139591\C,0,1.37183215,-
 1.28702187,-1.85962886\O,0,2.11986137,0.14961758,1.06209031\C,0,2.0454
 9887,1.45088153,0.52828497\H,0,-2.75366858,0.77642563,1.56575496\H,0,-
 3.30674544,0.47887736,-0.08362107\H,0,-2.06460018,1.69177011,0.2256792

 Normal termination of Gaussian 16 at Wed Apr  9 18:52:23 2025.
