 Gaussian 16, Revision C.01,

 ----------------------------------------------------------------------
 #t hf aug-cc-pvdz symm=none int=(grid=ultrafine) guess=(read,tcheck) s
 table=(opt,rrhf)
 ----------------------------------------------------------------------
 -----
 title
 -----
 Symbolic Z-matrix:
 Charge =  0 Multiplicity = 1

 SCF Done:  E(RHF) =  -284.698490830     A.U. after   15 cycles
 Normal termination of Gaussian 16 at Wed Apr  9 17:54:52 2025.
 Gaussian 16:  ES64L-G16RevC.01  3-Jul-2019

 ----------------------------------------------------------------------
 #t hf aug-cc-pvdz iop(5/13=1,5/36=2,99/5=2) pseudo=read geom=check gue
 ss=(read,tcheck) scf=(maxcycle=1)
 ----------------------------------------------------------------------
 -----
 title
 -----
 Structure from the checkpoint file:  "Grambow2020_wb97xd3_006245_forward_mol1.chk"
 Charge =  0 Multiplicity = 1

                         Standard orientation:
 ---------------------------------------------------------------------
 Center     Atomic      Atomic             Coordinates (Angstroms)
 Number     Number       Type             X           Y           Z
 ---------------------------------------------------------------------
      1          8           0       -2.275126   -0.362398    0.042377
      2          6           0       -1.428887    0.472793   -0.035207
      3          7           0       -0.056350    0.167946   -0.248876
      4          6           0        0.687041   -1.070462    0.185911
      5          6           0        1.892193   -0.252764   -0.282961
      6          6           0        1.128083    0.966651    0.228304
      7          1           0       -1.616604    1.558995   -0.006176
      8          1           0        0.541244   -1.180238    1.272096
      9          1           0        0.370892   -1.969537   -0.339605
     10          1           0        2.890221   -0.474747    0.087145
     11          1           0        0.481550    0.071218   -1.248734
     12          1           0        1.223601    1.937819   -0.258972
     13          1           0        1.033968    1.082743    1.321079
 ---------------------------------------------------------------------

 SCF Done:  E(RHF) =  -286.028723371     A.U. after    2 cycles

 The electronic state is 1-A.
 Alpha  occ. eigenvalues --  -21.10311 -15.81269 -11.53368 -11.43971 -11.42902
 Alpha  occ. eigenvalues --  -11.32461  -1.76510  -1.55260  -1.11615  -1.00532
 Alpha  occ. eigenvalues --   -0.87758  -0.82698  -0.74448  -0.71092  -0.60295
 Alpha  occ. eigenvalues --   -0.57018  -0.54924  -0.50819  -0.48747  -0.44881
 Alpha  occ. eigenvalues --   -0.44397  -0.34355  -0.26056
 Alpha virt. eigenvalues --    0.03521   0.05337   0.05523   0.05952   0.06127
 Alpha virt. eigenvalues --    0.06440   0.06933   0.09856   0.10501   0.11063
 Alpha virt. eigenvalues --    0.12821   0.13282   0.13839   0.14293   0.14466

 Mulliken charges:
               1
     1  O   -2.647696
     2  C    2.168570
     3  N   -2.274272
     4  C   -2.218776
     5  C   -1.838027
     6  C   -2.240188
     7  H    1.585030
     8  H    1.347212
     9  H    1.304492
    10  H    1.233242
    11  H    0.890614
    12  H    1.274376
    13  H    1.415422
 Sum of Mulliken charges =  -0.00000

 Dipole moment (field-independent basis, Debye):
    X=             -2.1634    Y=              1.1656    Z=              1.1452  Tot=              2.7112

 Test job not archived.
 1\1\GINC-SE113\SP\RHF\Aug-CC-pVDZ\C4H7N1O1\OHZDE\09-Apr-2025\0\\#t hf
 aug-cc-pvdz iop(5/13=1,5/36=2,99/5=2) pseudo=read geom=check guess=(re
 ad,tcheck) scf=(maxcycle=1)\\title\\0,1\O,0,2.15921214,1.24586734,-1.2
 0624463\C,0,1.7038976,0.18813727,-0.90033549\N,0,0.33518006,0.00209676
 ,-0.56203621\C,0,-0.59672522,1.00252797,0.07515498\C,0,-1.50736311,-0.
 22363348,0.16532769\C,0,-0.2263821,-1.02549437,0.38517851\H,0,2.267950
 83,-0.75936068,-0.89803536\H,0,-0.12258662,1.35072761,1.00631283\H,0,-
 0.83662671,1.84229285,-0.57422567\H,0,-2.3149447,-0.26175972,0.8924269

 Normal termination of Gaussian 16 at Wed Apr  9 17:54:55 2025.
