 Gaussian 16, Revision C.01,

 ----------------------------------------------------------------------
 #t hf aug-cc-pvdz symm=none int=(grid=ultrafine) guess=(read,tcheck) s
 table=(opt,rrhf)
 ----------------------------------------------------------------------
 -----
 title
 -----
 Symbolic Z-matrix:
 Charge =  0 Multiplicity = 1

 SCF Done:  E(RHF) =  -373.291379899     A.U. after   16 cycles
 Normal termination of Gaussian 16 at Wed Apr  9 03:27:58 2025.
 Gaussian 16:  ES64L-G16RevC.01  3-Jul-2019

 ----------------------------------------------------------------------
 #t hf aug-cc-pvdz iop(5/13=1,5/36=2,99/5=2) pseudo=read geom=check gue
 ss=(read,tcheck) scf=(maxcycle=1)
 ----------------------------------------------------------------------
 -----
 title
 -----
 Structure from the checkpoint file:  "Grambow2020_wb97xd3_006708_reverse_mol2.chk"
 Charge =  0 Multiplicity = 1

                         Standard orientation:
 ---------------------------------------------------------------------
 Center     Atomic      Atomic             Coordinates (Angstroms)
 Number     Number       Type             X           Y           Z
 ---------------------------------------------------------------------
      1          8           0       -2.629722   -0.058513    0.150978
      2          6           0       -1.597314   -0.587850   -0.122827
      3          6           0       -0.263081    0.183080   -0.059044
      4          7           0        0.838351   -0.724068   -0.149183
      5          6           0        1.973307   -0.293536    0.581764
      6          7           0        2.180267    0.107004   -0.555163
      7          8           0       -0.199864    1.370459    0.020112
      8          1           0       -1.522592   -1.646216   -0.429806
      9          1           0        2.351477   -0.340062    1.592154
 ---------------------------------------------------------------------

 SCF Done:  E(RHF) =  -374.848617827     A.U. after    2 cycles

 The electronic state is 1-A.
 Alpha  occ. eigenvalues --  -21.10430 -21.09208 -15.84095 -15.80162 -11.53552
 Alpha  occ. eigenvalues --  -11.51921 -11.49259  -1.78071  -1.72491  -1.58519
 Alpha  occ. eigenvalues --   -1.19453  -0.97171  -0.90001  -0.78217  -0.72676
 Alpha  occ. eigenvalues --   -0.65151  -0.57975  -0.57236  -0.55137  -0.51710
 Alpha  occ. eigenvalues --   -0.46724  -0.40343  -0.39200  -0.35790  -0.29954
 Alpha virt. eigenvalues --    0.02646   0.04858   0.06663   0.08051   0.08448
 Alpha virt. eigenvalues --    0.10086   0.10752   0.11522   0.12214   0.12947
 Alpha virt. eigenvalues --    0.13244   0.14234   0.15223   0.15293   0.16986

 Mulliken charges:
               1
     1  O   -2.524912
     2  C    0.709825
     3  C    4.652313
     4  N   -2.186665
     5  C    0.990875
     6  N   -1.571303
     7  O   -3.082936
     8  H    1.591420
     9  H    1.421383
 Sum of Mulliken charges =   0.00000

 Dipole moment (field-independent basis, Debye):
    X=              1.5971    Y=             -0.7819    Z=              2.1253  Tot=              2.7711

 Test job not archived.
 1\1\GINC-SE333\SP\RHF\Aug-CC-pVDZ\C3H2N2O2\OHZDE\09-Apr-2025\0\\#t hf
 aug-cc-pvdz iop(5/13=1,5/36=2,99/5=2) pseudo=read geom=check guess=(re
 ad,tcheck) scf=(maxcycle=1)\\title\\0,1\O,0,-2.68893657,-0.10402393,-0
 .58843956\C,0,-1.7586594,0.21146795,0.08689834\C,0,-0.36918231,-0.4249
 4992,-0.12023654\N,0,0.62452566,0.3091806,0.59934093\C,0,1.88933043,0.
 30430703,-0.03941677\N,0,1.95583346,-0.61667178,0.76260725\O,0,-0.1936
 0547,-1.40950232,-0.7682796\H,0,-1.82174152,0.96915471,0.88807964\H,0,
 2.41023372,0.85432266,-0.80896669\\Version=ES64L-G16RevC.01\State=1-A\

 Normal termination of Gaussian 16 at Wed Apr  9 03:28:01 2025.
