 Gaussian 16, Revision C.01,

 ----------------------------------------------------------------------
 #t hf aug-cc-pvdz symm=none int=(grid=ultrafine) guess=(read,tcheck) s
 table=(opt,rrhf)
 ----------------------------------------------------------------------
 -----
 title
 -----
 Symbolic Z-matrix:
 Charge =  0 Multiplicity = 1

 SCF Done:  E(RHF) =  -272.021415516     A.U. after   12 cycles
 Normal termination of Gaussian 16 at Wed Apr  9 03:39:49 2025.
 Gaussian 16:  ES64L-G16RevC.01  3-Jul-2019

 ----------------------------------------------------------------------
 #t hf aug-cc-pvdz iop(5/13=1,5/36=2,99/5=2) pseudo=read geom=check gue
 ss=(read,tcheck) scf=(maxcycle=1)
 ----------------------------------------------------------------------
 -----
 title
 -----
 Structure from the checkpoint file:  "Grambow2020_wb97xd3_007413_reverse_mol2.chk"
 Charge =  0 Multiplicity = 1

                         Standard orientation:
 ---------------------------------------------------------------------
 Center     Atomic      Atomic             Coordinates (Angstroms)
 Number     Number       Type             X           Y           Z
 ---------------------------------------------------------------------
      1          6           0       -1.506311    1.329727   -0.389544
      2          6           0       -0.750265   -1.217971   -0.124166
      3          6           0        0.466978   -0.953397   -1.008744
      4          6           0        1.187757   -0.297552    0.204978
      5          6           0        1.850560    1.063010    0.087368
      6          6           0       -0.084049   -0.477603    1.034530
      7          6           0       -1.334624    0.054031    0.399061
      8          1           0       -1.446865    2.206122    0.259742
      9          1           0       -0.758443    1.445095   -1.172620
     10          1           0       -2.485490    1.338642   -0.873841
     11          1           0       -1.296926   -2.151255   -0.094216
     12          1           0        0.960926   -1.862393   -1.349120
     13          1           0        0.294221   -0.313507   -1.877534
     14          1           0        1.928836   -1.010584    0.574692
     15          1           0        1.171199    1.827022   -0.290062
     16          1           0        2.709122    1.018385   -0.587408
     17          1           0        2.212464    1.397105    1.062736
     18          1           0       -0.082601   -0.749634    2.083035
     19          1           0       -2.186710   -0.146472    1.043698
 ---------------------------------------------------------------------

 SCF Done:  E(RHF) =  -273.417656307     A.U. after    2 cycles

 The electronic state is 1-A.
 Alpha  occ. eigenvalues --  -11.49750 -11.42978 -11.39744 -11.38854 -11.37935
 Alpha  occ. eigenvalues --  -11.36656 -11.33883  -1.40700  -1.13482  -1.05469
 Alpha  occ. eigenvalues --   -0.98596  -0.89354  -0.77710  -0.74374  -0.71176
 Alpha  occ. eigenvalues --   -0.59726  -0.58136  -0.57624  -0.56111  -0.53740
 Alpha  occ. eigenvalues --   -0.52227  -0.48884  -0.45668  -0.41583  -0.40494
 Alpha  occ. eigenvalues --   -0.35282  -0.32982
 Alpha virt. eigenvalues --    0.04056   0.05071   0.05158   0.05368   0.05462
 Alpha virt. eigenvalues --    0.05991   0.06247   0.06474   0.06726   0.08431
 Alpha virt. eigenvalues --    0.08788   0.10020   0.12009   0.12437   0.13490

 Mulliken charges:
               1
     1  C   -5.161791
     2  C   -0.595865
     3  C   -3.777930
     4  C   -0.258123
     5  C   -4.354104
     6  C   -0.507862
     7  C   -0.651127
     8  H    1.199491
     9  H    1.748855
    10  H    1.016845
    11  H    1.323733
    12  H    1.253588
    13  H    1.343723
    14  H    1.227463
    15  H    1.315649
    16  H    1.181559
    17  H    1.205641
    18  H    1.277090
    19  H    1.213165
 Sum of Mulliken charges =  -0.00000

 Dipole moment (field-independent basis, Debye):
    X=             -0.0441    Y=             -0.2832    Z=              0.1548  Tot=              0.3258

 Test job not archived.
 1\1\GINC-SE083\SP\RHF\Aug-CC-pVDZ\C7H12\OHZDE\09-Apr-2025\0\\#t hf aug
 -cc-pvdz iop(5/13=1,5/36=2,99/5=2) pseudo=read geom=check guess=(read,
 tcheck) scf=(maxcycle=1)\\title\\0,1\C,0,-1.51545762,-0.99634159,-0.81
 730292\C,0,-0.78244188,1.32824905,0.27437677\C,0,-0.04726638,0.5797934
 9,1.38500236\C,0,1.13540955,0.32041328,0.40685382\C,0,1.72026738,-1.06
 886968,0.22768089\C,0,0.3296638,0.97900657,-0.71345649\C,0,-1.0585134,
 0.44027548,-0.89545992\H,0,-1.16498979,-1.56938469,-1.67867842\H,0,-1.
 16628063,-1.50140014,0.08203887\H,0,-2.6070095,-1.03949036,-0.80915867

 Normal termination of Gaussian 16 at Wed Apr  9 03:39:58 2025.
