 Gaussian 16, Revision C.01,

 ----------------------------------------------------------------------
 #t hf aug-cc-pvdz symm=none int=(grid=ultrafine) guess=(read,tcheck) s
 table=(opt,rrhf)
 ----------------------------------------------------------------------
 -----
 title
 -----
 Symbolic Z-matrix:
 Charge =  0 Multiplicity = 1

 SCF Done:  E(RHF) =  -268.809988170     A.U. after   13 cycles
 Normal termination of Gaussian 16 at Wed Apr  9 03:20:37 2025.
 Gaussian 16:  ES64L-G16RevC.01  3-Jul-2019

 ----------------------------------------------------------------------
 #t hf aug-cc-pvdz iop(5/13=1,5/36=2,99/5=2) pseudo=read geom=check gue
 ss=(read,tcheck) scf=(maxcycle=1)
 ----------------------------------------------------------------------
 -----
 title
 -----
 Structure from the checkpoint file:  "Grambow2020_wb97xd3_006048_reverse_mol2.chk"
 Charge =  0 Multiplicity = 1

                         Standard orientation:
 ---------------------------------------------------------------------
 Center     Atomic      Atomic             Coordinates (Angstroms)
 Number     Number       Type             X           Y           Z
 ---------------------------------------------------------------------
      1          6           0       -1.853103    1.059320    0.090326
      2          8           0       -1.944983   -0.312519   -0.223261
      3          6           0       -0.783518   -1.008783   -0.127252
      4          6           0        0.386366   -0.540735    0.221595
      5          6           0        1.574390   -0.120461    0.554235
      6          6           0        2.598573    0.411137   -0.406701
      7          1           0       -1.150031    1.566830   -0.578367
      8          1           0       -2.850025    1.476145   -0.036377
      9          1           0       -1.519761    1.203232    1.123047
     10          1           0        1.861621   -0.147269    1.604445
     11          1           0       -0.925843   -2.052895   -0.379888
     12          1           0        2.848737    1.448009   -0.167456
     13          1           0        3.524270   -0.165782   -0.340065
     14          1           0        2.234652    0.369005   -1.432474
 ---------------------------------------------------------------------

 SCF Done:  E(RHF) =  -270.081969374     A.U. after    2 cycles

 The electronic state is 1-A.
 Alpha  occ. eigenvalues --  -21.06967 -11.45295 -11.42495 -11.40214 -11.39226
 Alpha  occ. eigenvalues --  -11.37552  -1.78162  -1.20815  -1.06546  -0.98850
 Alpha  occ. eigenvalues --   -0.89613  -0.72132  -0.66160  -0.62498  -0.61439
 Alpha  occ. eigenvalues --   -0.56918  -0.55018  -0.53142  -0.51676  -0.43835
 Alpha  occ. eigenvalues --   -0.40845  -0.34327  -0.26567
 Alpha virt. eigenvalues --    0.03232   0.05182   0.05634   0.05651   0.06351
 Alpha virt. eigenvalues --    0.06493   0.06856   0.07907   0.10067   0.10882
 Alpha virt. eigenvalues --    0.11541   0.12207   0.13442   0.13895   0.14570

 Mulliken charges:
               1
     1  C   -3.077606
     2  O   -3.517764
     3  C    0.961353
     4  C    1.336119
     5  C   -1.863367
     6  C   -4.416123
     7  H    1.484052
     8  H    1.286633
     9  H    1.453673
    10  H    1.246965
    11  H    1.427779
    12  H    1.188263
    13  H    1.179623
    14  H    1.310399
 Sum of Mulliken charges =  -0.00000

 Dipole moment (field-independent basis, Debye):
    X=              0.0644    Y=              0.5935    Z=              0.0492  Tot=              0.5990

 Test job not archived.
 1\1\GINC-SE222\SP\RHF\Aug-CC-pVDZ\C5H8O1\OHZDE\09-Apr-2025\0\\#t hf au
 g-cc-pvdz iop(5/13=1,5/36=2,99/5=2) pseudo=read geom=check guess=(read
 ,tcheck) scf=(maxcycle=1)\\title\\0,1\C,0,-2.2574474,0.07605857,0.0733
 0756\O,0,-2.08100514,-0.37775736,-1.25018797\C,0,-0.80420351,-0.687367
 77,-1.59212502\C,0,0.25450206,-0.60842052,-0.82903806\C,0,1.34021419,-
 0.53836875,-0.11140003\C,0,2.22884806,0.66804182,-0.01216583\H,0,-1.67
 559417,0.98562542,0.25541147\H,0,-3.31827435,0.2858878,0.19275482\H,0,
 -1.94737145,-0.6877695,0.79355729\H,0,1.63888705,-1.41055382,0.4684709

 Normal termination of Gaussian 16 at Wed Apr  9 03:20:41 2025.
