 Gaussian 16, Revision C.01,

 ----------------------------------------------------------------------
 #t hf aug-cc-pvdz symm=none int=(grid=ultrafine) guess=(read,tcheck) s
 table=(opt,rrhf)
 ----------------------------------------------------------------------
 -----
 title
 -----
 Symbolic Z-matrix:
 Charge =  0 Multiplicity = 1

 SCF Done:  E(RHF) =  -343.647360721     A.U. after   14 cycles
 Normal termination of Gaussian 16 at Wed Apr  9 03:27:53 2025.
 Gaussian 16:  ES64L-G16RevC.01  3-Jul-2019

 ----------------------------------------------------------------------
 #t hf aug-cc-pvdz iop(5/13=1,5/36=2,99/5=2) pseudo=read geom=check gue
 ss=(read,tcheck) scf=(maxcycle=1)
 ----------------------------------------------------------------------
 -----
 title
 -----
 Structure from the checkpoint file:  "Grambow2020_wb97xd3_006686_reverse_mol2.chk"
 Charge =  0 Multiplicity = 1

                         Standard orientation:
 ---------------------------------------------------------------------
 Center     Atomic      Atomic             Coordinates (Angstroms)
 Number     Number       Type             X           Y           Z
 ---------------------------------------------------------------------
      1          6           0        2.182492   -0.382684   -0.790108
      2          6           0        1.070711   -0.251451   -0.072687
      3          8           0        0.920346   -0.704001    1.199742
      4          6           0       -0.159273    0.401059   -0.564401
      5          6           0       -1.090670    1.173733    0.431783
      6          6           0       -1.504226   -0.083792   -0.174596
      7          8           0       -2.329617   -0.928470   -0.300338
      8          1           0        1.926743    2.579590    0.192272
      9          1           0        3.056757   -0.886385   -0.395496
     10          1           0        2.234828    0.004739   -1.796470
     11          1           0        1.723368   -1.148363    1.480427
     12          1           0        1.736588    3.286092    0.337862
     13          1           0       -0.077735    0.829807   -1.556358
     14          1           0       -0.800076    1.146695    1.475752
     15          1           0       -1.520506    2.106405    0.086828
 ---------------------------------------------------------------------

 SCF Done:  E(RHF) =  -345.202304656     A.U. after    2 cycles

 The electronic state is 1-A.
 Alpha  occ. eigenvalues --  -21.11528 -21.07788 -11.51295 -11.49581 -11.44552
 Alpha  occ. eigenvalues --  -11.40861 -11.38446  -1.78001  -1.71759  -1.30437
 Alpha  occ. eigenvalues --   -1.12012  -0.93266  -0.82460  -0.76013  -0.68070
 Alpha  occ. eigenvalues --   -0.63152  -0.61962  -0.60964  -0.57746  -0.55758
 Alpha  occ. eigenvalues --   -0.51704  -0.50995  -0.45390  -0.43502  -0.41191
 Alpha  occ. eigenvalues --   -0.30483  -0.26163
 Alpha virt. eigenvalues --    0.03312   0.04805   0.05050   0.05320   0.06128
 Alpha virt. eigenvalues --    0.06443   0.07700   0.08554   0.10408   0.10841
 Alpha virt. eigenvalues --    0.11892   0.12392   0.13106   0.13668   0.14309

 Mulliken charges:
               1
     1  C   -5.075259
     2  C    5.255947
     3  O   -4.049093
     4  C   -2.779538
     5  C   -2.566887
     6  C    4.207077
     7  O   -3.082875
     8  H   -0.302391
     9  H    1.502704
    10  H    1.514008
    11  H    0.936522
    12  H    0.192396
    13  H    1.385538
    14  H    1.553775
    15  H    1.308077
 Sum of Mulliken charges =   0.00000

 Dipole moment (field-independent basis, Debye):
    X=              0.9060    Y=              0.8296    Z=              0.7625  Tot=              1.4458

 Test job not archived.
 1\1\GINC-SE132\SP\RHF\Aug-CC-pVDZ\C5H8O2\OHZDE\09-Apr-2025\0\\#t hf au
 g-cc-pvdz iop(5/13=1,5/36=2,99/5=2) pseudo=read geom=check guess=(read
 ,tcheck) scf=(maxcycle=1)\\title\\0,1\C,0,-1.99546732,-0.11432777,-0.4
 9995199\C,0,-0.71207914,0.22403737,-0.5799102\O,0,-0.2612193,1.4235617
 1,-1.03196663\C,0,0.40323836,-0.66283006,-0.1926823\C,0,1.72233082,-0.
 05465217,0.39640323\C,0,1.68971924,-0.65852028,-0.92812416\O,0,2.26586
 399,-0.96077204,-1.92173489\H,0,-0.90904272,0.51497061,2.36870803\H,0,
 -2.78159994,0.56200856,-0.81354017\H,0,-2.28450556,-1.08528393,-0.1267

 Normal termination of Gaussian 16 at Wed Apr  9 03:27:58 2025.
