 Gaussian 16, Revision C.01,

 ----------------------------------------------------------------------
 #t hf aug-cc-pvdz symm=none int=(grid=ultrafine) guess=(read,tcheck) s
 table=(opt,rrhf)
 ----------------------------------------------------------------------
 -----
 title
 -----
 Symbolic Z-matrix:
 Charge =  0 Multiplicity = 1

 SCF Done:  E(RHF) =  -307.648346011     A.U. after   15 cycles

 1\1\GINC-SE335\Stability\RHF\Aug-CC-pVDZ\C6H10O1\OHZDE\09-Apr-2025\0\\
 #t hf aug-cc-pvdz symm=none int=(grid=ultrafine) guess=(read,tcheck) s
 table=(opt,rrhf)\\title\\0,1\C,0,1.77766591,0.15279935,-0.78253278\C,0
 ,0.50225994,0.16837161,-0.00377906\C,0,0.05742493,-1.15213991,0.672816
 74\C,0,-1.15494703,-1.14957877,-0.31635821\C,0,-0.88694102,0.36860703,
 -0.57165289\C,0,-1.15068456,1.1777837,0.70578912\O,0,0.29211032,1.5785
 5487,0.60842672\H,0,2.64693168,0.10974496,-0.12174806\H,0,1.79079759,-
 0.7339463,-1.4192342\H,0,1.85154999,1.03056877,-1.42725946\H,0,0.78916

 Normal termination of Gaussian 16 at Wed Apr  9 03:33:34 2025.
 Gaussian 16:  ES64L-G16RevC.01  3-Jul-2019

 ----------------------------------------------------------------------
 #t hf aug-cc-pvdz iop(5/13=1,5/36=2,99/5=2) pseudo=read geom=check gue
 ss=(read,tcheck) scf=(maxcycle=1)
 ----------------------------------------------------------------------
 -----
 title
 -----
 Structure from the checkpoint file:  "Grambow2020_wb97xd3_007029_forward_mol1.chk"
 Charge =  0 Multiplicity = 1

                         Standard orientation:
 ---------------------------------------------------------------------
 Center     Atomic      Atomic             Coordinates (Angstroms)
 Number     Number       Type             X           Y           Z
 ---------------------------------------------------------------------
      1          6           0        1.962795   -0.318987   -0.235955
      2          6           0        0.534089   -0.042392    0.104126
      3          6           0       -0.250854   -1.143699    0.859372
      4          6           0       -1.127457   -1.281616   -0.429374
      5          6           0       -0.602536    0.118553   -0.883109
      6          6           0       -1.104363    1.210237    0.072182
      7          8           0        0.347716    1.480253    0.337350
      8          1           0        2.599456   -0.271063    0.650882
      9          1           0        2.037099   -1.325009   -0.653419
     10          1           0        2.328038    0.384235   -0.986746
     11          1           0        0.368537   -1.996660    1.141216
     12          1           0       -0.796791   -0.826799    1.744159
     13          1           0       -2.202634   -1.389734   -0.280034
     14          1           0       -0.787146   -2.094907   -1.071310
     15          1           0        0.347749    1.395484   -0.858689
     16          1           0       -1.563251    0.928770    1.022372
     17          1           0       -1.582830    2.101089   -0.330694
 ---------------------------------------------------------------------

 SCF Done:  E(RHF) =  -309.181749572     A.U. after    2 cycles

 The electronic state is 1-A.
 Alpha  occ. eigenvalues --  -21.10981 -11.49349 -11.46821 -11.42840 -11.39225
 Alpha  occ. eigenvalues --  -11.37691 -11.33302  -1.83670  -1.30150  -1.10358
 Alpha  occ. eigenvalues --   -1.00137  -0.92057  -0.90477  -0.74966  -0.68999
 Alpha  occ. eigenvalues --   -0.65040  -0.59517  -0.57851  -0.56420  -0.54531
 Alpha  occ. eigenvalues --   -0.50829  -0.49996  -0.45152  -0.41730  -0.39432
 Alpha  occ. eigenvalues --   -0.32640  -0.26009
 Alpha virt. eigenvalues --    0.04158   0.04788   0.05106   0.05233   0.05835
 Alpha virt. eigenvalues --    0.06145   0.06475   0.06933   0.08623   0.09401
 Alpha virt. eigenvalues --    0.10624   0.11640   0.13130   0.13713   0.13808

 Mulliken charges:
               1
     1  C   -4.670702
     2  C    4.199894
     3  C   -2.932644
     4  C   -2.989501
     5  C   -1.198026
     6  C   -1.736407
     7  O   -3.008924
     8  H    1.251323
     9  H    1.118840
    10  H    1.189413
    11  H    1.433874
    12  H    1.091099
    13  H    1.238776
    14  H    1.299741
    15  H    0.952224
    16  H    1.564726
    17  H    1.196296
 Sum of Mulliken charges =  -0.00000

 Dipole moment (field-independent basis, Debye):
    X=              0.7549    Y=              0.4542    Z=              2.7051  Tot=              2.8450

 Test job not archived.
 1\1\GINC-SE335\SP\RHF\Aug-CC-pVDZ\C6H10O1\OHZDE\09-Apr-2025\0\\#t hf a
 ug-cc-pvdz iop(5/13=1,5/36=2,99/5=2) pseudo=read geom=check guess=(rea
 d,tcheck) scf=(maxcycle=1)\\title\\0,1\C,0,1.77766591,0.15279935,-0.78
 253278\C,0,0.50225994,0.16837161,-0.00377906\C,0,0.05742493,-1.1521399
 1,0.67281674\C,0,-1.15494703,-1.14957877,-0.31635821\C,0,-0.88694102,0
 .36860703,-0.57165289\C,0,-1.15068456,1.1777837,0.70578912\O,0,0.29211
 032,1.57855487,0.60842672\H,0,2.64693168,0.10974496,-0.12174806\H,0,1.
 79079759,-0.7339463,-1.4192342\H,0,1.85154999,1.03056877,-1.42725946\H

 Normal termination of Gaussian 16 at Wed Apr  9 03:33:40 2025.
