 Gaussian 16, Revision C.01,

 ----------------------------------------------------------------------
 #t hf aug-cc-pvdz symm=none int=(grid=ultrafine) guess=(read,tcheck) s
 table=(opt,rrhf)
 ----------------------------------------------------------------------
 -----
 title
 -----
 Symbolic Z-matrix:
 Charge =  0 Multiplicity = 1

 SCF Done:  E(RHF) =  -323.714377677     A.U. after   16 cycles
 Normal termination of Gaussian 16 at Wed Apr  9 19:25:18 2025.
 Gaussian 16:  ES64L-G16RevC.01  3-Jul-2019

 ----------------------------------------------------------------------
 #t hf aug-cc-pvdz iop(5/13=1,5/36=2,99/5=2) pseudo=read geom=check gue
 ss=(read,tcheck) scf=(maxcycle=1)
 ----------------------------------------------------------------------
 -----
 title
 -----
 Structure from the checkpoint file:  "Grambow2020_wb97xd3_008932_reverse_mol1.chk"
 Charge =  0 Multiplicity = 1

                         Standard orientation:
 ---------------------------------------------------------------------
 Center     Atomic      Atomic             Coordinates (Angstroms)
 Number     Number       Type             X           Y           Z
 ---------------------------------------------------------------------
      1          6           0       -2.408561   -0.034648   -0.206352
      2          6           0       -1.036061   -0.161258    0.413402
      3          6           0       -0.148838   -1.380347    0.068212
      4          7           0        0.961033   -0.434503   -0.147719
      5          6           0        2.245255   -0.542730   -0.063480
      6          6           0        0.111825    0.667506   -0.163559
      7          8           0        0.588823    1.919613    0.171011
      8          1           0       -2.358566   -0.178671   -1.288027
      9          1           0       -2.815366    0.960479   -0.019053
     10          1           0       -3.106761   -0.765448    0.208119
     11          1           0       -1.080797   -0.042627    1.502576
     12          1           0        0.063709   -2.077800    0.876343
     13          1           0       -0.412703   -1.915383   -0.843581
     14          1           0        0.172347    1.565443   -0.967494
     15          1           0        2.822132    0.370550   -0.060474
     16          1           0        2.696471   -1.523064   -0.031807
 ---------------------------------------------------------------------

 SCF Done:  E(RHF) =  -325.256731635     A.U. after    2 cycles

 The electronic state is 1-A.
 Alpha  occ. eigenvalues --  -20.98106 -15.83377 -11.49210 -11.45771 -11.44444
 Alpha  occ. eigenvalues --  -11.39377 -11.36570  -1.66394  -1.51132  -1.21013
 Alpha  occ. eigenvalues --   -1.06268  -0.96902  -0.87803  -0.75703  -0.69996
 Alpha  occ. eigenvalues --   -0.68437  -0.65412  -0.59452  -0.58361  -0.56171
 Alpha  occ. eigenvalues --   -0.51214  -0.48960  -0.46790  -0.45323  -0.37072
 Alpha  occ. eigenvalues --   -0.26692  -0.17850
 Alpha virt. eigenvalues --    0.03141   0.04568   0.04907   0.05243   0.05966
 Alpha virt. eigenvalues --    0.06441   0.06668   0.07233   0.07562   0.09593
 Alpha virt. eigenvalues --    0.11203   0.11884   0.12521   0.13345   0.13960

 Mulliken charges:
               1
     1  C   -4.017602
     2  C   -2.325224
     3  C   -1.889877
     4  N   -2.638132
     5  C   -1.974541
     6  C    3.325475
     7  O   -2.815019
     8  H    1.231796
     9  H    1.223869
    10  H    1.252760
    11  H    1.178041
    12  H    1.560309
    13  H    1.581356
    14  H    1.265302
    15  H    1.502686
    16  H    1.538802
 Sum of Mulliken charges =   0.00000

 Dipole moment (field-independent basis, Debye):
    X=              0.4844    Y=             -3.0477    Z=             -0.0081  Tot=              3.0859

 Test job not archived.
 1\1\GINC-SE083\SP\RHF\Aug-CC-pVDZ\C5H9N1O1\OHZDE\09-Apr-2025\0\\#t hf
 aug-cc-pvdz iop(5/13=1,5/36=2,99/5=2) pseudo=read geom=check guess=(re
 ad,tcheck) scf=(maxcycle=1)\\title\\0,1\C,0,2.17106386,-0.22504542,0.2
 8587066\C,0,0.84703133,0.35874631,-0.15002799\C,0,-0.09862426,-0.47282
 485,-1.04820625\N,0,-1.19420307,-0.10064162,-0.13483413\C,0,-2.4707652
 6,0.02218807,-0.28759277\C,0,-0.31745927,0.36380472,0.84058309\O,0,-0.
 73131809,1.31273259,1.75463759\H,0,2.03421183,-1.22756618,0.69755544\H
 ,0,2.61939079,0.39771345,1.06177244\H,0,2.8777328,-0.28566503,-0.54496

 Normal termination of Gaussian 16 at Wed Apr  9 19:25:23 2025.
