 Gaussian 16, Revision C.01,

 ----------------------------------------------------------------------
 #t hf aug-cc-pvdz symm=none int=(grid=ultrafine) guess=(read,tcheck) s
 table=(opt,rrhf)
 ----------------------------------------------------------------------
 -----
 title
 -----
 Symbolic Z-matrix:
 Charge =  0 Multiplicity = 1

 SCF Done:  E(RHF) =  -306.490002614     A.U. after   16 cycles
 Normal termination of Gaussian 16 at Wed Apr  9 19:28:11 2025.
 Gaussian 16:  ES64L-G16RevC.01  3-Jul-2019

 ----------------------------------------------------------------------
 #t hf aug-cc-pvdz iop(5/13=1,5/36=2,99/5=2) pseudo=read geom=check gue
 ss=(read,tcheck) scf=(maxcycle=1)
 ----------------------------------------------------------------------
 -----
 title
 -----
 Structure from the checkpoint file:  "Grambow2020_wb97xd3_009022_reverse_mol1.chk"
 Charge =  0 Multiplicity = 1

                         Standard orientation:
 ---------------------------------------------------------------------
 Center     Atomic      Atomic             Coordinates (Angstroms)
 Number     Number       Type             X           Y           Z
 ---------------------------------------------------------------------
      1          6           0        2.010017   -0.123490    0.133309
      2          6           0        0.499841    0.126269   -0.947209
      3          8           0       -0.050752    1.290720   -0.349866
      4          6           0       -0.711251    0.618765    0.706837
      5          6           0       -1.742090   -0.255260   -0.022579
      6          6           0       -0.496616   -0.981342   -0.524878
      7          6           0        0.235449   -0.620822    0.700334
      8          1           0        2.219142    0.091371    1.186850
      9          1           0        2.429372   -1.089995   -0.138652
     10          1           0        2.521914    0.652565   -0.426164
     11          1           0       -0.946037    1.260536    1.552293
     12          1           0       -2.328682   -0.871950    0.658668
     13          1           0       -2.382056    0.257965   -0.742511
     14          1           0       -0.453807   -1.925723   -1.051305
     15          1           0        0.574062   -1.285249    1.484859
 ---------------------------------------------------------------------

 SCF Done:  E(RHF) =  -307.963056237     A.U. after    2 cycles

 The electronic state is 1-A.
 Alpha  occ. eigenvalues --  -21.04519 -11.52542 -11.46527 -11.45694 -11.42498
 Alpha  occ. eigenvalues --  -11.40143 -11.37149  -1.81911  -1.33013  -1.10106
 Alpha  occ. eigenvalues --   -0.99051  -0.94381  -0.79743  -0.77664  -0.70384
 Alpha  occ. eigenvalues --   -0.65252  -0.60009  -0.58158  -0.55220  -0.50952
 Alpha  occ. eigenvalues --   -0.47575  -0.43701  -0.42307  -0.38017  -0.29278
 Alpha  occ. eigenvalues --   -0.26638
 Alpha virt. eigenvalues --    0.03772   0.04348   0.04862   0.05077   0.05728
 Alpha virt. eigenvalues --    0.05885   0.06490   0.08019   0.09929   0.11276
 Alpha virt. eigenvalues --    0.11744   0.12382   0.12546   0.13378   0.13827

 Mulliken charges:
               1
     1  C   -3.494173
     2  C    1.385260
     3  O   -3.148397
     4  C    0.486864
     5  C   -3.136950
     6  C   -1.607541
     7  C   -0.812621
     8  H    1.023379
     9  H    1.234262
    10  H    1.094936
    11  H    1.620930
    12  H    1.287051
    13  H    1.367206
    14  H    1.479199
    15  H    1.220595
 Sum of Mulliken charges =   0.00000

 Dipole moment (field-independent basis, Debye):
    X=             -0.8544    Y=             -1.0199    Z=              2.5436  Tot=              2.8706

 Test job not archived.
 1\1\GINC-SE362\SP\RHF\Aug-CC-pVDZ\C6H8O1\OHZDE\09-Apr-2025\0\\#t hf au
 g-cc-pvdz iop(5/13=1,5/36=2,99/5=2) pseudo=read geom=check guess=(read
 ,tcheck) scf=(maxcycle=1)\\title\\0,1\C,0,1.87060711,0.41841704,0.1203
 4634\C,0,0.58455034,-0.39073932,-0.97594443\O,0,-0.17289402,0.7465096,
 -1.36177187\C,0,-0.96503451,0.80333564,-0.18972749\C,0,-1.7521191,-0.5
 1468815,-0.23339914\C,0,-0.3732879,-1.13085619,-0.01009421\C,0,0.07052
 757,0.06969715,0.71704884\H,0,1.85006197,1.29816015,0.77263198\H,0,2.4
 1879973,-0.38837187,0.60255943\H,0,2.41126552,0.73032527,-0.76718561\H

 Normal termination of Gaussian 16 at Wed Apr  9 19:28:15 2025.
