 Gaussian 16, Revision C.01,

 ----------------------------------------------------------------------
 #t hf aug-cc-pvdz symm=none int=(grid=ultrafine) guess=(read,tcheck) s
 table=(opt,rrhf)
 ----------------------------------------------------------------------
 -----
 title
 -----
 Symbolic Z-matrix:
 Charge =  0 Multiplicity = 1

 SCF Done:  E(RHF) =  -283.636320505     A.U. after   15 cycles
 Normal termination of Gaussian 16 at Wed Apr  9 16:06:45 2025.
 Gaussian 16:  ES64L-G16RevC.01  3-Jul-2019

 ----------------------------------------------------------------------
 #t hf aug-cc-pvdz iop(5/13=1,5/36=2,99/5=2) pseudo=read geom=check gue
 ss=(read,tcheck) scf=(maxcycle=1)
 ----------------------------------------------------------------------
 -----
 title
 -----
 Structure from the checkpoint file:  "Grambow2020_b97d3_006722_reverse_mol2.chk"
 Charge =  0 Multiplicity = 1

                         Standard orientation:
 ---------------------------------------------------------------------
 Center     Atomic      Atomic             Coordinates (Angstroms)
 Number     Number       Type             X           Y           Z
 ---------------------------------------------------------------------
      1          6           0        0.472276    1.142455   -0.034434
      2          6           0        1.547778    0.094419    0.169244
      3          8           0        1.425589   -1.092533   -0.077974
      4          6           0       -1.244477   -0.795407   -0.293963
      5          7           0       -1.669781   -0.160558    0.715812
      6          6           0       -0.901663    0.610632   -0.391601
      7          1           0        0.429113    1.770204    0.874029
      8          1           0        0.846075    1.815502   -0.827573
      9          1           0        2.512698    0.497731    0.565485
     10          1           0       -1.230003   -1.807962   -0.690931
     11          1           0       -1.517602    1.276096   -1.003383
 ---------------------------------------------------------------------

 SCF Done:  E(RHF) =  -284.904167472     A.U. after    2 cycles

 The electronic state is 1-A.
 Alpha  occ. eigenvalues --  -21.07232 -15.75916 -11.50334 -11.48728 -11.43850
 Alpha  occ. eigenvalues --  -11.40798  -1.71507  -1.45260  -1.14801  -0.90982
 Alpha  occ. eigenvalues --   -0.82695  -0.79311  -0.69058  -0.62747  -0.60611
 Alpha  occ. eigenvalues --   -0.56906  -0.51568  -0.47690  -0.43188  -0.39609
 Alpha  occ. eigenvalues --   -0.35905  -0.29879
 Alpha virt. eigenvalues --    0.03440   0.05231   0.05480   0.05757   0.06201
 Alpha virt. eigenvalues --    0.09462   0.10109   0.11171   0.11377   0.12775
 Alpha virt. eigenvalues --    0.13749   0.14121   0.14279   0.15564   0.15715

 Mulliken charges:
               1
     1  C   -3.699532
     2  C    1.504360
     3  O   -2.712368
     4  C    0.253497
     5  N   -1.653026
     6  C   -0.281799
     7  H    1.375280
     8  H    1.424074
     9  H    1.445347
    10  H    1.046263
    11  H    1.297907
 Sum of Mulliken charges =  -0.00000

 Dipole moment (field-independent basis, Debye):
    X=              0.7306    Y=              0.3620    Z=             -1.3825  Tot=              1.6051

 Test job not archived.
 1\1\GINC-SE226\SP\RHF\Aug-CC-pVDZ\C4H5N1O1\OHZDE\09-Apr-2025\0\\#t hf
 aug-cc-pvdz iop(5/13=1,5/36=2,99/5=2) pseudo=read geom=check guess=(re
 ad,tcheck) scf=(maxcycle=1)\\title\\0,1\C,0,-0.92873913,-0.09809884,-0
 .05422329\C,0,-0.37608596,-0.28765138,-1.45251263\O,0,0.79800356,-0.46
 926799,-1.72349491\C,0,1.51150101,0.28259193,0.7644392\N,0,0.93488111,
 1.37470791,1.04435786\C,0,0.10511087,0.06223621,1.04284546\H,0,-1.6214
 0071,0.76276821,-0.07331018\H,0,-1.57120991,-0.97560126,0.14328294\H,0
 ,-1.15029891,-0.2646121,-2.25923519\H,0,2.49693653,-0.08856048,0.49199

 Normal termination of Gaussian 16 at Wed Apr  9 16:06:48 2025.
