 Gaussian 16, Revision C.01,

 ----------------------------------------------------------------------
 #t hf aug-cc-pvdz symm=none int=(grid=ultrafine) guess=(read,tcheck) s
 table=(opt,rrhf)
 ----------------------------------------------------------------------
 -----
 title
 -----
 Symbolic Z-matrix:
 Charge =  0 Multiplicity = 1

 SCF Done:  E(RHF) =  -358.390919864     A.U. after   16 cycles
 Normal termination of Gaussian 16 at Wed Apr  9 18:12:26 2025.
 Gaussian 16:  ES64L-G16RevC.01  3-Jul-2019

 ----------------------------------------------------------------------
 #t hf aug-cc-pvdz iop(5/13=1,5/36=2,99/5=2) pseudo=read geom=check gue
 ss=(read,tcheck) scf=(maxcycle=1)
 ----------------------------------------------------------------------
 -----
 title
 -----
 Structure from the checkpoint file:  "Grambow2020_wb97xd3_006758_reverse_mol1.chk"
 Charge =  0 Multiplicity = 1

                         Standard orientation:
 ---------------------------------------------------------------------
 Center     Atomic      Atomic             Coordinates (Angstroms)
 Number     Number       Type             X           Y           Z
 ---------------------------------------------------------------------
      1          8           0        1.396864   -1.294962    0.236053
      2          6           0        1.197186   -0.327161   -0.543347
      3          6           0        0.153650    0.631432   -0.118263
      4          8           0        0.990619    1.507089    0.224675
      5          7           0       -1.206692    0.747691   -0.320452
      6          6           0       -0.917924   -0.302553    0.836241
      7          6           0       -1.694472   -0.617583   -0.377666
      8          1           0        1.877500   -0.130598   -1.362643
      9          1           0       -1.387739    0.014700    1.757845
     10          1           0        0.460954   -1.162520    0.807959
     11          1           0       -1.259943   -1.296097   -1.111091
     12          1           0       -2.774430   -0.661147   -0.316517
 ---------------------------------------------------------------------

 SCF Done:  E(RHF) =  -359.986439604     A.U. after    2 cycles

 The electronic state is 1-A.
 Alpha  occ. eigenvalues --  -21.15116 -21.02399 -15.77192 -11.56757 -11.51466
 Alpha  occ. eigenvalues --  -11.47587 -11.41659  -1.85131  -1.71041  -1.51865
 Alpha  occ. eigenvalues --   -1.03214  -0.99437  -0.92777  -0.84715  -0.69040
 Alpha  occ. eigenvalues --   -0.67357  -0.64954  -0.59047  -0.55892  -0.54963
 Alpha  occ. eigenvalues --   -0.48395  -0.47212  -0.40364  -0.36304  -0.29216
 Alpha  occ. eigenvalues --   -0.27452
 Alpha virt. eigenvalues --    0.03262   0.04649   0.05304   0.06011   0.06806
 Alpha virt. eigenvalues --    0.08263   0.08937   0.09810   0.11396   0.12032
 Alpha virt. eigenvalues --    0.13023   0.13932   0.14442   0.14703   0.15059

 Mulliken charges:
               1
     1  O   -3.294029
     2  C    0.839591
     3  C    5.305603
     4  O   -3.139513
     5  N   -2.275842
     6  C   -2.048321
     7  C   -2.513283
     8  H    1.592682
     9  H    1.128121
    10  H    1.519095
    11  H    1.478950
    12  H    1.406946
 Sum of Mulliken charges =  -0.00000

 Dipole moment (field-independent basis, Debye):
    X=              0.1187    Y=             -2.6996    Z=             -1.0771  Tot=              2.9089

 Test job not archived.
 1\1\GINC-SE173\SP\RHF\Aug-CC-pVDZ\C4H5N1O2\OHZDE\09-Apr-2025\0\\#t hf
 aug-cc-pvdz iop(5/13=1,5/36=2,99/5=2) pseudo=read geom=check guess=(re
 ad,tcheck) scf=(maxcycle=1)\\title\\0,1\O,0,1.21673171,0.46296463,-1.5
 1077933\C,0,1.52847468,0.18799882,-0.32284617\C,0,0.56761314,-0.666176
 97,0.40906449\O,0,1.29837458,-1.68813101,0.3284545\N,0,-0.53388176,-0.
 43448003,1.20778308\C,0,-0.94301012,-0.33096338,-0.3239607\C,0,-1.1550
 2632,0.75363571,0.65304271\H,0,2.51815872,0.41534674,0.05338273\H,0,-1
 .7100555,-1.05731472,-0.55802166\H,0,0.15881096,0.15989852,-1.41331423

 Normal termination of Gaussian 16 at Wed Apr  9 18:12:30 2025.
