 Gaussian 16, Revision C.01,

 ----------------------------------------------------------------------
 #t hf aug-cc-pvdz symm=none int=(grid=ultrafine) guess=(read,tcheck) s
 table=(opt,rrhf)
 ----------------------------------------------------------------------
 -----
 title
 -----
 Symbolic Z-matrix:
 Charge =  0 Multiplicity = 1

 SCF Done:  E(RHF) =  -289.070371445     A.U. after   14 cycles

 1\1\GINC-SE113\Stability\RHF\Aug-CC-pVDZ\C6H13N1\OHZDE\09-Apr-2025\0\\
 #t hf aug-cc-pvdz symm=none int=(grid=ultrafine) guess=(read,tcheck) s
 table=(opt,rrhf)\\title\\0,1\C,0,-0.60318072,3.00908526,0.74639294\C,0
 ,-0.57379859,1.50711112,0.86935823\N,0,-0.55821097,-1.54048992,-0.9207
 0299\C,0,-0.49007236,-2.91454475,-0.46933171\C,0,0.28195271,-0.7069538
 7,-0.47068555\C,0,1.40318448,-1.0154044,0.48359692\C,0,0.13607175,0.70
 652108,-0.95388672\H,0,-1.32705762,3.46990674,0.06494781\H,0,-0.875683
 08,3.32430884,1.76181012\H,0,0.38688103,3.42862316,0.55534812\H,0,-1.5

 Normal termination of Gaussian 16 at Wed Apr  9 19:31:38 2025.
 Gaussian 16:  ES64L-G16RevC.01  3-Jul-2019

 ----------------------------------------------------------------------
 #t hf aug-cc-pvdz iop(5/13=1,5/36=2,99/5=2) pseudo=read geom=check gue
 ss=(read,tcheck) scf=(maxcycle=1)
 ----------------------------------------------------------------------
 -----
 title
 -----
 Structure from the checkpoint file:  "Grambow2020_wb97xd3_009129_forward_mol1.chk"
 Charge =  0 Multiplicity = 1

                         Standard orientation:
 ---------------------------------------------------------------------
 Center     Atomic      Atomic             Coordinates (Angstroms)
 Number     Number       Type             X           Y           Z
 ---------------------------------------------------------------------
      1          6           0        3.253423   -0.147386   -0.265815
      2          6           0        1.811418   -0.050070   -0.693670
      3          7           0       -1.523461   -0.824373    0.184668
      4          6           0       -2.777869   -0.543700   -0.481731
      5          6           0       -0.698083    0.120239    0.356813
      6          6           0       -0.910023    1.556751   -0.036216
      7          6           0        0.595554   -0.244515    1.024745
      8          1           0        3.632115   -1.107299    0.102804
      9          1           0        3.791761    0.071451   -1.196943
     10          1           0        3.531419    0.641520    0.436380
     11          1           0        1.504852   -0.953049   -1.251468
     12          1           0       -3.296401    0.326750   -0.064962
     13          1           0       -2.618800   -0.355439   -1.549060
     14          1           0       -3.433742   -1.408437   -0.389495
     15          1           0        0.018722    2.117040    0.030954
     16          1           0       -1.271364    1.629139   -1.062685
     17          1           0       -1.663275    2.015288    0.612046
     18          1           0        1.290750   -0.892822    0.361866
     19          1           0        0.418947   -1.044344    1.755851
     20          1           0        1.112716    0.582902    1.497279
 ---------------------------------------------------------------------

 SCF Done:  E(RHF) =  -290.544313855     A.U. after    2 cycles

 The electronic state is 1-A.
 Alpha  occ. eigenvalues --  -15.71112 -11.46673 -11.41658 -11.40406 -11.37565
 Alpha  occ. eigenvalues --  -11.36896 -11.36349  -1.40160  -1.18943  -1.10236
 Alpha  occ. eigenvalues --   -1.03334  -0.96881  -0.83176  -0.73119  -0.63824
 Alpha  occ. eigenvalues --   -0.62872  -0.62067  -0.58545  -0.57634  -0.55239
 Alpha  occ. eigenvalues --   -0.53969  -0.52936  -0.51021  -0.49050  -0.47202
 Alpha  occ. eigenvalues --   -0.36583  -0.34252  -0.31090
 Alpha virt. eigenvalues --    0.03812   0.04917   0.05470   0.05678   0.05871
 Alpha virt. eigenvalues --    0.06151   0.06379   0.06484   0.06749   0.07941
 Alpha virt. eigenvalues --    0.08670   0.09103   0.10121   0.10875   0.11090

 Mulliken charges:
               1
     1  C   -3.863238
     2  C   -2.018662
     3  N   -3.499215
     4  C   -3.732681
     5  C    4.072248
     6  C   -4.633885
     7  C   -4.182260
     8  H    1.160223
     9  H    1.229211
    10  H    1.334991
    11  H    1.221868
    12  H    1.403943
    13  H    1.347869
    14  H    1.353305
    15  H    1.542601
    16  H    1.276056
    17  H    1.192008
    18  H    2.112716
    19  H    1.066728
    20  H    1.616174
 Sum of Mulliken charges =   0.00000

 Dipole moment (field-independent basis, Debye):
    X=              0.3633    Y=              0.3399    Z=              0.7679  Tot=              0.9149

 Test job not archived.
 1\1\GINC-SE113\SP\RHF\Aug-CC-pVDZ\C6H13N1\OHZDE\09-Apr-2025\0\\#t hf a
 ug-cc-pvdz iop(5/13=1,5/36=2,99/5=2) pseudo=read geom=check guess=(rea
 d,tcheck) scf=(maxcycle=1)\\title\\0,1\C,0,-0.60318072,3.00908526,0.74
 639294\C,0,-0.57379859,1.50711112,0.86935823\N,0,-0.55821097,-1.540489
 92,-0.92070299\C,0,-0.49007236,-2.91454475,-0.46933171\C,0,0.28195271,
 -0.70695387,-0.47068555\C,0,1.40318448,-1.0154044,0.48359692\C,0,0.136
 07175,0.70652108,-0.95388672\H,0,-1.32705762,3.46990674,0.06494781\H,0
 ,-0.87568308,3.32430884,1.76181012\H,0,0.38688103,3.42862316,0.5553481

 Normal termination of Gaussian 16 at Wed Apr  9 19:31:45 2025.
