 Gaussian 16, Revision C.01,

 ----------------------------------------------------------------------
 #t hf aug-cc-pvdz symm=none int=(grid=ultrafine) guess=(read,tcheck) s
 table=(opt,rrhf)
 ----------------------------------------------------------------------
 -----
 title
 -----
 Symbolic Z-matrix:
 Charge =  0 Multiplicity = 1

 SCF Done:  E(RHF) =  -309.057313148     A.U. after   12 cycles

 1\1\GINC-SE168\Stability\RHF\Aug-CC-pVDZ\C6H12O1\OHZDE\09-Apr-2025\0\\
 #t hf aug-cc-pvdz symm=none int=(grid=ultrafine) guess=(read,tcheck) s
 table=(opt,rrhf)\\title\\0,1\C,0,-1.86558554,-1.03476955,-0.5094614\C,
 0,-0.78327356,-0.02854809,-0.128207\C,0,-1.34830389,1.13550163,0.68106
 843\C,0,0.30264758,-0.71783953,0.65892484\O,0,1.21579608,-1.54599091,-
 0.04732201\C,0,1.72596267,-0.38456931,0.59856315\C,0,2.31776625,0.6879
 7595,-0.26859263\H,0,-2.64216173,-0.56439323,-1.11592515\H,0,-1.441913
 44,-1.86394489,-1.07818255\H,0,-2.34369673,-1.44756321,0.38362033\H,0,

 Normal termination of Gaussian 16 at Wed Apr  9 18:50:00 2025.
 Gaussian 16:  ES64L-G16RevC.01  3-Jul-2019

 ----------------------------------------------------------------------
 #t hf aug-cc-pvdz iop(5/13=1,5/36=2,99/5=2) pseudo=read geom=check gue
 ss=(read,tcheck) scf=(maxcycle=1)
 ----------------------------------------------------------------------
 -----
 title
 -----
 Structure from the checkpoint file:  "Grambow2020_wb97xd3_007691_forward_mol2.chk"
 Charge =  0 Multiplicity = 1

                         Standard orientation:
 ---------------------------------------------------------------------
 Center     Atomic      Atomic             Coordinates (Angstroms)
 Number     Number       Type             X           Y           Z
 ---------------------------------------------------------------------
      1          6           0       -2.073687   -0.877113   -0.439992
      2          6           0       -0.970373    0.162782   -0.265200
      3          6           0       -1.500966    1.458721    0.341605
      4          6           0        0.127267   -0.396181    0.604669
      5          8           0        1.012374   -1.348989    0.032654
      6          6           0        1.552341   -0.101146    0.454153
      7          6           0        2.134162    0.794605   -0.600199
      8          1           0       -2.860019   -0.507171   -1.101011
      9          1           0       -1.674355   -1.799224   -0.865101
     10          1           0       -2.533543   -1.120556    0.522220
     11          1           0       -0.549904    0.379569   -1.250409
     12          1           0       -1.898721    1.284240    1.345413
     13          1           0       -2.308454    1.872608   -0.265324
     14          1           0       -0.715290    2.213211    0.419379
     15          1           0       -0.211965   -0.669395    1.606541
     16          1           0        2.160909   -0.183768    1.354325
     17          1           0        1.501405    0.843997   -1.484856
     18          1           0        3.113960    0.423302   -0.906170
     19          1           0        2.264511    1.805079   -0.206443
 ---------------------------------------------------------------------

 SCF Done:  E(RHF) =  -310.564189352     A.U. after    2 cycles

 The electronic state is 1-A.
 Alpha  occ. eigenvalues --  -21.04745 -11.53226 -11.42647 -11.41321 -11.39102
 Alpha  occ. eigenvalues --  -11.38374 -11.35830  -1.78005  -1.23988  -1.11031
 Alpha  occ. eigenvalues --   -1.00331  -0.95492  -0.86776  -0.79181  -0.69217
 Alpha  occ. eigenvalues --   -0.63105  -0.60334  -0.57127  -0.56671  -0.54120
 Alpha  occ. eigenvalues --   -0.53479  -0.52507  -0.47600  -0.46104  -0.44457
 Alpha  occ. eigenvalues --   -0.40746  -0.34595  -0.29678
 Alpha virt. eigenvalues --    0.04060   0.04904   0.05085   0.05394   0.05777
 Alpha virt. eigenvalues --    0.05922   0.06063   0.06888   0.07626   0.08254
 Alpha virt. eigenvalues --    0.08818   0.09370   0.12052   0.12834   0.13792

 Mulliken charges:
               1
     1  C   -4.139722
     2  C   -2.542020
     3  C   -3.921356
     4  C    1.728854
     5  O   -2.929967
     6  C   -0.142266
     7  C   -4.315322
     8  H    1.184393
     9  H    1.266310
    10  H    1.349007
    11  H    1.809976
    12  H    1.256921
    13  H    1.230169
    14  H    1.317065
    15  H    1.616332
    16  H    1.526956
    17  H    1.269383
    18  H    1.115125
    19  H    1.320163
 Sum of Mulliken charges =  -0.00000

 Dipole moment (field-independent basis, Debye):
    X=             -0.0957    Y=              0.4993    Z=             -0.0945  Tot=              0.5171

 Test job not archived.
 1\1\GINC-SE168\SP\RHF\Aug-CC-pVDZ\C6H12O1\OHZDE\09-Apr-2025\0\\#t hf a
 ug-cc-pvdz iop(5/13=1,5/36=2,99/5=2) pseudo=read geom=check guess=(rea
 d,tcheck) scf=(maxcycle=1)\\title\\0,1\C,0,-1.86558554,-1.03476955,-0.
 5094614\C,0,-0.78327356,-0.02854809,-0.128207\C,0,-1.34830389,1.135501
 63,0.68106843\C,0,0.30264758,-0.71783953,0.65892484\O,0,1.21579608,-1.
 54599091,-0.04732201\C,0,1.72596267,-0.38456931,0.59856315\C,0,2.31776
 625,0.68797595,-0.26859263\H,0,-2.64216173,-0.56439323,-1.11592515\H,0
 ,-1.44191344,-1.86394489,-1.07818255\H,0,-2.34369673,-1.44756321,0.383

 Normal termination of Gaussian 16 at Wed Apr  9 18:50:08 2025.
