 Gaussian 16, Revision C.01,

 ----------------------------------------------------------------------
 #t hf aug-cc-pvdz symm=none int=(grid=ultrafine) guess=(read,tcheck) s
 table=(opt,rrhf)
 ----------------------------------------------------------------------
 -----
 title
 -----
 Symbolic Z-matrix:
 Charge =  0 Multiplicity = 1

 SCF Done:  E(RHF) =  -283.538112576     A.U. after   19 cycles
 Normal termination of Gaussian 16 at Wed Apr  9 03:15:51 2025.
 Gaussian 16:  ES64L-G16RevC.01  3-Jul-2019

 ----------------------------------------------------------------------
 #t hf aug-cc-pvdz iop(5/13=1,5/36=2,99/5=2) pseudo=read geom=check gue
 ss=(read,tcheck) scf=(maxcycle=1)
 ----------------------------------------------------------------------
 -----
 title
 -----
 Structure from the checkpoint file:  "Grambow2020_b97d3_006998_forward_mol1.chk"
 Charge =  0 Multiplicity = 1

                         Standard orientation:
 ---------------------------------------------------------------------
 Center     Atomic      Atomic             Coordinates (Angstroms)
 Number     Number       Type             X           Y           Z
 ---------------------------------------------------------------------
      1          6           0        1.216096    1.194578    0.239707
      2          6           0        0.457143   -0.111201   -0.096465
      3          8           0        0.986504   -0.852621   -1.031549
      4          6           0        0.041953   -0.944965    1.049430
      5          6           0       -1.084680    0.268375   -0.179900
      6          7           0       -2.261112    0.365570   -0.237100
      7          1           0        2.245230    0.923981    0.506845
      8          1           0        0.736144    1.726358    1.072191
      9          1           0        1.233122    1.834513   -0.647553
     10          1           0        0.303822   -0.736829    2.094052
     11          1           0       -0.365642   -1.926770    0.809928
 ---------------------------------------------------------------------

 SCF Done:  E(RHF) =  -284.809240251     A.U. after    2 cycles

 The electronic state is 1-A.
 Alpha  occ. eigenvalues --  -20.97046 -15.80250 -11.57819 -11.51489 -11.45224
 Alpha  occ. eigenvalues --  -11.40707  -1.64723  -1.33250  -1.20031  -1.06430
 Alpha  occ. eigenvalues --   -0.89900  -0.73078  -0.69494  -0.62722  -0.58708
 Alpha  occ. eigenvalues --   -0.55593  -0.52683  -0.50157  -0.46240  -0.41965
 Alpha  occ. eigenvalues --   -0.26346  -0.25922
 Alpha virt. eigenvalues --   -0.01296   0.02145   0.04443   0.04848   0.05693
 Alpha virt. eigenvalues --    0.06950   0.09066   0.09686   0.10902   0.11814
 Alpha virt. eigenvalues --    0.12653   0.13690   0.14075   0.14659   0.15185

 Mulliken charges:
               1
     1  C   -4.023471
     2  C    4.260084
     3  O   -3.329207
     4  C   -2.688265
     5  C    1.853411
     6  N   -2.374268
     7  H    1.134777
     8  H    1.275095
     9  H    1.214861
    10  H    1.375706
    11  H    1.301277
 Sum of Mulliken charges =   0.00000

 Dipole moment (field-independent basis, Debye):
    X=              1.3958    Y=             -0.5293    Z=              3.9943  Tot=              4.2641

 Test job not archived.
 1\1\GINC-SE074\SP\RHF\Aug-CC-pVDZ\C4H5N1O1\OHZDE\09-Apr-2025\0\\#t hf
 aug-cc-pvdz iop(5/13=1,5/36=2,99/5=2) pseudo=read geom=check guess=(re
 ad,tcheck) scf=(maxcycle=1)\\title\\0,1\C,0,-1.26575677,0.27205122,-0.
 45279848\C,0,-0.09224587,-0.12257876,0.47522034\O,0,-0.42617241,-0.599
 94048,1.64352153\C,0,0.97857624,-0.94040628,-0.12903117\C,0,0.97163743
 ,1.05590549,0.38811529\N,0,1.87956007,1.81221345,0.40769936\H,0,-1.908
 54557,-0.60899665,-0.5722973\H,0,-0.8983918,0.60832954,-1.43164133\H,0
 ,-1.84069814,1.0728191,0.02180764\H,0,0.95111917,-1.34060278,-1.149923

 Normal termination of Gaussian 16 at Wed Apr  9 03:15:55 2025.
