 Gaussian 16, Revision C.01,

 ----------------------------------------------------------------------
 #t hf aug-cc-pvdz symm=none int=(grid=ultrafine) guess=(read,tcheck) s
 table=(opt,rrhf)
 ----------------------------------------------------------------------
 -----
 title
 -----
 Symbolic Z-matrix:
 Charge =  0 Multiplicity = 1

 SCF Done:  E(RHF) =  -283.539312022     A.U. after   16 cycles
 Normal termination of Gaussian 16 at Wed Apr  9 03:09:14 2025.
 Gaussian 16:  ES64L-G16RevC.01  3-Jul-2019

 ----------------------------------------------------------------------
 #t hf aug-cc-pvdz iop(5/13=1,5/36=2,99/5=2) pseudo=read geom=check gue
 ss=(read,tcheck) scf=(maxcycle=1)
 ----------------------------------------------------------------------
 -----
 title
 -----
 Structure from the checkpoint file:  "Grambow2020_b97d3_006654_reverse_mol1.chk"
 Charge =  0 Multiplicity = 1

                         Standard orientation:
 ---------------------------------------------------------------------
 Center     Atomic      Atomic             Coordinates (Angstroms)
 Number     Number       Type             X           Y           Z
 ---------------------------------------------------------------------
      1          7           0       -1.757207   -0.677466    0.028966
      2          6           0       -1.426178    0.473010   -0.036995
      3          6           0       -0.282678    1.330704   -0.099826
      4          6           0        0.811919    0.075461    0.390604
      5          6           0        0.154636   -1.193328   -0.087407
      6          8           0        1.972884    0.008092   -0.188018
      7          1           0       -0.252647    2.164465    0.606792
      8          1           0       -0.052936    1.654594   -1.122425
      9          1           0        0.773826    0.178961    1.500752
     10          1           0        0.324127   -2.108940    0.486608
     11          1           0        0.178811   -1.326638   -1.168599
 ---------------------------------------------------------------------

 SCF Done:  E(RHF) =  -284.841829035     A.U. after    2 cycles

 The electronic state is 1-A.
 Alpha  occ. eigenvalues --  -20.98734 -15.80457 -11.52105 -11.50031 -11.46343
 Alpha  occ. eigenvalues --  -11.43869  -1.64497  -1.40339  -1.14076  -1.06457
 Alpha  occ. eigenvalues --   -0.84731  -0.73495  -0.69945  -0.63321  -0.59868
 Alpha  occ. eigenvalues --   -0.58340  -0.54328  -0.49984  -0.46077  -0.41650
 Alpha  occ. eigenvalues --   -0.27585  -0.25272
 Alpha virt. eigenvalues --    0.03235   0.04953   0.05246   0.05681   0.06313
 Alpha virt. eigenvalues --    0.06410   0.09188   0.10357   0.10890   0.11604
 Alpha virt. eigenvalues --    0.12509   0.13454   0.13846   0.14315   0.14913

 Mulliken charges:
               1
     1  N   -2.098968
     2  C    1.788740
     3  C   -2.898131
     4  C    2.032025
     5  C   -2.986311
     6  O   -2.675277
     7  H    1.417062
     8  H    1.344360
     9  H    1.373459
    10  H    1.358494
    11  H    1.344547
 Sum of Mulliken charges =  -0.00000

 Dipole moment (field-independent basis, Debye):
    X=             -0.2276    Y=              0.4334    Z=              0.0577  Tot=              0.4929

 Test job not archived.
 1\1\GINC-SE097\SP\RHF\Aug-CC-pVDZ\C4H5N1O1\OHZDE\09-Apr-2025\0\\#t hf
 aug-cc-pvdz iop(5/13=1,5/36=2,99/5=2) pseudo=read geom=check guess=(re
 ad,tcheck) scf=(maxcycle=1)\\title\\0,1\N,0,1.47683021,1.26318349,-0.0
 8734854\C,0,1.5305496,0.06791999,-0.16470472\C,0,0.72300969,-1.1131097
 7,-0.17985573\C,0,-0.68151726,-0.28249113,0.41316611\C,0,-0.50248922,1
 .13367919,-0.06927537\O,0,-1.83891463,-0.59059324,-0.08951477\H,0,1.01
 16345,-1.91620982,0.50358696\H,0,0.54061555,-1.4874373,-1.1947479\H,0,
 -0.53635326,-0.37511093,1.5154098\H,0,-0.91838689,1.94161559,0.5396857

 Normal termination of Gaussian 16 at Wed Apr  9 03:09:17 2025.
