 Gaussian 16, Revision C.01,

 ----------------------------------------------------------------------
 #t hf aug-cc-pvdz symm=none int=(grid=ultrafine) guess=(read,tcheck) s
 table=(opt,rrhf)
 ----------------------------------------------------------------------
 -----
 title
 -----
 Symbolic Z-matrix:
 Charge =  0 Multiplicity = 1

 SCF Done:  E(RHF) =  -308.821771115     A.U. after   17 cycles

 1\1\GINC-SE207\Stability\RHF\Aug-CC-pVDZ\C6H12O1\OHZDE\09-Apr-2025\0\\
 #t hf aug-cc-pvdz symm=none int=(grid=ultrafine) guess=(read,tcheck) s
 table=(opt,rrhf)\\title\\0,1\C,0,-0.72265484,-1.71569627,-0.09646441\C
 ,0,-0.70006751,-0.24526509,-0.5747869\C,0,-1.67660961,0.56743177,0.121
 24677\C,0,0.05651385,1.9059476,0.88624549\O,0,0.84090681,0.75189743,1.
 04335649\C,0,0.75243311,0.3227358,-0.26777939\C,0,1.94214136,-0.477010
 12,-0.6835159\H,0,-1.68816706,-2.17619723,-0.30319978\H,0,0.04370246,-
 2.30974765,-0.59860239\H,0,-0.54408055,-1.76712392,0.97934049\H,0,-0.8

 Normal termination of Gaussian 16 at Wed Apr  9 03:29:23 2025.
 Gaussian 16:  ES64L-G16RevC.01  3-Jul-2019

 ----------------------------------------------------------------------
 #t hf aug-cc-pvdz iop(5/13=1,5/36=2,99/5=2) pseudo=read geom=check gue
 ss=(read,tcheck) scf=(maxcycle=1)
 ----------------------------------------------------------------------
 -----
 title
 -----
 Structure from the checkpoint file:  "Grambow2020_wb97xd3_006731_forward_mol1.chk"
 Charge =  0 Multiplicity = 1

                         Standard orientation:
 ---------------------------------------------------------------------
 Center     Atomic      Atomic             Coordinates (Angstroms)
 Number     Number       Type             X           Y           Z
 ---------------------------------------------------------------------
      1          6           0        1.672681   -1.006758    0.529176
      2          6           0        0.538913   -0.783395   -0.498514
      3          6           0       -0.574109   -1.685485   -0.284066
      4          6           0       -1.944009    0.159679    0.031072
      5          8           0       -0.890746    0.789884    0.713176
      6          6           0        0.030538    0.711375   -0.314519
      7          6           0        1.035829    1.813279   -0.259444
      8          1           0        2.086890   -2.010316    0.437984
      9          1           0        2.488337   -0.295579    0.383320
     10          1           0        1.292296   -0.886276    1.545386
     11          1           0        0.951806   -0.850487   -1.507267
     12          1           0       -0.793608   -1.998248    0.730069
     13          1           0       -0.891580   -2.368334   -1.063272
     14          1           0       -2.501964   -0.560341    0.626803
     15          1           0       -2.639929    0.926489   -0.324361
     16          1           0       -1.288727    0.157688   -1.027016
     17          1           0        1.541881    1.851720    0.713765
     18          1           0        1.787992    1.691476   -1.039514
     19          1           0        0.533511    2.770966   -0.403536
 ---------------------------------------------------------------------

 SCF Done:  E(RHF) =  -310.362789039     A.U. after    2 cycles

 The electronic state is 1-A.
 Alpha  occ. eigenvalues --  -21.05770 -11.47383 -11.43174 -11.41848 -11.39724
 Alpha  occ. eigenvalues --  -11.38261 -11.35990  -1.79333  -1.23699  -1.09588
 Alpha  occ. eigenvalues --   -0.99696  -0.95167  -0.87681  -0.76789  -0.68100
 Alpha  occ. eigenvalues --   -0.65493  -0.61941  -0.58531  -0.57428  -0.55068
 Alpha  occ. eigenvalues --   -0.53633  -0.49002  -0.46954  -0.46665  -0.42624
 Alpha  occ. eigenvalues --   -0.39257  -0.33048  -0.20540
 Alpha virt. eigenvalues --    0.04292   0.04557   0.05033   0.05171   0.05674
 Alpha virt. eigenvalues --    0.05713   0.06035   0.06315   0.07387   0.08387
 Alpha virt. eigenvalues --    0.08905   0.09161   0.09643   0.12082   0.12405

 Mulliken charges:
               1
     1  C   -3.739879
     2  C   -2.270551
     3  C   -3.156620
     4  C   -2.261735
     5  O   -3.254343
     6  C    3.395487
     7  C   -4.642582
     8  H    1.181566
     9  H    1.381797
    10  H    1.310491
    11  H    1.635932
    12  H    1.420139
    13  H    1.263223
    14  H    1.287497
    15  H    1.104281
    16  H    1.695875
    17  H    1.208786
    18  H    1.263927
    19  H    1.176708
 Sum of Mulliken charges =  -0.00000

 Dipole moment (field-independent basis, Debye):
    X=              0.0493    Y=              0.3513    Z=              0.2366  Tot=              0.4264

 Test job not archived.
 1\1\GINC-SE207\SP\RHF\Aug-CC-pVDZ\C6H12O1\OHZDE\09-Apr-2025\0\\#t hf a
 ug-cc-pvdz iop(5/13=1,5/36=2,99/5=2) pseudo=read geom=check guess=(rea
 d,tcheck) scf=(maxcycle=1)\\title\\0,1\C,0,-0.72265484,-1.71569627,-0.
 09646441\C,0,-0.70006751,-0.24526509,-0.5747869\C,0,-1.67660961,0.5674
 3177,0.12124677\C,0,0.05651385,1.9059476,0.88624549\O,0,0.84090681,0.7
 5189743,1.04335649\C,0,0.75243311,0.3227358,-0.26777939\C,0,1.94214136
 ,-0.47701012,-0.6835159\H,0,-1.68816706,-2.17619723,-0.30319978\H,0,0.
 04370246,-2.30974765,-0.59860239\H,0,-0.54408055,-1.76712392,0.9793404

 Normal termination of Gaussian 16 at Wed Apr  9 03:29:31 2025.
