 Gaussian 16, Revision C.01,

 ----------------------------------------------------------------------
 #t hf aug-cc-pvdz symm=none int=(grid=ultrafine) guess=(read,tcheck) s
 table=(opt,rrhf)
 ----------------------------------------------------------------------
 -----
 title
 -----
 Symbolic Z-matrix:
 Charge =  0 Multiplicity = 1

 SCF Done:  E(RHF) =  -360.881462674     A.U. after   13 cycles
 Normal termination of Gaussian 16 at Wed Apr  9 18:13:17 2025.
 Gaussian 16:  ES64L-G16RevC.01  3-Jul-2019

 ----------------------------------------------------------------------
 #t hf aug-cc-pvdz iop(5/13=1,5/36=2,99/5=2) pseudo=read geom=check gue
 ss=(read,tcheck) scf=(maxcycle=1)
 ----------------------------------------------------------------------
 -----
 title
 -----
 Structure from the checkpoint file:  "Grambow2020_wb97xd3_006769_reverse_mol2.chk"
 Charge =  0 Multiplicity = 1

                         Standard orientation:
 ---------------------------------------------------------------------
 Center     Atomic      Atomic             Coordinates (Angstroms)
 Number     Number       Type             X           Y           Z
 ---------------------------------------------------------------------
      1          6           0       -2.469062    0.076809    0.185355
      2          7           0       -1.288783   -0.422674   -0.495648
      3          6           0       -0.150930   -0.580496    0.327531
      4          8           0        0.878463   -1.353589   -0.304009
      5          6           0        1.884139   -0.381610    0.007172
      6          6           0        0.838027    0.601798    0.532069
      7          8           0        0.512578    1.666256   -0.327284
      8          1           0       -2.341695    1.072295    0.632126
      9          1           0       -3.297577    0.125484   -0.521479
     10          1           0       -2.753362   -0.619077    0.978019
     11          1           0       -0.466734   -1.036013    1.274047
     12          1           0        2.590969   -0.746663    0.759152
     13          1           0        2.426427   -0.052894   -0.883760
     14          1           0        0.966372    0.944462    1.562600
     15          1           0        1.213640    2.319059   -0.298127
     16          1           0       -1.057937    0.151720   -1.295458
 ---------------------------------------------------------------------

 SCF Done:  E(RHF) =  -362.518690197     A.U. after    2 cycles

 The electronic state is 1-A.
 Alpha  occ. eigenvalues --  -21.08473 -21.03182 -15.71178 -11.49725 -11.44565
 Alpha  occ. eigenvalues --  -11.38839 -11.38047  -1.79704  -1.70700  -1.36511
 Alpha  occ. eigenvalues --   -1.07428  -1.01576  -0.91904  -0.80164  -0.71924
 Alpha  occ. eigenvalues --   -0.65932  -0.63160  -0.59869  -0.58204  -0.57661
 Alpha  occ. eigenvalues --   -0.52648  -0.50775  -0.44779  -0.41432  -0.40062
 Alpha  occ. eigenvalues --   -0.31697  -0.31200  -0.29218
 Alpha virt. eigenvalues --    0.03724   0.04974   0.05053   0.05360   0.05807
 Alpha virt. eigenvalues --    0.06278   0.06823   0.07111   0.09008   0.11177
 Alpha virt. eigenvalues --    0.11504   0.12948   0.13539   0.13981   0.15350

 Mulliken charges:
               1
     1  C   -3.499744
     2  N   -2.987530
     3  C    2.746547
     4  O   -3.073351
     5  C   -1.932625
     6  C    0.646353
     7  O   -3.384863
     8  H    1.347279
     9  H    1.259878
    10  H    1.310159
    11  H    1.850594
    12  H    1.463583
    13  H    1.429894
    14  H    1.466162
    15  H    0.788552
    16  H    0.569111
 Sum of Mulliken charges =  -0.00000

 Dipole moment (field-independent basis, Debye):
    X=              0.3273    Y=              1.6145    Z=              0.5896  Tot=              1.7497

 Test job not archived.
 1\1\GINC-SE113\SP\RHF\Aug-CC-pVDZ\C4H9N1O2\OHZDE\09-Apr-2025\0\\#t hf
 aug-cc-pvdz iop(5/13=1,5/36=2,99/5=2) pseudo=read geom=check guess=(re
 ad,tcheck) scf=(maxcycle=1)\\title\\0,1\C,0,1.95723073,-0.62497824,-1.
 18910482\N,0,0.89474761,0.36140731,-1.12216688\C,0,0.34133408,0.551109
 3,0.16429653\O,0,-0.47066907,1.73040167,0.24230164\C,0,-1.5547671,1.01
 773443,0.85041001\C,0,-0.85266327,-0.32384515,0.64023143\O,0,-1.337410
 91,-1.10912366,-0.42082148\H,0,1.64833904,-1.63771422,-0.89623992\H,0,
 2.3424356,-0.66893564,-2.20798015\H,0,2.77997614,-0.31791616,-0.539333

 Normal termination of Gaussian 16 at Wed Apr  9 18:13:22 2025.
