 Gaussian 16, Revision C.01,

 ----------------------------------------------------------------------
 #t hf aug-cc-pvdz symm=none int=(grid=ultrafine) guess=(read,tcheck) s
 table=(opt,rrhf)
 ----------------------------------------------------------------------
 -----
 title
 -----
 Symbolic Z-matrix:
 Charge =  0 Multiplicity = 1

 SCF Done:  E(RHF) =  -343.692091139     A.U. after   14 cycles
 Normal termination of Gaussian 16 at Wed Apr  9 03:51:52 2025.
 Gaussian 16:  ES64L-G16RevC.01  3-Jul-2019

 ----------------------------------------------------------------------
 #t hf aug-cc-pvdz iop(5/13=1,5/36=2,99/5=2) pseudo=read geom=check gue
 ss=(read,tcheck) scf=(maxcycle=1)
 ----------------------------------------------------------------------
 -----
 title
 -----
 Structure from the checkpoint file:  "Grambow2020_wb97xd3_008198_forward_mol2.chk"
 Charge =  0 Multiplicity = 1

                         Standard orientation:
 ---------------------------------------------------------------------
 Center     Atomic      Atomic             Coordinates (Angstroms)
 Number     Number       Type             X           Y           Z
 ---------------------------------------------------------------------
      1          8           0        2.157645   -0.111023   -0.773574
      2          6           0        1.336576   -0.973392   -0.018296
      3          6           0        0.578059   -0.256646    1.092184
      4          6           0       -0.590346    0.597007    0.603672
      5          8           0       -0.081145    1.561898   -0.314116
      6          6           0       -1.651972   -0.207673   -0.017615
      7          6           0       -2.530808   -0.843065   -0.524948
      8          1           0        1.614552    0.639050   -1.035674
      9          1           0        2.000016   -1.718213    0.425039
     10          1           0        0.627691   -1.510332   -0.663984
     11          1           0        1.269931    0.392152    1.634996
     12          1           0        0.181460   -0.988721    1.800095
     13          1           0       -1.029332    1.112852    1.466479
     14          1           0       -0.817425    1.984386   -0.761046
     15          1           0       -3.307940   -1.415568   -0.974372
 ---------------------------------------------------------------------

 SCF Done:  E(RHF) =  -345.252634183     A.U. after    2 cycles

 The electronic state is 1-A.
 Alpha  occ. eigenvalues --  -21.09233 -21.04542 -11.50249 -11.43767 -11.42747
 Alpha  occ. eigenvalues --  -11.41699 -11.38137  -1.74951  -1.68954  -1.20775
 Alpha  occ. eigenvalues --   -1.09610  -0.97408  -0.86280  -0.74917  -0.70072
 Alpha  occ. eigenvalues --   -0.67320  -0.62447  -0.57396  -0.55812  -0.51648
 Alpha  occ. eigenvalues --   -0.49299  -0.45964  -0.40170  -0.38583  -0.37125
 Alpha  occ. eigenvalues --   -0.33605  -0.29764
 Alpha virt. eigenvalues --    0.03152   0.04410   0.05009   0.06140   0.06373
 Alpha virt. eigenvalues --    0.06612   0.07616   0.08181   0.09541   0.10415
 Alpha virt. eigenvalues --    0.12292   0.12485   0.13317   0.13825   0.14300

 Mulliken charges:
               1
     1  O   -2.779938
     2  C   -0.981208
     3  C   -3.034294
     4  C    0.026940
     5  O   -3.042664
     6  C    4.513230
     7  C   -4.233252
     8  H    1.042785
     9  H    1.260223
    10  H    1.500394
    11  H    1.335568
    12  H    1.369038
    13  H    1.366794
    14  H    0.880067
    15  H    0.776316
 Sum of Mulliken charges =   0.00000

 Dipole moment (field-independent basis, Debye):
    X=             -1.4355    Y=              0.2661    Z=              0.4303  Tot=              1.5221

 Test job not archived.
 1\1\GINC-SE092\SP\RHF\Aug-CC-pVDZ\C5H8O2\OHZDE\09-Apr-2025\0\\#t hf au
 g-cc-pvdz iop(5/13=1,5/36=2,99/5=2) pseudo=read geom=check guess=(read
 ,tcheck) scf=(maxcycle=1)\\title\\0,1\O,0,1.86588361,0.84092658,1.3896
 8957\C,0,1.0788747,1.19208186,0.27363163\C,0,0.75548352,0.00622759,-0.
 62714931\C,0,-0.29298851,-0.9467694,-0.05702434\O,0,0.18120403,-1.4278
 2889,1.19850665\C,0,-1.60960448,-0.3098844,0.08945529\C,0,-2.69164706,
 0.1870779,0.21466235\H,0,1.44295141,0.08387605,1.8071327\H,0,1.6585954
 9,1.92342045,-0.29251679\H,0,0.14741713,1.68458656,0.58598155\H,0,1.67

 Normal termination of Gaussian 16 at Wed Apr  9 03:52:01 2025.
