 Gaussian 16, Revision C.01,

 ----------------------------------------------------------------------
 #t hf aug-cc-pvdz symm=none int=(grid=ultrafine) guess=(read,tcheck) s
 table=(opt,rrhf)
 ----------------------------------------------------------------------
 -----
 title
 -----
 Symbolic Z-matrix:
 Charge =  0 Multiplicity = 1

 SCF Done:  E(RHF) =  -339.293092005     A.U. after   17 cycles
 Normal termination of Gaussian 16 at Wed Apr  9 16:29:41 2025.
 Gaussian 16:  ES64L-G16RevC.01  3-Jul-2019

 ----------------------------------------------------------------------
 #t hf aug-cc-pvdz iop(5/13=1,5/36=2,99/5=2) pseudo=read geom=check gue
 ss=(read,tcheck) scf=(maxcycle=1)
 ----------------------------------------------------------------------
 -----
 title
 -----
 Structure from the checkpoint file:  "Grambow2020_b97d3_006818_reverse_mol2.chk"
 Charge =  0 Multiplicity = 1

                         Standard orientation:
 ---------------------------------------------------------------------
 Center     Atomic      Atomic             Coordinates (Angstroms)
 Number     Number       Type             X           Y           Z
 ---------------------------------------------------------------------
      1          8           0       -2.486738   -0.703604   -0.515402
      2          6           0       -1.855359   -0.275055    0.452143
      3          6           0       -0.456487    0.129000    0.283434
      4          8           0       -0.232423    1.340347   -0.123075
      5          6           0        2.200630    0.100793   -0.105065
      6          8           0        2.983771   -0.729732    0.010862
      7          1           0       -2.214844   -0.368115    1.507293
      8          1           0        0.765255    1.383596   -0.269439
 ---------------------------------------------------------------------

 SCF Done:  E(RHF) =  -340.692376360     A.U. after    2 cycles

 The electronic state is 1-A.
 Alpha  occ. eigenvalues --  -21.19401 -21.17175 -21.07321 -11.53402 -11.49681
 Alpha  occ. eigenvalues --  -11.45195  -1.82065  -1.80922  -1.69942  -1.02366
 Alpha  occ. eigenvalues --   -0.79555  -0.76022  -0.66338  -0.63340  -0.54185
 Alpha  occ. eigenvalues --   -0.53962  -0.53582  -0.50506  -0.48161  -0.45836
 Alpha  occ. eigenvalues --   -0.34140  -0.30015
 Alpha virt. eigenvalues --    0.03773   0.05542   0.08107   0.08402   0.09277
 Alpha virt. eigenvalues --    0.09719   0.10670   0.11767   0.12982   0.13475
 Alpha virt. eigenvalues --    0.14394   0.14871   0.15195   0.16084   0.16545

 Mulliken charges:
               1
     1  O   -2.360849
     2  C    1.949109
     3  C    0.367502
     4  O   -2.640976
     5  C    0.940342
     6  O   -1.511132
     7  H    1.579947
     8  H    1.676058
 Sum of Mulliken charges =  -0.00000

 Dipole moment (field-independent basis, Debye):
    X=              2.1342    Y=              0.8050    Z=              0.4586  Tot=              2.3266

 Test job not archived.
 1\1\GINC-SE105\SP\RHF\Aug-CC-pVDZ\C3H2O3\OHZDE\09-Apr-2025\0\\#t hf au
 g-cc-pvdz iop(5/13=1,5/36=2,99/5=2) pseudo=read geom=check guess=(read
 ,tcheck) scf=(maxcycle=1)\\title\\0,1\O,0,-2.36973873,0.32737844,0.898
 53591\C,0,-1.28743501,0.90817925,0.79991777\C,0,-0.17827149,0.25932358
 ,0.09471652\O,0,-0.1265872,0.40448909,-1.19333355\C,0,1.83669032,-1.38
 757635,-0.56834413\O,0,2.49834636,-2.08197922,0.06136744\H,0,-1.024328
 29,1.8174027,1.39600395\H,0,0.63343704,-0.18955349,-1.49020391\\Versio
 n=ES64L-G16RevC.01\State=1-A\HF=-340.6923764\RMSD=1.770e-01\Dipole=0.8

 Normal termination of Gaussian 16 at Wed Apr  9 16:29:43 2025.
