 Gaussian 16, Revision C.01,

 ----------------------------------------------------------------------
 #t hf aug-cc-pvdz symm=none int=(grid=ultrafine) guess=(read,tcheck) s
 table=(opt,rrhf)
 ----------------------------------------------------------------------
 -----
 title
 -----
 Symbolic Z-matrix:
 Charge =  0 Multiplicity = 1

 SCF Done:  E(RHF) =  -317.579796339     A.U. after   16 cycles
 Normal termination of Gaussian 16 at Wed Apr  9 19:26:54 2025.
 Gaussian 16:  ES64L-G16RevC.01  3-Jul-2019

 ----------------------------------------------------------------------
 #t hf aug-cc-pvdz iop(5/13=1,5/36=2,99/5=2) pseudo=read geom=check gue
 ss=(read,tcheck) scf=(maxcycle=1)
 ----------------------------------------------------------------------
 -----
 title
 -----
 Structure from the checkpoint file:  "Grambow2020_wb97xd3_008980_reverse_mol2.chk"
 Charge =  0 Multiplicity = 1

                         Standard orientation:
 ---------------------------------------------------------------------
 Center     Atomic      Atomic             Coordinates (Angstroms)
 Number     Number       Type             X           Y           Z
 ---------------------------------------------------------------------
      1          7           0        1.199945    1.496399    0.072320
      2          6           0        1.709121    0.337480    0.326753
      3          6           0       -2.033763    1.031760   -0.340544
      4          7           0       -1.529974    0.009750    0.146941
      5          6           0       -0.793194   -0.925884    0.560727
      6          7           0        0.194517   -1.493635   -0.261983
      7          6           0        1.270595   -0.819261   -0.424205
      8          1           0        1.472482    2.290389    0.632794
      9          1           0        0.439065    1.676095   -0.582356
     10          1           0       -2.931901    0.811498   -0.936159
     11          1           0       -0.975344   -1.365629    1.535356
     12          1           0        2.027725   -1.244535   -1.086967
 ---------------------------------------------------------------------

 SCF Done:  E(RHF) =  -319.022856272     A.U. after    2 cycles

 The electronic state is 1-A.
 Alpha  occ. eigenvalues --  -15.82770 -15.81018 -15.74580 -11.46444 -11.45890
 Alpha  occ. eigenvalues --  -11.40904 -11.40444  -1.49355  -1.41446  -1.33709
 Alpha  occ. eigenvalues --   -1.06688  -0.96454  -0.82585  -0.74993  -0.73643
 Alpha  occ. eigenvalues --   -0.66417  -0.64952  -0.63184  -0.54530  -0.48751
 Alpha  occ. eigenvalues --   -0.47210  -0.44544  -0.40837  -0.32032  -0.29129
 Alpha virt. eigenvalues --    0.03310   0.05196   0.05587   0.05891   0.06747
 Alpha virt. eigenvalues --    0.09053   0.09719   0.09936   0.10468   0.11244
 Alpha virt. eigenvalues --    0.11659   0.12928   0.13107   0.13252   0.13953

 Mulliken charges:
               1
     1  N   -2.321158
     2  C   -0.415841
     3  C   -1.210147
     4  N   -2.244089
     5  C    1.182423
     6  N   -3.105732
     7  C    1.496230
     8  H    0.813612
     9  H    0.868869
    10  H    1.572776
    11  H    1.732988
    12  H    1.630069
 Sum of Mulliken charges =  -0.00000

 Dipole moment (field-independent basis, Debye):
    X=             -0.0986    Y=              0.9550    Z=             -0.5752  Tot=              1.1192

 Test job not archived.
 1\1\GINC-SE207\SP\RHF\Aug-CC-pVDZ\C4H5N3\OHZDE\09-Apr-2025\0\\#t hf au
 g-cc-pvdz iop(5/13=1,5/36=2,99/5=2) pseudo=read geom=check guess=(read
 ,tcheck) scf=(maxcycle=1)\\title\\0,1\N,0,-1.75876344,-0.13524336,-0.3
 5490798\C,0,-1.07834947,-1.16847068,-0.72445987\C,0,0.41450385,2.06665
 347,0.77282127\N,0,1.01668069,1.16121671,0.17824891\C,0,1.40624495,0.1
 0888158,-0.39647218\N,0,1.19691552,-1.15584366,0.17921566\C,0,0.014385
 95,-1.63981448,0.09898249\H,0,-2.48681468,0.21911632,-0.95756697\H,0,-
 1.55254046,0.44848058,0.45538131\H,0,1.03087,2.53534064,1.55407034\H,0

 Normal termination of Gaussian 16 at Wed Apr  9 19:26:58 2025.
