 Gaussian 16, Revision C.01,

 ----------------------------------------------------------------------
 #t hf aug-cc-pvdz symm=none int=(grid=ultrafine) guess=(read,tcheck) s
 table=(opt,rrhf)
 ----------------------------------------------------------------------
 -----
 title
 -----
 Symbolic Z-matrix:
 Charge =  0 Multiplicity = 1

 SCF Done:  E(RHF) =  -284.738483863     A.U. after   16 cycles
 Normal termination of Gaussian 16 at Wed Apr  9 03:06:35 2025.
 Gaussian 16:  ES64L-G16RevC.01  3-Jul-2019

 ----------------------------------------------------------------------
 #t hf aug-cc-pvdz iop(5/13=1,5/36=2,99/5=2) pseudo=read geom=check gue
 ss=(read,tcheck) scf=(maxcycle=1)
 ----------------------------------------------------------------------
 -----
 title
 -----
 Structure from the checkpoint file:  "Grambow2020_b97d3_006534_reverse_mol2.chk"
 Charge =  0 Multiplicity = 1

                         Standard orientation:
 ---------------------------------------------------------------------
 Center     Atomic      Atomic             Coordinates (Angstroms)
 Number     Number       Type             X           Y           Z
 ---------------------------------------------------------------------
      1          6           0       -1.394333    0.161097   -0.283624
      2          6           0       -0.824212   -1.189251   -0.037070
      3          8           0        0.530087   -1.270771    0.097758
      4          6           0        1.369189   -0.265928   -0.069938
      5          7           0        0.919929    1.044217   -0.082852
      6          6           0       -0.457370    1.243018    0.360172
      7          1           0       -1.455527    0.407270   -1.359423
      8          1           0       -2.418656    0.229080    0.115008
      9          1           0       -1.309808   -1.950518    0.566182
     10          1           0        1.187556    1.595341   -0.897713
     11          1           0        2.417680   -0.528235    0.010814
     12          1           0       -0.764002    2.260089    0.092906
     13          1           0       -0.497087    1.150001    1.452891
 ---------------------------------------------------------------------

 SCF Done:  E(RHF) =  -286.084211563     A.U. after    2 cycles

 The electronic state is 1-A.
 Alpha  occ. eigenvalues --  -21.15567 -15.76691 -11.45419 -11.42789 -11.38885
 Alpha  occ. eigenvalues --  -11.34525  -1.84157  -1.40058  -1.15473  -0.94155
 Alpha  occ. eigenvalues --   -0.93539  -0.76149  -0.73950  -0.62121  -0.60208
 Alpha  occ. eigenvalues --   -0.58875  -0.57341  -0.54135  -0.50939  -0.47716
 Alpha  occ. eigenvalues --   -0.40310  -0.34327  -0.22086
 Alpha virt. eigenvalues --    0.03400   0.04959   0.05252   0.05987   0.06420
 Alpha virt. eigenvalues --    0.06483   0.07146   0.10140   0.11021   0.11846
 Alpha virt. eigenvalues --    0.13518   0.13743   0.13997   0.15093   0.15759

 Mulliken charges:
               1
     1  C   -2.634574
     2  C   -0.054528
     3  O   -3.358270
     4  C    1.588168
     5  N   -2.532648
     6  C   -2.425016
     7  H    1.372238
     8  H    1.323958
     9  H    1.510190
    10  H    0.621931
    11  H    1.799177
    12  H    1.368443
    13  H    1.420931
 Sum of Mulliken charges =  -0.00000

 Dipole moment (field-independent basis, Debye):
    X=              0.5522    Y=              1.7389    Z=              0.0725  Tot=              1.8259

 Test job not archived.
 1\1\GINC-SE041\SP\RHF\Aug-CC-pVDZ\C4H7N1O1\OHZDE\09-Apr-2025\0\\#t hf
 aug-cc-pvdz iop(5/13=1,5/36=2,99/5=2) pseudo=read geom=check guess=(re
 ad,tcheck) scf=(maxcycle=1)\\title\\0,1\C,0,0.53610387,-1.02476017,0.2
 9805937\C,0,-0.70936521,-1.22533156,-0.48797126\O,0,-1.49245806,-0.127
 98396,-0.69180005\C,0,-1.2776758,1.06331192,-0.16586529\N,0,-0.0496066
 1,1.38879594,0.38584728\C,0,1.03495642,0.45105023,0.10817813\H,0,0.380
 46749,-1.16011856,1.38394393\H,0,1.30717017,-1.75081157,-0.0037228\H,0
 ,-0.7917627,-1.90876302,-1.32783765\H,0,-0.07376358,1.73860293,1.34314

 Normal termination of Gaussian 16 at Wed Apr  9 03:06:40 2025.
