 Gaussian 16, Revision C.01,

 ----------------------------------------------------------------------
 #t hf aug-cc-pvdz symm=none int=(grid=ultrafine) guess=(read,tcheck) s
 table=(opt,rrhf)
 ----------------------------------------------------------------------
 -----
 title
 -----
 Symbolic Z-matrix:
 Charge =  0 Multiplicity = 1

 SCF Done:  E(RHF) =  -283.650274298     A.U. after   15 cycles
 Normal termination of Gaussian 16 at Wed Apr  9 17:54:20 2025.
 Gaussian 16:  ES64L-G16RevC.01  3-Jul-2019

 ----------------------------------------------------------------------
 #t hf aug-cc-pvdz iop(5/13=1,5/36=2,99/5=2) pseudo=read geom=check gue
 ss=(read,tcheck) scf=(maxcycle=1)
 ----------------------------------------------------------------------
 -----
 title
 -----
 Structure from the checkpoint file:  "Grambow2020_wb97xd3_006235_reverse_mol2.chk"
 Charge =  0 Multiplicity = 1

                         Standard orientation:
 ---------------------------------------------------------------------
 Center     Atomic      Atomic             Coordinates (Angstroms)
 Number     Number       Type             X           Y           Z
 ---------------------------------------------------------------------
      1          8           0       -1.936736   -0.922233   -0.291731
      2          6           0       -1.124426   -0.096628   -0.035845
      3          6           0       -0.573101    1.230753   -0.233775
      4          6           0        0.072535    0.247135    0.783929
      5          6           0        1.372366   -0.369367    0.434451
      6          7           0        1.946883   -0.125549   -0.664376
      7          1           0       -1.107726    2.087655    0.158098
      8          1           0        0.018474    1.397900   -1.128396
      9          1           0       -0.108021    0.422079    1.839220
     10          1           0        1.771165   -1.065053    1.180028
     11          1           0        2.807572   -0.657234   -0.757025
 ---------------------------------------------------------------------

 SCF Done:  E(RHF) =  -284.920123479     A.U. after    2 cycles

 The electronic state is 1-A.
 Alpha  occ. eigenvalues --  -21.08222 -15.75118 -11.51262 -11.47074 -11.44014
 Alpha  occ. eigenvalues --  -11.40326  -1.72577  -1.38636  -1.26311  -0.97323
 Alpha  occ. eigenvalues --   -0.82922  -0.74834  -0.72244  -0.63626  -0.58202
 Alpha  occ. eigenvalues --   -0.56576  -0.52814  -0.47298  -0.44734  -0.41004
 Alpha  occ. eigenvalues --   -0.39267  -0.26892
 Alpha virt. eigenvalues --    0.03230   0.05064   0.05272   0.05729   0.06980
 Alpha virt. eigenvalues --    0.09011   0.10388   0.10909   0.12185   0.13073
 Alpha virt. eigenvalues --    0.13473   0.14162   0.14401   0.14756   0.15000

 Mulliken charges:
               1
     1  O   -3.030036
     2  C    3.790180
     3  C   -2.501820
     4  C   -1.433135
     5  C    0.013651
     6  N   -3.009877
     7  H    1.303087
     8  H    1.359870
     9  H    1.248160
    10  H    1.524782
    11  H    0.735138
 Sum of Mulliken charges =   0.00000

 Dipole moment (field-independent basis, Debye):
    X=              0.9586    Y=              0.2362    Z=              1.5928  Tot=              1.8740

 Test job not archived.
 1\1\GINC-SE045\SP\RHF\Aug-CC-pVDZ\C4H5N1O1\OHZDE\09-Apr-2025\0\\#t hf
 aug-cc-pvdz iop(5/13=1,5/36=2,99/5=2) pseudo=read geom=check guess=(re
 ad,tcheck) scf=(maxcycle=1)\\title\\0,1\O,0,-1.04435205,1.26955361,-1.
 91083243\C,0,-0.84116924,0.43130511,-1.09658158\C,0,-1.31939446,-0.435
 54338,-0.03594422\C,0,0.16937971,-0.4785535,-0.48513504\C,0,1.19050374
 ,0.09988263,0.41735317\N,0,0.87525384,0.63232201,1.51919943\H,0,-1.950
 12023,-1.27935781,-0.28859236\H,0,-1.47717481,0.01041392,0.94102763\H,
 0,0.48797152,-1.31551806,-1.09737382\H,0,2.21851941,0.05648139,0.04291

 Normal termination of Gaussian 16 at Wed Apr  9 17:54:25 2025.
