 Gaussian 16, Revision C.01,

 ----------------------------------------------------------------------
 #t hf aug-cc-pvdz symm=none int=(grid=ultrafine) guess=(read,tcheck) s
 table=(opt,rrhf)
 ----------------------------------------------------------------------
 -----
 title
 -----
 Symbolic Z-matrix:
 Charge =  0 Multiplicity = 1

 SCF Done:  E(RHF) =  -322.590932059     A.U. after   16 cycles
 Normal termination of Gaussian 16 at Wed Apr  9 18:22:21 2025.
 Gaussian 16:  ES64L-G16RevC.01  3-Jul-2019

 ----------------------------------------------------------------------
 #t hf aug-cc-pvdz iop(5/13=1,5/36=2,99/5=2) pseudo=read geom=check gue
 ss=(read,tcheck) scf=(maxcycle=1)
 ----------------------------------------------------------------------
 -----
 title
 -----
 Structure from the checkpoint file:  "Grambow2020_wb97xd3_006940_forward_mol1.chk"
 Charge =  0 Multiplicity = 1

                         Standard orientation:
 ---------------------------------------------------------------------
 Center     Atomic      Atomic             Coordinates (Angstroms)
 Number     Number       Type             X           Y           Z
 ---------------------------------------------------------------------
      1          8           0       -2.349840   -0.177653   -0.673159
      2          6           0       -1.646373    0.582955   -0.056977
      3          7           0       -0.628234    0.232063    0.825561
      4          6           0       -0.129135   -0.994499    0.696377
      5          6           0        1.590205   -1.082385   -0.454287
      6          6           0        1.867711    0.236839   -0.348513
      7          6           0        1.560769    1.409773   -0.015017
      8          1           0       -1.793449    1.674780   -0.109750
      9          1           0        0.479556    1.142742    0.567547
     10          1           0       -0.636150   -1.686733    0.029587
     11          1           0        0.348752   -1.416277    1.573650
     12          1           0        2.156883   -1.792823    0.136883
     13          1           0        1.239051   -1.450447   -1.412729
     14          1           0        1.942661    2.409443   -0.108336
 ---------------------------------------------------------------------

 SCF Done:  E(RHF) =  -324.109881518     A.U. after    2 cycles

 The electronic state is 1-A.
 Alpha  occ. eigenvalues --  -21.03776 -15.71918 -11.46811 -11.46025 -11.44649
 Alpha  occ. eigenvalues --  -11.44077 -11.41555  -1.70556  -1.38606  -1.21297
 Alpha  occ. eigenvalues --   -1.04655  -0.96580  -0.78633  -0.74567  -0.71825
 Alpha  occ. eigenvalues --   -0.65834  -0.62839  -0.60160  -0.57552  -0.53742
 Alpha  occ. eigenvalues --   -0.48645  -0.42693  -0.39128  -0.36697  -0.31505
 Alpha  occ. eigenvalues --   -0.28788
 Alpha virt. eigenvalues --    0.03063   0.04852   0.05299   0.05785   0.06236
 Alpha virt. eigenvalues --    0.06437   0.07859   0.08185   0.10168   0.10586
 Alpha virt. eigenvalues --    0.12049   0.12326   0.12766   0.13692   0.13776

 Mulliken charges:
               1
     1  O   -2.668276
     2  C    2.053227
     3  N   -2.502465
     4  C   -1.785757
     5  C   -3.721273
     6  C    3.171276
     7  C   -3.708514
     8  H    1.538737
     9  H    1.621550
    10  H    1.422112
    11  H    1.397227
    12  H    1.115259
    13  H    1.075339
    14  H    0.991558
 Sum of Mulliken charges =  -0.00000

 Dipole moment (field-independent basis, Debye):
    X=              2.1686    Y=             -0.5791    Z=              0.0684  Tot=              2.2456

 Test job not archived.
 1\1\GINC-SE105\SP\RHF\Aug-CC-pVDZ\C5H7N1O1\OHZDE\09-Apr-2025\0\\#t hf
 aug-cc-pvdz iop(5/13=1,5/36=2,99/5=2) pseudo=read geom=check guess=(re
 ad,tcheck) scf=(maxcycle=1)\\title\\0,1\O,0,-1.82794417,-0.71015345,-1
 .65008168\C,0,-1.55430571,0.28925022,-1.03413918\N,0,-1.1839942,0.3553
 9016,0.3064206\C,0,-0.72056704,-0.76764823,0.84887921\C,0,1.34564865,-
 0.90396284,0.85614008\C,0,1.5495336,0.4197376,0.66960189\C,0,1.1358224
 9,1.57760498,0.40617459\H,0,-1.62620655,1.2883488,-1.49580076\H,0,-0.0
 9397713,1.31862975,0.39091719\H,0,-0.80025004,-1.68594764,0.27334687\H

 Normal termination of Gaussian 16 at Wed Apr  9 18:22:25 2025.
