 Gaussian 16, Revision C.01,

 ----------------------------------------------------------------------
 #t hf aug-cc-pvdz symm=none int=(grid=ultrafine) guess=(read,tcheck) s
 table=(opt,rrhf)
 ----------------------------------------------------------------------
 -----
 title
 -----
 Symbolic Z-matrix:
 Charge =  0 Multiplicity = 1

 SCF Done:  E(RHF) =  -302.773718908     A.U. after   15 cycles
 Normal termination of Gaussian 16 at Wed Apr  9 18:32:33 2025.
 Gaussian 16:  ES64L-G16RevC.01  3-Jul-2019

 ----------------------------------------------------------------------
 #t hf aug-cc-pvdz iop(5/13=1,5/36=2,99/5=2) pseudo=read geom=check gue
 ss=(read,tcheck) scf=(maxcycle=1)
 ----------------------------------------------------------------------
 -----
 title
 -----
 Structure from the checkpoint file:  "Grambow2020_wb97xd3_007242_forward_mol1.chk"
 Charge =  0 Multiplicity = 1

                         Standard orientation:
 ---------------------------------------------------------------------
 Center     Atomic      Atomic             Coordinates (Angstroms)
 Number     Number       Type             X           Y           Z
 ---------------------------------------------------------------------
      1          6           0       -2.487964   -0.368708    0.013468
      2          7           0       -1.071447   -0.065685   -0.011065
      3          6           0       -0.535436    1.161367   -0.004485
      4          7           0        0.776434    1.024836   -0.002203
      5          6           0        1.133167   -0.305091   -0.007077
      6          6           0        2.610701   -0.337149    0.016167
      7          6           0       -0.046286   -0.997901   -0.016096
      8          1           0       -2.739019   -0.919695    0.919921
      9          1           0       -3.054404    0.560343   -0.002470
     10          1           0       -2.760211   -0.963646   -0.857769
     11          1           0       -1.107266    2.074222    0.005098
     12          1           0        3.034711   -0.786474   -0.884894
     13          1           0        1.898853    1.312590    0.025891
     14          1           0        3.006512   -0.853408    0.893918
     15          1           0       -0.259172   -2.053098   -0.018681
 ---------------------------------------------------------------------

 SCF Done:  E(RHF) =  -304.233809093     A.U. after    2 cycles

 The electronic state is 1-A.
 Alpha  occ. eigenvalues --  -15.81693 -15.76708 -11.47476 -11.44608 -11.44593
 Alpha  occ. eigenvalues --  -11.39487 -11.28312  -1.62216  -1.36668  -1.12534
 Alpha  occ. eigenvalues --   -1.08798  -0.93847  -0.84805  -0.80346  -0.73422
 Alpha  occ. eigenvalues --   -0.67996  -0.62884  -0.61001  -0.58837  -0.57548
 Alpha  occ. eigenvalues --   -0.49495  -0.48645  -0.46201  -0.38588  -0.31186
 Alpha  occ. eigenvalues --   -0.23801
 Alpha virt. eigenvalues --    0.02099   0.04240   0.04797   0.05115   0.06289
 Alpha virt. eigenvalues --    0.06639   0.08188   0.08257   0.09468   0.09561
 Alpha virt. eigenvalues --    0.11096   0.12727   0.12860   0.13505   0.14466

 Mulliken charges:
               1
     1  C   -3.084486
     2  N   -3.422516
     3  C    1.189096
     4  N   -3.616172
     5  C    3.456598
     6  C   -4.236365
     7  C   -0.754492
     8  H    1.441018
     9  H    1.483543
    10  H    1.445595
    11  H    1.670365
    12  H    1.007699
    13  H    1.036267
    14  H    0.996235
    15  H    1.387616
 Sum of Mulliken charges =  -0.00000

 Dipole moment (field-independent basis, Debye):
    X=             -8.1869    Y=              0.6194    Z=             -0.0350  Tot=              8.2103

 Test job not archived.
 1\1\GINC-SE224\SP\RHF\Aug-CC-pVDZ\C5H8N2\OHZDE\09-Apr-2025\0\\#t hf au
 g-cc-pvdz iop(5/13=1,5/36=2,99/5=2) pseudo=read geom=check guess=(read
 ,tcheck) scf=(maxcycle=1)\\title\\0,1\C,0,-2.39321695,0.1045465,-0.159
 24264\N,0,-0.96905437,-0.05320802,0.0548085\C,0,-0.397787,-0.92671924,
 0.89364084\N,0,0.9094838,-0.78902455,0.78532207\C,0,1.22754445,0.18527
 522,-0.1342249\C,0,2.70371824,0.23821757,-0.18698056\C,0,0.02856881,0.
 65491398,-0.59582164\H,0,-2.64669929,-0.13237186,-1.19262969\H,0,-2.93
 275975,-0.5725473,0.5000599\H,0,-2.69534073,1.12791792,0.06111045\H,0,

 Normal termination of Gaussian 16 at Wed Apr  9 18:32:37 2025.
