 Gaussian 16, Revision C.01,

 ----------------------------------------------------------------------
 #t hf aug-cc-pvdz symm=none int=(grid=ultrafine) guess=(read,tcheck) s
 table=(opt,rrhf)
 ----------------------------------------------------------------------
 -----
 title
 -----
 Symbolic Z-matrix:
 Charge =  0 Multiplicity = 1

 SCF Done:  E(RHF) =  -304.556639031     A.U. after   17 cycles
 Normal termination of Gaussian 16 at Wed Apr  9 03:15:52 2025.
 Gaussian 16:  ES64L-G16RevC.01  3-Jul-2019

 ----------------------------------------------------------------------
 #t hf aug-cc-pvdz iop(5/13=1,5/36=2,99/5=2) pseudo=read geom=check gue
 ss=(read,tcheck) scf=(maxcycle=1)
 ----------------------------------------------------------------------
 -----
 title
 -----
 Structure from the checkpoint file:  "Grambow2020_b97d3_006988_reverse_mol1.chk"
 Charge =  0 Multiplicity = 1

                         Standard orientation:
 ---------------------------------------------------------------------
 Center     Atomic      Atomic             Coordinates (Angstroms)
 Number     Number       Type             X           Y           Z
 ---------------------------------------------------------------------
      1          6           0        2.386837   -0.254962   -0.119663
      2          6           0        0.975652    0.022574    0.408452
      3          6           0        0.243275    1.161438   -0.179590
      4          6           0       -1.695028    0.272225    0.240913
      5          8           0       -2.619303   -0.335536   -0.117092
      6          8           0        0.016832   -0.848913   -0.128610
      7          1           0        2.395441   -0.244640   -1.217198
      8          1           0        2.679529   -1.261066    0.211915
      9          1           0        3.121806    0.468880    0.260404
     10          1           0        0.990659    0.051049    1.513050
     11          1           0       -0.093824    2.039225    0.362511
     12          1           0        0.261745    1.214505   -1.265733
 ---------------------------------------------------------------------

 SCF Done:  E(RHF) =  -305.927168788     A.U. after    2 cycles

 The electronic state is 1-A.
 Alpha  occ. eigenvalues --  -21.13548 -20.97661 -11.53449 -11.49973 -11.44003
 Alpha  occ. eigenvalues --  -11.38075  -1.76002  -1.63613  -1.13886  -1.03524
 Alpha  occ. eigenvalues --   -0.84403  -0.74023  -0.68890  -0.61587  -0.58794
 Alpha  occ. eigenvalues --   -0.55536  -0.51504  -0.50746  -0.49750  -0.48091
 Alpha  occ. eigenvalues --   -0.39919  -0.26658  -0.22916
 Alpha virt. eigenvalues --    0.02129   0.04807   0.05066   0.05590   0.06121
 Alpha virt. eigenvalues --    0.06609   0.07374   0.08837   0.11377   0.11824
 Alpha virt. eigenvalues --    0.12528   0.13509   0.14279   0.15074   0.15368

 Mulliken charges:
               1
     1  C   -3.772080
     2  C    0.540503
     3  C   -2.365158
     4  C    1.782770
     5  O   -1.955102
     6  O   -2.206690
     7  H    1.179970
     8  H    1.161403
     9  H    1.194210
    10  H    1.547332
    11  H    1.439751
    12  H    1.453093
 Sum of Mulliken charges =   0.00000

 Dipole moment (field-independent basis, Debye):
    X=              0.5900    Y=              1.4909    Z=             -0.4638  Tot=              1.6691

 Test job not archived.
 1\1\GINC-SE344\SP\RHF\Aug-CC-pVDZ\C4H6O2\OHZDE\09-Apr-2025\0\\#t hf au
 g-cc-pvdz iop(5/13=1,5/36=2,99/5=2) pseudo=read geom=check guess=(read
 ,tcheck) scf=(maxcycle=1)\\title\\0,1\C,0,-1.71577306,-0.04283774,0.20
 194988\C,0,-0.30139803,-0.18814077,-0.36884351\C,0,0.68016991,0.858974
 23,-0.02351085\C,0,2.36604915,-0.49412071,-0.2504124\O,0,3.15451599,-1
 .20372672,0.22561901\O,0,0.4723677,-1.12162679,0.33624611\H,0,-1.67568
 371,0.18746509,1.2743849\H,0,-2.22907733,-1.00714009,0.08154498\H,0,-2
 .29571011,0.7323557,-0.31894044\H,0,-0.35660166,-0.37765851,-1.4561381

 Normal termination of Gaussian 16 at Wed Apr  9 03:15:56 2025.
