 Gaussian 16, Revision C.01,

 ----------------------------------------------------------------------
 #t hf aug-cc-pvdz symm=none int=(grid=ultrafine) guess=(read,tcheck) s
 table=(opt,rrhf)
 ----------------------------------------------------------------------
 -----
 title
 -----
 Symbolic Z-matrix:
 Charge =  0 Multiplicity = 1

 SCF Done:  E(RHF) =  -306.602633782     A.U. after   16 cycles
 Normal termination of Gaussian 16 at Wed Apr  9 03:59:44 2025.
 Gaussian 16:  ES64L-G16RevC.01  3-Jul-2019

 ----------------------------------------------------------------------
 #t hf aug-cc-pvdz iop(5/13=1,5/36=2,99/5=2) pseudo=read geom=check gue
 ss=(read,tcheck) scf=(maxcycle=1)
 ----------------------------------------------------------------------
 -----
 title
 -----
 Structure from the checkpoint file:  "Grambow2020_wb97xd3_008774_reverse_mol2.chk"
 Charge =  0 Multiplicity = 1

                         Standard orientation:
 ---------------------------------------------------------------------
 Center     Atomic      Atomic             Coordinates (Angstroms)
 Number     Number       Type             X           Y           Z
 ---------------------------------------------------------------------
      1          8           0       -2.159937   -0.628104   -0.193678
      2          6           0       -1.048714   -0.249267    0.017244
      3          6           0        0.137112   -1.201782    0.327759
      4          6           0        1.492243   -0.797805   -0.268739
      5          6           0        1.950263    0.664753    0.044204
      6          6           0        0.676830    1.377018   -0.019443
      7          6           0       -0.508325    1.125534    0.045727
      8          1           0        0.200165   -1.250658    1.420697
      9          1           0       -0.152612   -2.192680   -0.023518
     10          1           0        2.259708   -1.484959    0.094794
     11          1           0        1.447182   -0.912362   -1.354318
     12          1           0        2.376403    0.747048    1.046843
     13          1           0        2.703182    0.997969   -0.669069
     14          1           0       -4.066738    2.117490    0.147303
     15          1           0       -3.684250    1.492279    0.006177
 ---------------------------------------------------------------------

 SCF Done:  E(RHF) =  -308.070205609     A.U. after    2 cycles

 The electronic state is 1-A.
 Alpha  occ. eigenvalues --  -21.06705 -11.52683 -11.47800 -11.44330 -11.42240
 Alpha  occ. eigenvalues --  -11.40260 -11.39209  -1.72658  -1.32782  -1.10313
 Alpha  occ. eigenvalues --   -1.09171  -0.89690  -0.82836  -0.69640  -0.66535
 Alpha  occ. eigenvalues --   -0.61533  -0.60131  -0.58384  -0.57689  -0.53448
 Alpha  occ. eigenvalues --   -0.50596  -0.49358  -0.45594  -0.37118  -0.36184
 Alpha  occ. eigenvalues --   -0.30089
 Alpha virt. eigenvalues --    0.02904   0.04577   0.05116   0.05246   0.05675
 Alpha virt. eigenvalues --    0.06180   0.07516   0.08427   0.09886   0.10270
 Alpha virt. eigenvalues --    0.11663   0.11972   0.12303   0.12637   0.13575

 Mulliken charges:
               1
     1  O   -3.419225
     2  C    3.719776
     3  C   -3.698613
     4  C   -2.588371
     5  C   -3.732697
     6  C    2.564879
     7  C   -0.660342
     8  H    1.411374
     9  H    1.334402
    10  H    1.239880
    11  H    1.391848
    12  H    1.209543
    13  H    1.277869
    14  H    0.227103
    15  H   -0.277426
 Sum of Mulliken charges =  -0.00000

 Dipole moment (field-independent basis, Debye):
    X=              3.4710    Y=             -2.0071    Z=              0.2374  Tot=              4.0165

 Test job not archived.
 1\1\GINC-SE261\SP\RHF\Aug-CC-pVDZ\C6H8O1\OHZDE\09-Apr-2025\0\\#t hf au
 g-cc-pvdz iop(5/13=1,5/36=2,99/5=2) pseudo=read geom=check guess=(read
 ,tcheck) scf=(maxcycle=1)\\title\\0,1\O,0,1.21735478,-1.83737342,0.847
 65249\C,0,0.68339938,-0.90509066,0.32942211\C,0,-0.80382442,-0.9076340
 6,-0.11560053\C,0,-1.5622782,0.41194906,0.08146572\C,0,-0.87452811,1.6
 7558615,-0.53254814\C,0,0.53240618,1.38420566,-0.27055685\C,0,1.228838
 89,0.42327715,-0.01820655\H,0,-0.79623441,-1.18938144,-1.17458108\H,0,
 -1.29582316,-1.71390806,0.42944441\H,0,-2.56005072,0.31678429,-0.35296

 Normal termination of Gaussian 16 at Wed Apr  9 03:59:49 2025.
