 Gaussian 16, Revision C.01,

 ----------------------------------------------------------------------
 #t hf aug-cc-pvdz symm=none int=(grid=ultrafine) guess=(read,tcheck) s
 table=(opt,rrhf)
 ----------------------------------------------------------------------
 -----
 title
 -----
 Symbolic Z-matrix:
 Charge =  0 Multiplicity = 1

 SCF Done:  E(RHF) =  -286.694344197     A.U. after   15 cycles
 Normal termination of Gaussian 16 at Wed Apr  9 18:46:47 2025.
 Gaussian 16:  ES64L-G16RevC.01  3-Jul-2019

 ----------------------------------------------------------------------
 #t hf aug-cc-pvdz iop(5/13=1,5/36=2,99/5=2) pseudo=read geom=check gue
 ss=(read,tcheck) scf=(maxcycle=1)
 ----------------------------------------------------------------------
 -----
 title
 -----
 Structure from the checkpoint file:  "Grambow2020_wb97xd3_007641_reverse_mol1.chk"
 Charge =  0 Multiplicity = 1

                         Standard orientation:
 ---------------------------------------------------------------------
 Center     Atomic      Atomic             Coordinates (Angstroms)
 Number     Number       Type             X           Y           Z
 ---------------------------------------------------------------------
      1          6           0        1.798617   -1.046277    0.053646
      2          6           0        0.672929   -0.086136   -0.094875
      3          6           0        0.579976    1.213022   -0.807530
      4          6           0        0.299043    1.144774    0.649537
      5          6           0       -0.662449    0.032127    0.779989
      6          7           0       -1.909196   -0.080797    0.082509
      7          6           0       -1.221449   -1.012542   -0.730378
      8          1           0        1.755707   -1.551950    1.020680
      9          1           0        2.759376   -0.531927   -0.020806
     10          1           0        1.756045   -1.806014   -0.728666
     11          1           0        1.528757    1.666627   -1.074103
     12          1           0       -0.214908    1.377449   -1.530721
     13          1           0        0.810932    1.613069    1.474277
     14          1           0       -0.621344   -0.529088    1.707260
     15          1           0       -2.116307    0.766162   -0.435139
     16          1           0       -1.093899   -1.908559   -0.092674
 ---------------------------------------------------------------------

 SCF Done:  E(RHF) =  -288.093051072     A.U. after    2 cycles

 The electronic state is 1-A.
 Alpha  occ. eigenvalues --  -15.74006 -11.50523 -11.45539 -11.44192 -11.40749
 Alpha  occ. eigenvalues --  -11.40136 -11.39005  -1.51310  -1.31917  -1.07708
 Alpha  occ. eigenvalues --   -0.99400  -0.88333  -0.81342  -0.79388  -0.69764
 Alpha  occ. eigenvalues --   -0.63780  -0.59561  -0.57203  -0.55977  -0.53923
 Alpha  occ. eigenvalues --   -0.52924  -0.46409  -0.42769  -0.41464  -0.32274
 Alpha  occ. eigenvalues --   -0.28601
 Alpha virt. eigenvalues --    0.03650   0.04823   0.04948   0.05355   0.06207
 Alpha virt. eigenvalues --    0.06406   0.06539   0.07020   0.08267   0.09935
 Alpha virt. eigenvalues --    0.12050   0.12094   0.12659   0.13098   0.13487

 Mulliken charges:
               1
     1  C   -5.101403
     2  C    1.616903
     3  C   -3.185503
     4  C   -0.326805
     5  C   -0.037558
     6  N   -2.478565
     7  C   -1.438993
     8  H    1.227403
     9  H    1.117012
    10  H    1.356241
    11  H    1.404513
    12  H    1.141063
    13  H    1.371395
    14  H    1.513631
    15  H    0.533189
    16  H    1.287477
 Sum of Mulliken charges =  -0.00000

 Dipole moment (field-independent basis, Debye):
    X=              1.9463    Y=              1.2941    Z=              1.8820  Tot=              3.0008

 Test job not archived.
 1\1\GINC-SE232\SP\RHF\Aug-CC-pVDZ\C6H9N1\OHZDE\09-Apr-2025\0\\#t hf au
 g-cc-pvdz iop(5/13=1,5/36=2,99/5=2) pseudo=read geom=check guess=(read
 ,tcheck) scf=(maxcycle=1)\\title\\0,1\C,0,1.38765118,-0.50338938,1.098
 29128\C,0,0.42251685,0.00719503,0.08887429\C,0,0.62850686,0.78488093,-
 1.15896502\C,0,-0.24512238,1.32365341,-0.08512896\C,0,-1.15934829,0.20
 815717,0.23003311\N,0,-1.98948637,-0.48319456,-0.71151481\C,0,-1.01174
 61,-1.50252509,-0.62833931\H,0,0.94239848,-0.51119431,2.09548245\H,0,2
 .28346041,0.12091186,1.1287933\H,0,1.68979631,-1.52313809,0.85365753\H

 Normal termination of Gaussian 16 at Wed Apr  9 18:46:53 2025.
