 Gaussian 16, Revision C.01,

 ----------------------------------------------------------------------
 #t hf aug-cc-pvdz symm=none int=(grid=ultrafine) guess=(read,tcheck) s
 table=(opt,rrhf)
 ----------------------------------------------------------------------
 -----
 title
 -----
 Symbolic Z-matrix:
 Charge =  0 Multiplicity = 1

 SCF Done:  E(RHF) =  -342.411024553     A.U. after   17 cycles
 Normal termination of Gaussian 16 at Wed Apr  9 03:59:39 2025.
 Gaussian 16:  ES64L-G16RevC.01  3-Jul-2019

 ----------------------------------------------------------------------
 #t hf aug-cc-pvdz iop(5/13=1,5/36=2,99/5=2) pseudo=read geom=check gue
 ss=(read,tcheck) scf=(maxcycle=1)
 ----------------------------------------------------------------------
 -----
 title
 -----
 Structure from the checkpoint file:  "Grambow2020_wb97xd3_008764_reverse_mol2.chk"
 Charge =  0 Multiplicity = 1

                         Standard orientation:
 ---------------------------------------------------------------------
 Center     Atomic      Atomic             Coordinates (Angstroms)
 Number     Number       Type             X           Y           Z
 ---------------------------------------------------------------------
      1          8           0       -2.582308   -0.842441   -0.228222
      2          6           0       -1.625235   -0.374218    0.321155
      3          6           0       -0.782656    0.688624   -0.303135
      4          8           0        0.107276    1.376094    0.559714
      5          6           0        2.885022   -0.728570    0.084526
      6          6           0        1.441061   -0.668566    0.095467
      7          6           0        0.678807    0.531789   -0.411190
      8          1           0       -1.310547   -0.699353    1.332641
      9          1           0       -1.295238    1.293279   -1.046707
     10          1           0        3.229316    0.008584   -0.670006
     11          1           0        1.466017   -1.467826   -0.703340
     12          1           0        0.967664   -1.154606    0.950386
     13          1           0        1.161046    1.056341   -1.235849
 ---------------------------------------------------------------------

 SCF Done:  E(RHF) =  -343.902177533     A.U. after    2 cycles

 The electronic state is 1-A.
 Alpha  occ. eigenvalues --  -21.09946 -21.08616 -11.55742 -11.50588 -11.46529
 Alpha  occ. eigenvalues --  -11.44146 -11.41725  -1.83639  -1.72879  -1.22393
 Alpha  occ. eigenvalues --   -1.05982  -0.95571  -0.86101  -0.81193  -0.70232
 Alpha  occ. eigenvalues --   -0.67746  -0.61789  -0.58458  -0.54559  -0.53429
 Alpha  occ. eigenvalues --   -0.49616  -0.46711  -0.40005  -0.35588  -0.33571
 Alpha  occ. eigenvalues --   -0.31034
 Alpha virt. eigenvalues --    0.03393   0.04998   0.05219   0.05645   0.05961
 Alpha virt. eigenvalues --    0.06605   0.07045   0.09112   0.10467   0.11193
 Alpha virt. eigenvalues --    0.12071   0.12755   0.13057   0.13763   0.14300

 Mulliken charges:
               1
     1  O   -2.903794
     2  C    1.090274
     3  C    0.106423
     4  O   -2.871680
     5  C   -2.787019
     6  C   -2.040212
     7  C    1.009147
     8  H    1.417811
     9  H    1.394993
    10  H    1.185042
    11  H    1.515479
    12  H    1.467221
    13  H    1.416315
 Sum of Mulliken charges =   0.00000

 Dipole moment (field-independent basis, Debye):
    X=             -0.4234    Y=              1.4257    Z=             -0.8969  Tot=              1.7368

 Test job not archived.
 1\1\GINC-SE090\SP\RHF\Aug-CC-pVDZ\C5H6O2\OHZDE\09-Apr-2025\0\\#t hf au
 g-cc-pvdz iop(5/13=1,5/36=2,99/5=2) pseudo=read geom=check guess=(read
 ,tcheck) scf=(maxcycle=1)\\title\\0,1\O,0,1.83058042,2.07196104,-1.207
 07895\C,0,1.58189548,1.18194286,-0.44349513\C,0,1.02917712,-0.12990205
 ,-0.89391364\O,0,1.08233661,-1.19201133,0.04321007\C,0,-2.08178624,-0.
 65852976,1.48369994\C,0,-0.96395349,-0.01995763,0.82687431\C,0,-0.1909
 184,-0.68822716,-0.28416845\H,0,1.75386022,1.27773783,0.64696216\H,0,1
 .25694596,-0.38628113,-1.92524215\H,0,-2.45437988,-1.44110876,0.790882

 Normal termination of Gaussian 16 at Wed Apr  9 03:59:42 2025.
