 Gaussian 16, Revision C.01,

 ----------------------------------------------------------------------
 #t hf aug-cc-pvdz symm=none int=(grid=ultrafine) guess=(read,tcheck) s
 table=(opt,rrhf)
 ----------------------------------------------------------------------
 -----
 title
 -----
 Symbolic Z-matrix:
 Charge =  0 Multiplicity = 1

 SCF Done:  E(RHF) =  -304.628601238     A.U. after   13 cycles
 Normal termination of Gaussian 16 at Wed Apr  9 03:14:21 2025.
 Gaussian 16:  ES64L-G16RevC.01  3-Jul-2019

 ----------------------------------------------------------------------
 #t hf aug-cc-pvdz iop(5/13=1,5/36=2,99/5=2) pseudo=read geom=check gue
 ss=(read,tcheck) scf=(maxcycle=1)
 ----------------------------------------------------------------------
 -----
 title
 -----
 Structure from the checkpoint file:  "Grambow2020_b97d3_006923_forward_mol2.chk"
 Charge =  0 Multiplicity = 1

                         Standard orientation:
 ---------------------------------------------------------------------
 Center     Atomic      Atomic             Coordinates (Angstroms)
 Number     Number       Type             X           Y           Z
 ---------------------------------------------------------------------
      1          8           0       -1.792825   -0.494814   -0.333477
      2          6           0       -0.525755   -0.114042    0.092427
      3          6           0       -0.169261    1.280363    0.569948
      4          6           0        0.520374    0.687449   -0.634284
      5          8           0        1.586805   -0.191530   -0.230658
      6          6           0        0.614533   -1.085927    0.403913
      7          1           0       -2.395571   -0.409215    0.429833
      8          1           0       -0.927740    2.027812    0.330779
      9          1           0        0.392130    1.446017    1.492395
     10          1           0        0.558356    1.132595   -1.627350
     11          1           0        0.858487   -1.289219    1.458012
     12          1           0        0.523157   -2.024293   -0.162621
 ---------------------------------------------------------------------

 SCF Done:  E(RHF) =  -305.986041765     A.U. after    2 cycles

 The electronic state is 1-A.
 Alpha  occ. eigenvalues --  -21.09478 -21.04420 -11.47124 -11.46731 -11.42799
 Alpha  occ. eigenvalues --  -11.38534  -1.79181  -1.70936  -1.22898  -1.01286
 Alpha  occ. eigenvalues --   -0.87345  -0.78115  -0.69506  -0.64041  -0.61904
 Alpha  occ. eigenvalues --   -0.57297  -0.53361  -0.49767  -0.45126  -0.40140
 Alpha  occ. eigenvalues --   -0.34852  -0.32931  -0.27320
 Alpha virt. eigenvalues --    0.03729   0.05033   0.05358   0.06000   0.06481
 Alpha virt. eigenvalues --    0.06605   0.09914   0.10657   0.11047   0.13517
 Alpha virt. eigenvalues --    0.13641   0.14451   0.15021   0.15307   0.15551

 Mulliken charges:
               1
     1  O   -3.482470
     2  C    3.077257
     3  C   -3.285646
     4  C    1.230866
     5  O   -2.932513
     6  C   -1.794093
     7  H    0.566538
     8  H    1.323775
     9  H    1.271206
    10  H    1.290523
    11  H    1.422765
    12  H    1.311791
 Sum of Mulliken charges =   0.00000

 Dipole moment (field-independent basis, Debye):
    X=             -0.8070    Y=              0.3266    Z=              0.4951  Tot=              1.0015

 Test job not archived.
 1\1\GINC-SE120\SP\RHF\Aug-CC-pVDZ\C4H6O2\OHZDE\09-Apr-2025\0\\#t hf au
 g-cc-pvdz iop(5/13=1,5/36=2,99/5=2) pseudo=read geom=check guess=(read
 ,tcheck) scf=(maxcycle=1)\\title\\0,1\O,0,0.10812697,-1.37634549,-1.28
 439246\C,0,0.07357987,-0.40914075,-0.28681108\C,0,-1.15616872,-0.07422
 045,0.53478737\C,0,-0.50603693,0.97909316,-0.32844799\O,0,0.6295719,1.
 55816876,0.34077447\C,0,1.31000201,0.26032364,0.31727497\H,0,-0.062531
 67,-2.23925798,-0.86068097\H,0,-2.07872643,-0.48660328,0.12247684\H,0,
 -1.11445843,0.01164031,1.623088\H,0,-1.00113621,1.55443519,-1.10923988

 Normal termination of Gaussian 16 at Wed Apr  9 03:14:25 2025.
