 Gaussian 16, Revision C.01,

 ----------------------------------------------------------------------
 #t hf aug-cc-pvdz symm=none int=(grid=ultrafine) guess=(read,tcheck) s
 table=(opt,rrhf)
 ----------------------------------------------------------------------
 -----
 title
 -----
 Symbolic Z-matrix:
 Charge =  0 Multiplicity = 1

 SCF Done:  E(RHF) =  -380.624440645     A.U. after   15 cycles
 Normal termination of Gaussian 16 at Wed Apr  9 19:15:04 2025.
 Gaussian 16:  ES64L-G16RevC.01  3-Jul-2019

 ----------------------------------------------------------------------
 #t hf aug-cc-pvdz iop(5/13=1,5/36=2,99/5=2) pseudo=read geom=check gue
 ss=(read,tcheck) scf=(maxcycle=1)
 ----------------------------------------------------------------------
 -----
 title
 -----
 Structure from the checkpoint file:  "Grambow2020_wb97xd3_008490_forward_mol1.chk"
 Charge =  0 Multiplicity = 1

                         Standard orientation:
 ---------------------------------------------------------------------
 Center     Atomic      Atomic             Coordinates (Angstroms)
 Number     Number       Type             X           Y           Z
 ---------------------------------------------------------------------
      1          6           0       -2.519946   -0.715428   -0.467019
      2          8           0       -1.538532   -0.572334    0.549231
      3          6           0       -0.461230    0.644982    0.241406
      4          8           0       -0.858496    1.578126   -0.347936
      5          6           0        0.672846   -0.086059    0.624254
      6          6           0        2.024390    0.316526    0.120764
      7          8           0        2.618810   -0.809110   -0.513023
      8          1           0       -2.071495   -1.072820   -1.398667
      9          1           0       -3.265549   -1.428398   -0.118880
     10          1           0       -2.987208    0.253627   -0.645785
     11          1           0        0.607622   -0.508077    1.623988
     12          1           0       -0.441494   -1.014938    0.330062
     13          1           0        1.914200    1.147352   -0.586522
     14          1           0        2.661380    0.662822    0.943831
     15          1           0        3.511931   -0.573152   -0.770636
 ---------------------------------------------------------------------

 SCF Done:  E(RHF) =  -382.338480572     A.U. after    2 cycles

 The electronic state is 1-A.
 Alpha  occ. eigenvalues --  -21.09075 -21.08294 -21.06551 -11.56488 -11.44312
 Alpha  occ. eigenvalues --  -11.41863 -11.37679  -1.81992  -1.70898  -1.70310
 Alpha  occ. eigenvalues --   -1.17117  -1.01801  -0.91841  -0.73861  -0.67746
 Alpha  occ. eigenvalues --   -0.66807  -0.65304  -0.60861  -0.60734  -0.55848
 Alpha  occ. eigenvalues --   -0.52350  -0.49465  -0.48534  -0.41598  -0.41131
 Alpha  occ. eigenvalues --   -0.31788  -0.30144  -0.27151
 Alpha virt. eigenvalues --    0.03415   0.05058   0.05524   0.05930   0.06412
 Alpha virt. eigenvalues --    0.06535   0.07161   0.08395   0.09737   0.11987
 Alpha virt. eigenvalues --    0.12538   0.13362   0.13846   0.14474   0.15027

 Mulliken charges:
               1
     1  C   -2.762865
     2  O   -2.909838
     3  C    4.566079
     4  O   -3.144820
     5  C   -2.760200
     6  C   -0.884640
     7  O   -2.522893
     8  H    1.316708
     9  H    1.258510
    10  H    1.391454
    11  H    1.266502
    12  H    1.882220
    13  H    1.237552
    14  H    1.251268
    15  H    0.814961
 Sum of Mulliken charges =  -0.00000

 Dipole moment (field-independent basis, Debye):
    X=             -1.5520    Y=             -0.3256    Z=             -0.0533  Tot=              1.5866

 Test job not archived.
 1\1\GINC-SE037\SP\RHF\Aug-CC-pVDZ\C4H8O3\OHZDE\09-Apr-2025\0\\#t hf au
 g-cc-pvdz iop(5/13=1,5/36=2,99/5=2) pseudo=read geom=check guess=(read
 ,tcheck) scf=(maxcycle=1)\\title\\0,1\C,0,-2.57169484,-0.47353262,-0.0
 3109169\O,0,-1.55044239,0.27368492,0.61320769\C,0,-0.35972473,0.769226
 7,-0.42304746\O,0,-0.67322981,1.00608775,-1.52826804\C,0,0.70132393,0.
 44835219,0.43621818\C,0,2.07218076,0.22456703,-0.12317378\O,0,2.524313
 1,-1.05538572,0.30035174\H,0,-2.19203092,-1.43857542,-0.3794514\H,0,-3
 .37796303,-0.63020329,0.68363712\H,0,-2.93857525,0.09444017,-0.8867578

 Normal termination of Gaussian 16 at Wed Apr  9 19:15:08 2025.
