 Gaussian 16, Revision C.01,

 ----------------------------------------------------------------------
 #t hf aug-cc-pvdz symm=none int=(grid=ultrafine) guess=(read,tcheck) s
 table=(opt,rrhf)
 ----------------------------------------------------------------------
 -----
 title
 -----
 Symbolic Z-matrix:
 Charge =  0 Multiplicity = 1

 SCF Done:  E(RHF) =  -231.731726264     A.U. after   14 cycles
 Normal termination of Gaussian 16 at Wed Apr  9 16:57:11 2025.
 Gaussian 16:  ES64L-G16RevC.01  3-Jul-2019

 ----------------------------------------------------------------------
 #t hf aug-cc-pvdz iop(5/13=1,5/36=2,99/5=2) pseudo=read geom=check gue
 ss=(read,tcheck) scf=(maxcycle=1)
 ----------------------------------------------------------------------
 -----
 title
 -----
 Structure from the checkpoint file:  "Grambow2020_b97d3_006877_reverse_mol2.chk"
 Charge =  0 Multiplicity = 1

                         Standard orientation:
 ---------------------------------------------------------------------
 Center     Atomic      Atomic             Coordinates (Angstroms)
 Number     Number       Type             X           Y           Z
 ---------------------------------------------------------------------
      1          6           0        1.046550    0.000113    0.792615
      2          6           0        0.342530   -1.068652   -0.190034
      3          6           0       -1.156850   -0.780635    0.047420
      4          6           0       -1.156615    0.780544    0.048106
      5          6           0        0.342731    1.068432   -0.190992
      6          6           0        1.013921   -0.000288   -0.951018
      7          1           0        2.118623   -0.000198    0.980644
      8          1           0        0.474113    0.001318    1.723793
      9          1           0        0.695673   -2.101562   -0.231331
     10          1           0       -1.537486   -1.207685    0.986457
     11          1           0       -1.752613    1.198421   -0.774104
     12          1           0       -1.535997    1.207567    0.987715
     13          1           0        0.696054    2.101406   -0.233320
     14          1           0       -1.751970   -1.196348   -0.776438
 ---------------------------------------------------------------------

 SCF Done:  E(RHF) =  -232.888893355     A.U. after    2 cycles

 The electronic state is 1-A.
 Alpha  occ. eigenvalues --  -11.48983 -11.43862 -11.40894 -11.40214 -11.37802
 Alpha  occ. eigenvalues --  -11.36021  -1.44289  -1.09333  -1.01568  -0.89305
 Alpha  occ. eigenvalues --   -0.82481  -0.74092  -0.70731  -0.62795  -0.53121
 Alpha  occ. eigenvalues --   -0.52978  -0.50654  -0.48224  -0.45512  -0.45182
 Alpha  occ. eigenvalues --   -0.38404  -0.30066
 Alpha virt. eigenvalues --    0.04047   0.05205   0.05313   0.05442   0.05863
 Alpha virt. eigenvalues --    0.05979   0.06325   0.06658   0.09641   0.12045
 Alpha virt. eigenvalues --    0.12455   0.12555   0.14050   0.14487   0.14916

 Mulliken charges:
               1
     1  C   -2.031262
     2  C   -1.171850
     3  C   -3.063210
     4  C   -3.057924
     5  C   -1.171205
     6  C   -0.380471
     7  H    1.140889
     8  H    1.367066
     9  H    1.570508
    10  H    1.295980
    11  H    1.317538
    12  H    1.295647
    13  H    1.569972
    14  H    1.318324
 Sum of Mulliken charges =   0.00000

 Dipole moment (field-independent basis, Debye):
    X=             -1.7927    Y=              0.0013    Z=              2.1207  Tot=              2.7769

 Test job not archived.
 1\1\GINC-SE041\SP\RHF\Aug-CC-pVDZ\C6H8\OHZDE\09-Apr-2025\0\\#t hf aug-
 cc-pvdz iop(5/13=1,5/36=2,99/5=2) pseudo=read geom=check guess=(read,t
 check) scf=(maxcycle=1)\\title\\0,1\C,0,-1.13364095,-0.11951968,0.7108
 3406\C,0,-0.52842231,1.0773173,-0.1862695\C,0,0.99206951,0.83355963,-0
 .05913334\C,0,1.05300533,-0.71743893,-0.22638123\C,0,-0.44499424,-1.04
 562503,-0.41710393\C,0,-1.19922128,0.06593715,-1.0219746\H,0,-2.192623
 37,-0.18717786,0.95306195\H,0,-0.51010433,-0.19304249,1.60558193\H,0,-
 0.92350418,2.09191772,-0.09787269\H,0,1.40792986,1.17603026,0.89941797

 Normal termination of Gaussian 16 at Wed Apr  9 16:57:17 2025.
