 Gaussian 16, Revision C.01,

 ----------------------------------------------------------------------
 #t hf aug-cc-pvdz symm=none int=(grid=ultrafine) guess=(read,tcheck) s
 table=(opt,rrhf)
 ----------------------------------------------------------------------
 -----
 title
 -----
 Symbolic Z-matrix:
 Charge =  0 Multiplicity = 1

 SCF Done:  E(RHF) =  -322.711473514     A.U. after   15 cycles
 Normal termination of Gaussian 16 at Wed Apr  9 18:26:24 2025.
 Gaussian 16:  ES64L-G16RevC.01  3-Jul-2019

 ----------------------------------------------------------------------
 #t hf aug-cc-pvdz iop(5/13=1,5/36=2,99/5=2) pseudo=read geom=check gue
 ss=(read,tcheck) scf=(maxcycle=1)
 ----------------------------------------------------------------------
 -----
 title
 -----
 Structure from the checkpoint file:  "Grambow2020_wb97xd3_007131_reverse_mol2.chk"
 Charge =  0 Multiplicity = 1

                         Standard orientation:
 ---------------------------------------------------------------------
 Center     Atomic      Atomic             Coordinates (Angstroms)
 Number     Number       Type             X           Y           Z
 ---------------------------------------------------------------------
      1          7           0        1.717589    1.640427   -0.279455
      2          6           0        1.623996    0.505224   -0.103251
      3          8           0        1.547305   -0.758969    0.096739
      4          6           0        0.225061   -1.226496    0.543773
      5          6           0       -0.806923   -1.023257   -0.508968
      6          6           0       -1.929450    1.026347    0.491254
      7          6           0       -1.718453   -0.055353   -0.515941
      8          1           0       -1.804684    1.999529    0.011789
      9          1           0       -0.004874   -0.712602    1.476152
     10          1           0        0.398782   -2.280199    0.748992
     11          1           0       -0.773107   -1.716634   -1.342510
     12          1           0       -1.235374    0.984700    1.328664
     13          1           0       -2.949171    0.986695    0.881603
     14          1           0       -2.398522   -0.031517   -1.363628
 ---------------------------------------------------------------------

 SCF Done:  E(RHF) =  -324.184176638     A.U. after    2 cycles

 The electronic state is 1-A.
 Alpha  occ. eigenvalues --  -21.14077 -15.74358 -11.49124 -11.47441 -11.45768
 Alpha  occ. eigenvalues --  -11.40989 -11.38502  -1.84413  -1.28505  -1.24409
 Alpha  occ. eigenvalues --   -1.08384  -0.97113  -0.79217  -0.74094  -0.67211
 Alpha  occ. eigenvalues --   -0.63569  -0.62353  -0.57972  -0.55079  -0.54042
 Alpha  occ. eigenvalues --   -0.51682  -0.49610  -0.48073  -0.40558  -0.35637
 Alpha  occ. eigenvalues --   -0.33327
 Alpha virt. eigenvalues --    0.02982   0.04749   0.05170   0.05222   0.05833
 Alpha virt. eigenvalues --    0.06788   0.08415   0.08858   0.10559   0.11697
 Alpha virt. eigenvalues --    0.12168   0.12675   0.13136   0.13457   0.13678

 Mulliken charges:
               1
     1  N   -2.676062
     2  C    4.093125
     3  O   -2.619078
     4  C   -2.463530
     5  C   -1.133504
     6  C   -4.409100
     7  C   -0.207824
     8  H    1.168271
     9  H    1.632268
    10  H    1.241201
    11  H    1.400405
    12  H    1.422521
    13  H    1.161856
    14  H    1.389452
 Sum of Mulliken charges =   0.00000

 Dipole moment (field-independent basis, Debye):
    X=             -2.4356    Y=             -3.0087    Z=              0.8273  Tot=              3.9584

 Test job not archived.
 1\1\GINC-SE114\SP\RHF\Aug-CC-pVDZ\C5H7N1O1\OHZDE\09-Apr-2025\0\\#t hf
 aug-cc-pvdz iop(5/13=1,5/36=2,99/5=2) pseudo=read geom=check guess=(re
 ad,tcheck) scf=(maxcycle=1)\\title\\0,1\N,0,2.644295,-1.06187886,-0.18
 016716\C,0,2.24699646,0.02008245,-0.18276884\O,0,1.83116574,1.2329853,
 -0.18612556\C,0,0.46471484,1.40768822,-0.7048189\C,0,-0.53795827,0.746
 19942,0.17361107\C,0,-0.96611858,-1.30494949,-1.26543533\C,0,-1.138107
 2,-0.41260701,-0.08087537\H,0,-0.60545827,-2.28166981,-0.93607507\H,0,
 0.45346932,1.03365139,-1.72768567\H,0,0.34819796,2.48881969,-0.7175068

 Normal termination of Gaussian 16 at Wed Apr  9 18:26:28 2025.
