 Gaussian 16, Revision C.01,

 ----------------------------------------------------------------------
 #t hf aug-cc-pvdz symm=none int=(grid=ultrafine) guess=(read,tcheck) s
 table=(opt,rrhf)
 ----------------------------------------------------------------------
 -----
 title
 -----
 Symbolic Z-matrix:
 Charge =  0 Multiplicity = 1

 SCF Done:  E(RHF) =  -342.439921455     A.U. after   16 cycles
 Normal termination of Gaussian 16 at Wed Apr  9 03:59:40 2025.
 Gaussian 16:  ES64L-G16RevC.01  3-Jul-2019

 ----------------------------------------------------------------------
 #t hf aug-cc-pvdz iop(5/13=1,5/36=2,99/5=2) pseudo=read geom=check gue
 ss=(read,tcheck) scf=(maxcycle=1)
 ----------------------------------------------------------------------
 -----
 title
 -----
 Structure from the checkpoint file:  "Grambow2020_wb97xd3_008771_reverse_mol2.chk"
 Charge =  0 Multiplicity = 1

                         Standard orientation:
 ---------------------------------------------------------------------
 Center     Atomic      Atomic             Coordinates (Angstroms)
 Number     Number       Type             X           Y           Z
 ---------------------------------------------------------------------
      1          8           0       -2.566900    0.082193   -0.244414
      2          6           0       -1.408452   -0.188784   -0.401400
      3          6           0        0.665851   -1.117259    0.512957
      4          8           0        1.577031   -0.674594   -0.340799
      5          6           0        1.516212    0.606731   -0.572680
      6          6           0        0.544207    1.205398    0.386830
      7          6           0       -0.343032   -0.020278    0.677996
      8          1           0       -1.047804   -0.630959   -1.354923
      9          1           0        0.517003   -2.185409    0.511470
     10          1           0        2.366410    1.041794   -1.072207
     11          1           0        1.077926    1.497446    1.309425
     12          1           0       -0.006766    2.069122    0.019751
     13          1           0       -0.836529    0.032359    1.645975
 ---------------------------------------------------------------------

 SCF Done:  E(RHF) =  -343.990503787     A.U. after    2 cycles

 The electronic state is 1-A.
 Alpha  occ. eigenvalues --  -21.20183 -21.06493 -11.48412 -11.47536 -11.44453
 Alpha  occ. eigenvalues --  -11.42716 -11.38876  -1.90902  -1.71146  -1.24359
 Alpha  occ. eigenvalues --   -1.08931  -0.92319  -0.81951  -0.81014  -0.75960
 Alpha  occ. eigenvalues --   -0.66579  -0.60419  -0.58273  -0.54203  -0.52840
 Alpha  occ. eigenvalues --   -0.51357  -0.50207  -0.45434  -0.41362  -0.30973
 Alpha  occ. eigenvalues --   -0.24898
 Alpha virt. eigenvalues --    0.03379   0.04813   0.04934   0.06057   0.06410
 Alpha virt. eigenvalues --    0.06803   0.09457   0.09974   0.10509   0.11011
 Alpha virt. eigenvalues --    0.12625   0.12984   0.13651   0.14133   0.14550

 Mulliken charges:
               1
     1  O   -2.893213
     2  C    1.820150
     3  C    0.548621
     4  O   -3.368926
     5  C    0.710124
     6  C   -3.111369
     7  C   -2.568145
     8  H    1.372275
     9  H    1.594972
    10  H    1.603687
    11  H    1.262334
    12  H    1.541087
    13  H    1.488403
 Sum of Mulliken charges =   0.00000

 Dipole moment (field-independent basis, Debye):
    X=              1.5148    Y=              0.4326    Z=              0.0305  Tot=              1.5757

 Test job not archived.
 1\1\GINC-SE015\SP\RHF\Aug-CC-pVDZ\C5H6O2\OHZDE\09-Apr-2025\0\\#t hf au
 g-cc-pvdz iop(5/13=1,5/36=2,99/5=2) pseudo=read geom=check guess=(read
 ,tcheck) scf=(maxcycle=1)\\title\\0,1\O,0,1.40584333,2.2649474,-0.6757
 4926\C,0,1.18495656,1.147711,-0.29750618\C,0,0.37424715,-1.10904069,-0
 .79817138\O,0,0.19373639,-1.62171208,0.41000283\C,0,-0.5080464,-0.8703
 8676,1.21142221\C,0,-1.06893438,0.2587605,0.41500082\C,0,-0.03264978,0
 .33221851,-0.72296656\H,0,1.89926334,0.616476,0.36758653\H,0,1.1615680
 1,-1.56554467,-1.37681861\H,0,-0.86905977,-1.34048178,2.11160123\H,0,-

 Normal termination of Gaussian 16 at Wed Apr  9 03:59:44 2025.
