 Gaussian 16, Revision C.01,

 ----------------------------------------------------------------------
 #t hf aug-cc-pvdz symm=none int=(grid=ultrafine) guess=(read,tcheck) s
 table=(opt,rrhf)
 ----------------------------------------------------------------------
 -----
 title
 -----
 Symbolic Z-matrix:
 Charge =  0 Multiplicity = 1

 SCF Done:  E(RHF) =  -305.300692113     A.U. after   17 cycles
 Normal termination of Gaussian 16 at Wed Apr  9 03:52:35 2025.
 Gaussian 16:  ES64L-G16RevC.01  3-Jul-2019

 ----------------------------------------------------------------------
 #t hf aug-cc-pvdz iop(5/13=1,5/36=2,99/5=2) pseudo=read geom=check gue
 ss=(read,tcheck) scf=(maxcycle=1)
 ----------------------------------------------------------------------
 -----
 title
 -----
 Structure from the checkpoint file:  "Grambow2020_wb97xd3_008355_reverse_mol1.chk"
 Charge =  0 Multiplicity = 1

                         Standard orientation:
 ---------------------------------------------------------------------
 Center     Atomic      Atomic             Coordinates (Angstroms)
 Number     Number       Type             X           Y           Z
 ---------------------------------------------------------------------
      1          6           0        3.181445    0.102277   -0.001150
      2          6           0        1.994725   -0.093990    0.000810
      3          6           0        0.615474   -0.213964    0.001402
      4          6           0       -0.341947   -1.037120    0.000480
      5          6           0       -1.701479   -1.291991   -0.000192
      6          8           0       -1.983009    0.963622   -0.002348
      7          6           0       -0.852155    1.468930    0.001468
      8          1           0        4.233842    0.259987   -0.003938
      9          1           0       -0.521569   -2.250163    0.000044
     10          1           0       -2.206942   -1.509170   -0.934034
     11          1           0       -2.207404   -1.510834    0.933055
     12          1           0       -0.408311    1.847294    0.933887
     13          1           0       -0.401919    1.849058   -0.927147
 ---------------------------------------------------------------------

 SCF Done:  E(RHF) =  -306.724599579     A.U. after    2 cycles

 The electronic state is 1-A.
 Alpha  occ. eigenvalues --  -21.01827 -11.52366 -11.47016 -11.45259 -11.44610
 Alpha  occ. eigenvalues --  -11.42066 -11.41144  -1.67206  -1.26566  -1.13559
 Alpha  occ. eigenvalues --   -1.00462  -0.87777  -0.82288  -0.72802  -0.67017
 Alpha  occ. eigenvalues --   -0.65810  -0.63000  -0.59819  -0.49501  -0.45591
 Alpha  occ. eigenvalues --   -0.43459  -0.39187  -0.33018  -0.27431  -0.27024
 Alpha virt. eigenvalues --    0.02863   0.04530   0.05142   0.05500   0.06527
 Alpha virt. eigenvalues --    0.07363   0.07778   0.09280   0.09825   0.10177
 Alpha virt. eigenvalues --    0.11666   0.12310   0.12859   0.13295   0.14043

 Mulliken charges:
               1
     1  C   -5.001872
     2  C    3.310611
     3  C   -0.825681
     4  C    3.218338
     5  C   -3.744471
     6  O   -2.544529
     7  C   -0.626176
     8  H    0.533721
     9  H    1.236129
    10  H    0.956509
    11  H    0.956109
    12  H    1.265220
    13  H    1.266092
 Sum of Mulliken charges =   0.00000

 Dipole moment (field-independent basis, Debye):
    X=             -1.1525    Y=             -2.3186    Z=             -0.0021  Tot=              2.5892

 Test job not archived.
 1\1\GINC-SE462\SP\RHF\Aug-CC-pVDZ\C6H6O1\OHZDE\09-Apr-2025\0\\#t hf au
 g-cc-pvdz iop(5/13=1,5/36=2,99/5=2) pseudo=read geom=check guess=(read
 ,tcheck) scf=(maxcycle=1)\\title\\0,1\C,0,3.1907106,-0.27541028,0.6509
 1892\C,0,2.02195276,-0.05288863,0.47395516\C,0,0.6596768,0.09816224,0.
 27871938\C,0,-0.26097162,0.94013455,0.08447833\C,0,-1.5992905,1.225215
 47,-0.11780992\O,0,-1.95520347,-1.01501936,0.0295935\C,0,-0.85154197,-
 1.54459527,0.21843836\H,0,4.22759664,-0.4563776,0.80756411\H,0,-0.3977
 2555,2.15262488,-0.03759768\H,0,-2.21564849,1.5324549,0.71910516\H,0,-

 Normal termination of Gaussian 16 at Wed Apr  9 03:52:39 2025.
