 Gaussian 16, Revision C.01,

 ----------------------------------------------------------------------
 #t hf aug-cc-pvdz symm=none int=(grid=ultrafine) guess=(read,tcheck) s
 table=(opt,rrhf)
 ----------------------------------------------------------------------
 -----
 title
 -----
 Symbolic Z-matrix:
 Charge =  0 Multiplicity = 1

 SCF Done:  E(RHF) =  -309.059476620     A.U. after   12 cycles

 1\1\GINC-SE103\Stability\RHF\Aug-CC-pVDZ\C6H12O1\OHZDE\09-Apr-2025\0\\
 #t hf aug-cc-pvdz symm=none int=(grid=ultrafine) guess=(read,tcheck) s
 table=(opt,rrhf)\\title\\0,1\C,0,3.20994267,0.65150146,-0.26482607\C,0
 ,1.94329483,-0.15135011,-0.29511878\O,0,1.38228296,-0.50664161,0.96269
 67\C,0,0.65520838,0.38909221,0.12767551\C,0,-0.65882825,-0.10613709,-0
 .40495683\C,0,-1.75758382,-0.10038537,0.65333117\C,0,-3.09028845,-0.60
 880238,0.12105053\H,0,3.4024837,1.09761678,-1.24297111\H,0,4.05993657,
 0.01649126,-0.0079808\H,0,3.14046389,1.44832269,0.47648617\H,0,1.92015

 Normal termination of Gaussian 16 at Wed Apr  9 18:43:52 2025.
 Gaussian 16:  ES64L-G16RevC.01  3-Jul-2019

 ----------------------------------------------------------------------
 #t hf aug-cc-pvdz iop(5/13=1,5/36=2,99/5=2) pseudo=read geom=check gue
 ss=(read,tcheck) scf=(maxcycle=1)
 ----------------------------------------------------------------------
 -----
 title
 -----
 Structure from the checkpoint file:  "Grambow2020_wb97xd3_007574_reverse_mol2.chk"
 Charge =  0 Multiplicity = 1

                         Standard orientation:
 ---------------------------------------------------------------------
 Center     Atomic      Atomic             Coordinates (Angstroms)
 Number     Number       Type             X           Y           Z
 ---------------------------------------------------------------------
      1          6           0       -3.099446   -0.283136    0.218674
      2          6           0       -1.738767   -0.206788   -0.407912
      3          8           0       -1.065705    1.043315   -0.322503
      4          6           0       -0.515009   -0.069319    0.375361
      5          6           0        0.822744   -0.562810   -0.096366
      6          6           0        1.967385    0.347532    0.337621
      7          6           0        3.325421   -0.143696   -0.144402
      8          1           0       -3.404944   -1.324451    0.341927
      9          1           0       -3.839325    0.215638   -0.410214
     10          1           0       -3.098335    0.200073    1.196326
     11          1           0       -1.645322   -0.679672   -1.385245
     12          1           0        1.778077    1.354967   -0.043273
     13          1           0       -0.627482    0.005376    1.457976
     14          1           0        0.805750   -0.642946   -1.187691
     15          1           0        0.981563   -1.573851    0.295897
     16          1           0        1.970453    0.427386    1.429874
     17          1           0        3.359775   -0.196568   -1.235361
     18          1           0        3.543215   -1.143143    0.240908
     19          1           0        4.128248    0.519968    0.181047
 ---------------------------------------------------------------------

 SCF Done:  E(RHF) =  -310.563252889     A.U. after    2 cycles

 The electronic state is 1-A.
 Alpha  occ. eigenvalues --  -21.04679 -11.51741 -11.43043 -11.41327 -11.38456
 Alpha  occ. eigenvalues --  -11.37775 -11.34945  -1.78009  -1.22483  -1.11122
 Alpha  occ. eigenvalues --   -1.04528  -0.90801  -0.84443  -0.82564  -0.67095
 Alpha  occ. eigenvalues --   -0.64550  -0.60692  -0.57717  -0.56495  -0.53771
 Alpha  occ. eigenvalues --   -0.53156  -0.50645  -0.46678  -0.46123  -0.44476
 Alpha  occ. eigenvalues --   -0.41726  -0.34085  -0.29977
 Alpha virt. eigenvalues --    0.04054   0.04911   0.05031   0.05672   0.05736
 Alpha virt. eigenvalues --    0.05938   0.06043   0.07516   0.07609   0.08011
 Alpha virt. eigenvalues --    0.08247   0.09916   0.10872   0.13097   0.13254

 Mulliken charges:
               1
     1  C   -4.287991
     2  C    0.316108
     3  O   -2.949318
     4  C    1.216449
     5  C   -3.969264
     6  C   -2.735358
     7  C   -3.970140
     8  H    1.314781
     9  H    1.092409
    10  H    1.243012
    11  H    1.489272
    12  H    1.443555
    13  H    1.654372
    14  H    1.582931
    15  H    1.445795
    16  H    1.476347
    17  H    1.333389
    18  H    1.225283
    19  H    1.078367
 Sum of Mulliken charges =   0.00000

 Dipole moment (field-independent basis, Debye):
    X=              0.0454    Y=             -0.3945    Z=              0.1282  Tot=              0.4173

 Test job not archived.
 1\1\GINC-SE103\SP\RHF\Aug-CC-pVDZ\C6H12O1\OHZDE\09-Apr-2025\0\\#t hf a
 ug-cc-pvdz iop(5/13=1,5/36=2,99/5=2) pseudo=read geom=check guess=(rea
 d,tcheck) scf=(maxcycle=1)\\title\\0,1\C,0,3.20994267,0.65150146,-0.26
 482607\C,0,1.94329483,-0.15135011,-0.29511878\O,0,1.38228296,-0.506641
 61,0.9626967\C,0,0.65520838,0.38909221,0.12767551\C,0,-0.65882825,-0.1
 0613709,-0.40495683\C,0,-1.75758382,-0.10038537,0.65333117\C,0,-3.0902
 8845,-0.60880238,0.12105053\H,0,3.4024837,1.09761678,-1.24297111\H,0,4
 .05993657,0.01649126,-0.0079808\H,0,3.14046389,1.44832269,0.47648617\H

 Normal termination of Gaussian 16 at Wed Apr  9 18:43:59 2025.
