 Gaussian 16, Revision C.01,

 ----------------------------------------------------------------------
 #t hf aug-cc-pvdz symm=none int=(grid=ultrafine) guess=(read,tcheck) s
 table=(opt,rrhf)
 ----------------------------------------------------------------------
 -----
 title
 -----
 Symbolic Z-matrix:
 Charge =  0 Multiplicity = 1

 SCF Done:  E(RHF) =  -305.383652893     A.U. after   18 cycles
 Normal termination of Gaussian 16 at Wed Apr  9 19:02:50 2025.
 Gaussian 16:  ES64L-G16RevC.01  3-Jul-2019

 ----------------------------------------------------------------------
 #t hf aug-cc-pvdz iop(5/13=1,5/36=2,99/5=2) pseudo=read geom=check gue
 ss=(read,tcheck) scf=(maxcycle=1)
 ----------------------------------------------------------------------
 -----
 title
 -----
 Structure from the checkpoint file:  "Grambow2020_wb97xd3_008022_reverse_mol2.chk"
 Charge =  0 Multiplicity = 1

                         Standard orientation:
 ---------------------------------------------------------------------
 Center     Atomic      Atomic             Coordinates (Angstroms)
 Number     Number       Type             X           Y           Z
 ---------------------------------------------------------------------
      1          8           0        2.393049   -0.324379   -0.026237
      2          6           0        1.147091   -0.934025    0.162097
      3          6           0       -0.039967   -0.014476    0.003385
      4          6           0        0.082189    1.343560   -0.046666
      5          6           0       -1.087208    2.134920   -0.020117
      6          6           0       -1.294402   -0.684807   -0.019144
      7          6           0       -2.282811   -1.363463   -0.054201
      8          1           0        2.493458   -0.093823   -0.952079
      9          1           0        0.997820   -1.786335   -0.513363
     10          1           0        1.138815   -1.339080    1.177713
     11          1           0        1.097081    1.738798    0.004778
     12          1           0       -0.834678    3.110939    0.431030
     13          1           0       -3.186245   -1.925717   -0.090305
 ---------------------------------------------------------------------

 SCF Done:  E(RHF) =  -306.763695534     A.U. after    2 cycles

 The electronic state is 1-A.
 Alpha  occ. eigenvalues --  -21.09448 -11.49926 -11.46209 -11.43848 -11.42087
 Alpha  occ. eigenvalues --  -11.41183 -11.38503  -1.74327  -1.28080  -1.09861
 Alpha  occ. eigenvalues --   -1.04412  -0.90273  -0.81568  -0.71444  -0.68161
 Alpha  occ. eigenvalues --   -0.65691  -0.60437  -0.56288  -0.50417  -0.46465
 Alpha  occ. eigenvalues --   -0.44153  -0.39385  -0.36363  -0.34101  -0.30640
 Alpha virt. eigenvalues --    0.02949   0.03780   0.04923   0.05654   0.05772
 Alpha virt. eigenvalues --    0.06069   0.07519   0.09149   0.09912   0.11079
 Alpha virt. eigenvalues --    0.11425   0.11979   0.12505   0.13740   0.14024

 Mulliken charges:
               1
     1  O   -2.773661
     2  C   -1.462164
     3  C    1.787085
     4  C   -0.455664
     5  C   -3.885175
     6  C    4.909077
     7  C   -3.922694
     8  H    0.683454
     9  H    0.906031
    10  H    0.975328
    11  H    1.555739
    12  H    1.041137
    13  H    0.641507
 Sum of Mulliken charges =  -0.00000

 Dipole moment (field-independent basis, Debye):
    X=              1.8144    Y=             -1.7784    Z=              0.0449  Tot=              2.5410

 Test job not archived.
 1\1\GINC-SE168\SP\RHF\Aug-CC-pVDZ\C6H6O1\OHZDE\09-Apr-2025\0\\#t hf au
 g-cc-pvdz iop(5/13=1,5/36=2,99/5=2) pseudo=read geom=check guess=(read
 ,tcheck) scf=(maxcycle=1)\\title\\0,1\O,0,2.15121762,-1.00130617,0.162
 78579\C,0,1.42183284,0.17791333,0.3551131\C,0,-0.07200474,0.03460435,0
 .18843922\C,0,-0.64820256,-1.07030847,-0.36730423\C,0,-2.0325973,-1.05
 050214,-0.64569953\C,0,-0.81381441,1.17752835,0.59697506\C,0,-1.326737
 16,2.18416027,0.99990981\H,0,1.96809024,-1.60554305,0.8851316\H,0,1.60
 345539,0.61952369,1.34352244\H,0,1.78487462,0.90253677,-0.378873\H,0,0

 Normal termination of Gaussian 16 at Wed Apr  9 19:02:53 2025.
