 Gaussian 16, Revision C.01,

 ----------------------------------------------------------------------
 #t hf aug-cc-pvdz symm=none int=(grid=ultrafine) guess=(read,tcheck) s
 table=(opt,rrhf)
 ----------------------------------------------------------------------
 -----
 title
 -----
 Symbolic Z-matrix:
 Charge =  0 Multiplicity = 1

 SCF Done:  E(RHF) =  -322.649115055     A.U. after   14 cycles
 Normal termination of Gaussian 16 at Wed Apr  9 18:26:20 2025.
 Gaussian 16:  ES64L-G16RevC.01  3-Jul-2019

 ----------------------------------------------------------------------
 #t hf aug-cc-pvdz iop(5/13=1,5/36=2,99/5=2) pseudo=read geom=check gue
 ss=(read,tcheck) scf=(maxcycle=1)
 ----------------------------------------------------------------------
 -----
 title
 -----
 Structure from the checkpoint file:  "Grambow2020_wb97xd3_007127_reverse_mol2.chk"
 Charge =  0 Multiplicity = 1

                         Standard orientation:
 ---------------------------------------------------------------------
 Center     Atomic      Atomic             Coordinates (Angstroms)
 Number     Number       Type             X           Y           Z
 ---------------------------------------------------------------------
      1          7           0       -2.146166    0.962491   -0.149505
      2          6           0       -1.231671    0.109679   -0.036795
      3          8           0        1.346034    1.390050   -0.078752
      4          6           0        1.822245    0.073618   -0.015699
      5          6           0        0.738941   -0.990475    0.019978
      6          6           0       -0.518304   -0.838266    0.811440
      7          6           0       -0.523537   -0.913484   -0.762318
      8          1           0       -2.452352    1.289545    0.763152
      9          1           0        2.476204   -0.074202    0.854887
     10          1           0        2.430140   -0.072408   -0.911083
     11          1           0        1.163919   -1.992926    0.063259
     12          1           0        0.788907    1.562420    0.683654
     13          1           0       -0.934455   -1.538118    1.521573
     14          1           0       -0.943518   -1.678586   -1.398528
 ---------------------------------------------------------------------

 SCF Done:  E(RHF) =  -324.135782930     A.U. after    2 cycles

 The electronic state is 1-A.
 Alpha  occ. eigenvalues --  -21.07165 -15.72510 -11.49461 -11.47295 -11.45923
 Alpha  occ. eigenvalues --  -11.43205 -11.40856  -1.72243  -1.45046  -1.26988
 Alpha  occ. eigenvalues --   -1.05845  -0.89142  -0.87149  -0.76474  -0.70225
 Alpha  occ. eigenvalues --   -0.65352  -0.60945  -0.60222  -0.54044  -0.52711
 Alpha  occ. eigenvalues --   -0.46688  -0.45245  -0.41230  -0.35410  -0.34793
 Alpha  occ. eigenvalues --   -0.30604
 Alpha virt. eigenvalues --    0.03371   0.04657   0.05091   0.05258   0.05506
 Alpha virt. eigenvalues --    0.06236   0.07647   0.09825   0.10921   0.12063
 Alpha virt. eigenvalues --    0.12442   0.13343   0.13651   0.14103   0.14901

 Mulliken charges:
               1
     1  N   -3.631140
     2  C    4.385523
     3  O   -2.705758
     4  C   -1.317715
     5  C   -1.598183
     6  C   -1.724743
     7  C   -1.331586
     8  H    0.672167
     9  H    1.239820
    10  H    1.284402
    11  H    1.512350
    12  H    0.827461
    13  H    1.177846
    14  H    1.209555
 Sum of Mulliken charges =   0.00000

 Dipole moment (field-independent basis, Debye):
    X=              1.3734    Y=             -2.6824    Z=              1.5081  Tot=              3.3699

 Test job not archived.
 1\1\GINC-SE226\SP\RHF\Aug-CC-pVDZ\C5H7N1O1\OHZDE\09-Apr-2025\0\\#t hf
 aug-cc-pvdz iop(5/13=1,5/36=2,99/5=2) pseudo=read geom=check guess=(re
 ad,tcheck) scf=(maxcycle=1)\\title\\0,1\N,0,1.40992509,-2.12792203,-0.
 14911365\C,0,0.49415029,-1.26908406,-0.15600767\O,0,1.41031361,1.16578
 836,-1.38796155\C,0,0.13772763,1.63421444,-1.03462495\C,0,-0.73328115,
 0.61903949,-0.31498533\C,0,-0.78256784,-0.82261266,-0.70157917\C,0,-0.
 21905248,-0.34797404,0.69110469\H,0,1.37300488,-2.70501673,-0.98532825
 \H,0,-0.41359655,1.99666051,-1.91332132\H,0,0.30134611,2.48876244,-0.3

 Normal termination of Gaussian 16 at Wed Apr  9 18:26:25 2025.
