 Gaussian 16, Revision C.01,

 ----------------------------------------------------------------------
 #t hf aug-cc-pvdz symm=none int=(grid=ultrafine) guess=(read,tcheck) s
 table=(opt,rrhf)
 ----------------------------------------------------------------------
 -----
 title
 -----
 Symbolic Z-matrix:
 Charge =  0 Multiplicity = 1

 SCF Done:  E(RHF) =  -344.797198830     A.U. after   13 cycles

 1\1\GINC-SE045\Stability\RHF\Aug-CC-pVDZ\C5H10O2\OHZDE\09-Apr-2025\0\\
 #t hf aug-cc-pvdz symm=none int=(grid=ultrafine) guess=(read,tcheck) s
 table=(opt,rrhf)\\title\\0,1\O,0,1.66833087,0.82658137,0.59837908\C,0,
 1.49750574,-0.4674407,0.04458093\C,0,0.06431932,-0.6469132,-0.37524301
 \C,0,-0.66069946,0.52875424,-0.97749511\C,0,-2.06558695,0.09283353,-1.
 34438872\O,0,-2.29260145,-0.43983628,-0.01871887\C,0,-1.01526923,0.030
 66223,0.39449927\H,0,2.59577479,0.95843892,0.79622777\H,0,1.75391332,-
 1.23869896,0.78236899\H,0,2.15207924,-0.60244035,-0.82611885\H,0,1.233

 Normal termination of Gaussian 16 at Wed Apr  9 18:42:47 2025.
 Gaussian 16:  ES64L-G16RevC.01  3-Jul-2019

 ----------------------------------------------------------------------
 #t hf aug-cc-pvdz iop(5/13=1,5/36=2,99/5=2) pseudo=read geom=check gue
 ss=(read,tcheck) scf=(maxcycle=1)
 ----------------------------------------------------------------------
 -----
 title
 -----
 Structure from the checkpoint file:  "Grambow2020_wb97xd3_007549_reverse_mol2.chk"
 Charge =  0 Multiplicity = 1

                         Standard orientation:
 ---------------------------------------------------------------------
 Center     Atomic      Atomic             Coordinates (Angstroms)
 Number     Number       Type             X           Y           Z
 ---------------------------------------------------------------------
      1          8           0        2.108895   -0.191250   -0.677407
      2          6           0        1.651698   -0.501184    0.628457
      3          6           0        0.160501   -0.315336    0.693849
      4          6           0       -0.665824   -0.708097   -0.503431
      5          6           0       -2.126709   -0.458448   -0.184310
      6          8           0       -1.848387    0.899122    0.230679
      7          6           0       -0.484107    0.737601   -0.138573
      8          1           0        3.045887   -0.380822   -0.730239
      9          1           0        2.127288    0.155255    1.368603
     10          1           0        1.901527   -1.538223    0.887193
     11          1           0        2.638248    2.309486   -0.238699
     12          1           0       -0.256954   -0.480575    1.683867
     13          1           0       -0.267078   -1.260556   -1.340209
     14          1           0       -2.584085   -1.050377    0.614158
     15          1           0       -2.772854   -0.458593   -1.065137
     16          1           0        2.845798    2.963460    0.055351
     17          1           0        0.024805    1.550753   -0.637010
 ---------------------------------------------------------------------

 SCF Done:  E(RHF) =  -346.384958026     A.U. after    2 cycles

 The electronic state is 1-A.
 Alpha  occ. eigenvalues --  -21.07763 -21.03282 -11.46569 -11.45261 -11.44445
 Alpha  occ. eigenvalues --  -11.41743 -11.36701  -1.78582  -1.71816  -1.25917
 Alpha  occ. eigenvalues --   -1.03475  -0.98492  -0.81734  -0.78209  -0.70973
 Alpha  occ. eigenvalues --   -0.66220  -0.63183  -0.61909  -0.60535  -0.57492
 Alpha  occ. eigenvalues --   -0.51684  -0.46832  -0.44123  -0.42321  -0.39938
 Alpha  occ. eigenvalues --   -0.33875  -0.32731  -0.26455
 Alpha virt. eigenvalues --    0.03962   0.04894   0.05263   0.05319   0.05879
 Alpha virt. eigenvalues --    0.06033   0.06272   0.07114   0.08657   0.09461
 Alpha virt. eigenvalues --    0.11455   0.11862   0.12763   0.13415   0.13756

 Mulliken charges:
               1
     1  O   -2.590367
     2  C   -1.604842
     3  C   -1.489333
     4  C   -1.233642
     5  C   -2.251758
     6  O   -3.219100
     7  C    2.375894
     8  H    0.851783
     9  H    1.353635
    10  H    1.233140
    11  H   -0.391852
    12  H    1.273382
    13  H    1.283193
    14  H    1.381193
    15  H    1.323769
    16  H    0.301630
    17  H    1.403275
 Sum of Mulliken charges =   0.00000

 Dipole moment (field-independent basis, Debye):
    X=              1.2372    Y=             -0.8970    Z=             -0.1580  Tot=              1.5363

 Test job not archived.
 1\1\GINC-SE045\SP\RHF\Aug-CC-pVDZ\C5H10O2\OHZDE\09-Apr-2025\0\\#t hf a
 ug-cc-pvdz iop(5/13=1,5/36=2,99/5=2) pseudo=read geom=check guess=(rea
 d,tcheck) scf=(maxcycle=1)\\title\\0,1\O,0,1.66833087,0.82658137,0.598
 37908\C,0,1.49750574,-0.4674407,0.04458093\C,0,0.06431932,-0.6469132,-
 0.37524301\C,0,-0.66069946,0.52875424,-0.97749511\C,0,-2.06558695,0.09
 283353,-1.34438872\O,0,-2.29260145,-0.43983628,-0.01871887\C,0,-1.0152
 6923,0.03066223,0.39449927\H,0,2.59577479,0.95843892,0.79622777\H,0,1.
 75391332,-1.23869896,0.78236899\H,0,2.15207924,-0.60244035,-0.82611885

 Normal termination of Gaussian 16 at Wed Apr  9 18:42:52 2025.
