 Gaussian 16, Revision C.01,

 ----------------------------------------------------------------------
 #t hf aug-cc-pvdz symm=none int=(grid=ultrafine) guess=(read,tcheck) s
 table=(opt,rrhf)
 ----------------------------------------------------------------------
 -----
 title
 -----
 Symbolic Z-matrix:
 Charge =  0 Multiplicity = 1

 SCF Done:  E(RHF) =  -359.550565646     A.U. after   19 cycles
 Normal termination of Gaussian 16 at Wed Apr  9 18:34:33 2025.
 Gaussian 16:  ES64L-G16RevC.01  3-Jul-2019

 ----------------------------------------------------------------------
 #t hf aug-cc-pvdz iop(5/13=1,5/36=2,99/5=2) pseudo=read geom=check gue
 ss=(read,tcheck) scf=(maxcycle=1)
 ----------------------------------------------------------------------
 -----
 title
 -----
 Structure from the checkpoint file:  "Grambow2020_wb97xd3_007276_forward_mol1.chk"
 Charge =  0 Multiplicity = 1

                         Standard orientation:
 ---------------------------------------------------------------------
 Center     Atomic      Atomic             Coordinates (Angstroms)
 Number     Number       Type             X           Y           Z
 ---------------------------------------------------------------------
      1          8           0       -2.086329    0.303858   -0.007225
      2          6           0       -0.849993   -0.058129    0.452871
      3          6           0       -0.317615   -1.441510   -0.046310
      4          7           0        0.990322   -1.155391   -0.566817
      5          6           0        1.542666   -0.312093    0.391226
      6          6           0        0.402301    0.776465   -0.113433
      7          8           0        0.633374    1.978032   -0.131970
      8          1           0       -2.092025    0.292863   -0.969952
      9          1           0       -0.885502    0.068504    1.537932
     10          1           0       -0.233735   -2.120030    0.809346
     11          1           0       -0.969050   -1.885266   -0.799571
     12          1           0        0.272523    0.213136   -1.208636
     13          1           0        2.542150    0.046452    0.166031
     14          1           0        1.392874   -0.571437    1.440005
 ---------------------------------------------------------------------

 SCF Done:  E(RHF) =  -361.183034889     A.U. after    2 cycles

 The electronic state is 1-A.
 Alpha  occ. eigenvalues --  -21.11168 -21.01614 -15.83438 -11.55212 -11.47839
 Alpha  occ. eigenvalues --  -11.45467 -11.42320  -1.77673  -1.67497  -1.49349
 Alpha  occ. eigenvalues --   -1.09642  -1.04357  -0.89626  -0.82856  -0.72210
 Alpha  occ. eigenvalues --   -0.65184  -0.64524  -0.60511  -0.58930  -0.55387
 Alpha  occ. eigenvalues --   -0.53710  -0.48645  -0.45477  -0.43053  -0.34916
 Alpha  occ. eigenvalues --   -0.27955  -0.25551
 Alpha virt. eigenvalues --    0.03741   0.04610   0.05021   0.05302   0.05940
 Alpha virt. eigenvalues --    0.06095   0.06786   0.07419   0.10102   0.10933
 Alpha virt. eigenvalues --    0.12672   0.13081   0.14043   0.14377   0.14593

 Mulliken charges:
               1
     1  O   -3.437242
     2  C    1.502119
     3  C   -2.195448
     4  N   -1.584352
     5  C   -2.377663
     6  C    3.373834
     7  O   -3.333785
     8  H    0.677378
     9  H    1.508039
    10  H    1.325398
    11  H    1.296443
    12  H    0.597665
    13  H    1.290158
    14  H    1.357454
 Sum of Mulliken charges =   0.00000

 Dipole moment (field-independent basis, Debye):
    X=             -1.1753    Y=             -1.8055    Z=              1.1046  Tot=              2.4210

 Test job not archived.
 1\1\GINC-SE226\SP\RHF\Aug-CC-pVDZ\C4H7N1O2\OHZDE\09-Apr-2025\0\\#t hf
 aug-cc-pvdz iop(5/13=1,5/36=2,99/5=2) pseudo=read geom=check guess=(re
 ad,tcheck) scf=(maxcycle=1)\\title\\0,1\O,0,2.11881818,-0.14921317,0.3
 7402929\C,0,0.75336726,-0.09137425,0.43274889\C,0,0.10165907,1.1981711
 ,-0.16616728\N,0,-0.89149732,0.70631932,-1.08006632\C,0,-1.50387428,-0
 .32109734,-0.37049635\C,0,-0.05238044,-1.10195162,-0.52380263\O,0,0.00
 62318,-2.31767233,-0.65065153\H,0,2.41077669,-0.04278484,-0.53724976\H
 ,0,0.48862072,-0.31418143,1.46953241\H,0,-0.3840913,1.7583675,0.639933

 Normal termination of Gaussian 16 at Wed Apr  9 18:34:38 2025.
