 Gaussian 16, Revision C.01,

 ----------------------------------------------------------------------
 #t hf aug-cc-pvdz symm=none int=(grid=ultrafine) guess=(read,tcheck) s
 table=(opt,rrhf)
 ----------------------------------------------------------------------
 -----
 title
 -----
 Symbolic Z-matrix:
 Charge =  0 Multiplicity = 1

 SCF Done:  E(RHF) =  -339.749405086     A.U. after   15 cycles
 Normal termination of Gaussian 16 at Wed Apr  9 17:59:42 2025.
 Gaussian 16:  ES64L-G16RevC.01  3-Jul-2019

 ----------------------------------------------------------------------
 #t hf aug-cc-pvdz iop(5/13=1,5/36=2,99/5=2) pseudo=read geom=check gue
 ss=(read,tcheck) scf=(maxcycle=1)
 ----------------------------------------------------------------------
 -----
 title
 -----
 Structure from the checkpoint file:  "Grambow2020_wb97xd3_006541_reverse_mol1.chk"
 Charge =  0 Multiplicity = 1

                         Standard orientation:
 ---------------------------------------------------------------------
 Center     Atomic      Atomic             Coordinates (Angstroms)
 Number     Number       Type             X           Y           Z
 ---------------------------------------------------------------------
      1          6           0       -0.889266    1.884279    0.286949
      2          7           0       -0.120425    1.060365   -0.634229
      3          6           0        0.418957   -0.136246   -0.211914
      4          6           0       -0.410744   -1.400342   -0.169170
      5          8           0       -1.730779   -1.207840    0.276900
      6          6           0        1.897326   -0.338155   -0.490941
      7          7           0        1.878088   -0.137902    0.761504
      8          1           0       -0.256400    2.334902    1.061276
      9          1           0       -1.382223    2.682378   -0.267726
     10          1           0       -1.648397    1.276371    0.775419
     11          1           0        0.526535    1.590615   -1.199326
     12          1           0        0.766307   -0.000779    1.152925
     13          1           0        0.060444   -2.123817    0.494979
     14          1           0       -0.392502   -1.819483   -1.183547
     15          1           0       -2.228809   -0.791923   -0.429661
 ---------------------------------------------------------------------

 SCF Done:  E(RHF) =  -341.319579330     A.U. after    2 cycles

 The electronic state is 1-A.
 Alpha  occ. eigenvalues --  -21.09144 -15.78798 -15.76547 -11.52486 -11.44161
 Alpha  occ. eigenvalues --  -11.41181 -11.39229  -1.74146  -1.51212  -1.35985
 Alpha  occ. eigenvalues --   -1.08325  -1.00194  -0.84167  -0.82094  -0.70444
 Alpha  occ. eigenvalues --   -0.67102  -0.64800  -0.60776  -0.58887  -0.56630
 Alpha  occ. eigenvalues --   -0.53292  -0.47643  -0.44721  -0.42423  -0.38143
 Alpha  occ. eigenvalues --   -0.33489  -0.32883
 Alpha virt. eigenvalues --    0.03421   0.05055   0.05424   0.05551   0.06414
 Alpha virt. eigenvalues --    0.06705   0.07226   0.07646   0.09674   0.11287
 Alpha virt. eigenvalues --    0.11636   0.12554   0.13412   0.14243   0.14511

 Mulliken charges:
               1
     1  C   -3.536683
     2  N   -3.077630
     3  C    2.049228
     4  C    0.047233
     5  O   -2.690175
     6  C   -0.528005
     7  N   -1.538774
     8  H    1.374766
     9  H    1.256727
    10  H    1.378525
    11  H    0.533087
    12  H    1.536078
    13  H    1.182266
    14  H    1.324235
    15  H    0.689122
 Sum of Mulliken charges =  -0.00000

 Dipole moment (field-independent basis, Debye):
    X=             -3.2605    Y=              1.4475    Z=              0.2540  Tot=              3.5764

 Test job not archived.
 1\1\GINC-SE131\SP\RHF\Aug-CC-pVDZ\C4H8N2O1\OHZDE\09-Apr-2025\0\\#t hf
 aug-cc-pvdz iop(5/13=1,5/36=2,99/5=2) pseudo=read geom=check guess=(re
 ad,tcheck) scf=(maxcycle=1)\\title\\0,1\C,0,-1.46313709,0.84734067,0.7
 7202331\N,0,-0.65766302,-0.36139792,0.86520138\C,0,0.1867145,-0.715092
 21,-0.16585995\C,0,1.56586583,-0.10737198,-0.2954154\O,0,1.62175349,1.
 26429478,0.01107495\C,0,0.05122838,-2.13584892,-0.68286306\N,0,-0.4707
 1732,-1.45231786,-1.61530576\H,0,-2.26129632,0.75265448,0.02560518\H,0
 ,-1.91583938,1.05523562,1.74128825\H,0,-0.83074905,1.68799807,0.493070

 Normal termination of Gaussian 16 at Wed Apr  9 17:59:47 2025.
