 Gaussian 16, Revision C.01,

 ----------------------------------------------------------------------
 #t hf aug-cc-pvdz symm=none int=(grid=ultrafine) guess=(read,tcheck) s
 table=(opt,rrhf)
 ----------------------------------------------------------------------
 -----
 title
 -----
 Symbolic Z-matrix:
 Charge =  0 Multiplicity = 1

 SCF Done:  E(RHF) =  -194.921036533     A.U. after   14 cycles
 Normal termination of Gaussian 16 at Wed Apr  9 03:07:52 2025.
 Gaussian 16:  ES64L-G16RevC.01  3-Jul-2019

 ----------------------------------------------------------------------
 #t hf aug-cc-pvdz iop(5/13=1,5/36=2,99/5=2) pseudo=read geom=check gue
 ss=(read,tcheck) scf=(maxcycle=1)
 ----------------------------------------------------------------------
 -----
 title
 -----
 Structure from the checkpoint file:  "Grambow2020_b97d3_006579_forward_mol1.chk"
 Charge =  0 Multiplicity = 1

                         Standard orientation:
 ---------------------------------------------------------------------
 Center     Atomic      Atomic             Coordinates (Angstroms)
 Number     Number       Type             X           Y           Z
 ---------------------------------------------------------------------
      1          6           0        1.403820   -1.097804   -0.108546
      2          6           0        0.934276    0.278783    0.344432
      3          6           0        0.351049    1.265033   -0.605679
      4          6           0       -0.498381    0.678389    0.429877
      5          6           0       -1.887081   -0.686288   -0.089646
      6          1           0        0.811073   -1.440943   -0.967282
      7          1           0        1.326351   -1.843639    0.698619
      8          1           0        2.454228   -1.050577   -0.430972
      9          1           0        1.475541    0.644058    1.232120
     10          1           0        0.480138    2.343065   -0.669260
     11          1           0       -1.029322    0.398659   -0.624884
     12          1           0       -1.057950    1.082914    1.273480
     13          1           0       -2.836980   -0.250870    0.230620
     14          1           0       -1.918596   -1.033327   -1.133447
     15          1           0       -1.526579   -1.478030    0.568383
 ---------------------------------------------------------------------

 SCF Done:  E(RHF) =  -195.949442406     A.U. after    2 cycles

 The electronic state is 1-A.
 Alpha  occ. eigenvalues --  -11.46870 -11.42118 -11.41324 -11.36492 -11.33213
 Alpha  occ. eigenvalues --   -1.33484  -1.07413  -1.02148  -0.81955  -0.78136
 Alpha  occ. eigenvalues --   -0.69203  -0.61710  -0.58936  -0.57020  -0.55533
 Alpha  occ. eigenvalues --   -0.53731  -0.47577  -0.39492  -0.37414  -0.24955
 Alpha virt. eigenvalues --    0.03444   0.04967   0.05296   0.05540   0.05934
 Alpha virt. eigenvalues --    0.06422   0.06497   0.07028   0.08633   0.09411
 Alpha virt. eigenvalues --    0.11636   0.13007   0.13305   0.14246   0.14750

 Mulliken charges:
               1
     1  C   -4.625763
     2  C   -0.746068
     3  C   -1.738097
     4  C   -2.049745
     5  C   -4.412546
     6  H    1.440090
     7  H    1.250519
     8  H    1.078780
     9  H    1.327401
    10  H    1.118548
    11  H    2.765500
    12  H    1.182071
    13  H    1.051242
    14  H    0.898775
    15  H    1.459293
 Sum of Mulliken charges =  -0.00000

 Dipole moment (field-independent basis, Debye):
    X=             -2.0953    Y=             -0.8027    Z=              2.0134  Tot=              3.0147

 Test job not archived.
 1\1\GINC-SE188\SP\RHF\Aug-CC-pVDZ\C5H10\OHZDE\09-Apr-2025\0\\#t hf aug
 -cc-pvdz iop(5/13=1,5/36=2,99/5=2) pseudo=read geom=check guess=(read,
 tcheck) scf=(maxcycle=1)\\title\\0,1\C,0,1.48750577,-0.97240497,0.1441
 452\C,0,0.93013288,0.37160098,0.59540578\C,0,0.58309524,1.44675803,-0.
 37369396\C,0,-0.48284703,0.79466035,0.38564352\C,0,-1.71881259,-0.4902
 5986,-0.55356027\H,0,1.10676071,-1.22907195,-0.85369018\H,0,1.22491684
 ,-1.78127565,0.84454679\H,0,2.5839926,-0.92190457,0.07550655\H,0,1.254
 18372,0.64904971,1.61147574\H,0,0.72614413,2.52316318,-0.31247081\H,0,

 Normal termination of Gaussian 16 at Wed Apr  9 03:07:55 2025.
