 Gaussian 16, Revision C.01,

 ----------------------------------------------------------------------
 #t hf aug-cc-pvdz symm=none int=(grid=ultrafine) guess=(read,tcheck) s
 table=(opt,rrhf)
 ----------------------------------------------------------------------
 -----
 title
 -----
 Symbolic Z-matrix:
 Charge =  0 Multiplicity = 1

 SCF Done:  E(RHF) =  -268.825816695     A.U. after   13 cycles
 Normal termination of Gaussian 16 at Wed Apr  9 17:16:18 2025.
 Gaussian 16:  ES64L-G16RevC.01  3-Jul-2019

 ----------------------------------------------------------------------
 #t hf aug-cc-pvdz iop(5/13=1,5/36=2,99/5=2) pseudo=read geom=check gue
 ss=(read,tcheck) scf=(maxcycle=1)
 ----------------------------------------------------------------------
 -----
 title
 -----
 Structure from the checkpoint file:  "Grambow2020_b97d3_007084_reverse_mol2.chk"
 Charge =  0 Multiplicity = 1

                         Standard orientation:
 ---------------------------------------------------------------------
 Center     Atomic      Atomic             Coordinates (Angstroms)
 Number     Number       Type             X           Y           Z
 ---------------------------------------------------------------------
      1          6           0        1.671310   -1.282305   -0.010544
      2          6           0        1.395645    0.223458    0.015117
      3          6           0       -0.067713    0.590429    0.001915
      4          8           0       -0.240325    1.967609   -0.008754
      5          6           0       -1.067974   -0.274191    0.004672
      6          6           0       -2.066103   -1.133232    0.001550
      7          1           0        1.223666   -1.780387    0.859646
      8          1           0        2.752997   -1.471766    0.001614
      9          1           0        1.250212   -1.743610   -0.913706
     10          1           0        1.870322    0.715590   -0.849217
     11          1           0        1.847494    0.681258    0.910302
     12          1           0       -2.512673   -1.510540    0.928651
     13          1           0       -1.201320    2.143226   -0.015260
     14          1           0       -2.499088   -1.519602   -0.928257
 ---------------------------------------------------------------------

 SCF Done:  E(RHF) =  -270.093048193     A.U. after    2 cycles

 The electronic state is 1-A.
 Alpha  occ. eigenvalues --  -21.09582 -11.48275 -11.42254 -11.40722 -11.40128
 Alpha  occ. eigenvalues --  -11.36537  -1.73969  -1.21198  -1.11356  -0.97368
 Alpha  occ. eigenvalues --   -0.88763  -0.71042  -0.63126  -0.62875  -0.60380
 Alpha  occ. eigenvalues --   -0.59411  -0.50640  -0.49948  -0.47911  -0.44937
 Alpha  occ. eigenvalues --   -0.43837  -0.35038  -0.27790
 Alpha virt. eigenvalues --    0.03324   0.05260   0.05547   0.05871   0.06298
 Alpha virt. eigenvalues --    0.06931   0.06955   0.07783   0.09728   0.10967
 Alpha virt. eigenvalues --    0.11433   0.12884   0.14003   0.15146   0.15194

 Mulliken charges:
               1
     1  C   -3.744132
     2  C   -3.074982
     3  C    4.553170
     4  O   -3.654765
     5  C    1.303212
     6  C   -4.901217
     7  H    1.252751
     8  H    1.112306
     9  H    1.254243
    10  H    1.259950
    11  H    1.255415
    12  H    1.240254
    13  H    0.906105
    14  H    1.237689
 Sum of Mulliken charges =  -0.00000

 Dipole moment (field-independent basis, Debye):
    X=              0.1672    Y=              0.1778    Z=             -0.0049  Tot=              0.2441

 Test job not archived.
 1\1\GINC-SE029\SP\RHF\Aug-CC-pVDZ\C5H8O1\OHZDE\09-Apr-2025\0\\#t hf au
 g-cc-pvdz iop(5/13=1,5/36=2,99/5=2) pseudo=read geom=check guess=(read
 ,tcheck) scf=(maxcycle=1)\\title\\0,1\C,0,-1.48977521,0.93985797,-0.40
 260227\C,0,-1.22340308,-0.49186643,0.06981802\C,0,0.23775999,-0.852038
 28,0.1772439\O,0,0.40208962,-2.17129832,0.5760958\C,0,1.24320246,-0.02
 930327,-0.06829238\C,0,2.24651747,0.78637095,-0.31780909\H,0,-1.044593
 21,1.6714871,0.28458972\H,0,-2.57034944,1.12867173,-0.45550296\H,0,-1.
 06022897,1.11141978,-1.39853649\H,0,-1.69561764,-1.2159724,-0.61375379

 Normal termination of Gaussian 16 at Wed Apr  9 17:16:22 2025.
