 Gaussian 16, Revision C.01,

 ----------------------------------------------------------------------
 #t hf aug-cc-pvdz symm=none int=(grid=ultrafine) guess=(read,tcheck) s
 table=(opt,rrhf)
 ----------------------------------------------------------------------
 -----
 title
 -----
 Symbolic Z-matrix:
 Charge =  0 Multiplicity = 1

 SCF Done:  E(RHF) =  -358.367644881     A.U. after   16 cycles
 Normal termination of Gaussian 16 at Wed Apr  9 18:13:58 2025.
 Gaussian 16:  ES64L-G16RevC.01  3-Jul-2019

 ----------------------------------------------------------------------
 #t hf aug-cc-pvdz iop(5/13=1,5/36=2,99/5=2) pseudo=read geom=check gue
 ss=(read,tcheck) scf=(maxcycle=1)
 ----------------------------------------------------------------------
 -----
 title
 -----
 Structure from the checkpoint file:  "Grambow2020_wb97xd3_006792_reverse_mol1.chk"
 Charge =  0 Multiplicity = 1

                         Standard orientation:
 ---------------------------------------------------------------------
 Center     Atomic      Atomic             Coordinates (Angstroms)
 Number     Number       Type             X           Y           Z
 ---------------------------------------------------------------------
      1          8           0       -2.299385   -1.128292    0.097596
      2          6           0       -1.734649   -0.091246    0.215416
      3          6           0       -0.653592    0.625996   -0.299288
      4          6           0        0.401356    1.505966    0.235078
      5          7           0        0.666946    0.344477   -0.602618
      6          6           0        1.430929   -0.760880   -0.242096
      7          8           0        2.431448   -0.686953    0.410136
      8          1           0       -2.468251    0.981126    0.596072
      9          1           0       -2.214866    1.267478   -0.287997
     10          1           0        0.673312    1.412224    1.281841
     11          1           0        0.585536    2.468639   -0.224944
     12          1           0        1.034883   -1.697866   -0.663164
 ---------------------------------------------------------------------

 SCF Done:  E(RHF) =  -359.953503601     A.U. after    2 cycles

 The electronic state is 1-A.
 Alpha  occ. eigenvalues --  -21.07903 -21.07387 -15.79097 -11.55847 -11.50877
 Alpha  occ. eigenvalues --  -11.50720 -11.46464  -1.74771  -1.73647  -1.52907
 Alpha  occ. eigenvalues --   -1.12816  -1.04031  -0.87925  -0.78760  -0.73861
 Alpha  occ. eigenvalues --   -0.68072  -0.60728  -0.58620  -0.54753  -0.52971
 Alpha  occ. eigenvalues --   -0.50337  -0.47915  -0.39309  -0.36358  -0.33153
 Alpha  occ. eigenvalues --   -0.27261
 Alpha virt. eigenvalues --    0.02730   0.04917   0.05307   0.06196   0.06257
 Alpha virt. eigenvalues --    0.07626   0.09337   0.10230   0.10680   0.11199
 Alpha virt. eigenvalues --    0.11615   0.13433   0.13694   0.14395   0.14728

 Mulliken charges:
               1
     1  O   -3.077558
     2  C    1.973043
     3  C    1.609402
     4  C   -2.466095
     5  N   -2.496958
     6  C    1.908137
     7  O   -2.608190
     8  H    0.545113
     9  H    0.382894
    10  H    1.373272
    11  H    1.219379
    12  H    1.637561
 Sum of Mulliken charges =  -0.00000

 Dipole moment (field-independent basis, Debye):
    X=             -0.3393    Y=              0.9646    Z=              0.4518  Tot=              1.1179

 Test job not archived.
 1\1\GINC-SE117\SP\RHF\Aug-CC-pVDZ\C4H5N1O2\OHZDE\09-Apr-2025\0\\#t hf
 aug-cc-pvdz iop(5/13=1,5/36=2,99/5=2) pseudo=read geom=check guess=(re
 ad,tcheck) scf=(maxcycle=1)\\title\\0,1\O,0,2.13978363,-1.47306844,-0.
 2471269\C,0,1.59669378,-0.4395802,-0.03445911\C,0,0.4379806,0.08504315
 ,0.54016604\C,0,-0.5148507,1.16752568,0.23495097\N,0,-0.91311482,-0.21
 006468,0.48982476\C,0,-1.59557608,-1.03683082,-0.39683413\O,0,-2.46881
 2,-0.65189371,-1.11877088\H,0,2.37755215,0.64847471,0.1641592\H,0,1.97
 320522,0.58163395,1.03583274\H,0,-0.60115219,1.50745607,-0.7924039\H,0

 Normal termination of Gaussian 16 at Wed Apr  9 18:14:02 2025.
