 Gaussian 16, Revision C.01,

 ----------------------------------------------------------------------
 #t hf aug-cc-pvdz symm=none int=(grid=ultrafine) guess=(read,tcheck) s
 table=(opt,rrhf)
 ----------------------------------------------------------------------
 -----
 title
 -----
 Symbolic Z-matrix:
 Charge =  0 Multiplicity = 1

 SCF Done:  E(RHF) =  -289.035588441     A.U. after   15 cycles

 1\1\GINC-SE045\Stability\RHF\Aug-CC-pVDZ\C6H13N1\OHZDE\09-Apr-2025\0\\
 #t hf aug-cc-pvdz symm=none int=(grid=ultrafine) guess=(read,tcheck) s
 table=(opt,rrhf)\\title\\0,1\C,0,-1.37616429,1.7061658,0.72751751\C,0,
 -0.59387174,0.4717716,0.46715273\N,0,-0.66833374,-0.49633358,-0.446532
 55\C,0,-1.19818065,-1.71816004,-0.45548496\C,0,0.66145221,0.07619912,-
 0.228146\C,0,1.68923634,-0.74814572,0.51740502\C,0,1.2122462,0.8594432
 9,-1.3996681\H,0,-2.42623014,1.46258645,0.89712268\H,0,-0.99836795,2.1
 9873995,1.62368486\H,0,-1.31402214,2.41969022,-0.10119505\H,0,-0.90744

 Normal termination of Gaussian 16 at Wed Apr  9 19:32:45 2025.
 Gaussian 16:  ES64L-G16RevC.01  3-Jul-2019

 ----------------------------------------------------------------------
 #t hf aug-cc-pvdz iop(5/13=1,5/36=2,99/5=2) pseudo=read geom=check gue
 ss=(read,tcheck) scf=(maxcycle=1)
 ----------------------------------------------------------------------
 -----
 title
 -----
 Structure from the checkpoint file:  "Grambow2020_wb97xd3_009134_reverse_mol1.chk"
 Charge =  0 Multiplicity = 1

                         Standard orientation:
 ---------------------------------------------------------------------
 Center     Atomic      Atomic             Coordinates (Angstroms)
 Number     Number       Type             X           Y           Z
 ---------------------------------------------------------------------
      1          6           0        1.948143   -1.207185    0.294333
      2          6           0        0.802169   -0.264534    0.335020
      3          7           0        0.324031    0.648977   -0.510245
      4          6           0        0.451495    1.970946   -0.609386
      5          6           0       -0.659500   -0.277515    0.053755
      6          6           0       -1.617691    0.238696    1.105956
      7          6           0       -1.276827   -1.229777   -0.946952
      8          1           0        2.884731   -0.662324    0.165241
      9          1           0        2.007143   -1.755080    1.234973
     10          1           0        1.856171   -1.937889   -0.516442
     11          1           0        1.072137    1.028443    1.403763
     12          1           0       -0.426819    2.534324   -0.903153
     13          1           0        0.950517    1.864043    1.177259
     14          1           0        1.416769    2.352177   -0.919707
     15          1           0       -1.897504   -0.571230    1.782242
     16          1           0       -1.168565    1.035537    1.695818
     17          1           0       -2.534130    0.618323    0.646147
     18          1           0       -0.552911   -1.522237   -1.708145
     19          1           0       -2.139125   -0.778259   -1.444307
     20          1           0       -1.623368   -2.132454   -0.438326
 ---------------------------------------------------------------------

 SCF Done:  E(RHF) =  -290.534324675     A.U. after    2 cycles

 The electronic state is 1-A.
 Alpha  occ. eigenvalues --  -15.77647 -11.53287 -11.42529 -11.40171 -11.40099
 Alpha  occ. eigenvalues --  -11.38515 -11.36590  -1.53678  -1.17117  -1.10721
 Alpha  occ. eigenvalues --   -1.01938  -1.01386  -0.78398  -0.76449  -0.68549
 Alpha  occ. eigenvalues --   -0.63663  -0.60751  -0.59973  -0.57374  -0.55943
 Alpha  occ. eigenvalues --   -0.55395  -0.53886  -0.53612  -0.48919  -0.42584
 Alpha  occ. eigenvalues --   -0.40930  -0.35885  -0.25289
 Alpha virt. eigenvalues --    0.03565   0.05169   0.05498   0.05599   0.05756
 Alpha virt. eigenvalues --    0.06003   0.06124   0.06272   0.07668   0.08108
 Alpha virt. eigenvalues --    0.09044   0.09487   0.10200   0.10761   0.11311

 Mulliken charges:
               1
     1  C   -5.267667
     2  C    3.309640
     3  N   -3.029396
     4  C   -2.340995
     5  C    2.450945
     6  C   -4.722302
     7  C   -4.627799
     8  H    1.142386
     9  H    1.255617
    10  H    0.912806
    11  H   -0.117796
    12  H    1.566344
    13  H    0.120587
    14  H    1.569937
    15  H    1.229948
    16  H    1.578842
    17  H    1.234010
    18  H    1.380656
    19  H    1.145254
    20  H    1.208983
 Sum of Mulliken charges =  -0.00000

 Dipole moment (field-independent basis, Debye):
    X=             -0.4366    Y=             -1.0740    Z=             -1.1576  Tot=              1.6384

 Test job not archived.
 1\1\GINC-SE045\SP\RHF\Aug-CC-pVDZ\C6H13N1\OHZDE\09-Apr-2025\0\\#t hf a
 ug-cc-pvdz iop(5/13=1,5/36=2,99/5=2) pseudo=read geom=check guess=(rea
 d,tcheck) scf=(maxcycle=1)\\title\\0,1\C,0,-1.37616429,1.7061658,0.727
 51751\C,0,-0.59387174,0.4717716,0.46715273\N,0,-0.66833374,-0.49633358
 ,-0.44653255\C,0,-1.19818065,-1.71816004,-0.45548496\C,0,0.66145221,0.
 07619912,-0.228146\C,0,1.68923634,-0.74814572,0.51740502\C,0,1.2122462
 ,0.85944329,-1.3996681\H,0,-2.42623014,1.46258645,0.89712268\H,0,-0.99
 836795,2.19873995,1.62368486\H,0,-1.31402214,2.41969022,-0.10119505\H,

 Normal termination of Gaussian 16 at Wed Apr  9 19:33:10 2025.
