 Gaussian 16, Revision C.01,

 ----------------------------------------------------------------------
 #t hf aug-cc-pvdz symm=none int=(grid=ultrafine) guess=(read,tcheck) s
 table=(opt,rrhf)
 ----------------------------------------------------------------------
 -----
 title
 -----
 Symbolic Z-matrix:
 Charge =  0 Multiplicity = 1

 SCF Done:  E(RHF) =  -273.109619472     A.U. after   14 cycles
 Normal termination of Gaussian 16 at Wed Apr  9 18:56:23 2025.
 Gaussian 16:  ES64L-G16RevC.01  3-Jul-2019

 ----------------------------------------------------------------------
 #t hf aug-cc-pvdz iop(5/13=1,5/36=2,99/5=2) pseudo=read geom=check gue
 ss=(read,tcheck) scf=(maxcycle=1)
 ----------------------------------------------------------------------
 -----
 title
 -----
 Structure from the checkpoint file:  "Grambow2020_wb97xd3_007784_forward_mol1.chk"
 Charge =  0 Multiplicity = 1

                         Standard orientation:
 ---------------------------------------------------------------------
 Center     Atomic      Atomic             Coordinates (Angstroms)
 Number     Number       Type             X           Y           Z
 ---------------------------------------------------------------------
      1          6           0       -1.488133   -1.099429   -0.748545
      2          6           0       -0.679436   -0.022809   -0.022248
      3          6           0       -0.597668   -0.384825    1.466180
      4          6           0       -1.402145    1.328572   -0.164377
      5          6           0        0.615894    0.239081   -0.799522
      6          6           0        2.057101   -0.677032   -0.045154
      7          6           0        1.738908    0.808600   -0.028834
      8          1           0       -1.600538   -0.844878   -1.802992
      9          1           0       -0.985817   -2.069449   -0.689204
     10          1           0       -2.480832   -1.213613   -0.303906
     11          1           0       -1.599024   -0.387665    1.903566
     12          1           0       -0.182411   -1.384045    1.615557
     13          1           0       -0.001527    0.324964    2.043354
     14          1           0       -1.460305    1.633058   -1.210683
     15          1           0       -2.417967    1.246880    0.229413
     16          1           0       -0.887325    2.115728    0.391532
     17          1           0        1.249890   -1.076533   -0.819874
     18          1           0        1.950082   -1.182568    0.906546
     19          1           0        2.950545   -0.939746   -0.602464
     20          1           0        2.439244    1.429467   -0.579292
     21          1           0        1.558864    1.195458    0.973448
 ---------------------------------------------------------------------

 SCF Done:  E(RHF) =  -274.550190844     A.U. after    2 cycles

 The electronic state is 1-A.
 Alpha  occ. eigenvalues --  -11.44791 -11.43377 -11.40005 -11.38663 -11.38341
 Alpha  occ. eigenvalues --  -11.37507 -11.34271  -1.34537  -1.20056  -1.00493
 Alpha  occ. eigenvalues --   -0.99749  -0.91153  -0.86932  -0.73643  -0.66890
 Alpha  occ. eigenvalues --   -0.62580  -0.60346  -0.59360  -0.54951  -0.53282
 Alpha  occ. eigenvalues --   -0.52154  -0.52051  -0.49913  -0.49161  -0.43996
 Alpha  occ. eigenvalues --   -0.42070  -0.39393  -0.28446
 Alpha virt. eigenvalues --    0.04258   0.05051   0.05268   0.05309   0.05497
 Alpha virt. eigenvalues --    0.05623   0.06111   0.06330   0.07152   0.08321
 Alpha virt. eigenvalues --    0.09019   0.09074   0.09348   0.09812   0.12448

 Mulliken charges:
               1
     1  C   -4.973944
     2  C    4.909977
     3  C   -4.935339
     4  C   -4.773392
     5  C   -1.208839
     6  C   -3.521961
     7  C   -3.423095
     8  H    1.264506
     9  H    1.301939
    10  H    1.179906
    11  H    0.970227
    12  H    1.414940
    13  H    1.306163
    14  H    1.166023
    15  H    1.211842
    16  H    1.212816
    17  H    1.472356
    18  H    1.470885
    19  H    1.183292
    20  H    1.230913
    21  H    1.540784
 Sum of Mulliken charges =  -0.00000

 Dipole moment (field-independent basis, Debye):
    X=              0.8501    Y=             -0.4741    Z=              1.7278  Tot=              1.9831

 Test job not archived.
 1\1\GINC-SE045\SP\RHF\Aug-CC-pVDZ\C7H14\OHZDE\09-Apr-2025\0\\#t hf aug
 -cc-pvdz iop(5/13=1,5/36=2,99/5=2) pseudo=read geom=check guess=(read,
 tcheck) scf=(maxcycle=1)\\title\\0,1\C,0,-0.74932178,1.63078642,0.7847
 7714\C,0,-0.51266871,0.20570383,0.28104763\C,0,-0.94251851,0.12250927,
 -1.18914593\C,0,-1.37487672,-0.76711957,1.10503337\C,0,0.9033597,-0.23
 385774,0.67126649\C,0,2.09109775,-0.04221716,-0.75630593\C,0,1.5058701
 3,-1.30497873,-0.14675066\H,0,-0.49352498,1.70842649,1.84205084\H,0,-0
 .12876942,2.3453366,0.23603754\H,0,-1.79321326,1.92801899,0.65010704\H

 Normal termination of Gaussian 16 at Wed Apr  9 18:56:32 2025.
