 Gaussian 16, Revision C.01,

 ----------------------------------------------------------------------
 #t hf aug-cc-pvdz symm=none int=(grid=ultrafine) guess=(read,tcheck) s
 table=(opt,rrhf)
 ----------------------------------------------------------------------
 -----
 title
 -----
 Symbolic Z-matrix:
 Charge =  0 Multiplicity = 1

 SCF Done:  E(RHF) =  -245.655641055     A.U. after   16 cycles
 Normal termination of Gaussian 16 at Wed Apr  9 17:41:16 2025.
 Gaussian 16:  ES64L-G16RevC.01  3-Jul-2019

 ----------------------------------------------------------------------
 #t hf aug-cc-pvdz iop(5/13=1,5/36=2,99/5=2) pseudo=read geom=check gue
 ss=(read,tcheck) scf=(maxcycle=1)
 ----------------------------------------------------------------------
 -----
 title
 -----
 Structure from the checkpoint file:  "Grambow2020_wb97xd3_006110_reverse_mol1.chk"
 Charge =  0 Multiplicity = 1

                         Standard orientation:
 ---------------------------------------------------------------------
 Center     Atomic      Atomic             Coordinates (Angstroms)
 Number     Number       Type             X           Y           Z
 ---------------------------------------------------------------------
      1          6           0       -1.540168   -0.874748   -0.000008
      2          6           0        2.014668   -0.471715    0.000083
      3          7           0        0.960561    0.225973   -0.000118
      4          6           0       -0.083635    0.958255   -0.000068
      5          8           0       -1.323372    0.378850   -0.000088
      6          1           0       -2.577875   -1.170111    0.000613
      7          1           0       -0.706096   -1.564253    0.000294
      8          1           0        1.978004   -1.566125   -0.000655
      9          1           0        3.010199   -0.017621    0.000647
     10          1           0       -0.186371    2.034748    0.000591
 ---------------------------------------------------------------------

 SCF Done:  E(RHF) =  -246.789941898     A.U. after    2 cycles

 The electronic state is 1-A.
 Alpha  occ. eigenvalues --  -21.19014 -15.73308 -11.47200 -11.43179 -11.39465
 Alpha  occ. eigenvalues --   -1.88122  -1.36353  -1.05664  -0.93697  -0.77403
 Alpha  occ. eigenvalues --   -0.73533  -0.65891  -0.62465  -0.58014  -0.57551
 Alpha  occ. eigenvalues --   -0.46612  -0.45189  -0.30605  -0.24997
 Alpha virt. eigenvalues --    0.03112   0.05157   0.05978   0.06119   0.06975
 Alpha virt. eigenvalues --    0.07974   0.10344   0.10559   0.12047   0.13342
 Alpha virt. eigenvalues --    0.14310   0.14917   0.15380   0.15843   0.17106

 Mulliken charges:
               1
     1  C   -1.584163
     2  C   -1.570888
     3  N   -2.983954
     4  C    1.566445
     5  O   -3.025495
     6  H    1.515463
     7  H    1.609462
     8  H    1.460339
     9  H    1.376806
    10  H    1.635983
 Sum of Mulliken charges =   0.00000

 Dipole moment (field-independent basis, Debye):
    X=             -1.7158    Y=             -0.5996    Z=              0.0015  Tot=              1.8176

 Test job not archived.
 1\1\GINC-SE045\SP\RHF\Aug-CC-pVDZ\C3H5N1O1\OHZDE\09-Apr-2025\0\\#t hf
 aug-cc-pvdz iop(5/13=1,5/36=2,99/5=2) pseudo=read geom=check guess=(re
 ad,tcheck) scf=(maxcycle=1)\\title\\0,1\C,0,-0.49160289,-1.72894545,-0
 .29574027\C,0,-0.44362814,1.81627507,0.18217656\N,0,0.34825034,0.83128
 142,0.15715915\C,0,1.17331189,-0.14108074,0.13800106\O,0,0.72367941,-1
 .41305818,-0.09125944\H,0,-0.68082703,-2.77817513,-0.46122713\H,0,-1.2
 5375657,-0.96069002,-0.29568556\H,0,-1.51970283,1.69118099,0.02250823\
 H,0,-0.09352023,2.83686092,0.36414441\H,0,2.24541105,-0.15519086,0.278

 Normal termination of Gaussian 16 at Wed Apr  9 17:41:22 2025.
