 Gaussian 16, Revision C.01,

 ----------------------------------------------------------------------
 #t hf aug-cc-pvdz symm=none int=(grid=ultrafine) guess=(read,tcheck) s
 table=(opt,rrhf)
 ----------------------------------------------------------------------
 -----
 title
 -----
 Symbolic Z-matrix:
 Charge =  0 Multiplicity = 1

 SCF Done:  E(RHF) =  -304.521950234     A.U. after   15 cycles
 Normal termination of Gaussian 16 at Wed Apr  9 03:14:20 2025.
 Gaussian 16:  ES64L-G16RevC.01  3-Jul-2019

 ----------------------------------------------------------------------
 #t hf aug-cc-pvdz iop(5/13=1,5/36=2,99/5=2) pseudo=read geom=check gue
 ss=(read,tcheck) scf=(maxcycle=1)
 ----------------------------------------------------------------------
 -----
 title
 -----
 Structure from the checkpoint file:  "Grambow2020_b97d3_006924_reverse_mol1.chk"
 Charge =  0 Multiplicity = 1

                         Standard orientation:
 ---------------------------------------------------------------------
 Center     Atomic      Atomic             Coordinates (Angstroms)
 Number     Number       Type             X           Y           Z
 ---------------------------------------------------------------------
      1          8           0       -1.794992   -0.390302   -0.347711
      2          6           0       -0.560732   -0.136798    0.219101
      3          6           0        0.177464    1.597651    0.563015
      4          6           0        0.483274    0.681802   -0.544546
      5          8           0        1.539402   -0.289875   -0.284150
      6          6           0        0.589487   -1.157084    0.372625
      7          1           0       -2.424445   -0.606053    0.366287
      8          1           0       -0.707324    2.170747    0.201775
      9          1           0       -0.558404    0.519768    1.245213
     10          1           0        0.333696    0.923183   -1.599609
     11          1           0        0.891739   -1.417950    1.396773
     12          1           0        0.372505   -2.061708   -0.216722
 ---------------------------------------------------------------------

 SCF Done:  E(RHF) =  -305.876762520     A.U. after    2 cycles

 The electronic state is 1-A.
 Alpha  occ. eigenvalues --  -21.12009 -21.04661 -11.50927 -11.48221 -11.43359
 Alpha  occ. eigenvalues --  -11.39760  -1.80230  -1.73018  -1.22307  -1.03429
 Alpha  occ. eigenvalues --   -0.85828  -0.81751  -0.70323  -0.65101  -0.61811
 Alpha  occ. eigenvalues --   -0.57591  -0.55730  -0.48826  -0.44172  -0.40604
 Alpha  occ. eigenvalues --   -0.35745  -0.30469  -0.29870
 Alpha virt. eigenvalues --    0.03297   0.04873   0.05064   0.06350   0.06478
 Alpha virt. eigenvalues --    0.06696   0.09944   0.10224   0.10917   0.12164
 Alpha virt. eigenvalues --    0.13247   0.13960   0.14617   0.15353   0.15718

 Mulliken charges:
               1
     1  O   -3.315630
     2  C    1.485801
     3  C   -1.943137
     4  C    0.893789
     5  O   -2.793353
     6  C   -1.680490
     7  H    0.592358
     8  H    1.024205
     9  H    1.548983
    10  H    1.457062
    11  H    1.393688
    12  H    1.336723
 Sum of Mulliken charges =  -0.00000

 Dipole moment (field-independent basis, Debye):
    X=             -2.1628    Y=             -1.6447    Z=             -0.9121  Tot=              2.8661

 Test job not archived.
 1\1\GINC-SE016\SP\RHF\Aug-CC-pVDZ\C4H6O2\OHZDE\09-Apr-2025\0\\#t hf au
 g-cc-pvdz iop(5/13=1,5/36=2,99/5=2) pseudo=read geom=check guess=(read
 ,tcheck) scf=(maxcycle=1)\\title\\0,1\O,0,0.0128407,-1.31798272,-1.177
 09012\C,0,0.04488192,-0.44290829,-0.10837362\C,0,-1.48344772,0.3293996
 ,0.75143554\C,0,-0.58412442,0.94708708,-0.23277343\O,0,0.59374126,1.60
 738659,0.31859493\C,0,1.28373073,0.34020317,0.38106031\H,0,0.13376456,
 -2.22496838,-0.83751816\H,0,-2.24214122,-0.19823963,0.12872719\H,0,-0.
 54273696,-0.7939522,0.89932741\H,0,-0.90591488,1.32376203,-1.20661341\

 Normal termination of Gaussian 16 at Wed Apr  9 03:14:24 2025.
