 Gaussian 16, Revision C.01,

 ----------------------------------------------------------------------
 #t hf aug-cc-pvdz symm=none int=(grid=ultrafine) guess=(read,tcheck) s
 table=(opt,rrhf)
 ----------------------------------------------------------------------
 -----
 title
 -----
 Symbolic Z-matrix:
 Charge =  0 Multiplicity = 1

 SCF Done:  E(RHF) =  -359.621848815     A.U. after   15 cycles
 Normal termination of Gaussian 16 at Wed Apr  9 19:11:57 2025.
 Gaussian 16:  ES64L-G16RevC.01  3-Jul-2019

 ----------------------------------------------------------------------
 #t hf aug-cc-pvdz iop(5/13=1,5/36=2,99/5=2) pseudo=read geom=check gue
 ss=(read,tcheck) scf=(maxcycle=1)
 ----------------------------------------------------------------------
 -----
 title
 -----
 Structure from the checkpoint file:  "Grambow2020_wb97xd3_008274_forward_mol1.chk"
 Charge =  0 Multiplicity = 1

                         Standard orientation:
 ---------------------------------------------------------------------
 Center     Atomic      Atomic             Coordinates (Angstroms)
 Number     Number       Type             X           Y           Z
 ---------------------------------------------------------------------
      1          6           0        2.372011   -0.548516    0.016843
      2          6           0        0.963743   -0.077869    0.076727
      3          6           0        0.423060    1.265177   -0.319086
      4          7           0       -0.928608    1.145814    0.168176
      5          6           0       -1.299156   -0.132233   -0.025906
      6          8           0       -2.302227   -0.752910   -0.045209
      7          8           0        0.015063   -0.939149   -0.125042
      8          1           0        2.628154   -0.747713   -1.026856
      9          1           0        2.486823   -1.474768    0.576612
     10          1           0        3.049531    0.208806    0.406786
     11          1           0        0.636609    0.328954    1.589619
     12          1           0        0.458779    1.329604   -1.413119
     13          1           0        0.952300    2.110401    0.115691
     14          1           0       -0.172570    0.721137    1.444564
 ---------------------------------------------------------------------

 SCF Done:  E(RHF) =  -361.276441193     A.U. after    2 cycles

 The electronic state is 1-A.
 Alpha  occ. eigenvalues --  -21.12054 -21.04943 -15.72245 -11.56295 -11.53174
 Alpha  occ. eigenvalues --  -11.46601 -11.43267  -1.87983  -1.69793  -1.39492
 Alpha  occ. eigenvalues --   -1.19009  -1.03859  -0.86133  -0.78716  -0.77701
 Alpha  occ. eigenvalues --   -0.67490  -0.62779  -0.61652  -0.59053  -0.55918
 Alpha  occ. eigenvalues --   -0.51817  -0.50788  -0.48320  -0.42930  -0.38184
 Alpha  occ. eigenvalues --   -0.30599  -0.28786
 Alpha virt. eigenvalues --    0.02479   0.04369   0.04686   0.04913   0.05686
 Alpha virt. eigenvalues --    0.05964   0.08412   0.09434   0.09871   0.11045
 Alpha virt. eigenvalues --    0.11785   0.12466   0.13500   0.13653   0.14668

 Mulliken charges:
               1
     1  C   -4.459217
     2  C    3.727395
     3  C   -2.370951
     4  N   -2.323824
     5  C    5.987308
     6  O   -3.310644
     7  O   -3.478416
     8  H    1.132256
     9  H    1.266497
    10  H    1.172453
    11  H    0.648852
    12  H    1.265517
    13  H    1.253839
    14  H   -0.511066
 Sum of Mulliken charges =  -0.00000

 Dipole moment (field-independent basis, Debye):
    X=              4.9781    Y=             -0.3428    Z=             -0.8690  Tot=              5.0650

 Test job not archived.
 1\1\GINC-SE056\SP\RHF\Aug-CC-pVDZ\C4H7N1O2\OHZDE\09-Apr-2025\0\\#t hf
 aug-cc-pvdz iop(5/13=1,5/36=2,99/5=2) pseudo=read geom=check guess=(re
 ad,tcheck) scf=(maxcycle=1)\\title\\0,1\C,0,-1.62349901,-0.91002928,-0
 .19448043\C,0,-0.28202751,-0.29035019,-0.03711692\C,0,0.04096487,1.116
 60743,0.37389078\N,0,1.46228267,1.12931226,0.13228665\C,0,1.9211203,-0
 .09306213,0.45422864\O,0,2.96307081,-0.59914743,0.67779066\O,0,0.69907
 674,-1.03514443,0.36935929\H,0,-2.03759232,-1.10014721,0.79898777\H,0,
 -1.54311872,-1.86194022,-0.71589241\H,0,-2.29541663,-0.24527142,-0.734

 Normal termination of Gaussian 16 at Wed Apr  9 19:12:02 2025.
