 Gaussian 16, Revision C.01,

 ----------------------------------------------------------------------
 #t hf aug-cc-pvdz symm=none int=(grid=ultrafine) guess=(read,tcheck) s
 table=(opt,rrhf)
 ----------------------------------------------------------------------
 -----
 title
 -----
 Symbolic Z-matrix:
 Charge =  0 Multiplicity = 1

 SCF Done:  E(RHF) =  -305.717867614     A.U. after   15 cycles
 Normal termination of Gaussian 16 at Wed Apr  9 17:50:50 2025.
 Gaussian 16:  ES64L-G16RevC.01  3-Jul-2019

 ----------------------------------------------------------------------
 #t hf aug-cc-pvdz iop(5/13=1,5/36=2,99/5=2) pseudo=read geom=check gue
 ss=(read,tcheck) scf=(maxcycle=1)
 ----------------------------------------------------------------------
 -----
 title
 -----
 Structure from the checkpoint file:  "Grambow2020_wb97xd3_006210_reverse_mol1.chk"
 Charge =  0 Multiplicity = 1

                         Standard orientation:
 ---------------------------------------------------------------------
 Center     Atomic      Atomic             Coordinates (Angstroms)
 Number     Number       Type             X           Y           Z
 ---------------------------------------------------------------------
      1          6           0       -2.204827   -0.235976    0.294627
      2          8           0       -0.991107   -0.514274   -0.374570
      3          6           0       -0.202171    0.595670   -0.579043
      4          6           0        0.639916    1.061730    0.562040
      5          6           0        1.620976    0.242125   -0.248405
      6          8           0        1.727283   -1.051893    0.132339
      7          1           0       -2.831530    0.444081   -0.292682
      8          1           0       -2.027610    0.210252    1.279291
      9          1           0       -2.723727   -1.185385    0.415567
     10          1           0       -0.596174    1.333975   -1.279130
     11          1           0        0.361611    0.644849    1.529015
     12          1           0        0.848229    2.124315    0.622886
     13          1           0        0.879511    0.277253   -1.315335
     14          1           0        1.076905   -1.301303    0.802928
 ---------------------------------------------------------------------

 SCF Done:  E(RHF) =  -307.126121547     A.U. after    2 cycles

 The electronic state is 1-A.
 Alpha  occ. eigenvalues --  -21.08654 -21.07528 -11.47382 -11.43999 -11.42244
 Alpha  occ. eigenvalues --  -11.38889  -1.79990  -1.73276  -1.23176  -1.01344
 Alpha  occ. eigenvalues --   -0.87638  -0.83412  -0.68738  -0.66784  -0.62174
 Alpha  occ. eigenvalues --   -0.59523  -0.57775  -0.55613  -0.53097  -0.43376
 Alpha  occ. eigenvalues --   -0.40881  -0.35602  -0.32659  -0.28545
 Alpha virt. eigenvalues --    0.03488   0.04869   0.05257   0.05297   0.05846
 Alpha virt. eigenvalues --    0.06717   0.07299   0.08092   0.10093   0.12075
 Alpha virt. eigenvalues --    0.12482   0.13616   0.13886   0.14646   0.15173

 Mulliken charges:
               1
     1  C   -2.923055
     2  O   -3.365208
     3  C    0.831804
     4  C   -3.124062
     5  C    1.154896
     6  O   -2.722906
     7  H    1.331821
     8  H    1.392986
     9  H    1.249043
    10  H    1.484362
    11  H    1.423851
    12  H    1.281386
    13  H    1.144926
    14  H    0.840157
 Sum of Mulliken charges =   0.00000

 Dipole moment (field-independent basis, Debye):
    X=             -2.7880    Y=              0.1368    Z=              1.1220  Tot=              3.0084

 Test job not archived.
 1\1\GINC-SE113\SP\RHF\Aug-CC-pVDZ\C4H8O2\OHZDE\09-Apr-2025\0\\#t hf au
 g-cc-pvdz iop(5/13=1,5/36=2,99/5=2) pseudo=read geom=check guess=(read
 ,tcheck) scf=(maxcycle=1)\\title\\0,1\C,0,1.5666012,-0.53289415,-1.038
 66024\O,0,0.26016752,0.00649201,-1.06481691\C,0,-0.58704572,-0.5438894
 ,-0.12912787\C,0,-0.49970032,-0.02588368,1.26816712\C,0,-1.66561342,0.
 75886864,0.70615141\O,0,-1.33750726,1.96267403,0.18274972\H,0,1.555583
 38,-1.60330159,-1.27162377\H,0,2.04086388,-0.38991069,-0.06156241\H,0,
 2.14059637,-0.00737155,-1.79998668\H,0,-0.85130748,-1.59057068,-0.2874

 Normal termination of Gaussian 16 at Wed Apr  9 17:50:54 2025.
