 Gaussian 16, Revision C.01,

 ----------------------------------------------------------------------
 #t hf aug-cc-pvdz symm=none int=(grid=ultrafine) guess=(read,tcheck) s
 table=(opt,rrhf)
 ----------------------------------------------------------------------
 -----
 title
 -----
 Symbolic Z-matrix:
 Charge =  0 Multiplicity = 1

 SCF Done:  E(RHF) =  -307.680844717     A.U. after   15 cycles

 1\1\GINC-SE084\Stability\RHF\Aug-CC-pVDZ\C6H10O1\OHZDE\09-Apr-2025\0\\
 #t hf aug-cc-pvdz symm=none int=(grid=ultrafine) guess=(read,tcheck) s
 table=(opt,rrhf)\\title\\0,1\C,0,2.71294201,0.46643377,-0.01880521\C,0
 ,1.28786901,0.09085253,0.14761741\C,0,0.24184942,0.67295948,-0.6290651
 9\C,0,-1.14176953,0.48160832,0.23001035\O,0,-2.27138228,0.25195061,-0.
 62058882\C,0,-2.38094454,-1.09587854,-0.11547827\C,0,-1.20791332,-0.84
 850671,0.77099522\H,0,3.31076239,0.24980121,0.86732535\H,0,2.79472708,
 1.53332695,-0.25340482\H,0,3.17452928,-0.05918951,-0.86444797\H,0,1.02

 Normal termination of Gaussian 16 at Wed Apr  9 19:16:12 2025.
 Gaussian 16:  ES64L-G16RevC.01  3-Jul-2019

 ----------------------------------------------------------------------
 #t hf aug-cc-pvdz iop(5/13=1,5/36=2,99/5=2) pseudo=read geom=check gue
 ss=(read,tcheck) scf=(maxcycle=1)
 ----------------------------------------------------------------------
 -----
 title
 -----
 Structure from the checkpoint file:  "Grambow2020_wb97xd3_008508_reverse_mol1.chk"
 Charge =  0 Multiplicity = 1

                         Standard orientation:
 ---------------------------------------------------------------------
 Center     Atomic      Atomic             Coordinates (Angstroms)
 Number     Number       Type             X           Y           Z
 ---------------------------------------------------------------------
      1          6           0        3.075881    0.164654    0.123978
      2          6           0        1.604738    0.323210    0.023039
      3          6           0        0.701686   -0.775768    0.136984
      4          6           0       -0.684367   -0.323066   -0.613313
      5          8           0       -1.843293   -0.857996    0.037094
      6          6           0       -2.234881    0.472050    0.438865
      7          6           0       -1.029486    1.022684   -0.244403
      8          1           0        3.620131    0.977428   -0.358451
      9          1           0        3.382259   -0.786667   -0.324473
     10          1           0        3.407991    0.120223    1.169054
     11          1           0        1.200139    1.302862   -0.184845
     12          1           0        1.158646   -1.725901   -0.177605
     13          1           0        0.234365   -0.960107    1.108617
     14          1           0       -0.585915   -0.675812   -1.643286
     15          1           0       -2.277911    0.573694    1.532321
     16          1           0       -3.213694    0.738015    0.021384
     17          1           0       -0.781098    1.997648   -0.630374
 ---------------------------------------------------------------------

 SCF Done:  E(RHF) =  -309.152575058     A.U. after    2 cycles

 The electronic state is 1-A.
 Alpha  occ. eigenvalues --  -21.02692 -11.47010 -11.46283 -11.43838 -11.41144
 Alpha  occ. eigenvalues --  -11.38945 -11.36136  -1.76834  -1.24499  -1.09045
 Alpha  occ. eigenvalues --   -1.04228  -0.94275  -0.83261  -0.75095  -0.68445
 Alpha  occ. eigenvalues --   -0.66906  -0.60527  -0.59208  -0.58152  -0.54874
 Alpha  occ. eigenvalues --   -0.50543  -0.48807  -0.47215  -0.42053  -0.36058
 Alpha  occ. eigenvalues --   -0.28294  -0.20996
 Alpha virt. eigenvalues --    0.02821   0.04028   0.05069   0.05203   0.05574
 Alpha virt. eigenvalues --    0.05839   0.06338   0.07040   0.07198   0.07585
 Alpha virt. eigenvalues --    0.08859   0.11162   0.11881   0.12927   0.13466

 Mulliken charges:
               1
     1  C   -4.362590
     2  C    0.525946
     3  C   -3.880548
     4  C    0.625698
     5  O   -2.832592
     6  C   -1.892640
     7  C   -1.679320
     8  H    1.205802
     9  H    1.223401
    10  H    1.230613
    11  H    1.630278
    12  H    1.237140
    13  H    1.484094
    14  H    1.504827
    15  H    1.387409
    16  H    1.376243
    17  H    1.216239
 Sum of Mulliken charges =  -0.00000

 Dipole moment (field-independent basis, Debye):
    X=              2.1626    Y=             -0.1152    Z=             -0.3820  Tot=              2.1991

 Test job not archived.
 1\1\GINC-SE084\SP\RHF\Aug-CC-pVDZ\C6H10O1\OHZDE\09-Apr-2025\0\\#t hf a
 ug-cc-pvdz iop(5/13=1,5/36=2,99/5=2) pseudo=read geom=check guess=(rea
 d,tcheck) scf=(maxcycle=1)\\title\\0,1\C,0,2.71294201,0.46643377,-0.01
 880521\C,0,1.28786901,0.09085253,0.14761741\C,0,0.24184942,0.67295948,
 -0.62906519\C,0,-1.14176953,0.48160832,0.23001035\O,0,-2.27138228,0.25
 195061,-0.62058882\C,0,-2.38094454,-1.09587854,-0.11547827\C,0,-1.2079
 1332,-0.84850671,0.77099522\H,0,3.31076239,0.24980121,0.86732535\H,0,2
 .79472708,1.53332695,-0.25340482\H,0,3.17452928,-0.05918951,-0.8644479

 Normal termination of Gaussian 16 at Wed Apr  9 19:16:18 2025.
