 Gaussian 16, Revision C.01,

 ----------------------------------------------------------------------
 #t hf aug-cc-pvdz symm=none int=(grid=ultrafine) guess=(read,tcheck) s
 table=(opt,rrhf)
 ----------------------------------------------------------------------
 -----
 title
 -----
 Symbolic Z-matrix:
 Charge =  0 Multiplicity = 1

 SCF Done:  E(RHF) =  -231.680802006     A.U. after   15 cycles
 Normal termination of Gaussian 16 at Wed Apr  9 16:55:10 2025.
 Gaussian 16:  ES64L-G16RevC.01  3-Jul-2019

 ----------------------------------------------------------------------
 #t hf aug-cc-pvdz iop(5/13=1,5/36=2,99/5=2) pseudo=read geom=check gue
 ss=(read,tcheck) scf=(maxcycle=1)
 ----------------------------------------------------------------------
 -----
 title
 -----
 Structure from the checkpoint file:  "Grambow2020_b97d3_006872_reverse_mol1.chk"
 Charge =  0 Multiplicity = 1

                         Standard orientation:
 ---------------------------------------------------------------------
 Center     Atomic      Atomic             Coordinates (Angstroms)
 Number     Number       Type             X           Y           Z
 ---------------------------------------------------------------------
      1          6           0        1.286294   -0.532816   -0.369786
      2          6           0        0.980543    0.997890   -0.316313
      3          6           0       -0.945340    0.760651   -0.343326
      4          6           0       -1.202581   -0.745510   -0.272333
      5          6           0        0.099643   -0.875284    0.557573
      6          6           0        0.034844    0.677021    0.836034
      7          1           0        2.232472   -0.613407    0.189589
      8          1           0        1.398128   -1.050022   -1.335026
      9          1           0       -0.174375    1.096709   -1.220892
     10          1           0       -1.684463    1.562986   -0.388841
     11          1           0       -2.081629   -0.936334    0.357846
     12          1           0       -1.287122   -1.309897   -1.212540
     13          1           0        0.174668   -1.681422    1.297911
     14          1           0       -0.098092    1.239676    1.760855
 ---------------------------------------------------------------------

 SCF Done:  E(RHF) =  -232.847628400     A.U. after    2 cycles

 The electronic state is 1-A.
 Alpha  occ. eigenvalues --  -11.51138 -11.46572 -11.41557 -11.40281 -11.39175
 Alpha  occ. eigenvalues --  -11.35324  -1.45390  -1.07262  -1.02617  -0.90566
 Alpha  occ. eigenvalues --   -0.79386  -0.75894  -0.69447  -0.63248  -0.59720
 Alpha  occ. eigenvalues --   -0.52638  -0.50619  -0.46269  -0.44138  -0.41632
 Alpha  occ. eigenvalues --   -0.36819  -0.29446
 Alpha virt. eigenvalues --    0.03927   0.04822   0.05182   0.05414   0.05866
 Alpha virt. eigenvalues --    0.06409   0.06599   0.07754   0.09501   0.12208
 Alpha virt. eigenvalues --    0.12425   0.13433   0.13830   0.14508   0.15029

 Mulliken charges:
               1
     1  C   -2.900966
     2  C   -0.520218
     3  C   -1.912158
     4  C   -2.800787
     5  C   -1.590381
     6  C   -0.929217
     7  H    1.380340
     8  H    1.333494
     9  H    1.313509
    10  H    1.190478
    11  H    1.328522
    12  H    1.316582
    13  H    1.482101
    14  H    1.308702
 Sum of Mulliken charges =  -0.00000

 Dipole moment (field-independent basis, Debye):
    X=             -1.9907    Y=             -1.7234    Z=              0.8879  Tot=              2.7787

 Test job not archived.
 1\1\GINC-SE229\SP\RHF\Aug-CC-pVDZ\C6H8\OHZDE\09-Apr-2025\0\\#t hf aug-
 cc-pvdz iop(5/13=1,5/36=2,99/5=2) pseudo=read geom=check guess=(read,t
 check) scf=(maxcycle=1)\\title\\0,1\C,0,-1.2785059,-0.268447,0.6792062
 \C,0,-0.95193825,1.19892271,0.25543346\C,0,0.93225845,0.8453734,-0.045
 96552\C,0,1.13179313,-0.65928828,0.14354067\C,0,-0.3153944,-0.86255064
 ,-0.37192494\C,0,-0.27006064,0.59790708,-0.96891434\H,0,-2.32075316,-0
 .39421581,0.34372188\H,0,-1.2035992,-0.57889808,1.73263216\H,0,0.36558
 754,1.39615094,0.87759902\H,0,1.68491867,1.59078723,-0.3104967\H,0,1.8

 Normal termination of Gaussian 16 at Wed Apr  9 16:55:14 2025.
