 Gaussian 16, Revision C.01,

 ----------------------------------------------------------------------
 #t hf aug-cc-pvdz symm=none int=(grid=ultrafine) guess=(read,tcheck) s
 table=(opt,rrhf)
 ----------------------------------------------------------------------
 -----
 title
 -----
 Symbolic Z-matrix:
 Charge =  0 Multiplicity = 1

 SCF Done:  E(RHF) =  -287.885258237     A.U. after   17 cycles

 1\1\GINC-SE232\Stability\RHF\Aug-CC-pVDZ\C6H11N1\OHZDE\09-Apr-2025\0\\
 #t hf aug-cc-pvdz symm=none int=(grid=ultrafine) guess=(read,tcheck) s
 table=(opt,rrhf)\\title\\0,1\C,0,-1.96119503,0.45025656,-0.59766575\C,
 0,-1.34042918,-0.82983908,-0.11930304\C,0,0.1803265,-0.86037531,-0.347
 48052\C,0,0.98180142,0.00692113,0.61578834\C,0,2.45855076,0.09789864,0
 .24435766\C,0,0.41292553,1.39244815,0.77744436\N,0,-0.63546117,1.84057
 603,0.39472154\H,0,-1.55916696,2.08292657,0.05660169\H,0,-1.87949836,0
 .61624277,-1.67234274\H,0,-2.97607172,0.62644719,-0.23696592\H,0,-1.54

 Normal termination of Gaussian 16 at Wed Apr  9 18:15:41 2025.
 Gaussian 16:  ES64L-G16RevC.01  3-Jul-2019

 ----------------------------------------------------------------------
 #t hf aug-cc-pvdz iop(5/13=1,5/36=2,99/5=2) pseudo=read geom=check gue
 ss=(read,tcheck) scf=(maxcycle=1)
 ----------------------------------------------------------------------
 -----
 title
 -----
 Structure from the checkpoint file:  "Grambow2020_wb97xd3_006806_reverse_mol1.chk"
 Charge =  0 Multiplicity = 1

                         Standard orientation:
 ---------------------------------------------------------------------
 Center     Atomic      Atomic             Coordinates (Angstroms)
 Number     Number       Type             X           Y           Z
 ---------------------------------------------------------------------
      1          6           0        2.071789    0.036185    0.344022
      2          6           0        1.317869   -1.074883   -0.326768
      3          6           0       -0.136021   -1.172205    0.165601
      4          6           0       -1.059420   -0.085019   -0.370880
      5          6           0       -2.438640   -0.102822    0.280627
      6          6           0       -0.467936    1.296729   -0.269107
      7          7           0        0.651486    1.632871    0.014288
      8          1           0        1.631123    1.781743    0.225093
      9          1           0        2.194035   -0.088355    1.420452
     10          1           0        3.011179    0.306516   -0.141354
     11          1           0        1.322156   -0.926620   -1.413230
     12          1           0        1.804964   -2.043015   -0.158808
     13          1           0       -0.556934   -2.135936   -0.131697
     14          1           0       -0.145666   -1.152700    1.260890
     15          1           0       -1.192419   -0.235183   -1.450054
     16          1           0       -2.912028   -1.077536    0.147956
     17          1           0       -2.359577    0.090601    1.352593
     18          1           0       -3.083079    0.662480   -0.152827
 ---------------------------------------------------------------------

 SCF Done:  E(RHF) =  -289.333544029     A.U. after    2 cycles

 The electronic state is 1-A.
 Alpha  occ. eigenvalues --  -15.81362 -11.44711 -11.42375 -11.41474 -11.39134
 Alpha  occ. eigenvalues --  -11.36659 -11.34812  -1.39556  -1.23720  -1.13626
 Alpha  occ. eigenvalues --   -0.99057  -0.90206  -0.86604  -0.78061  -0.66353
 Alpha  occ. eigenvalues --   -0.62649  -0.60354  -0.58643  -0.54534  -0.51956
 Alpha  occ. eigenvalues --   -0.50782  -0.47575  -0.46693  -0.45547  -0.43795
 Alpha  occ. eigenvalues --   -0.41788  -0.21644
 Alpha virt. eigenvalues --    0.04019   0.05152   0.05391   0.05656   0.05754
 Alpha virt. eigenvalues --    0.05909   0.06670   0.06864   0.07182   0.08382
 Alpha virt. eigenvalues --    0.08537   0.10321   0.11368   0.12583   0.12843

 Mulliken charges:
               1
     1  C   -2.940527
     2  C   -3.261206
     3  C   -2.613731
     4  C   -0.781239
     5  C   -3.826490
     6  C    1.086492
     7  N   -2.540100
     8  H    1.083591
     9  H    1.236320
    10  H    1.301540
    11  H    1.474775
    12  H    1.244150
    13  H    1.356853
    14  H    1.548917
    15  H    1.738743
    16  H    1.278567
    17  H    1.347315
    18  H    1.266031
 Sum of Mulliken charges =  -0.00000

 Dipole moment (field-independent basis, Debye):
    X=              0.7053    Y=             -0.8317    Z=              0.0453  Tot=              1.0914

 Test job not archived.
 1\1\GINC-SE232\SP\RHF\Aug-CC-pVDZ\C6H11N1\OHZDE\09-Apr-2025\0\\#t hf a
 ug-cc-pvdz iop(5/13=1,5/36=2,99/5=2) pseudo=read geom=check guess=(rea
 d,tcheck) scf=(maxcycle=1)\\title\\0,1\C,0,-1.96119503,0.45025656,-0.5
 9766575\C,0,-1.34042918,-0.82983908,-0.11930304\C,0,0.1803265,-0.86037
 531,-0.34748052\C,0,0.98180142,0.00692113,0.61578834\C,0,2.45855076,0.
 09789864,0.24435766\C,0,0.41292553,1.39244815,0.77744436\N,0,-0.635461
 17,1.84057603,0.39472154\H,0,-1.55916696,2.08292657,0.05660169\H,0,-1.
 87949836,0.61624277,-1.67234274\H,0,-2.97607172,0.62644719,-0.23696592

 Normal termination of Gaussian 16 at Wed Apr  9 18:15:47 2025.
