 Gaussian 16, Revision C.01,

 ----------------------------------------------------------------------
 #t hf aug-cc-pvdz symm=none int=(grid=ultrafine) guess=(read,tcheck) s
 table=(opt,rrhf)
 ----------------------------------------------------------------------
 -----
 title
 -----
 Symbolic Z-matrix:
 Charge =  0 Multiplicity = 1

 SCF Done:  E(RHF) =  -266.591258760     A.U. after   15 cycles
 Normal termination of Gaussian 16 at Wed Apr  9 03:05:15 2025.
 Gaussian 16:  ES64L-G16RevC.01  3-Jul-2019

 ----------------------------------------------------------------------
 #t hf aug-cc-pvdz iop(5/13=1,5/36=2,99/5=2) pseudo=read geom=check gue
 ss=(read,tcheck) scf=(maxcycle=1)
 ----------------------------------------------------------------------
 -----
 title
 -----
 Structure from the checkpoint file:  "Grambow2020_b97d3_006482_forward_mol1.chk"
 Charge =  0 Multiplicity = 1

                         Standard orientation:
 ---------------------------------------------------------------------
 Center     Atomic      Atomic             Coordinates (Angstroms)
 Number     Number       Type             X           Y           Z
 ---------------------------------------------------------------------
      1          8           0        1.594461   -0.882692   -0.103184
      2          6           0        0.957433    0.954544   -0.101446
      3          6           0       -0.269014    0.319906   -0.041521
      4          6           0       -1.414921   -0.333345   -0.609947
      5          8           0       -1.145376   -0.105390    0.862556
      6          1           0        1.699284   -1.120696    0.843032
      7          1           0        1.432851    1.333548    0.797379
      8          1           0        1.393795    1.143108   -1.074886
      9          1           0       -0.177872    2.021003   -0.222012
     10          1           0       -1.333585   -1.376745   -0.910525
     11          1           0       -2.248141    0.257810   -0.990473
 ---------------------------------------------------------------------

 SCF Done:  E(RHF) =  -267.821656814     A.U. after    2 cycles

 The electronic state is 1-A.
 Alpha  occ. eigenvalues --  -21.15014 -20.95354 -11.58683 -11.52989 -11.49564
 Alpha  occ. eigenvalues --   -1.86284  -1.51192  -1.15956  -1.04211  -0.83554
 Alpha  occ. eigenvalues --   -0.72061  -0.68777  -0.66210  -0.55902  -0.52027
 Alpha  occ. eigenvalues --   -0.44309  -0.43897  -0.38888  -0.25510  -0.23276
 Alpha virt. eigenvalues --    0.02931   0.04755   0.05198   0.06053   0.06580
 Alpha virt. eigenvalues --    0.07764   0.08439   0.10032   0.12370   0.12622
 Alpha virt. eigenvalues --    0.13164   0.14019   0.14825   0.15802   0.17917

 Mulliken charges:
               1
     1  O   -1.554916
     2  C   -3.759351
     3  C    4.161264
     4  C   -2.281926
     5  O   -2.695183
     6  H    0.823869
     7  H    1.353378
     8  H    1.180129
     9  H    0.124198
    10  H    1.363157
    11  H    1.285380
 Sum of Mulliken charges =   0.00000

 Dipole moment (field-independent basis, Debye):
    X=             -2.4982    Y=             -0.0895    Z=              0.3032  Tot=              2.5181

 Test job not archived.
 1\1\GINC-SE060\SP\RHF\Aug-CC-pVDZ\C3H6O2\OHZDE\09-Apr-2025\0\\#t hf au
 g-cc-pvdz iop(5/13=1,5/36=2,99/5=2) pseudo=read geom=check guess=(read
 ,tcheck) scf=(maxcycle=1)\\title\\0,1\O,0,-1.79809655,-0.54738627,-0.2
 835619\C,0,-0.64963552,0.99718698,-0.00684485\C,0,0.33370028,0.0275979
 7,-0.06580799\C,0,1.17068179,-0.99923019,0.48920137\O,0,1.13289073,-0.
 55048894,-0.95651169\H,0,-1.87111887,-0.64389572,-1.25737495\H,0,-0.89
 705272,1.59320148,-0.87925772\H,0,-1.10802553,1.20956802,0.95144871\H,
 0,0.73164365,1.64729095,0.3251527\H,0,0.75412402,-1.99279109,0.6471967

 Normal termination of Gaussian 16 at Wed Apr  9 03:05:18 2025.
