 Gaussian 16, Revision C.01,

 ----------------------------------------------------------------------
 #t hf aug-cc-pvdz symm=none int=(grid=ultrafine) guess=(read,tcheck) s
 table=(opt,rrhf)
 ----------------------------------------------------------------------
 -----
 title
 -----
 Symbolic Z-matrix:
 Charge =  0 Multiplicity = 1

 SCF Done:  E(RHF) =  -345.892116257     A.U. after   14 cycles

 1\1\GINC-SE226\Stability\RHF\Aug-CC-pVDZ\C5H12O2\OHZDE\09-Apr-2025\0\\
 #t hf aug-cc-pvdz symm=none int=(grid=ultrafine) guess=(read,tcheck) s
 table=(opt,rrhf)\\title\\0,1\C,0,2.21448242,0.4190802,1.34737038\C,0,0
 .7107391,0.42194966,1.11361496\C,0,0.33574135,-0.18139809,-0.23109097\
 O,0,0.68148843,-1.54876312,-0.31732231\C,0,-1.14870552,-0.05878688,-0.
 57023001\C,0,-1.57295874,-0.34999319,-1.89797994\O,0,-1.95674557,-0.24
 69431,0.48821407\H,0,2.62359071,-0.59057154,1.29103036\H,0,2.7285422,1
 .02764671,0.5997503\H,0,2.45501402,0.82730091,2.3299405\H,0,0.19885901

 Normal termination of Gaussian 16 at Wed Apr  9 19:06:16 2025.
 Gaussian 16:  ES64L-G16RevC.01  3-Jul-2019

 ----------------------------------------------------------------------
 #t hf aug-cc-pvdz iop(5/13=1,5/36=2,99/5=2) pseudo=read geom=check gue
 ss=(read,tcheck) scf=(maxcycle=1)
 ----------------------------------------------------------------------
 -----
 title
 -----
 Structure from the checkpoint file:  "Grambow2020_wb97xd3_008078_forward_mol1.chk"
 Charge =  0 Multiplicity = 1

                         Standard orientation:
 ---------------------------------------------------------------------
 Center     Atomic      Atomic             Coordinates (Angstroms)
 Number     Number       Type             X           Y           Z
 ---------------------------------------------------------------------
      1          6           0        2.737467   -0.100990    0.276273
      2          6           0        1.345882   -0.683553    0.076260
      3          6           0        0.254811    0.364171    0.233505
      4          8           0        0.336734    1.371968   -0.753560
      5          6           0       -1.160998   -0.208013    0.191989
      6          6           0       -2.247134    0.625951    0.582533
      7          8           0       -1.313963   -1.192658   -0.711178
      8          1           0        2.931684    0.713502   -0.422886
      9          1           0        2.855064    0.294761    1.287757
     10          1           0        3.502492   -0.864249    0.127564
     11          1           0        1.258376   -1.134731   -0.917608
     12          1           0        1.157298   -1.484523    0.794323
     13          1           0        0.360852    0.879168    1.190807
     14          1           0        0.301233    0.953583   -1.617991
     15          1           0       -0.932403   -1.171053    1.509933
     16          1           0       -3.254767    0.286926    0.375115
     17          1           0       -1.642038   -0.350012    1.499283
     18          1           0       -2.059258    1.682614    0.696461
     19          1           0       -2.240872   -1.225858   -0.968212
 ---------------------------------------------------------------------

 SCF Done:  E(RHF) =  -347.550167565     A.U. after    2 cycles

 The electronic state is 1-A.
 Alpha  occ. eigenvalues --  -21.12959 -21.08009 -11.56069 -11.47191 -11.40727
 Alpha  occ. eigenvalues --  -11.36561 -11.34797  -1.80497  -1.72647  -1.21957
 Alpha  occ. eigenvalues --   -1.14774  -0.99660  -0.87119  -0.81979  -0.72474
 Alpha  occ. eigenvalues --   -0.65135  -0.64160  -0.62696  -0.60170  -0.56580
 Alpha  occ. eigenvalues --   -0.53703  -0.50475  -0.48507  -0.47161  -0.45156
 Alpha  occ. eigenvalues --   -0.40557  -0.39129  -0.33005  -0.27198
 Alpha virt. eigenvalues --    0.03904   0.04732   0.05306   0.05393   0.05729
 Alpha virt. eigenvalues --    0.06314   0.06419   0.06888   0.07282   0.08460
 Alpha virt. eigenvalues --    0.09387   0.10939   0.12054   0.13597   0.14016

 Mulliken charges:
               1
     1  C   -4.165595
     2  C   -3.135389
     3  C    1.081574
     4  O   -3.279209
     5  C    3.177561
     6  C   -3.483992
     7  O   -3.486707
     8  H    1.314128
     9  H    1.260052
    10  H    1.059660
    11  H    1.456427
    12  H    1.469187
    13  H    1.896656
    14  H    0.658221
    15  H   -0.668762
    16  H    1.265298
    17  H    1.551757
    18  H    1.397055
    19  H    0.632079
 Sum of Mulliken charges =   0.00000

 Dipole moment (field-independent basis, Debye):
    X=              0.3521    Y=             -0.2906    Z=             -2.0201  Tot=              2.0710

 Test job not archived.
 1\1\GINC-SE226\SP\RHF\Aug-CC-pVDZ\C5H12O2\OHZDE\09-Apr-2025\0\\#t hf a
 ug-cc-pvdz iop(5/13=1,5/36=2,99/5=2) pseudo=read geom=check guess=(rea
 d,tcheck) scf=(maxcycle=1)\\title\\0,1\C,0,2.21448242,0.4190802,1.3473
 7038\C,0,0.7107391,0.42194966,1.11361496\C,0,0.33574135,-0.18139809,-0
 .23109097\O,0,0.68148843,-1.54876312,-0.31732231\C,0,-1.14870552,-0.05
 878688,-0.57023001\C,0,-1.57295874,-0.34999319,-1.89797994\O,0,-1.9567
 4557,-0.2469431,0.48821407\H,0,2.62359071,-0.59057154,1.29103036\H,0,2
 .7285422,1.02764671,0.5997503\H,0,2.45501402,0.82730091,2.3299405\H,0,

 Normal termination of Gaussian 16 at Wed Apr  9 19:06:23 2025.
