 Gaussian 16, Revision C.01,

 ----------------------------------------------------------------------
 #t hf aug-cc-pvdz symm=none int=(grid=ultrafine) guess=(read,tcheck) s
 table=(opt,rrhf)
 ----------------------------------------------------------------------
 -----
 title
 -----
 Symbolic Z-matrix:
 Charge =  0 Multiplicity = 1

 SCF Done:  E(RHF) =  -283.628961316     A.U. after   15 cycles
 Normal termination of Gaussian 16 at Wed Apr  9 16:07:42 2025.
 Gaussian 16:  ES64L-G16RevC.01  3-Jul-2019

 ----------------------------------------------------------------------
 #t hf aug-cc-pvdz iop(5/13=1,5/36=2,99/5=2) pseudo=read geom=check gue
 ss=(read,tcheck) scf=(maxcycle=1)
 ----------------------------------------------------------------------
 -----
 title
 -----
 Structure from the checkpoint file:  "Grambow2020_b97d3_006734_reverse_mol2.chk"
 Charge =  0 Multiplicity = 1

                         Standard orientation:
 ---------------------------------------------------------------------
 Center     Atomic      Atomic             Coordinates (Angstroms)
 Number     Number       Type             X           Y           Z
 ---------------------------------------------------------------------
      1          6           0        1.947903   -0.007526   -0.360808
      2          6           0       -0.187330    1.257026    0.193580
      3          8           0       -1.355161    0.765134   -0.197767
      4          6           0       -1.298142   -0.709613   -0.172786
      5          7           0       -0.190963   -1.177322    0.203168
      6          6           0        0.652186    0.018438    0.471454
      7          1           0        1.714528    0.027157   -1.432380
      8          1           0        2.503367   -0.928662   -0.150036
      9          1           0        2.567458    0.860551   -0.108129
     10          1           0       -2.211494   -1.208833   -0.481868
     11          1           0        0.916470    0.020018    1.543730
 ---------------------------------------------------------------------

 SCF Done:  E(RHF) =  -284.907752136     A.U. after    2 cycles

 The electronic state is 1-A.
 Alpha  occ. eigenvalues --  -21.13738 -15.76100 -11.48140 -11.45649 -11.42677
 Alpha  occ. eigenvalues --  -11.38338  -1.84233  -1.39019  -1.15716  -0.98288
 Alpha  occ. eigenvalues --   -0.83028  -0.78630  -0.70072  -0.64458  -0.58130
 Alpha  occ. eigenvalues --   -0.56274  -0.51408  -0.48327  -0.45062  -0.39708
 Alpha  occ. eigenvalues --   -0.39616  -0.35547
 Alpha virt. eigenvalues --    0.03307   0.04852   0.05932   0.06479   0.06578
 Alpha virt. eigenvalues --    0.08145   0.09719   0.09893   0.10690   0.11515
 Alpha virt. eigenvalues --    0.12792   0.13600   0.14620   0.15144   0.15691

 Mulliken charges:
               1
     1  C   -3.228597
     2  C    0.294852
     3  O   -2.547652
     4  C    1.569969
     5  N   -2.517471
     6  C   -0.695323
     7  H    1.334056
     8  H    1.243518
     9  H    1.227441
    10  H    1.641678
    11  H    1.677528
 Sum of Mulliken charges =  -0.00000

 Dipole moment (field-independent basis, Debye):
    X=             -0.6376    Y=             -1.6183    Z=             -0.3497  Tot=              1.7742

 Test job not archived.
 1\1\GINC-SE220\SP\RHF\Aug-CC-pVDZ\C4H5N1O1\OHZDE\09-Apr-2025\0\\#t hf
 aug-cc-pvdz iop(5/13=1,5/36=2,99/5=2) pseudo=read geom=check guess=(re
 ad,tcheck) scf=(maxcycle=1)\\title\\0,1\C,0,-1.50840703,0.18260638,-0.
 20118178\C,0,0.60285394,-1.0413852,-0.91538162\O,0,1.77157156,-0.41843
 806,-0.84484757\C,0,1.76327744,0.50901147,0.30342211\N,0,0.6856962,0.5
 1439993,0.95513351\C,0,-0.18583118,-0.46419563,0.25120769\H,0,-1.31398
 911,0.98321173,-0.92586618\H,0,-2.02600194,0.60912397,0.66578694\H,0,-
 2.14652415,-0.57225817,-0.67472008\H,0,2.68092849,1.0720541,0.44436583

 Normal termination of Gaussian 16 at Wed Apr  9 16:07:45 2025.
