 Gaussian 16, Revision C.01,

 ----------------------------------------------------------------------
 #t hf aug-cc-pvdz symm=none int=(grid=ultrafine) guess=(read,tcheck) s
 table=(opt,rrhf)
 ----------------------------------------------------------------------
 -----
 title
 -----
 Symbolic Z-matrix:
 Charge =  0 Multiplicity = 1

 SCF Done:  E(RHF) =  -317.733387825     A.U. after   15 cycles
 Normal termination of Gaussian 16 at Wed Apr  9 18:59:33 2025.
 Gaussian 16:  ES64L-G16RevC.01  3-Jul-2019

 ----------------------------------------------------------------------
 #t hf aug-cc-pvdz iop(5/13=1,5/36=2,99/5=2) pseudo=read geom=check gue
 ss=(read,tcheck) scf=(maxcycle=1)
 ----------------------------------------------------------------------
 -----
 title
 -----
 Structure from the checkpoint file:  "Grambow2020_wb97xd3_007976_reverse_mol2.chk"
 Charge =  0 Multiplicity = 1

                         Standard orientation:
 ---------------------------------------------------------------------
 Center     Atomic      Atomic             Coordinates (Angstroms)
 Number     Number       Type             X           Y           Z
 ---------------------------------------------------------------------
      1          7           0       -2.237434   -0.134549    0.248089
      2          6           0       -1.014919   -0.058029   -0.050488
      3          7           0       -0.282325   -1.256483   -0.219772
      4          6           0        0.971150   -1.198051   -0.063886
      5          6           0        1.719223    0.056413    0.266102
      6          6           0        0.878196    1.245942   -0.074136
      7          7           0       -0.375083    1.199175   -0.239376
      8          1           0       -2.613680    0.808890    0.320522
      9          1           0        1.962631    0.072020    1.335940
     10          1           0        1.542538   -2.117582   -0.190639
     11          1           0        2.678894    0.092115   -0.255662
     12          1           0        1.371608    2.209903   -0.198301
 ---------------------------------------------------------------------

 SCF Done:  E(RHF) =  -319.185179404     A.U. after    2 cycles

 The electronic state is 1-A.
 Alpha  occ. eigenvalues --  -15.75636 -15.75107 -15.72738 -11.48457 -11.46758
 Alpha  occ. eigenvalues --  -11.45870 -11.41973  -1.52888  -1.33130  -1.30781
 Alpha  occ. eigenvalues --   -1.13563  -0.91782  -0.90393  -0.72658  -0.68246
 Alpha  occ. eigenvalues --   -0.66570  -0.64465  -0.58663  -0.56101  -0.53936
 Alpha  occ. eigenvalues --   -0.44680  -0.44142  -0.40305  -0.35152  -0.33618
 Alpha virt. eigenvalues --    0.02374   0.04639   0.05230   0.05255   0.06645
 Alpha virt. eigenvalues --    0.08195   0.09290   0.10251   0.10951   0.11372
 Alpha virt. eigenvalues --    0.12385   0.12740   0.13312   0.14342   0.15234

 Mulliken charges:
               1
     1  N   -3.011353
     2  C    4.320275
     3  N   -3.019456
     4  C    0.387615
     5  C   -2.819722
     6  C    0.578068
     7  N   -2.940486
     8  H    0.584896
     9  H    1.320917
    10  H    1.612235
    11  H    1.357859
    12  H    1.629153
 Sum of Mulliken charges =  -0.00000

 Dipole moment (field-independent basis, Debye):
    X=              4.6626    Y=              1.3289    Z=              0.4794  Tot=              4.8719

 Test job not archived.
 1\1\GINC-SE028\SP\RHF\Aug-CC-pVDZ\C4H5N3\OHZDE\09-Apr-2025\0\\#t hf au
 g-cc-pvdz iop(5/13=1,5/36=2,99/5=2) pseudo=read geom=check guess=(read
 ,tcheck) scf=(maxcycle=1)\\title\\0,1\N,0,2.5481324,-0.43444808,0.3305
 6051\C,0,1.31296869,-0.18508044,0.37221286\N,0,0.42284693,-1.22654386,
 0.72531383\C,0,-0.77592163,-1.12293068,0.3365551\C,0,-1.30698439,0.035
 24343,-0.45007661\C,0,-0.3889057,1.2067848,-0.29944186\N,0,0.80967078,
 1.11701574,0.09496437\H,0,3.04298371,0.41773043,0.0740509\H,0,-1.38149
 798,-0.23970705,-1.50974294\H,0,-1.4675222,-1.92222271,0.60284299\H,0,

 Normal termination of Gaussian 16 at Wed Apr  9 18:59:37 2025.
