 Gaussian 16, Revision C.01,

 ----------------------------------------------------------------------
 #t hf aug-cc-pvdz symm=none int=(grid=ultrafine) guess=(read,tcheck) s
 table=(opt,rrhf)
 ----------------------------------------------------------------------
 -----
 title
 -----
 Symbolic Z-matrix:
 Charge =  0 Multiplicity = 1

 SCF Done:  E(RHF) =  -343.598683142     A.U. after   15 cycles
 Normal termination of Gaussian 16 at Wed Apr  9 03:27:23 2025.
 Gaussian 16:  ES64L-G16RevC.01  3-Jul-2019

 ----------------------------------------------------------------------
 #t hf aug-cc-pvdz iop(5/13=1,5/36=2,99/5=2) pseudo=read geom=check gue
 ss=(read,tcheck) scf=(maxcycle=1)
 ----------------------------------------------------------------------
 -----
 title
 -----
 Structure from the checkpoint file:  "Grambow2020_wb97xd3_006672_forward_mol1.chk"
 Charge =  0 Multiplicity = 1

                         Standard orientation:
 ---------------------------------------------------------------------
 Center     Atomic      Atomic             Coordinates (Angstroms)
 Number     Number       Type             X           Y           Z
 ---------------------------------------------------------------------
      1          6           0        1.714620   -0.293230   -0.924177
      2          6           0        0.497315    0.139110   -0.381861
      3          8           0        1.112319   -0.099776    1.445049
      4          6           0       -0.160008    1.500892   -0.271437
      5          6           0       -1.497002    0.833797    0.147361
      6          6           0       -0.852161   -0.523735   -0.136854
      7          8           0       -1.236777   -1.648652   -0.207700
      8          1           0        1.892349   -0.338391    0.426136
      9          1           0        1.755548   -1.306443   -1.309365
     10          1           0        2.344315    0.440814   -1.412387
     11          1           0        0.813133   -0.915488    1.865499
     12          1           0        0.298502    2.178939    0.442201
     13          1           0       -0.205929    1.978467   -1.251989
     14          1           0       -1.744351    0.953281    1.201580
     15          1           0       -2.374495    1.055246   -0.458667
 ---------------------------------------------------------------------

 SCF Done:  E(RHF) =  -345.192659241     A.U. after    2 cycles

 The electronic state is 1-A.
 Alpha  occ. eigenvalues --  -21.08444 -21.03154 -11.56431 -11.49694 -11.47373
 Alpha  occ. eigenvalues --  -11.40179 -11.37238  -1.73554  -1.62677  -1.33229
 Alpha  occ. eigenvalues --   -1.11572  -0.94884  -0.91198  -0.71483  -0.67278
 Alpha  occ. eigenvalues --   -0.64738  -0.63611  -0.60287  -0.55019  -0.54105
 Alpha  occ. eigenvalues --   -0.49413  -0.48354  -0.45708  -0.42940  -0.34758
 Alpha  occ. eigenvalues --   -0.30194  -0.25714
 Alpha virt. eigenvalues --    0.03550   0.04839   0.05019   0.05522   0.06062
 Alpha virt. eigenvalues --    0.06675   0.07237   0.08448   0.09064   0.10234
 Alpha virt. eigenvalues --    0.10538   0.12559   0.13183   0.13661   0.14838

 Mulliken charges:
               1
     1  C   -4.159683
     2  C    1.121756
     3  O   -1.762021
     4  C   -2.716292
     5  C   -3.870967
     6  C    4.772703
     7  O   -3.622651
     8  H    1.510549
     9  H    1.280453
    10  H    1.263147
    11  H    0.983455
    12  H    1.269179
    13  H    1.203654
    14  H    1.399729
    15  H    1.326989
 Sum of Mulliken charges =   0.00000

 Dipole moment (field-independent basis, Debye):
    X=             -0.7161    Y=              1.5094    Z=             -0.0360  Tot=              1.6711

 Test job not archived.
 1\1\GINC-SE069\SP\RHF\Aug-CC-pVDZ\C5H8O2\OHZDE\09-Apr-2025\0\\#t hf au
 g-cc-pvdz iop(5/13=1,5/36=2,99/5=2) pseudo=read geom=check guess=(read
 ,tcheck) scf=(maxcycle=1)\\title\\0,1\C,0,-1.76072187,-0.61280812,-0.1
 1341299\C,0,-0.40608457,-0.26741672,-0.02112729\O,0,-0.77649008,1.6319
 8339,-0.18839451\C,0,0.58097051,-0.25148602,1.12960563\C,0,1.75523723,
 -0.05634314,0.13412735\C,0,0.75478389,-0.24579506,-1.00722852\O,0,0.82
 928045,-0.38640382,-2.1875109\H,0,-1.73685823,0.74815322,-0.17811386\H
 ,0,-2.11273878,-0.99510896,-1.06555598\H,0,-2.25256164,-0.98842592,0.7

 Normal termination of Gaussian 16 at Wed Apr  9 03:27:28 2025.
