 Gaussian 16, Revision C.01,

 ----------------------------------------------------------------------
 #t hf aug-cc-pvdz symm=none int=(grid=ultrafine) guess=(read,tcheck) s
 table=(opt,rrhf)
 ----------------------------------------------------------------------
 -----
 title
 -----
 Symbolic Z-matrix:
 Charge =  0 Multiplicity = 1

 SCF Done:  E(RHF) =  -309.057643592     A.U. after   12 cycles

 1\1\GINC-SE128\Stability\RHF\Aug-CC-pVDZ\C6H12O1\OHZDE\09-Apr-2025\0\\
 #t hf aug-cc-pvdz symm=none int=(grid=ultrafine) guess=(read,tcheck) s
 table=(opt,rrhf)\\title\\0,1\C,0,1.5146222,1.13242425,0.21982436\C,0,0
 .69685325,-0.15675599,0.18418267\C,0,1.49197673,-1.2929648,-0.45317838
 \C,0,-0.60859113,0.06021845,-0.54724145\C,0,-1.78677968,-0.84303843,-0
 .29210133\C,0,-1.82907231,0.57353771,0.16370683\O,0,-1.80507683,0.7750
 509,1.54562859\H,0,0.96143251,1.94641201,0.69451094\H,0,2.4469435,0.99
 643705,0.77208396\H,0,1.77223611,1.45633601,-0.79275237\H,0,0.45718456

 Normal termination of Gaussian 16 at Wed Apr  9 03:52:27 2025.
 Gaussian 16:  ES64L-G16RevC.01  3-Jul-2019

 ----------------------------------------------------------------------
 #t hf aug-cc-pvdz iop(5/13=1,5/36=2,99/5=2) pseudo=read geom=check gue
 ss=(read,tcheck) scf=(maxcycle=1)
 ----------------------------------------------------------------------
 -----
 title
 -----
 Structure from the checkpoint file:  "Grambow2020_wb97xd3_008287_forward_mol2.chk"
 Charge =  0 Multiplicity = 1

                         Standard orientation:
 ---------------------------------------------------------------------
 Center     Atomic      Atomic             Coordinates (Angstroms)
 Number     Number       Type             X           Y           Z
 ---------------------------------------------------------------------
      1          6           0       -1.510967    1.407228    0.330942
      2          6           0       -0.956772    0.104558   -0.241701
      3          6           0       -2.053572   -0.949237   -0.368063
      4          6           0        0.184174   -0.408244    0.607723
      5          6           0        1.213377   -1.339945    0.023111
      6          6           0        1.596831    0.052733    0.383178
      7          8           0        1.897994    0.902217   -0.683859
      8          1           0       -0.737252    2.175243    0.404694
      9          1           0       -2.316242    1.803882   -0.291075
     10          1           0       -1.914056    1.248751    1.335432
     11          1           0       -0.559970    0.311147   -1.240637
     12          1           0       -2.872810   -0.593191   -0.996835
     13          1           0       -2.469903   -1.195885    0.613097
     14          1           0       -1.665854   -1.870828   -0.806036
     15          1           0       -0.082829   -0.585908    1.646621
     16          1           0        1.594690   -2.159543    0.617203
     17          1           0        1.133261   -1.540845   -1.038517
     18          1           0        2.224845    0.191435    1.259337
     19          1           0        1.643745    1.795448   -0.443556
 ---------------------------------------------------------------------

 SCF Done:  E(RHF) =  -310.567518079     A.U. after    2 cycles

 The electronic state is 1-A.
 Alpha  occ. eigenvalues --  -21.07205 -11.46085 -11.43129 -11.39750 -11.38092
 Alpha  occ. eigenvalues --  -11.36839 -11.34737  -1.72209  -1.31042  -1.17036
 Alpha  occ. eigenvalues --   -0.99793  -0.89527  -0.84174  -0.78482  -0.69360
 Alpha  occ. eigenvalues --   -0.64403  -0.60292  -0.57333  -0.56059  -0.54023
 Alpha  occ. eigenvalues --   -0.53007  -0.49013  -0.46290  -0.45868  -0.43129
 Alpha  occ. eigenvalues --   -0.38982  -0.36078  -0.30434
 Alpha virt. eigenvalues --    0.04143   0.04863   0.05159   0.05490   0.05611
 Alpha virt. eigenvalues --    0.05670   0.06141   0.06774   0.07416   0.08293
 Alpha virt. eigenvalues --    0.08818   0.09075   0.12426   0.12721   0.13632

 Mulliken charges:
               1
     1  C   -4.114310
     2  C   -2.686210
     3  C   -4.100509
     4  C    0.487691
     5  C   -3.433528
     6  C    1.425833
     7  O   -3.236924
     8  H    1.340993
     9  H    1.186052
    10  H    1.294435
    11  H    1.774972
    12  H    1.191326
    13  H    1.329109
    14  H    1.261132
    15  H    1.455513
    16  H    1.246098
    17  H    1.416801
    18  H    1.412816
    19  H    0.748710
 Sum of Mulliken charges =  -0.00000

 Dipole moment (field-independent basis, Debye):
    X=             -0.2548    Y=              0.1645    Z=              0.4059  Tot=              0.5067

 Test job not archived.
 1\1\GINC-SE128\SP\RHF\Aug-CC-pVDZ\C6H12O1\OHZDE\09-Apr-2025\0\\#t hf a
 ug-cc-pvdz iop(5/13=1,5/36=2,99/5=2) pseudo=read geom=check guess=(rea
 d,tcheck) scf=(maxcycle=1)\\title\\0,1\C,0,1.5146222,1.13242425,0.2198
 2436\C,0,0.69685325,-0.15675599,0.18418267\C,0,1.49197673,-1.2929648,-
 0.45317838\C,0,-0.60859113,0.06021845,-0.54724145\C,0,-1.78677968,-0.8
 4303843,-0.29210133\C,0,-1.82907231,0.57353771,0.16370683\O,0,-1.80507
 683,0.7750509,1.54562859\H,0,0.96143251,1.94641201,0.69451094\H,0,2.44
 69435,0.99643705,0.77208396\H,0,1.77223611,1.45633601,-0.79275237\H,0,

 Normal termination of Gaussian 16 at Wed Apr  9 03:52:35 2025.
