 Gaussian 16, Revision C.01,

 ----------------------------------------------------------------------
 #t hf aug-cc-pvdz symm=none int=(grid=ultrafine) guess=(read,tcheck) s
 table=(opt,rrhf)
 ----------------------------------------------------------------------
 -----
 title
 -----
 Symbolic Z-matrix:
 Charge =  0 Multiplicity = 1

 SCF Done:  E(RHF) =  -233.965160761     A.U. after   16 cycles
 Normal termination of Gaussian 16 at Wed Apr  9 16:34:19 2025.
 Gaussian 16:  ES64L-G16RevC.01  3-Jul-2019

 ----------------------------------------------------------------------
 #t hf aug-cc-pvdz iop(5/13=1,5/36=2,99/5=2) pseudo=read geom=check gue
 ss=(read,tcheck) scf=(maxcycle=1)
 ----------------------------------------------------------------------
 -----
 title
 -----
 Structure from the checkpoint file:  "Grambow2020_b97d3_006827_forward_mol1.chk"
 Charge =  0 Multiplicity = 1

                         Standard orientation:
 ---------------------------------------------------------------------
 Center     Atomic      Atomic             Coordinates (Angstroms)
 Number     Number       Type             X           Y           Z
 ---------------------------------------------------------------------
      1          6           0        0.913563    1.428295   -0.265247
      2          6           0        0.475696    0.017253    0.132240
      3          6           0        1.558638   -0.865576    0.441555
      4          6           0       -0.932799    0.068979    0.993513
      5          6           0       -1.816766    0.030227   -0.258031
      6          6           0       -0.549593   -0.612981   -0.808732
      7          1           0        1.605369    1.362810   -1.116154
      8          1           0        0.065736    2.055504   -0.568746
      9          1           0        1.430953    1.918862    0.572088
     10          1           0        2.574845   -0.490333    0.554875
     11          1           0        1.509824   -1.229300   -1.385034
     12          1           0        1.363187   -1.872931    0.807124
     13          1           0       -1.038557   -0.809425    1.633611
     14          1           0       -0.930177    0.999083    1.572497
     15          1           0       -2.048707    1.021204   -0.664355
     16          1           0       -2.711518   -0.597188   -0.226540
     17          1           0        0.858088   -1.048917   -1.885855
     18          1           0       -0.571474   -1.706545   -0.705302
 ---------------------------------------------------------------------

 SCF Done:  E(RHF) =  -235.207263381     A.U. after    2 cycles

 The electronic state is 1-A.
 Alpha  occ. eigenvalues --  -11.48598 -11.44188 -11.42008 -11.39243 -11.38538
 Alpha  occ. eigenvalues --  -11.35845  -1.37780  -1.11377  -0.99004  -0.92621
 Alpha  occ. eigenvalues --   -0.88460  -0.75133  -0.66406  -0.65393  -0.60072
 Alpha  occ. eigenvalues --   -0.59466  -0.54398  -0.53091  -0.51941  -0.48337
 Alpha  occ. eigenvalues --   -0.43470  -0.42496  -0.40484  -0.23966
 Alpha virt. eigenvalues --    0.03898   0.04806   0.05139   0.05294   0.05475
 Alpha virt. eigenvalues --    0.06058   0.06453   0.07156   0.07750   0.08639
 Alpha virt. eigenvalues --    0.08846   0.09657   0.09860   0.12420   0.12880

 Mulliken charges:
               1
     1  C   -4.450872
     2  C    2.218980
     3  C   -4.372180
     4  C   -2.730237
     5  C   -3.050914
     6  C   -1.008359
     7  H    1.243131
     8  H    1.361252
     9  H    1.188915
    10  H    1.541769
    11  H    0.413772
    12  H    1.304351
    13  H    1.287456
    14  H    1.376261
    15  H    1.358988
    16  H    1.189022
    17  H   -0.426161
    18  H    1.554824
 Sum of Mulliken charges =  -0.00000

 Dipole moment (field-independent basis, Debye):
    X=             -1.9077    Y=              0.7038    Z=              1.5720  Tot=              2.5702

 Test job not archived.
 1\1\GINC-SE229\SP\RHF\Aug-CC-pVDZ\C6H12\OHZDE\09-Apr-2025\0\\#t hf aug
 -cc-pvdz iop(5/13=1,5/36=2,99/5=2) pseudo=read geom=check guess=(read,
 tcheck) scf=(maxcycle=1)\\title\\0,1\C,0,-1.02710739,-1.22393496,0.512
 41824\C,0,-0.41335291,0.0969794,0.04417127\C,0,-1.34402607,0.98363751,
 -0.58472466\C,0,0.75409143,0.59933592,1.0991758\C,0,1.86355206,-0.2026
 9901,0.40990209\C,0,0.88369972,-0.05663292,-0.7482295\H,0,-1.5060778,-
 1.71998443,-0.34282929\H,0,-0.27365024,-1.9097864,0.92012277\H,0,-1.78
 855279,-1.04007244,1.28434722\H,0,-2.41522715,0.78916428,-0.55254575\H

 Normal termination of Gaussian 16 at Wed Apr  9 16:34:26 2025.
