 Gaussian 16, Revision C.01,

 ----------------------------------------------------------------------
 #t hf aug-cc-pvdz symm=none int=(grid=ultrafine) guess=(read,tcheck) s
 table=(opt,rrhf)
 ----------------------------------------------------------------------
 -----
 title
 -----
 Symbolic Z-matrix:
 Charge =  0 Multiplicity = 1

 SCF Done:  E(RHF) =  -335.442591344     A.U. after   19 cycles
 Normal termination of Gaussian 16 at Wed Apr  9 16:09:39 2025.
 Gaussian 16:  ES64L-G16RevC.01  3-Jul-2019

 ----------------------------------------------------------------------
 #t hf aug-cc-pvdz iop(5/13=1,5/36=2,99/5=2) pseudo=read geom=check gue
 ss=(read,tcheck) scf=(maxcycle=1)
 ----------------------------------------------------------------------
 -----
 title
 -----
 Structure from the checkpoint file:  "Grambow2020_b97d3_006735_reverse_mol1.chk"
 Charge =  0 Multiplicity = 1

                         Standard orientation:
 ---------------------------------------------------------------------
 Center     Atomic      Atomic             Coordinates (Angstroms)
 Number     Number       Type             X           Y           Z
 ---------------------------------------------------------------------
      1          8           0        2.156648    0.432277   -0.002924
      2          6           0        1.179192   -0.224117    0.000168
      3          7           0       -0.593569    1.273219    0.004285
      4          6           0       -1.508037    0.356024   -0.001143
      5          7           0       -1.601460   -0.919774   -0.002393
      6          8           0        0.452706   -1.185012    0.003163
      7          1           0       -0.904960    2.243339   -0.003501
      8          1           0       -2.631602    0.512977   -0.005803
 ---------------------------------------------------------------------

 SCF Done:  E(RHF) =  -336.838503114     A.U. after    2 cycles

 The electronic state is 1-A.
 Alpha  occ. eigenvalues --  -21.14287 -21.14085 -15.86122 -15.74954 -11.62470
 Alpha  occ. eigenvalues --  -11.49800  -1.82940  -1.73160  -1.42521  -1.23944
 Alpha  occ. eigenvalues --   -0.80634  -0.74022  -0.72683  -0.61810  -0.60524
 Alpha  occ. eigenvalues --   -0.59075  -0.56177  -0.55255  -0.42166  -0.37319
 Alpha  occ. eigenvalues --   -0.36601  -0.34551
 Alpha virt. eigenvalues --    0.02892   0.05283   0.06645   0.08339   0.10315
 Alpha virt. eigenvalues --    0.10842   0.11878   0.12018   0.12547   0.14816
 Alpha virt. eigenvalues --    0.15848   0.17685   0.17881   0.18727   0.19332

 Mulliken charges:
               1
     1  O   -2.312149
     2  C    4.248245
     3  N   -2.489377
     4  C    1.922255
     5  N   -1.596408
     6  O   -2.072773
     7  H    0.756952
     8  H    1.543254
 Sum of Mulliken charges =  -0.00000

 Dipole moment (field-independent basis, Debye):
    X=             -1.4130    Y=              0.9222    Z=             -0.0154  Tot=              1.6873

 Test job not archived.
 1\1\GINC-SE057\SP\RHF\Aug-CC-pVDZ\C2H2N2O2\OHZDE\09-Apr-2025\0\\#t hf
 aug-cc-pvdz iop(5/13=1,5/36=2,99/5=2) pseudo=read geom=check guess=(re
 ad,tcheck) scf=(maxcycle=1)\\title\\0,1\O,0,2.56874778,0.09315908,0.20
 896229\C,0,1.58310609,-0.52676391,0.38357242\N,0,-0.17064308,0.9310416
 3,-0.04523406\C,0,-1.096527,0.05753408,0.19403622\N,0,-1.20599734,-1.1
 6769951,0.54504834\O,0,0.84457535,-1.44183404,0.64496976\H,0,-0.469730
 31,1.86417029,-0.32447751\H,0,-2.21796549,0.21843838,0.13453753\\Versi
 on=ES64L-G16RevC.01\State=1-A\HF=-336.8385031\RMSD=5.448e-02\Dipole=-0

 Normal termination of Gaussian 16 at Wed Apr  9 16:09:42 2025.
