 Gaussian 16, Revision C.01,

 ----------------------------------------------------------------------
 #t hf aug-cc-pvdz symm=none int=(grid=ultrafine) guess=(read,tcheck) s
 table=(opt,rrhf)
 ----------------------------------------------------------------------
 -----
 title
 -----
 Symbolic Z-matrix:
 Charge =  0 Multiplicity = 1

 SCF Done:  E(RHF) =  -343.628390326     A.U. after   15 cycles
 Normal termination of Gaussian 16 at Wed Apr  9 03:28:22 2025.
 Gaussian 16:  ES64L-G16RevC.01  3-Jul-2019

 ----------------------------------------------------------------------
 #t hf aug-cc-pvdz iop(5/13=1,5/36=2,99/5=2) pseudo=read geom=check gue
 ss=(read,tcheck) scf=(maxcycle=1)
 ----------------------------------------------------------------------
 -----
 title
 -----
 Structure from the checkpoint file:  "Grambow2020_wb97xd3_006715_reverse_mol2.chk"
 Charge =  0 Multiplicity = 1

                         Standard orientation:
 ---------------------------------------------------------------------
 Center     Atomic      Atomic             Coordinates (Angstroms)
 Number     Number       Type             X           Y           Z
 ---------------------------------------------------------------------
      1          8           0       -2.349449    0.114293   -0.237500
      2          6           0       -1.576905   -0.777686   -0.047529
      3          6           0       -0.178508   -0.624042    0.500261
      4          8           0        0.169945    0.721338    0.822473
      5          6           0        1.102718    0.754283   -0.253726
      6          6           0        2.193146   -0.228869   -0.029041
      7          6           0        0.878027   -0.690262   -0.599449
      8          1           0       -1.343144    2.706199   -0.327713
      9          1           0       -0.053667   -1.313796    1.345471
     10          1           0       -1.837912   -1.832069   -0.288939
     11          1           0       -1.246233    3.369359   -0.657259
     12          1           0        1.156557    1.649925   -0.856609
     13          1           0        2.474333   -0.488549    0.985367
     14          1           0        3.004031   -0.198399   -0.746340
     15          1           0        0.771194   -1.178256   -1.556857
 ---------------------------------------------------------------------

 SCF Done:  E(RHF) =  -345.181743637     A.U. after    2 cycles

 The electronic state is 1-A.
 Alpha  occ. eigenvalues --  -21.07330 -21.05675 -11.51253 -11.48327 -11.47073
 Alpha  occ. eigenvalues --  -11.43489 -11.39321  -1.81795  -1.71235  -1.27181
 Alpha  occ. eigenvalues --   -1.09089  -0.89241  -0.86602  -0.77026  -0.73327
 Alpha  occ. eigenvalues --   -0.68545  -0.64093  -0.58880  -0.57545  -0.52622
 Alpha  occ. eigenvalues --   -0.49987  -0.47519  -0.45693  -0.40892  -0.36391
 Alpha  occ. eigenvalues --   -0.30927  -0.28619
 Alpha virt. eigenvalues --    0.03626   0.04544   0.04871   0.05491   0.05608
 Alpha virt. eigenvalues --    0.06421   0.07538   0.09283   0.10491   0.11051
 Alpha virt. eigenvalues --    0.12126   0.12380   0.12866   0.13787   0.14182

 Mulliken charges:
               1
     1  O   -2.877464
     2  C    1.699973
     3  C   -0.450209
     4  O   -3.222212
     5  C    1.138181
     6  C   -3.132802
     7  C   -1.235519
     8  H   -0.239555
     9  H    1.506911
    10  H    1.510707
    11  H    0.153112
    12  H    1.406579
    13  H    1.220181
    14  H    1.331467
    15  H    1.190650
 Sum of Mulliken charges =  -0.00000

 Dipole moment (field-independent basis, Debye):
    X=              1.5732    Y=             -0.8493    Z=             -0.4537  Tot=              1.8445

 Test job not archived.
 1\1\GINC-SE344\SP\RHF\Aug-CC-pVDZ\C5H8O2\OHZDE\09-Apr-2025\0\\#t hf au
 g-cc-pvdz iop(5/13=1,5/36=2,99/5=2) pseudo=read geom=check guess=(read
 ,tcheck) scf=(maxcycle=1)\\title\\0,1\O,0,2.46874431,-0.23526601,0.680
 42077\C,0,1.96699243,-0.06298004,-0.39060833\C,0,0.60910538,0.55041386
 ,-0.63368123\O,0,-0.059726,0.96104621,0.55767564\C,0,-1.02642131,-0.07
 177129,0.38991794\C,0,-1.80891038,0.14336218,-0.85408208\C,0,-0.452327
 17,-0.50619138,-0.92857207\H,0,0.81832876,-0.13942737,2.91776439\H,0,0
 .71489588,1.36052682,-1.36733677\H,0,2.48012726,-0.37320874,-1.3279323

 Normal termination of Gaussian 16 at Wed Apr  9 03:28:28 2025.
