 Gaussian 16, Revision C.01,

 ----------------------------------------------------------------------
 #t hf aug-cc-pvdz symm=none int=(grid=ultrafine) guess=(read,tcheck) s
 table=(opt,rrhf)
 ----------------------------------------------------------------------
 -----
 title
 -----
 Symbolic Z-matrix:
 Charge =  0 Multiplicity = 1

 SCF Done:  E(RHF) =  -268.812691886     A.U. after   14 cycles
 Normal termination of Gaussian 16 at Wed Apr  9 17:05:17 2025.
 Gaussian 16:  ES64L-G16RevC.01  3-Jul-2019

 ----------------------------------------------------------------------
 #t hf aug-cc-pvdz iop(5/13=1,5/36=2,99/5=2) pseudo=read geom=check gue
 ss=(read,tcheck) scf=(maxcycle=1)
 ----------------------------------------------------------------------
 -----
 title
 -----
 Structure from the checkpoint file:  "Grambow2020_b97d3_007039_reverse_mol2.chk"
 Charge =  0 Multiplicity = 1

                         Standard orientation:
 ---------------------------------------------------------------------
 Center     Atomic      Atomic             Coordinates (Angstroms)
 Number     Number       Type             X           Y           Z
 ---------------------------------------------------------------------
      1          6           0       -2.597690   -0.381574   -0.019590
      2          6           0       -1.166399   -0.670127    0.001545
      3          6           0        0.040855   -0.874029    0.018717
      4          6           0        1.442885   -1.129115    0.040820
      5          6           0        2.394331   -0.173694   -0.056471
      6          8           0        0.115667    2.308064   -0.035154
      7          1           0       -2.776577    0.697187    0.105054
      8          1           0       -3.051526   -0.690289   -0.973601
      9          1           0       -3.123837   -0.910597    0.789080
     10          1           0        0.153571    2.107245    0.916955
     11          1           0        1.738684   -2.177378    0.143118
     12          1           0        3.449847   -0.442828   -0.035888
     13          1           0        2.134394    0.880580   -0.161194
     14          1           0       -0.133786    1.442810   -0.412420
 ---------------------------------------------------------------------

 SCF Done:  E(RHF) =  -270.080326271     A.U. after    2 cycles

 The electronic state is 1-A.
 Alpha  occ. eigenvalues --  -21.07982 -11.45977 -11.45281 -11.42062 -11.40802
 Alpha  occ. eigenvalues --  -11.39593  -1.64389  -1.22970  -1.13980  -0.99731
 Alpha  occ. eigenvalues --   -0.85453  -0.69241  -0.62588  -0.61275  -0.59242
 Alpha  occ. eigenvalues --   -0.59209  -0.57266  -0.52094  -0.46729  -0.44547
 Alpha  occ. eigenvalues --   -0.35800  -0.34066  -0.31311
 Alpha virt. eigenvalues --    0.02826   0.04693   0.05519   0.06090   0.06640
 Alpha virt. eigenvalues --    0.06733   0.08051   0.09240   0.10237   0.10651
 Alpha virt. eigenvalues --    0.10926   0.12911   0.12985   0.13751   0.14411

 Mulliken charges:
               1
     1  C   -5.031204
     2  C    1.712012
     3  C    2.179548
     4  C   -1.654503
     5  C   -3.924564
     6  O   -2.014423
     7  H    0.976820
     8  H    0.923400
     9  H    0.900421
    10  H    0.841562
    11  H    1.148338
    12  H    1.293828
    13  H    1.374921
    14  H    1.273845
 Sum of Mulliken charges =  -0.00000

 Dipole moment (field-independent basis, Debye):
    X=             -0.6227    Y=             -0.8615    Z=              0.3896  Tot=              1.1321

 Test job not archived.
 1\1\GINC-SE220\SP\RHF\Aug-CC-pVDZ\C5H8O1\OHZDE\09-Apr-2025\0\\#t hf au
 g-cc-pvdz iop(5/13=1,5/36=2,99/5=2) pseudo=read geom=check guess=(read
 ,tcheck) scf=(maxcycle=1)\\title\\0,1\C,0,2.40933813,0.74764116,0.0685
 8895\C,0,1.24289342,-0.13082814,0.06807812\C,0,0.24200958,-0.83620769,
 0.06577114\C,0,-0.91242317,-1.671981,0.06210732\C,0,-2.18474307,-1.216
 61707,0.09937929\O,0,-1.19710772,1.99939754,-0.08422578\H,0,2.10949053
 ,1.78870287,-0.12517367\H,0,2.92659272,0.72124147,1.03975397\H,0,3.133
 08926,0.45111038,-0.70529586\H,0,-1.11976998,1.74662539,-1.02145651\H,

 Normal termination of Gaussian 16 at Wed Apr  9 17:05:21 2025.
