 Gaussian 16, Revision C.01,

 ----------------------------------------------------------------------
 #t hf aug-cc-pvdz symm=none int=(grid=ultrafine) guess=(read,tcheck) s
 table=(opt,rrhf)
 ----------------------------------------------------------------------
 -----
 title
 -----
 Symbolic Z-matrix:
 Charge =  0 Multiplicity = 1

 SCF Done:  E(RHF) =  -322.743404926     A.U. after   14 cycles
 Normal termination of Gaussian 16 at Wed Apr  9 03:33:18 2025.
 Gaussian 16:  ES64L-G16RevC.01  3-Jul-2019

 ----------------------------------------------------------------------
 #t hf aug-cc-pvdz iop(5/13=1,5/36=2,99/5=2) pseudo=read geom=check gue
 ss=(read,tcheck) scf=(maxcycle=1)
 ----------------------------------------------------------------------
 -----
 title
 -----
 Structure from the checkpoint file:  "Grambow2020_wb97xd3_007010_reverse_mol2.chk"
 Charge =  0 Multiplicity = 1

                         Standard orientation:
 ---------------------------------------------------------------------
 Center     Atomic      Atomic             Coordinates (Angstroms)
 Number     Number       Type             X           Y           Z
 ---------------------------------------------------------------------
      1          6           0        2.441609   -1.615633    0.000432
      2          6           0        1.393109   -0.557582    0.041065
      3          6           0        1.624493    0.748065   -0.061092
      4          6           0        0.563503    1.765965   -0.014529
      5          7           0       -0.668205    1.476939    0.075991
      6          6           0       -2.479681   -1.203443    0.036311
      7          8           0       -3.422141   -0.600165   -0.067164
      8          1           0        2.429412   -2.203560    0.922038
      9          1           0        3.439377   -1.195303   -0.130660
     10          1           0        2.249557   -2.314870   -0.817659
     11          1           0        0.363091   -0.883249    0.164021
     12          1           0        2.640225    1.114233   -0.181869
     13          1           0        0.913335    2.803796   -0.062093
     14          1           0       -1.238633    2.317474    0.098479
 ---------------------------------------------------------------------

 SCF Done:  E(RHF) =  -324.216764469     A.U. after    2 cycles

 The electronic state is 1-A.
 Alpha  occ. eigenvalues --  -21.16010 -15.73141 -11.49284 -11.45259 -11.43442
 Alpha  occ. eigenvalues --  -11.39522 -11.36963  -1.78967  -1.35145  -1.19526
 Alpha  occ. eigenvalues --   -1.02657  -0.86888  -0.75643  -0.70554  -0.68362
 Alpha  occ. eigenvalues --   -0.61038  -0.57159  -0.55563  -0.51574  -0.51246
 Alpha  occ. eigenvalues --   -0.50917  -0.48884  -0.47255  -0.46283  -0.38176
 Alpha  occ. eigenvalues --   -0.32441
 Alpha virt. eigenvalues --    0.03693   0.04897   0.05717   0.06377   0.06507
 Alpha virt. eigenvalues --    0.06991   0.08255   0.09044   0.10038   0.11161
 Alpha virt. eigenvalues --    0.11817   0.13142   0.13189   0.13775   0.14463

 Mulliken charges:
               1
     1  C   -4.876780
     2  C    0.528457
     3  C   -0.640374
     4  C   -0.648129
     5  N   -3.157743
     6  C    1.084466
     7  O   -1.147086
     8  H    1.091007
     9  H    1.241374
    10  H    1.098210
    11  H    1.763173
    12  H    1.468629
    13  H    1.465747
    14  H    0.729049
 Sum of Mulliken charges =   0.00000

 Dipole moment (field-independent basis, Debye):
    X=              0.0836    Y=              1.3254    Z=             -0.1983  Tot=              1.3428

 Test job not archived.
 1\1\GINC-SE284\SP\RHF\Aug-CC-pVDZ\C5H7N1O1\OHZDE\09-Apr-2025\0\\#t hf
 aug-cc-pvdz iop(5/13=1,5/36=2,99/5=2) pseudo=read geom=check guess=(re
 ad,tcheck) scf=(maxcycle=1)\\title\\0,1\C,0,-2.15121261,0.88979212,0.1
 7742304\C,0,-0.75436805,0.38820315,0.04435598\C,0,0.33258915,1.0509912
 4,0.42896495\C,0,1.6983671,0.52520853,0.27999998\N,0,1.94803861,-0.629
 1674,-0.18250996\C,0,0.25503731,-3.23262182,-1.08983639\O,0,1.18715212
 ,-3.85858054,-1.13695283\H,0,-2.63394958,0.94527042,-0.80188944\H,0,-2
 .18704662,1.87717153,0.63916078\H,0,-2.74974301,0.20258007,0.78123678\

 Normal termination of Gaussian 16 at Wed Apr  9 03:33:22 2025.
