 Gaussian 16, Revision C.01,

 ----------------------------------------------------------------------
 #t hf aug-cc-pvdz symm=none int=(grid=ultrafine) guess=(read,tcheck) s
 table=(opt,rrhf)
 ----------------------------------------------------------------------
 -----
 title
 -----
 Symbolic Z-matrix:
 Charge =  0 Multiplicity = 1

 SCF Done:  E(RHF) =  -284.855116670     A.U. after   13 cycles
 Normal termination of Gaussian 16 at Wed Apr  9 17:54:50 2025.
 Gaussian 16:  ES64L-G16RevC.01  3-Jul-2019

 ----------------------------------------------------------------------
 #t hf aug-cc-pvdz iop(5/13=1,5/36=2,99/5=2) pseudo=read geom=check gue
 ss=(read,tcheck) scf=(maxcycle=1)
 ----------------------------------------------------------------------
 -----
 title
 -----
 Structure from the checkpoint file:  "Grambow2020_wb97xd3_006244_reverse_mol2.chk"
 Charge =  0 Multiplicity = 1

                         Standard orientation:
 ---------------------------------------------------------------------
 Center     Atomic      Atomic             Coordinates (Angstroms)
 Number     Number       Type             X           Y           Z
 ---------------------------------------------------------------------
      1          8           0       -1.467823   -0.929386    0.619266
      2          6           0       -1.475994   -0.018816   -0.375523
      3          7           0       -0.657740    0.907741   -0.608879
      4          6           0        0.443680    1.128564    0.305952
      5          6           0        1.544105    0.100535    0.291766
      6          6           0        1.604902   -0.977447   -0.474640
      7          1           0       -2.342078   -0.160719   -1.016846
      8          1           0        0.888566    2.097345    0.063653
      9          1           0        0.078570    1.228157    1.339718
     10          1           0        2.356870    0.307983    0.983830
     11          1           0       -0.612244   -0.924105    1.065212
     12          1           0        2.448441   -1.653692   -0.418533
     13          1           0        0.828488   -1.211082   -1.194335
 ---------------------------------------------------------------------

 SCF Done:  E(RHF) =  -286.166430541     A.U. after    2 cycles

 The electronic state is 1-A.
 Alpha  occ. eigenvalues --  -21.11640 -15.71781 -11.46057 -11.44244 -11.40825
 Alpha  occ. eigenvalues --  -11.37737  -1.77761  -1.37402  -1.17183  -1.01285
 Alpha  occ. eigenvalues --   -0.85748  -0.77409  -0.66908  -0.66810  -0.63619
 Alpha  occ. eigenvalues --   -0.57860  -0.53557  -0.52446  -0.48738  -0.46983
 Alpha  occ. eigenvalues --   -0.36879  -0.34523  -0.32277
 Alpha virt. eigenvalues --    0.03566   0.05193   0.05646   0.05756   0.06279
 Alpha virt. eigenvalues --    0.06924   0.07273   0.10268   0.11375   0.11768
 Alpha virt. eigenvalues --    0.12795   0.13268   0.14204   0.14803   0.15023

 Mulliken charges:
               1
     1  O   -3.118862
     2  C    2.405364
     3  N   -2.692588
     4  C   -3.106990
     5  C   -0.093053
     6  C   -3.027922
     7  H    1.732830
     8  H    1.213832
     9  H    1.192355
    10  H    1.350415
    11  H    1.264134
    12  H    1.341230
    13  H    1.539254
 Sum of Mulliken charges =   0.00000

 Dipole moment (field-independent basis, Debye):
    X=              0.3708    Y=             -1.0241    Z=              1.2338  Tot=              1.6458

 Test job not archived.
 1\1\GINC-SE220\SP\RHF\Aug-CC-pVDZ\C4H7N1O1\OHZDE\09-Apr-2025\0\\#t hf
 aug-cc-pvdz iop(5/13=1,5/36=2,99/5=2) pseudo=read geom=check guess=(re
 ad,tcheck) scf=(maxcycle=1)\\title\\0,1\O,0,0.9499239,0.00625353,-1.98
 750216\C,0,1.63972561,0.47396647,-0.92720581\N,0,1.20595729,0.94019815
 ,0.15767973\C,0,-0.22329665,1.08008449,0.34865018\C,0,-1.00259362,-0.1
 9433545,0.53977746\C,0,-0.510639,-1.42351158,0.55476177\H,0,2.7094261,
 0.41835803,-1.112085\H,0,-0.38159116,1.70403698,1.23227633\H,0,-0.6757
 1823,1.63881419,-0.48503496\H,0,-2.06925674,-0.04616494,0.69094319\H,0

 Normal termination of Gaussian 16 at Wed Apr  9 17:54:53 2025.
