 Gaussian 16, Revision C.01,

 ----------------------------------------------------------------------
 #t hf aug-cc-pvdz symm=none int=(grid=ultrafine) guess=(read,tcheck) s
 table=(opt,rrhf)
 ----------------------------------------------------------------------
 -----
 title
 -----
 Symbolic Z-matrix:
 Charge =  0 Multiplicity = 1

 SCF Done:  E(RHF) =  -263.791690877     A.U. after   15 cycles
 Normal termination of Gaussian 16 at Wed Apr  9 16:53:56 2025.
 Gaussian 16:  ES64L-G16RevC.01  3-Jul-2019

 ----------------------------------------------------------------------
 #t hf aug-cc-pvdz iop(5/13=1,5/36=2,99/5=2) pseudo=read geom=check gue
 ss=(read,tcheck) scf=(maxcycle=1)
 ----------------------------------------------------------------------
 -----
 title
 -----
 Structure from the checkpoint file:  "Grambow2020_b97d3_006868_reverse_mol2.chk"
 Charge =  0 Multiplicity = 1

                         Standard orientation:
 ---------------------------------------------------------------------
 Center     Atomic      Atomic             Coordinates (Angstroms)
 Number     Number       Type             X           Y           Z
 ---------------------------------------------------------------------
      1          6           0        2.202801   -0.029794   -0.001764
      2          6           0        0.698586   -0.039134   -0.013888
      3          6           0       -0.120523    1.071432    0.004671
      4          7           0       -1.435735    0.673425    0.091606
      5          7           0       -1.354929   -0.740947   -0.036544
      6          6           0       -0.113682   -1.245945   -0.004138
      7          1           0        2.598852   -0.725707   -0.754449
      8          1           0        2.608164    0.971304   -0.208392
      9          1           0        2.596243   -0.355697    0.973143
     10          1           0        0.115067    2.132010   -0.009170
     11          1           0       -2.168550    1.158338   -0.429974
     12          1           0       -2.218225   -1.246950    0.134130
 ---------------------------------------------------------------------

 SCF Done:  E(RHF) =  -265.033345857     A.U. after    2 cycles

 The electronic state is 1-A.
 Alpha  occ. eigenvalues --  -15.80233 -15.79652 -11.45654 -11.39037 -11.37158
 Alpha  occ. eigenvalues --  -11.35086  -1.58741  -1.21081  -1.17414  -1.00181
 Alpha  occ. eigenvalues --   -0.85061  -0.75725  -0.73446  -0.62412  -0.58210
 Alpha  occ. eigenvalues --   -0.57282  -0.54426  -0.49354  -0.47275  -0.37075
 Alpha  occ. eigenvalues --   -0.32453  -0.31641
 Alpha virt. eigenvalues --    0.03240   0.04774   0.05103   0.05973   0.07285
 Alpha virt. eigenvalues --    0.07555   0.09817   0.10623   0.11022   0.12006
 Alpha virt. eigenvalues --    0.13626   0.14156   0.15539   0.15712   0.16489

 Mulliken charges:
               1
     1  C   -3.670123
     2  C    4.561329
     3  C   -1.472233
     4  N   -2.213673
     5  N   -1.656381
     6  C   -2.192033
     7  H    1.273220
     8  H    1.294667
     9  H    1.224013
    10  H    1.336011
    11  H    0.732008
    12  H    0.783195
 Sum of Mulliken charges =  -0.00000

 Dipole moment (field-independent basis, Debye):
    X=             -2.8449    Y=              3.6276    Z=             -0.4612  Tot=              4.6331

 Test job not archived.
 1\1\GINC-SE141\SP\RHF\Aug-CC-pVDZ\C4H6N2\OHZDE\09-Apr-2025\0\\#t hf au
 g-cc-pvdz iop(5/13=1,5/36=2,99/5=2) pseudo=read geom=check guess=(read
 ,tcheck) scf=(maxcycle=1)\\title\\0,1\C,0,-1.83519915,-0.53632255,-0.0
 2194176\C,0,-0.43354552,0.00831636,0.01846729\C,0,0.72739467,-0.727314
 14,-0.10685499\N,0,1.81647865,0.0929641,0.08494913\N,0,1.2345576,1.387
 89558,0.17394445\C,0,-0.10401366,1.40752345,0.241843\H,0,-2.47064231,0
 .08204351,-0.67118881\H,0,-1.86245491,-1.57068008,-0.39419577\H,0,-2.2
 9576037,-0.5279568,0.97769107\H,0,0.88446119,-1.78632684,-0.29217361\H

 Normal termination of Gaussian 16 at Wed Apr  9 16:54:00 2025.
