 Gaussian 16, Revision C.01,

 ----------------------------------------------------------------------
 #t hf aug-cc-pvdz symm=none int=(grid=ultrafine) guess=(read,tcheck) s
 table=(opt,rrhf)
 ----------------------------------------------------------------------
 -----
 title
 -----
 Symbolic Z-matrix:
 Charge =  0 Multiplicity = 1

 SCF Done:  E(RHF) =  -299.514598505     A.U. after   16 cycles
 Normal termination of Gaussian 16 at Wed Apr  9 17:34:11 2025.
 Gaussian 16:  ES64L-G16RevC.01  3-Jul-2019

 ----------------------------------------------------------------------
 #t hf aug-cc-pvdz iop(5/13=1,5/36=2,99/5=2) pseudo=read geom=check gue
 ss=(read,tcheck) scf=(maxcycle=1)
 ----------------------------------------------------------------------
 -----
 title
 -----
 Structure from the checkpoint file:  "Grambow2020_b97d3_007184_forward_mol1.chk"
 Charge =  0 Multiplicity = 1

                         Standard orientation:
 ---------------------------------------------------------------------
 Center     Atomic      Atomic             Coordinates (Angstroms)
 Number     Number       Type             X           Y           Z
 ---------------------------------------------------------------------
      1          6           0       -2.067913    0.046264   -0.139714
      2          6           0       -0.667643   -0.231752    0.125188
      3          7           0        0.160325   -1.250679    0.076127
      4          8           0        1.508692   -0.550986   -0.059598
      5          6           0        1.255081    0.750048   -0.051041
      6          7           0       -0.014045    1.017712    0.126504
      7          1           0       -2.647531   -0.725212   -0.650800
      8          1           0       -2.601599    0.490384    0.708828
      9          1           0       -1.029441    1.440347   -0.378851
     10          1           0        2.067924    1.445771   -0.227405
 ---------------------------------------------------------------------

 SCF Done:  E(RHF) =  -300.844994199     A.U. after    2 cycles

 The electronic state is 1-A.
 Alpha  occ. eigenvalues --  -21.14967 -15.80923 -15.78956 -11.54831 -11.47750
 Alpha  occ. eigenvalues --  -11.34481  -1.88609  -1.47058  -1.27600  -1.05110
 Alpha  occ. eigenvalues --   -0.92534  -0.79241  -0.76530  -0.66667  -0.57388
 Alpha  occ. eigenvalues --   -0.55507  -0.52946  -0.49389  -0.44347  -0.42412
 Alpha  occ. eigenvalues --   -0.40109  -0.26662
 Alpha virt. eigenvalues --    0.02589   0.05184   0.06521   0.07045   0.08077
 Alpha virt. eigenvalues --    0.09037   0.09736   0.11366   0.12761   0.12937
 Alpha virt. eigenvalues --    0.13149   0.13828   0.14921   0.15882   0.17180

 Mulliken charges:
               1
     1  C   -3.430792
     2  C    3.472520
     3  N   -1.531772
     4  O   -2.318077
     5  C    1.721938
     6  N   -2.851112
     7  H    1.162106
     8  H    1.137356
     9  H    0.970626
    10  H    1.667208
 Sum of Mulliken charges =   0.00000

 Dipole moment (field-independent basis, Debye):
    X=              3.8590    Y=              2.2505    Z=              0.1790  Tot=              4.4709

 Test job not archived.
 1\1\GINC-SE173\SP\RHF\Aug-CC-pVDZ\C3H4N2O1\OHZDE\09-Apr-2025\0\\#t hf
 aug-cc-pvdz iop(5/13=1,5/36=2,99/5=2) pseudo=read geom=check guess=(re
 ad,tcheck) scf=(maxcycle=1)\\title\\0,1\C,0,-1.66943067,-0.07344694,-0
 .09797216\C,0,-0.26930066,-0.42476812,-0.25427784\N,0,0.51174658,-0.98
 212254,-1.15175717\O,0,1.87828326,-0.42648774,-0.76454339\C,0,1.679635
 16,0.34413675,0.29553088\N,0,0.43453479,0.3384159,0.69993291\H,0,-2.30
 805123,-0.14056178,-0.98114918\H,0,-2.13620195,-0.49456183,0.80028936\
 H,0,-0.58904555,0.97630925,0.80194884\H,0,2.50951026,0.91934206,0.6908

 Normal termination of Gaussian 16 at Wed Apr  9 17:34:14 2025.
