 Gaussian 16, Revision C.01,

 ----------------------------------------------------------------------
 #t hf aug-cc-pvdz symm=none int=(grid=ultrafine) guess=(read,tcheck) s
 table=(opt,rrhf)
 ----------------------------------------------------------------------
 -----
 title
 -----
 Symbolic Z-matrix:
 Charge =  0 Multiplicity = 1

 SCF Done:  E(RHF) =  -325.063046175     A.U. after   13 cycles
 Normal termination of Gaussian 16 at Wed Apr  9 19:07:10 2025.
 Gaussian 16:  ES64L-G16RevC.01  3-Jul-2019

 ----------------------------------------------------------------------
 #t hf aug-cc-pvdz iop(5/13=1,5/36=2,99/5=2) pseudo=read geom=check gue
 ss=(read,tcheck) scf=(maxcycle=1)
 ----------------------------------------------------------------------
 -----
 title
 -----
 Structure from the checkpoint file:  "Grambow2020_wb97xd3_008097_reverse_mol2.chk"
 Charge =  0 Multiplicity = 1

                         Standard orientation:
 ---------------------------------------------------------------------
 Center     Atomic      Atomic             Coordinates (Angstroms)
 Number     Number       Type             X           Y           Z
 ---------------------------------------------------------------------
      1          6           0        3.396575   -0.279347    0.166018
      2          6           0        2.683227    0.770948   -0.210678
      3          7           0       -0.744396    0.768034    0.043357
      4          6           0       -1.836666    1.709697    0.058689
      5          6           0       -0.969377   -0.471900   -0.000306
      6          8           0        0.065321   -1.334078   -0.006130
      7          6           0       -2.290987   -1.187350   -0.048019
      8          1           0        3.572061   -0.500839    1.212915
      9          1           0        3.837208   -0.957324   -0.556307
     10          1           0        0.880508   -0.808069    0.020911
     11          1           0        2.505124    0.992171   -1.256954
     12          1           0        2.230401    1.444602    0.506400
     13          1           0       -1.631958    2.509538   -0.655652
     14          1           0       -2.816217    1.283096   -0.184900
     15          1           0       -1.909207    2.175200    1.045707
     16          1           0       -2.130050   -2.261884   -0.079473
     17          1           0       -2.856556   -0.888986   -0.931594
     18          1           0       -2.889746   -0.943414    0.830262
 ---------------------------------------------------------------------

 SCF Done:  E(RHF) =  -326.613323846     A.U. after    2 cycles

 The electronic state is 1-A.
 Alpha  occ. eigenvalues --  -21.08664 -15.69793 -11.47640 -11.40878 -11.38275
 Alpha  occ. eigenvalues --  -11.37834 -11.37200  -1.76313  -1.35220  -1.13987
 Alpha  occ. eigenvalues --   -1.09165  -0.98615  -0.82287  -0.76330  -0.65424
 Alpha  occ. eigenvalues --   -0.64407  -0.61724  -0.60977  -0.56509  -0.56058
 Alpha  occ. eigenvalues --   -0.54437  -0.52025  -0.49248  -0.46622  -0.44116
 Alpha  occ. eigenvalues --   -0.36954  -0.34378  -0.29887
 Alpha virt. eigenvalues --    0.03628   0.05016   0.05594   0.05709   0.05841
 Alpha virt. eigenvalues --    0.06160   0.06498   0.07068   0.07696   0.08367
 Alpha virt. eigenvalues --    0.08967   0.11092   0.12442   0.12743   0.13750

 Mulliken charges:
               1
     1  C   -2.788193
     2  C   -3.104219
     3  N   -3.234210
     4  C   -3.180128
     5  C    5.403711
     6  O   -3.821870
     7  C   -4.396937
     8  H    1.387862
     9  H    1.402814
    10  H    1.510090
    11  H    1.409550
    12  H    1.467234
    13  H    1.357139
    14  H    1.461080
    15  H    1.373551
    16  H    1.281047
    17  H    1.226760
    18  H    1.244720
 Sum of Mulliken charges =   0.00000

 Dipole moment (field-independent basis, Debye):
    X=             -0.7182    Y=             -0.7366    Z=             -0.0557  Tot=              1.0303

 Test job not archived.
 1\1\GINC-SE036\SP\RHF\Aug-CC-pVDZ\C5H11N1O1\OHZDE\09-Apr-2025\0\\#t hf
  aug-cc-pvdz iop(5/13=1,5/36=2,99/5=2) pseudo=read geom=check guess=(r
 ead,tcheck) scf=(maxcycle=1)\\title\\0,1\C,0,-3.18319256,-0.03049765,-
 1.36124748\C,0,-2.77818022,-0.40124059,-0.15609204\N,0,0.48775079,0.02
 763284,0.82518687\C,0,1.2637502,0.07082341,2.04008484\C,0,1.05874759,0
 .03233956,-0.29904509\O,0,0.31464574,-0.00077542,-1.42118625\C,0,2.529
 87139,0.07349212,-0.60710343\H,0,-3.34816406,1.01217179,-1.60918101\H,
 0,-3.37016999,-0.75396337,-2.14686836\H,0,-0.61675695,-0.03105774,-1.1

 Normal termination of Gaussian 16 at Wed Apr  9 19:07:16 2025.
