 Gaussian 16, Revision C.01,

 ----------------------------------------------------------------------
 #t hf aug-cc-pvdz symm=none int=(grid=ultrafine) guess=(read,tcheck) s
 table=(opt,rrhf)
 ----------------------------------------------------------------------
 -----
 title
 -----
 Symbolic Z-matrix:
 Charge =  0 Multiplicity = 1

 SCF Done:  E(RHF) =  -360.862826990     A.U. after   15 cycles
 Normal termination of Gaussian 16 at Wed Apr  9 18:07:44 2025.
 Gaussian 16:  ES64L-G16RevC.01  3-Jul-2019

 ----------------------------------------------------------------------
 #t hf aug-cc-pvdz iop(5/13=1,5/36=2,99/5=2) pseudo=read geom=check gue
 ss=(read,tcheck) scf=(maxcycle=1)
 ----------------------------------------------------------------------
 -----
 title
 -----
 Structure from the checkpoint file:  "Grambow2020_wb97xd3_006605_reverse_mol2.chk"
 Charge =  0 Multiplicity = 1

                         Standard orientation:
 ---------------------------------------------------------------------
 Center     Atomic      Atomic             Coordinates (Angstroms)
 Number     Number       Type             X           Y           Z
 ---------------------------------------------------------------------
      1          6           0        3.375318   -0.874894    0.066681
      2          6           0        0.180716    1.723394   -0.072875
      3          8           0       -0.437397    2.864748    0.055882
      4          6           0       -0.849084    0.645588   -0.005927
      5          7           0       -0.223240   -0.643576   -0.151943
      6          6           0       -0.919034   -1.793741   -0.060752
      7          8           0       -2.111690   -1.857857    0.138442
      8          1           0        2.928034   -1.472039    0.861113
      9          1           0        4.445719   -0.787363    0.245429
     10          1           0        3.215551   -1.362486   -0.895412
     11          1           0        2.928189    0.119696    0.056013
     12          1           0        0.213667    3.573272    0.015474
     13          1           0       -1.387620    0.714982    0.948500
     14          1           0       -1.601985    0.813084   -0.787978
     15          1           0        0.770208   -0.662782   -0.310700
     16          1           0       -0.283881   -2.688540   -0.186196
 ---------------------------------------------------------------------

 SCF Done:  E(RHF) =  -362.485889052     A.U. after    2 cycles

 The electronic state is 1-A.
 Alpha  occ. eigenvalues --  -21.16080 -21.02651 -15.76555 -11.48045 -11.45560
 Alpha  occ. eigenvalues --  -11.40585 -11.36599  -1.81366  -1.70068  -1.40275
 Alpha  occ. eigenvalues --   -1.08648  -1.03952  -0.85366  -0.81404  -0.71527
 Alpha  occ. eigenvalues --   -0.65000  -0.64125  -0.57144  -0.54758  -0.54641
 Alpha  occ. eigenvalues --   -0.54557  -0.53932  -0.51040  -0.49126  -0.45690
 Alpha  occ. eigenvalues --   -0.34698  -0.31218  -0.28752
 Alpha virt. eigenvalues --    0.03152   0.03904   0.05182   0.06067   0.06309
 Alpha virt. eigenvalues --    0.06830   0.07408   0.07808   0.08433   0.09283
 Alpha virt. eigenvalues --    0.11468   0.12411   0.13177   0.13875   0.14431

 Mulliken charges:
               1
     1  C   -5.284120
     2  C    1.282177
     3  O   -2.992034
     4  C   -2.241925
     5  N   -2.495292
     6  C    2.104310
     7  O   -2.728078
     8  H    1.303885
     9  H    1.185079
    10  H    1.287984
    11  H    1.477187
    12  H    1.213628
    13  H    1.562513
    14  H    1.552639
    15  H    1.098872
    16  H    1.673175
 Sum of Mulliken charges =  -0.00000

 Dipole moment (field-independent basis, Debye):
    X=              1.1362    Y=              2.8838    Z=             -0.0583  Tot=              3.1001

 Test job not archived.
 1\1\GINC-SE030\SP\RHF\Aug-CC-pVDZ\C4H9N1O2\OHZDE\09-Apr-2025\0\\#t hf
 aug-cc-pvdz iop(5/13=1,5/36=2,99/5=2) pseudo=read geom=check guess=(re
 ad,tcheck) scf=(maxcycle=1)\\title\\0,1\C,0,-1.46993482,-2.20451014,-1
 .07678771\C,0,-0.84240531,1.67040236,0.17513902\O,0,-1.07225256,2.9517
 9713,0.25595033\C,0,0.59099072,1.44886525,0.52575757\N,0,0.90235092,0.
 04389701,0.46199556\C,0,2.14856743,-0.4251937,0.6674758\O,0,3.10606756
 ,0.26826135,0.92926007\H,0,-0.53205594,-2.23763365,-1.63091128\H,0,-2.
 2383911,-2.72698059,-1.64412374\H,0,-1.34557303,-2.69695936,-0.1119450

 Normal termination of Gaussian 16 at Wed Apr  9 18:07:50 2025.
