 Gaussian 16, Revision C.01,

 ----------------------------------------------------------------------
 #t hf aug-cc-pvdz symm=none int=(grid=ultrafine) guess=(read,tcheck) s
 table=(opt,rrhf)
 ----------------------------------------------------------------------
 -----
 title
 -----
 Symbolic Z-matrix:
 Charge =  0 Multiplicity = 1

 SCF Done:  E(RHF) =  -295.619943263     A.U. after   17 cycles
 Normal termination of Gaussian 16 at Wed Apr  9 16:18:40 2025.
 Gaussian 16:  ES64L-G16RevC.01  3-Jul-2019

 ----------------------------------------------------------------------
 #t hf aug-cc-pvdz iop(5/13=1,5/36=2,99/5=2) pseudo=read geom=check gue
 ss=(read,tcheck) scf=(maxcycle=1)
 ----------------------------------------------------------------------
 -----
 title
 -----
 Structure from the checkpoint file:  "Grambow2020_b97d3_006790_forward_mol1.chk"
 Charge =  0 Multiplicity = 1

                         Standard orientation:
 ---------------------------------------------------------------------
 Center     Atomic      Atomic             Coordinates (Angstroms)
 Number     Number       Type             X           Y           Z
 ---------------------------------------------------------------------
      1          7           0        1.883640   -0.152751    0.264760
      2          6           0        0.720207   -0.022866   -0.330975
      3          7           0       -0.089814   -1.164488   -0.338604
      4          7           0       -1.184150   -0.644178    0.160838
      5          6           0       -1.149779    0.777864    0.121749
      6          7           0       -0.011802    1.176232   -0.351172
      7          1           0        2.241373    0.799838    0.425073
      8          1           0        0.177175    0.038687    1.968966
      9          1           0       -1.998578   -1.235374    0.330466
     10          1           0       -2.027646    1.363157    0.380093
 ---------------------------------------------------------------------

 SCF Done:  E(RHF) =  -296.946301446     A.U. after    2 cycles

 The electronic state is 1-A.
 Alpha  occ. eigenvalues --  -15.89873 -15.81993 -15.79928 -15.75915 -11.50247
 Alpha  occ. eigenvalues --  -11.46422  -1.69922  -1.39308  -1.32168  -1.15077
 Alpha  occ. eigenvalues --   -0.91446  -0.82876  -0.78429  -0.69079  -0.64724
 Alpha  occ. eigenvalues --   -0.59186  -0.50537  -0.48571  -0.43547  -0.41603
 Alpha  occ. eigenvalues --   -0.40105  -0.29214
 Alpha virt. eigenvalues --   -0.00077   0.02920   0.04614   0.06245   0.08771
 Alpha virt. eigenvalues --    0.08894   0.10151   0.10717   0.11542   0.12923
 Alpha virt. eigenvalues --    0.13711   0.15120   0.15558   0.16813   0.17236

 Mulliken charges:
               1
     1  N   -2.643099
     2  C    4.468399
     3  N   -1.389495
     4  N   -1.476667
     5  C    1.163633
     6  N   -2.468637
     7  H    0.578558
     8  H   -0.480976
     9  H    0.914050
    10  H    1.334233
 Sum of Mulliken charges =  -0.00000

 Dipole moment (field-independent basis, Debye):
    X=             -3.8220    Y=             -0.2785    Z=             -2.4320  Tot=              4.5388

 Test job not archived.
 1\1\GINC-SE219\SP\RHF\Aug-CC-pVDZ\C2H4N4\OHZDE\09-Apr-2025\0\\#t hf au
 g-cc-pvdz iop(5/13=1,5/36=2,99/5=2) pseudo=read geom=check guess=(read
 ,tcheck) scf=(maxcycle=1)\\title\\0,1\N,0,1.9568134,-0.25235125,-0.466
 98696\C,0,0.70083929,-0.00342649,-0.76009603\N,0,-0.14697823,-1.116666
 44,-0.79744136\N,0,-1.08278254,-0.69050934,0.01520623\C,0,-0.98806437,
 0.71324408,0.2283182\N,0,0.04089279,1.18405286,-0.40170477\H,0,2.38664
 463,0.65023667,-0.21863529\H,0,0.66468785,-0.37046696,1.57493624\H,0,-
 1.87017236,-1.29638817,0.24867553\H,0,-1.76091147,1.24673904,0.7742572

 Normal termination of Gaussian 16 at Wed Apr  9 16:18:43 2025.
