 Gaussian 16, Revision C.01,

 ----------------------------------------------------------------------
 #t hf aug-cc-pvdz symm=none int=(grid=ultrafine) guess=(read,tcheck) s
 table=(opt,rrhf)
 ----------------------------------------------------------------------
 -----
 title
 -----
 Symbolic Z-matrix:
 Charge =  0 Multiplicity = 1

 SCF Done:  E(RHF) =  -301.673458529     A.U. after   15 cycles
 Normal termination of Gaussian 16 at Wed Apr  9 19:23:03 2025.
 Gaussian 16:  ES64L-G16RevC.01  3-Jul-2019

 ----------------------------------------------------------------------
 #t hf aug-cc-pvdz iop(5/13=1,5/36=2,99/5=2) pseudo=read geom=check gue
 ss=(read,tcheck) scf=(maxcycle=1)
 ----------------------------------------------------------------------
 -----
 title
 -----
 Structure from the checkpoint file:  "Grambow2020_wb97xd3_008853_forward_mol2.chk"
 Charge =  0 Multiplicity = 1

                         Standard orientation:
 ---------------------------------------------------------------------
 Center     Atomic      Atomic             Coordinates (Angstroms)
 Number     Number       Type             X           Y           Z
 ---------------------------------------------------------------------
      1          7           0        2.432340   -0.614444   -0.081963
      2          6           0        1.532837    0.096786   -0.032629
      3          6           0        0.400408    0.990281    0.030204
      4          6           0       -0.864738    0.690130   -0.671575
      5          6           0       -1.117792   -0.802605   -0.771641
      6          6           0       -0.980040   -0.814632    0.765052
      7          7           0       -0.796106    0.672048    0.820310
      8          1           0        0.679042    2.033430    0.113456
      9          1           0       -1.384086    1.469557   -1.215875
     10          1           0       -2.125899   -1.035933   -1.106690
     11          1           0       -0.399166   -1.378054   -1.355268
     12          1           0       -1.898134   -1.074899    1.286428
     13          1           0       -0.149445   -1.377083    1.193060
 ---------------------------------------------------------------------

 SCF Done:  E(RHF) =  -303.080493398     A.U. after    2 cycles

 The electronic state is 1-A.
 Alpha  occ. eigenvalues --  -15.76630 -15.74823 -11.55010 -11.47651 -11.44734
 Alpha  occ. eigenvalues --  -11.43416 -11.39398  -1.56870  -1.31010  -1.13716
 Alpha  occ. eigenvalues --   -1.03365  -0.96087  -0.80642  -0.75346  -0.69808
 Alpha  occ. eigenvalues --   -0.64786  -0.58844  -0.56734  -0.54133  -0.48835
 Alpha  occ. eigenvalues --   -0.48327  -0.45337  -0.42635  -0.40986  -0.34265
 Alpha virt. eigenvalues --    0.03481   0.04878   0.05353   0.05604   0.06609
 Alpha virt. eigenvalues --    0.07193   0.08847   0.09866   0.10607   0.12100
 Alpha virt. eigenvalues --    0.12385   0.13067   0.13531   0.14416   0.14831

 Mulliken charges:
               1
     1  N   -2.440385
     2  C    1.611968
     3  C   -0.596884
     4  C    0.083737
     5  C   -2.997047
     6  C   -2.233926
     7  N   -1.488784
     8  H    1.574156
     9  H    1.351117
    10  H    1.123534
    11  H    1.168766
    12  H    1.327296
    13  H    1.516452
 Sum of Mulliken charges =  -0.00000

 Dipole moment (field-independent basis, Debye):
    X=             -2.8863    Y=              0.7276    Z=             -0.8072  Tot=              3.0841

 Test job not archived.
 1\1\GINC-SE212\SP\RHF\Aug-CC-pVDZ\C5H6N2\OHZDE\09-Apr-2025\0\\#t hf au
 g-cc-pvdz iop(5/13=1,5/36=2,99/5=2) pseudo=read geom=check guess=(read
 ,tcheck) scf=(maxcycle=1)\\title\\0,1\N,0,2.28037303,0.17528866,1.6850
 5484\C,0,1.76349859,0.25742035,0.66354554\C,0,1.11186995,0.36121032,-0
 .62069959\C,0,-0.03438755,-0.49870329,-0.98100929\C,0,-0.86670963,-0.8
 7224935,0.23142951\C,0,-0.99215274,0.6465344,0.47247532\N,0,-0.2171204
 3,0.96849692,-0.76960712\H,0,1.78252635,0.64505081,-1.42218633\H,0,-0.
 08837962,-0.95118192,-1.96378043\H,0,-1.81320439,-1.33655882,-0.036048

 Normal termination of Gaussian 16 at Wed Apr  9 19:23:08 2025.
