 Gaussian 16, Revision C.01,

 ----------------------------------------------------------------------
 #t hf aug-cc-pvdz symm=none int=(grid=ultrafine) guess=(read,tcheck) s
 table=(opt,rrhf)
 ----------------------------------------------------------------------
 -----
 title
 -----
 Symbolic Z-matrix:
 Charge =  0 Multiplicity = 1

 SCF Done:  E(RHF) =  -339.246131329     A.U. after   16 cycles
 Normal termination of Gaussian 16 at Wed Apr  9 16:29:40 2025.
 Gaussian 16:  ES64L-G16RevC.01  3-Jul-2019

 ----------------------------------------------------------------------
 #t hf aug-cc-pvdz iop(5/13=1,5/36=2,99/5=2) pseudo=read geom=check gue
 ss=(read,tcheck) scf=(maxcycle=1)
 ----------------------------------------------------------------------
 -----
 title
 -----
 Structure from the checkpoint file:  "Grambow2020_b97d3_006818_forward_mol1.chk"
 Charge =  0 Multiplicity = 1

                         Standard orientation:
 ---------------------------------------------------------------------
 Center     Atomic      Atomic             Coordinates (Angstroms)
 Number     Number       Type             X           Y           Z
 ---------------------------------------------------------------------
      1          8           0       -2.343712   -0.765854   -0.455937
      2          6           0       -1.703068   -0.227794    0.440463
      3          6           0       -0.333174    0.256550    0.215974
      4          8           0       -0.067234    1.419603   -0.174497
      5          6           0        1.849114    0.009893   -0.005677
      6          8           0        2.664826   -0.813142   -0.013186
      7          1           0       -2.038409   -0.200559    1.506120
      8          1           0        1.130145    1.243808   -0.261724
 ---------------------------------------------------------------------

 SCF Done:  E(RHF) =  -340.678962050     A.U. after    2 cycles

 The electronic state is 1-A.
 Alpha  occ. eigenvalues --  -21.18746 -21.14495 -21.07966 -11.54980 -11.51003
 Alpha  occ. eigenvalues --  -11.46337  -1.81348  -1.79412  -1.70706  -1.02183
 Alpha  occ. eigenvalues --   -0.85786  -0.77296  -0.66700  -0.63060  -0.55605
 Alpha  occ. eigenvalues --   -0.54848  -0.53428  -0.48201  -0.47749  -0.41120
 Alpha  occ. eigenvalues --   -0.34185  -0.29833
 Alpha virt. eigenvalues --    0.03456   0.05490   0.08079   0.08800   0.09734
 Alpha virt. eigenvalues --    0.10087   0.10477   0.11578   0.12932   0.13192
 Alpha virt. eigenvalues --    0.14071   0.14287   0.14933   0.15453   0.16347

 Mulliken charges:
               1
     1  O   -2.414917
     2  C    1.725054
     3  C    1.251219
     4  O   -2.673846
     5  C    0.656123
     6  O   -1.918743
     7  H    1.499151
     8  H    1.875959
 Sum of Mulliken charges =   0.00000

 Dipole moment (field-independent basis, Debye):
    X=              1.8981    Y=              0.5810    Z=              0.4572  Tot=              2.0370

 Test job not archived.
 1\1\GINC-SE087\SP\RHF\Aug-CC-pVDZ\C3H2O3\OHZDE\09-Apr-2025\0\\#t hf au
 g-cc-pvdz iop(5/13=1,5/36=2,99/5=2) pseudo=read geom=check guess=(read
 ,tcheck) scf=(maxcycle=1)\\title\\0,1\O,0,-2.26343229,0.18959299,1.007
 88778\C,0,-1.21998589,0.79929418,0.80064002\C,0,-0.1568489,0.23062749,
 -0.04075923\O,0,-0.08370043,0.41588141,-1.28020015\C,0,1.56048386,-1.0
 961181,-0.44432472\O,0,2.20761795,-1.91002974,0.06713833\H,0,-0.936914
 05,1.73645907,1.339538\H,0,0.87489174,-0.30804331,-1.45126303\\Version
 =ES64L-G16RevC.01\State=1-A\HF=-340.6789621\RMSD=1.861e-01\Dipole=0.73

 Normal termination of Gaussian 16 at Wed Apr  9 16:29:42 2025.
