 Gaussian 16, Revision C.01,

 ----------------------------------------------------------------------
 #t hf aug-cc-pvdz symm=none int=(grid=ultrafine) guess=(read,tcheck) s
 table=(opt,rrhf)
 ----------------------------------------------------------------------
 -----
 title
 -----
 Symbolic Z-matrix:
 Charge =  0 Multiplicity = 1

 SCF Done:  E(RHF) =  -343.434233289     A.U. after   16 cycles
 Normal termination of Gaussian 16 at Wed Apr  9 18:48:46 2025.
 Gaussian 16:  ES64L-G16RevC.01  3-Jul-2019

 ----------------------------------------------------------------------
 #t hf aug-cc-pvdz iop(5/13=1,5/36=2,99/5=2) pseudo=read geom=check gue
 ss=(read,tcheck) scf=(maxcycle=1)
 ----------------------------------------------------------------------
 -----
 title
 -----
 Structure from the checkpoint file:  "Grambow2020_wb97xd3_007677_forward_mol1.chk"
 Charge =  0 Multiplicity = 1

                         Standard orientation:
 ---------------------------------------------------------------------
 Center     Atomic      Atomic             Coordinates (Angstroms)
 Number     Number       Type             X           Y           Z
 ---------------------------------------------------------------------
      1          6           0       -1.904866   -0.654007   -0.452520
      2          6           0       -0.734968   -0.722119    0.327129
      3          6           0        0.746290   -1.127978    0.048365
      4          8           0        1.473184   -0.268801   -0.807650
      5          6           0        1.312894    0.082946    0.595067
      6          6           0       -0.088742    0.697284    0.618207
      7          8           0       -0.233956    1.685764   -0.286746
      8          1           0       -2.744349   -1.309646   -0.267479
      9          1           0       -1.926020   -0.058730   -1.356954
     10          1           0       -2.337450    0.706342    0.692835
     11          1           0       -0.925907   -1.198698    1.292927
     12          1           0        1.078248   -2.155992    0.115305
     13          1           0        2.205561    0.278156    1.170504
     14          1           0       -1.766687    1.070903    1.185672
     15          1           0        0.519140    1.675204   -0.895134
 ---------------------------------------------------------------------

 SCF Done:  E(RHF) =  -345.023395365     A.U. after    2 cycles

 The electronic state is 1-A.
 Alpha  occ. eigenvalues --  -21.09754 -21.08188 -11.56099 -11.48939 -11.46008
 Alpha  occ. eigenvalues --  -11.43450 -11.39666  -1.84005  -1.73601  -1.25717
 Alpha  occ. eigenvalues --   -1.05805  -0.93263  -0.87633  -0.77681  -0.75049
 Alpha  occ. eigenvalues --   -0.66527  -0.63947  -0.59697  -0.55225  -0.52023
 Alpha  occ. eigenvalues --   -0.49575  -0.48324  -0.42967  -0.38516  -0.36249
 Alpha  occ. eigenvalues --   -0.30183  -0.25028
 Alpha virt. eigenvalues --    0.03476   0.04308   0.05022   0.05206   0.06359
 Alpha virt. eigenvalues --    0.06739   0.07065   0.07300   0.08369   0.10998
 Alpha virt. eigenvalues --    0.11999   0.12186   0.12900   0.13930   0.14219

 Mulliken charges:
               1
     1  C   -3.074527
     2  C   -1.471472
     3  C    0.979509
     4  O   -2.724234
     5  C   -0.527982
     6  C    2.455238
     7  O   -2.833039
     8  H    1.268636
     9  H    1.264396
    10  H    0.181553
    11  H    1.313067
    12  H    1.369960
    13  H    1.242691
    14  H   -0.130869
    15  H    0.687074
 Sum of Mulliken charges =  -0.00000

 Dipole moment (field-independent basis, Debye):
    X=              1.5861    Y=             -0.7895    Z=             -0.7990  Tot=              1.9436

 Test job not archived.
 1\1\GINC-SE226\SP\RHF\Aug-CC-pVDZ\C5H8O2\OHZDE\09-Apr-2025\0\\#t hf au
 g-cc-pvdz iop(5/13=1,5/36=2,99/5=2) pseudo=read geom=check guess=(read
 ,tcheck) scf=(maxcycle=1)\\title\\0,1\C,0,1.67677832,-0.46307813,0.253
 53652\C,0,0.55270925,0.37315478,0.38895284\C,0,-0.1775446,1.38828135,-
 0.54528541\O,0,-0.83559293,0.83431895,-1.66752389\C,0,-1.48627302,0.80
 388826,-0.36647782\C,0,-0.82630768,-0.40611453,0.29900565\O,0,-0.90654
 035,-1.51881642,-0.457683\H,0,2.57493084,-0.29801393,0.83225147\H,0,1.
 72656922,-1.18733056,-0.55006843\H,0,0.76338503,-1.52914747,1.42772818

 Normal termination of Gaussian 16 at Wed Apr  9 18:48:51 2025.
