 Gaussian 16, Revision C.01,

 ----------------------------------------------------------------------
 #t hf aug-cc-pvdz symm=none int=(grid=ultrafine) guess=(read,tcheck) s
 table=(opt,rrhf)
 ----------------------------------------------------------------------
 -----
 title
 -----
 Symbolic Z-matrix:
 Charge =  0 Multiplicity = 1

 SCF Done:  E(RHF) =  -288.098160687     A.U. after   13 cycles

 1\1\GINC-SE113\Stability\RHF\Aug-CC-pVDZ\C6H11N1\OHZDE\09-Apr-2025\0\\
 #t hf aug-cc-pvdz symm=none int=(grid=ultrafine) guess=(read,tcheck) s
 table=(opt,rrhf)\\title\\0,1\C,0,2.09508303,0.12053886,-0.03149406\C,0
 ,0.83988223,-0.73362699,0.07098097\C,0,-0.489055,0.04581365,0.16403234
 \C,0,-1.65304438,-0.94226782,0.31770172\C,0,-0.71562772,0.93350203,-1.
 06649941\C,0,-0.45101877,0.90383861,1.3620761\N,0,-0.41680934,1.568118
 07,2.29758209\H,0,2.1174116,0.70326028,-0.95370002\H,0,2.98385272,-0.5
 1170023,-0.02437634\H,0,2.17385941,0.81296361,0.8091569\H,0,0.91111703

 Normal termination of Gaussian 16 at Wed Apr  9 18:40:50 2025.
 Gaussian 16:  ES64L-G16RevC.01  3-Jul-2019

 ----------------------------------------------------------------------
 #t hf aug-cc-pvdz iop(5/13=1,5/36=2,99/5=2) pseudo=read geom=check gue
 ss=(read,tcheck) scf=(maxcycle=1)
 ----------------------------------------------------------------------
 -----
 title
 -----
 Structure from the checkpoint file:  "Grambow2020_wb97xd3_007521_forward_mol2.chk"
 Charge =  0 Multiplicity = 1

                         Standard orientation:
 ---------------------------------------------------------------------
 Center     Atomic      Atomic             Coordinates (Angstroms)
 Number     Number       Type             X           Y           Z
 ---------------------------------------------------------------------
      1          6           0       -2.184911    0.313819   -0.032885
      2          6           0       -1.052705   -0.464954   -0.686529
      3          6           0        0.324061   -0.338551   -0.000381
      4          6           0        1.369445   -1.127875   -0.799711
      5          6           0        0.285895   -0.840120    1.448931
      6          6           0        0.721718    1.080891    0.003714
      7          7           0        1.027318    2.187333    0.001902
      8          1           0       -2.405465   -0.052812    0.970841
      9          1           0       -3.097957    0.218955   -0.621984
     10          1           0       -1.945704    1.376795    0.039319
     11          1           0       -0.941780   -0.145018   -1.726161
     12          1           0       -1.297527   -1.531366   -0.712706
     13          1           0        1.428003   -0.773039   -1.829303
     14          1           0        2.358456   -1.037614   -0.349098
     15          1           0        1.092487   -2.183895   -0.812719
     16          1           0        1.276673   -0.787985    1.901595
     17          1           0       -0.395252   -0.253497    2.064363
     18          1           0       -0.044182   -1.881112    1.463705
 ---------------------------------------------------------------------

 SCF Done:  E(RHF) =  -289.535935465     A.U. after    2 cycles

 The electronic state is 1-A.
 Alpha  occ. eigenvalues --  -15.74842 -11.48019 -11.44162 -11.42430 -11.41071
 Alpha  occ. eigenvalues --  -11.38853 -11.36860  -1.36159  -1.25459  -1.11729
 Alpha  occ. eigenvalues --   -1.03061  -0.94007  -0.87256  -0.69283  -0.64661
 Alpha  occ. eigenvalues --   -0.62658  -0.59980  -0.56838  -0.56407  -0.54918
 Alpha  occ. eigenvalues --   -0.51804  -0.50516  -0.47409  -0.47169  -0.46488
 Alpha  occ. eigenvalues --   -0.41158  -0.40429
 Alpha virt. eigenvalues --    0.03526   0.04798   0.05013   0.05309   0.05339
 Alpha virt. eigenvalues --    0.05671   0.06477   0.06829   0.08088   0.08527
 Alpha virt. eigenvalues --    0.08994   0.11035   0.12091   0.12548   0.12844

 Mulliken charges:
               1
     1  C   -3.915868
     2  C   -3.449008
     3  C    2.644468
     4  C   -4.190117
     5  C   -4.330682
     6  C    1.786757
     7  N   -2.602048
     8  H    1.363179
     9  H    1.032523
    10  H    1.343335
    11  H    1.380960
    12  H    1.345433
    13  H    1.313867
    14  H    1.290499
    15  H    1.221476
    16  H    1.242077
    17  H    1.378582
    18  H    1.144569
 Sum of Mulliken charges =   0.00000

 Dipole moment (field-independent basis, Debye):
    X=             -1.1581    Y=             -3.3652    Z=             -0.0332  Tot=              3.5590

 Test job not archived.
 1\1\GINC-SE113\SP\RHF\Aug-CC-pVDZ\C6H11N1\OHZDE\09-Apr-2025\0\\#t hf a
 ug-cc-pvdz iop(5/13=1,5/36=2,99/5=2) pseudo=read geom=check guess=(rea
 d,tcheck) scf=(maxcycle=1)\\title\\0,1\C,0,2.09508303,0.12053886,-0.03
 149406\C,0,0.83988223,-0.73362699,0.07098097\C,0,-0.489055,0.04581365,
 0.16403234\C,0,-1.65304438,-0.94226782,0.31770172\C,0,-0.71562772,0.93
 350203,-1.06649941\C,0,-0.45101877,0.90383861,1.3620761\N,0,-0.4168093
 4,1.56811807,2.29758209\H,0,2.1174116,0.70326028,-0.95370002\H,0,2.983
 85272,-0.51170023,-0.02437634\H,0,2.17385941,0.81296361,0.8091569\H,0,

 Normal termination of Gaussian 16 at Wed Apr  9 18:40:57 2025.
