 Gaussian 16, Revision C.01,

 ----------------------------------------------------------------------
 #t hf aug-cc-pvdz symm=none int=(grid=ultrafine) guess=(read,tcheck) s
 table=(opt,rrhf)
 ----------------------------------------------------------------------
 -----
 title
 -----
 Symbolic Z-matrix:
 Charge =  0 Multiplicity = 1

 SCF Done:  E(RHF) =  -288.099700597     A.U. after   13 cycles

 1\1\GINC-SE135\Stability\RHF\Aug-CC-pVDZ\C6H11N1\OHZDE\09-Apr-2025\0\\
 #t hf aug-cc-pvdz symm=none int=(grid=ultrafine) guess=(read,tcheck) s
 table=(opt,rrhf)\\title\\0,1\C,0,-2.55796715,0.17195171,0.18610662\C,0
 ,-1.29760866,-0.55417606,-0.26019666\C,0,0.00311372,0.13155402,0.18093
 997\C,0,1.25153255,-0.66563048,-0.22167473\C,0,2.55533293,-0.06079159,
 0.27761032\C,0,0.07176591,1.49486555,-0.35892168\N,0,0.12496641,2.5532
 3178,-0.79978578\H,0,-3.44941125,-0.36652746,-0.13780525\H,0,-2.604777
 08,1.17844121,-0.2337595\H,0,-2.59894701,0.26041526,1.27443021\H,0,-1.

 Normal termination of Gaussian 16 at Wed Apr  9 18:03:53 2025.
 Gaussian 16:  ES64L-G16RevC.01  3-Jul-2019

 ----------------------------------------------------------------------
 #t hf aug-cc-pvdz iop(5/13=1,5/36=2,99/5=2) pseudo=read geom=check gue
 ss=(read,tcheck) scf=(maxcycle=1)
 ----------------------------------------------------------------------
 -----
 title
 -----
 Structure from the checkpoint file:  "Grambow2020_wb97xd3_006566_forward_mol2.chk"
 Charge =  0 Multiplicity = 1

                         Standard orientation:
 ---------------------------------------------------------------------
 Center     Atomic      Atomic             Coordinates (Angstroms)
 Number     Number       Type             X           Y           Z
 ---------------------------------------------------------------------
      1          6           0       -2.558587   -0.343717    0.270398
      2          6           0       -1.274110   -0.896019   -0.329630
      3          6           0        0.001133   -0.256803    0.237700
      4          6           0        1.277740   -0.888314   -0.334682
      5          6           0        2.560823   -0.340241    0.272217
      6          6           0       -0.002825    1.191731   -0.000027
      7          7           0       -0.006378    2.320873   -0.205837
      8          1           0       -3.429786   -0.844091   -0.154091
      9          1           0       -2.659261    0.725445    0.074803
     10          1           0       -2.584373   -0.490433    1.352878
     11          1           0       -1.206324   -1.971500   -0.144916
     12          1           0       -1.278373   -0.763805   -1.415324
     13          1           0        0.003398   -0.388121    1.326196
     14          1           0        1.212280   -1.965815   -0.160918
     15          1           0        1.283054   -0.745477   -1.419026
     16          1           0        2.584407   -0.496329    1.353428
     17          1           0        3.433131   -0.836645   -0.154606
     18          1           0        2.661453    0.730842    0.086571
 ---------------------------------------------------------------------

 SCF Done:  E(RHF) =  -289.534284449     A.U. after    2 cycles

 The electronic state is 1-A.
 Alpha  occ. eigenvalues --  -15.74946 -11.47773 -11.43949 -11.43735 -11.40422
 Alpha  occ. eigenvalues --  -11.37859 -11.36746  -1.34997  -1.25055  -1.14613
 Alpha  occ. eigenvalues --   -1.03039  -0.88987  -0.88307  -0.72213  -0.63628
 Alpha  occ. eigenvalues --   -0.61671  -0.60712  -0.57716  -0.56380  -0.52482
 Alpha  occ. eigenvalues --   -0.49889  -0.49018  -0.48991  -0.47498  -0.46605
 Alpha  occ. eigenvalues --   -0.41927  -0.40191
 Alpha virt. eigenvalues --    0.03617   0.04561   0.04866   0.05210   0.05576
 Alpha virt. eigenvalues --    0.06184   0.06530   0.07879   0.08118   0.08561
 Alpha virt. eigenvalues --    0.08798   0.09347   0.11784   0.12817   0.13420

 Mulliken charges:
               1
     1  C   -4.148664
     2  C   -3.091406
     3  C   -0.159083
     4  C   -3.094703
     5  C   -4.149199
     6  C    1.949075
     7  N   -2.411133
     8  H    1.057970
     9  H    1.373537
    10  H    1.241212
    11  H    1.455040
    12  H    1.474541
    13  H    1.895693
    14  H    1.457668
    15  H    1.475567
    16  H    1.239034
    17  H    1.058538
    18  H    1.376314
 Sum of Mulliken charges =  -0.00000

 Dipole moment (field-independent basis, Debye):
    X=              0.0090    Y=             -3.5582    Z=              0.4078  Tot=              3.5816

 Test job not archived.
 1\1\GINC-SE135\SP\RHF\Aug-CC-pVDZ\C6H11N1\OHZDE\09-Apr-2025\0\\#t hf a
 ug-cc-pvdz iop(5/13=1,5/36=2,99/5=2) pseudo=read geom=check guess=(rea
 d,tcheck) scf=(maxcycle=1)\\title\\0,1\C,0,-2.55796715,0.17195171,0.18
 610662\C,0,-1.29760866,-0.55417606,-0.26019666\C,0,0.00311372,0.131554
 02,0.18093997\C,0,1.25153255,-0.66563048,-0.22167473\C,0,2.55533293,-0
 .06079159,0.27761032\C,0,0.07176591,1.49486555,-0.35892168\N,0,0.12496
 641,2.55323178,-0.79978578\H,0,-3.44941125,-0.36652746,-0.13780525\H,0
 ,-2.60477708,1.17844121,-0.2337595\H,0,-2.59894701,0.26041526,1.274430

 Normal termination of Gaussian 16 at Wed Apr  9 18:04:00 2025.
