 Gaussian 16, Revision C.01,

 ----------------------------------------------------------------------
 #t hf aug-cc-pvdz symm=none int=(grid=ultrafine) guess=(read,tcheck) s
 table=(opt,rrhf)
 ----------------------------------------------------------------------
 -----
 title
 -----
 Symbolic Z-matrix:
 Charge =  0 Multiplicity = 1

 SCF Done:  E(RHF) =  -295.889526405     A.U. after   15 cycles
 Normal termination of Gaussian 16 at Wed Apr  9 16:17:39 2025.
 Gaussian 16:  ES64L-G16RevC.01  3-Jul-2019

 ----------------------------------------------------------------------
 #t hf aug-cc-pvdz iop(5/13=1,5/36=2,99/5=2) pseudo=read geom=check gue
 ss=(read,tcheck) scf=(maxcycle=1)
 ----------------------------------------------------------------------
 -----
 title
 -----
 Structure from the checkpoint file:  "Grambow2020_b97d3_006780_forward_mol2.chk"
 Charge =  0 Multiplicity = 1

                         Standard orientation:
 ---------------------------------------------------------------------
 Center     Atomic      Atomic             Coordinates (Angstroms)
 Number     Number       Type             X           Y           Z
 ---------------------------------------------------------------------
      1          7           0        2.028676    0.004758   -0.088542
      2          6           0        0.647722    0.000318   -0.008923
      3          7           0       -0.071834   -1.133903    0.002002
      4          7           0       -1.347785   -0.641834    0.005768
      5          6           0       -1.337261    0.711554    0.006137
      6          7           0       -0.089215    1.160483   -0.004745
      7          1           0        2.434128    0.834225    0.334272
      8          1           0        2.439871   -0.857279    0.258219
      9          1           0       -2.132331   -1.284906    0.011681
     10          1           0       -2.243327    1.310207    0.011163
 ---------------------------------------------------------------------

 SCF Done:  E(RHF) =  -297.227253427     A.U. after    2 cycles

 The electronic state is 1-A.
 Alpha  occ. eigenvalues --  -15.81330 -15.76191 -15.73579 -15.72653 -11.46528
 Alpha  occ. eigenvalues --  -11.43948  -1.63921  -1.36914  -1.28860  -1.15145
 Alpha  occ. eigenvalues --   -0.88455  -0.80203  -0.75252  -0.67215  -0.63973
 Alpha  occ. eigenvalues --   -0.57209  -0.55243  -0.46763  -0.45993  -0.38416
 Alpha  occ. eigenvalues --   -0.37673  -0.29216
 Alpha virt. eigenvalues --    0.03421   0.04963   0.05455   0.07076   0.09961
 Alpha virt. eigenvalues --    0.10582   0.11606   0.13183   0.14111   0.14543
 Alpha virt. eigenvalues --    0.15224   0.17115   0.17631   0.17930   0.18568

 Mulliken charges:
               1
     1  N   -2.775469
     2  C    4.460196
     3  N   -1.888640
     4  N   -1.669255
     5  C    1.120745
     6  N   -2.795793
     7  H    0.597447
     8  H    0.590991
     9  H    0.888091
    10  H    1.471686
 Sum of Mulliken charges =  -0.00000

 Dipole moment (field-independent basis, Debye):
    X=             -1.7065    Y=             -0.5767    Z=              0.9246  Tot=              2.0247

 Test job not archived.
 1\1\GINC-SE454\SP\RHF\Aug-CC-pVDZ\C2H4N4\OHZDE\09-Apr-2025\0\\#t hf au
 g-cc-pvdz iop(5/13=1,5/36=2,99/5=2) pseudo=read geom=check guess=(read
 ,tcheck) scf=(maxcycle=1)\\title\\0,1\N,0,1.96646882,-0.04398918,-0.36
 648538\C,0,0.60354627,-0.02079446,-0.13133329\N,0,-0.1437709,-1.136584
 47,-0.10188869\N,0,-1.3960713,-0.61588648,0.07365491\C,0,-1.34523299,0
 .73454976,0.14787557\N,0,-0.09339558,1.154051,0.02061355\H,0,2.4411733
 7,0.74964001,0.053023\H,0,2.38795607,-0.9341975,-0.11686821\H,0,-2.193
 86185,-1.23968952,0.13272418\H,0,-2.22681193,1.35290084,0.28868436\\Ve

 Normal termination of Gaussian 16 at Wed Apr  9 16:17:42 2025.
