 Gaussian 16, Revision C.01,

 ----------------------------------------------------------------------
 #t hf aug-cc-pvdz symm=none int=(grid=ultrafine) guess=(read,tcheck) s
 table=(opt,rrhf)
 ----------------------------------------------------------------------
 -----
 title
 -----
 Symbolic Z-matrix:
 Charge =  0 Multiplicity = 1

 SCF Done:  E(RHF) =  -231.732506660     A.U. after   13 cycles
 Normal termination of Gaussian 16 at Wed Apr  9 16:56:08 2025.
 Gaussian 16:  ES64L-G16RevC.01  3-Jul-2019

 ----------------------------------------------------------------------
 #t hf aug-cc-pvdz iop(5/13=1,5/36=2,99/5=2) pseudo=read geom=check gue
 ss=(read,tcheck) scf=(maxcycle=1)
 ----------------------------------------------------------------------
 -----
 title
 -----
 Structure from the checkpoint file:  "Grambow2020_b97d3_006875_reverse_mol2.chk"
 Charge =  0 Multiplicity = 1

                         Standard orientation:
 ---------------------------------------------------------------------
 Center     Atomic      Atomic             Coordinates (Angstroms)
 Number     Number       Type             X           Y           Z
 ---------------------------------------------------------------------
      1          6           0        0.751691   -0.198982   -1.060527
      2          6           0        0.539492    0.974386   -0.006372
      3          6           0       -0.938997    1.153669   -0.005541
      4          6           0       -1.350973   -0.316432   -0.000885
      5          6           0        0.009117   -1.042741    0.006073
      6          6           0        0.746779   -0.185051    1.065444
      7          1           0        1.819117   -0.437476   -1.156585
      8          1           0        0.289503   -0.082820   -2.050442
      9          1           0        1.181782    1.861138   -0.011249
     10          1           0        0.279579   -0.055523    2.051369
     11          1           0       -1.988378   -0.514893    0.878052
     12          1           0       -1.981398   -0.520841   -0.883667
     13          1           0        0.043151   -2.137902    0.013065
     14          1           0        1.813984   -0.420781    1.170302
 ---------------------------------------------------------------------

 SCF Done:  E(RHF) =  -232.879447156     A.U. after    2 cycles

 The electronic state is 1-A.
 Alpha  occ. eigenvalues --  -11.45590 -11.44340 -11.42095 -11.39632 -11.39040
 Alpha  occ. eigenvalues --  -11.35222  -1.43455  -1.04879  -0.98759  -0.96259
 Alpha  occ. eigenvalues --   -0.79891  -0.73290  -0.68270  -0.63555  -0.61432
 Alpha  occ. eigenvalues --   -0.51924  -0.47309  -0.46361  -0.44367  -0.41941
 Alpha  occ. eigenvalues --   -0.41924  -0.30617
 Alpha virt. eigenvalues --    0.03962   0.04894   0.05246   0.05323   0.05789
 Alpha virt. eigenvalues --    0.06380   0.06492   0.07845   0.09338   0.09420
 Alpha virt. eigenvalues --    0.12204   0.12303   0.12891   0.13366   0.14547

 Mulliken charges:
               1
     1  C   -1.996777
     2  C   -1.458648
     3  C   -0.943244
     4  C   -2.521753
     5  C   -2.333360
     6  C   -1.994614
     7  H    1.265398
     8  H    1.287001
     9  H    1.588108
    10  H    1.289263
    11  H    1.451214
    12  H    1.453220
    13  H    1.648243
    14  H    1.265950
 Sum of Mulliken charges =  -0.00000

 Dipole moment (field-independent basis, Debye):
    X=              1.6595    Y=             -2.3554    Z=              0.0074  Tot=              2.8813

 Test job not archived.
 1\1\GINC-SE163\SP\RHF\Aug-CC-pVDZ\C6H8\OHZDE\09-Apr-2025\0\\#t hf aug-
 cc-pvdz iop(5/13=1,5/36=2,99/5=2) pseudo=read geom=check guess=(read,t
 check) scf=(maxcycle=1)\\title\\0,1\C,0,-1.11096907,-0.16198113,0.5640
 9778\C,0,-0.13821244,1.09344675,0.46061451\C,0,1.13607628,0.5709611,1.
 02742071\C,0,1.14934792,-0.79585053,0.34727905\C,0,-0.14606754,-0.7638
 7328,-0.48836179\C,0,-0.03446855,0.66814299,-1.07053078\H,0,-2.1036614
 8,0.09062896,0.16880743\H,0,-1.19701433,-0.65939225,1.53991629\H,0,-0.
 47574032,2.09476165,0.74755156\H,0,0.88043326,0.94236944,-1.61353695\H

 Normal termination of Gaussian 16 at Wed Apr  9 16:56:12 2025.
