 Gaussian 16, Revision C.01,

 ----------------------------------------------------------------------
 #t hf aug-cc-pvdz symm=none int=(grid=ultrafine) guess=(read,tcheck) s
 table=(opt,rrhf)
 ----------------------------------------------------------------------
 -----
 title
 -----
 Symbolic Z-matrix:
 Charge =  0 Multiplicity = 1

 SCF Done:  E(RHF) =  -346.082212901     A.U. after   15 cycles

 1\1\GINC-SE112\Stability\RHF\Aug-CC-pVDZ\C5H12O2\OHZDE\09-Apr-2025\0\\
 #t hf aug-cc-pvdz symm=none int=(grid=ultrafine) guess=(read,tcheck) s
 table=(opt,rrhf)\\title\\0,1\C,0,-2.92748491,0.9873588,1.65211974\O,0,
 0.67725552,-0.7366599,2.0060407\C,0,0.10473096,-0.64945105,0.95365578\
 C,0,0.34289447,0.49132999,-0.01105539\C,0,1.69632297,0.37515522,-0.721
 03927\C,0,1.71404293,-0.69325915,-1.7925026\O,0,1.36824258,-1.92840415
 ,-1.19078205\H,0,-3.86619751,1.21812235,2.15320781\H,0,-2.2094599,0.61
 456528,2.38124367\H,0,-3.10375961,0.2283787,0.89051521\H,0,-0.63841197

 Normal termination of Gaussian 16 at Wed Apr  9 19:02:11 2025.
 Gaussian 16:  ES64L-G16RevC.01  3-Jul-2019

 ----------------------------------------------------------------------
 #t hf aug-cc-pvdz iop(5/13=1,5/36=2,99/5=2) pseudo=read geom=check gue
 ss=(read,tcheck) scf=(maxcycle=1)
 ----------------------------------------------------------------------
 -----
 title
 -----
 Structure from the checkpoint file:  "Grambow2020_wb97xd3_008010_reverse_mol2.chk"
 Charge =  0 Multiplicity = 1

                         Standard orientation:
 ---------------------------------------------------------------------
 Center     Atomic      Atomic             Coordinates (Angstroms)
 Number     Number       Type             X           Y           Z
 ---------------------------------------------------------------------
      1          6           0       -3.730776   -0.665215    0.456036
      2          8           0       -0.709818    1.752141   -0.603142
      3          6           0       -0.545823    0.774296    0.074966
      4          6           0       -0.157792   -0.566234   -0.509140
      5          6           0        1.305756   -0.597162   -0.963467
      6          6           0        2.282720   -0.681561    0.189041
      7          8           0        2.057201    0.427194    1.041703
      8          1           0       -4.797908   -0.732622    0.661482
      9          1           0       -3.506925    0.305638    0.016159
     10          1           0       -3.177425   -0.781736    1.387375
     11          1           0       -0.685467    0.820562    1.171256
     12          1           0       -0.803799   -0.729846   -1.374752
     13          1           0       -3.445861   -1.454278   -0.238671
     14          1           0       -0.350209   -1.360889    0.216956
     15          1           0        1.511610    0.297966   -1.555599
     16          1           0        1.467116   -1.460153   -1.614192
     17          1           0        2.131608   -1.622878    0.735111
     18          1           0        3.309985   -0.675795   -0.194999
     19          1           0        2.643704    0.374607    1.796779
 ---------------------------------------------------------------------

 SCF Done:  E(RHF) =  -347.701410467     A.U. after    2 cycles

 The electronic state is 1-A.
 Alpha  occ. eigenvalues --  -21.07782 -21.04496 -11.47435 -11.44678 -11.41578
 Alpha  occ. eigenvalues --  -11.37159 -11.35896  -1.72541  -1.69570  -1.21023
 Alpha  occ. eigenvalues --   -1.03193  -1.02636  -0.87296  -0.78996  -0.68149
 Alpha  occ. eigenvalues --   -0.67201  -0.61926  -0.57076  -0.53944  -0.53917
 Alpha  occ. eigenvalues --   -0.53824  -0.53396  -0.50253  -0.47833  -0.47149
 Alpha  occ. eigenvalues --   -0.44171  -0.38360  -0.33197  -0.27824
 Alpha virt. eigenvalues --    0.03360   0.04135   0.04953   0.05132   0.05175
 Alpha virt. eigenvalues --    0.05904   0.06506   0.07333   0.07659   0.08437
 Alpha virt. eigenvalues --    0.08710   0.10256   0.11426   0.13082   0.13598

 Mulliken charges:
               1
     1  C   -5.425151
     2  O   -2.775116
     3  C    1.491609
     4  C   -2.817423
     5  C   -3.094924
     6  C   -1.272211
     7  O   -2.557352
     8  H    1.163995
     9  H    1.369362
    10  H    1.380611
    11  H    1.749662
    12  H    1.409140
    13  H    1.366598
    14  H    1.687305
    15  H    1.417620
    16  H    1.336323
    17  H    1.425479
    18  H    1.314876
    19  H    0.829598
 Sum of Mulliken charges =  -0.00000

 Dipole moment (field-independent basis, Debye):
    X=              1.2119    Y=             -1.6866    Z=              0.6670  Tot=              2.1814

 Test job not archived.
 1\1\GINC-SE112\SP\RHF\Aug-CC-pVDZ\C5H12O2\OHZDE\09-Apr-2025\0\\#t hf a
 ug-cc-pvdz iop(5/13=1,5/36=2,99/5=2) pseudo=read geom=check guess=(rea
 d,tcheck) scf=(maxcycle=1)\\title\\0,1\C,0,-2.92748491,0.9873588,1.652
 11974\O,0,0.67725552,-0.7366599,2.0060407\C,0,0.10473096,-0.64945105,0
 .95365578\C,0,0.34289447,0.49132999,-0.01105539\C,0,1.69632297,0.37515
 522,-0.72103927\C,0,1.71404293,-0.69325915,-1.7925026\O,0,1.36824258,-
 1.92840415,-1.19078205\H,0,-3.86619751,1.21812235,2.15320781\H,0,-2.20
 94599,0.61456528,2.38124367\H,0,-3.10375961,0.2283787,0.89051521\H,0,-

 Normal termination of Gaussian 16 at Wed Apr  9 19:02:18 2025.
