 Gaussian 16, Revision C.01,

 ----------------------------------------------------------------------
 #t hf aug-cc-pvdz symm=none int=(grid=ultrafine) guess=(read,tcheck) s
 table=(opt,rrhf)
 ----------------------------------------------------------------------
 -----
 title
 -----
 Symbolic Z-matrix:
 Charge =  0 Multiplicity = 1

 SCF Done:  E(RHF) =  -339.893557248     A.U. after   13 cycles
 Normal termination of Gaussian 16 at Wed Apr  9 18:01:05 2025.
 Gaussian 16:  ES64L-G16RevC.01  3-Jul-2019

 ----------------------------------------------------------------------
 #t hf aug-cc-pvdz iop(5/13=1,5/36=2,99/5=2) pseudo=read geom=check gue
 ss=(read,tcheck) scf=(maxcycle=1)
 ----------------------------------------------------------------------
 -----
 title
 -----
 Structure from the checkpoint file:  "Grambow2020_wb97xd3_006550_reverse_mol2.chk"
 Charge =  0 Multiplicity = 1

                         Standard orientation:
 ---------------------------------------------------------------------
 Center     Atomic      Atomic             Coordinates (Angstroms)
 Number     Number       Type             X           Y           Z
 ---------------------------------------------------------------------
      1          6           0       -1.438127    1.758418   -0.121606
      2          7           0       -0.267807    1.052446    0.377113
      3          6           0        0.045789   -0.169119   -0.305257
      4          6           0        1.414491   -0.673236    0.149743
      5          8           0        2.400918    0.276122   -0.140588
      6          6           0       -1.749380   -2.012477    0.108586
      7          7           0       -0.938920   -1.202835   -0.100746
      8          1           0       -2.357896    1.162814   -0.075334
      9          1           0       -1.582049    2.668220    0.460024
     10          1           0       -1.267371    2.048237   -1.159788
     11          1           0       -0.353937    0.874614    1.370439
     12          1           0        0.080788    0.034752   -1.378158
     13          1           0        1.664541   -1.592167   -0.380646
     14          1           0        1.363850   -0.904607    1.223836
     15          1           0        2.055182    1.130365    0.140967
 ---------------------------------------------------------------------

 SCF Done:  E(RHF) =  -341.452236492     A.U. after    2 cycles

 The electronic state is 1-A.
 Alpha  occ. eigenvalues --  -21.07612 -15.77515 -15.75068 -11.49901 -11.43704
 Alpha  occ. eigenvalues --  -11.42162 -11.40301  -1.73088  -1.47389  -1.34147
 Alpha  occ. eigenvalues --   -1.11366  -0.97563  -0.91936  -0.76809  -0.69780
 Alpha  occ. eigenvalues --   -0.66914  -0.62355  -0.58418  -0.57174  -0.54232
 Alpha  occ. eigenvalues --   -0.52353  -0.48536  -0.47076  -0.45599  -0.40762
 Alpha  occ. eigenvalues --   -0.36856  -0.32876
 Alpha virt. eigenvalues --    0.03601   0.04925   0.05169   0.06108   0.06286
 Alpha virt. eigenvalues --    0.06483   0.06913   0.08312   0.10286   0.10418
 Alpha virt. eigenvalues --    0.11286   0.11659   0.13222   0.13728   0.14164

 Mulliken charges:
               1
     1  C   -3.517819
     2  N   -2.292572
     3  C    0.659587
     4  C   -0.090152
     5  O   -2.753334
     6  C   -0.715901
     7  N   -1.362330
     8  H    1.349941
     9  H    1.284376
    10  H    1.364466
    11  H    0.559820
    12  H    1.978381
    13  H    1.285514
    14  H    1.398951
    15  H    0.851071
 Sum of Mulliken charges =  -0.00000

 Dipole moment (field-independent basis, Debye):
    X=              1.1448    Y=              2.9357    Z=              0.0173  Tot=              3.1511

 Test job not archived.
 1\1\GINC-SE340\SP\RHF\Aug-CC-pVDZ\C4H8N2O1\OHZDE\09-Apr-2025\0\\#t hf
 aug-cc-pvdz iop(5/13=1,5/36=2,99/5=2) pseudo=read geom=check guess=(re
 ad,tcheck) scf=(maxcycle=1)\\title\\0,1\C,0,-1.8026261,0.61291969,0.71
 36304\N,0,-0.42461041,0.15449948,0.80131528\C,0,0.23454184,-0.04414183
 ,-0.45656098\C,0,1.72504945,-0.28426754,-0.22154721\O,0,2.29723761,0.8
 1854466,0.42266981\C,0,-0.77615389,-2.04314513,-1.78860732\N,0,-0.3138
 9358,-1.13900276,-1.21849342\H,0,-2.4539993,-0.07117226,0.15632321\H,0
 ,-2.20379644,0.73508417,1.71905858\H,0,-1.82640693,1.58742524,0.222968

 Normal termination of Gaussian 16 at Wed Apr  9 18:01:09 2025.
