 Gaussian 16, Revision C.01,

 ----------------------------------------------------------------------
 #t hf aug-cc-pvdz symm=none int=(grid=ultrafine) guess=(read,tcheck) s
 table=(opt,rrhf)
 ----------------------------------------------------------------------
 -----
 title
 -----
 Symbolic Z-matrix:
 Charge =  0 Multiplicity = 1

 SCF Done:  E(RHF) =  -307.724442183     A.U. after   15 cycles

 1\1\GINC-SE219\Stability\RHF\Aug-CC-pVDZ\C6H10O1\OHZDE\09-Apr-2025\0\\
 #t hf aug-cc-pvdz symm=none int=(grid=ultrafine) guess=(read,tcheck) s
 table=(opt,rrhf)\\title\\0,1\C,0,2.03856349,0.58730438,-0.32138279\C,0
 ,1.08191189,-0.50931982,-0.63618194\C,0,-0.10979749,-0.90645152,1.1521
 5086\C,0,-1.12386454,-0.41316444,0.14602439\O,0,-2.33554406,-1.0885404
 ,0.04583984\C,0,-1.01551069,1.01083358,-0.29296722\C,0,-0.30479707,-0.
 09376487,-1.0520811\H,0,2.91200032,0.24157336,0.23179697\H,0,1.6370081
 2,1.4964866,0.14419484\H,0,2.39330429,0.88272198,-1.31857642\H,0,0.868

 Normal termination of Gaussian 16 at Wed Apr  9 19:19:15 2025.
 Gaussian 16:  ES64L-G16RevC.01  3-Jul-2019

 ----------------------------------------------------------------------
 #t hf aug-cc-pvdz iop(5/13=1,5/36=2,99/5=2) pseudo=read geom=check gue
 ss=(read,tcheck) scf=(maxcycle=1)
 ----------------------------------------------------------------------
 -----
 title
 -----
 Structure from the checkpoint file:  "Grambow2020_wb97xd3_008611_forward_mol1.chk"
 Charge =  0 Multiplicity = 1

                         Standard orientation:
 ---------------------------------------------------------------------
 Center     Atomic      Atomic             Coordinates (Angstroms)
 Number     Number       Type             X           Y           Z
 ---------------------------------------------------------------------
      1          6           0       -2.421105   -0.018719    0.139233
      2          6           0       -1.255967    0.242404   -0.750225
      3          6           0        0.228810    1.372021    0.387940
      4          6           0        0.926962    0.067320    0.080865
      5          8           0        2.250748    0.111848   -0.343333
      6          6           0        0.380689   -1.167997    0.719459
      7          6           0       -0.101859   -0.719911   -0.647242
      8          1           0       -3.086082    0.840420    0.229319
      9          1           0       -2.220323   -0.441732    1.131890
     10          1           0       -2.973598   -0.788271   -0.417587
     11          1           0       -0.701425    1.442374   -0.405683
     12          1           0       -0.076535    1.541878    1.418488
     13          1           0        0.767766    2.229077   -0.017760
     14          1           0        2.819014    0.073570    0.428890
     15          1           0        1.054541   -2.015386    0.722612
     16          1           0       -0.267456   -1.095057    1.584953
     17          1           0        0.132933   -1.332372   -1.508638
 ---------------------------------------------------------------------

 SCF Done:  E(RHF) =  -309.204475450     A.U. after    2 cycles

 The electronic state is 1-A.
 Alpha  occ. eigenvalues --  -21.08091 -11.49129 -11.44019 -11.41239 -11.40400
 Alpha  occ. eigenvalues --  -11.37892 -11.36177  -1.73508  -1.35160  -1.11354
 Alpha  occ. eigenvalues --   -1.05534  -0.91509  -0.82385  -0.74249  -0.67621
 Alpha  occ. eigenvalues --   -0.64366  -0.61889  -0.57706  -0.56737  -0.54630
 Alpha  occ. eigenvalues --   -0.52494  -0.49133  -0.46005  -0.40117  -0.34862
 Alpha  occ. eigenvalues --   -0.33655  -0.26665
 Alpha virt. eigenvalues --    0.03738   0.04913   0.05309   0.05621   0.05781
 Alpha virt. eigenvalues --    0.05940   0.06538   0.07287   0.07590   0.09124
 Alpha virt. eigenvalues --    0.10704   0.10913   0.13073   0.13614   0.14088

 Mulliken charges:
               1
     1  C   -3.641947
     2  C   -1.948336
     3  C   -4.106793
     4  C    4.678029
     5  O   -3.753003
     6  C   -3.177936
     7  C   -1.086661
     8  H    1.235359
     9  H    1.463524
    10  H    1.256124
    11  H    1.965042
    12  H    1.410809
    13  H    0.969994
    14  H    0.575903
    15  H    1.244902
    16  H    1.520751
    17  H    1.394239
 Sum of Mulliken charges =   0.00000

 Dipole moment (field-independent basis, Debye):
    X=              0.8601    Y=             -0.1378    Z=              2.0094  Tot=              2.1901

 Test job not archived.
 1\1\GINC-SE219\SP\RHF\Aug-CC-pVDZ\C6H10O1\OHZDE\09-Apr-2025\0\\#t hf a
 ug-cc-pvdz iop(5/13=1,5/36=2,99/5=2) pseudo=read geom=check guess=(rea
 d,tcheck) scf=(maxcycle=1)\\title\\0,1\C,0,2.03856349,0.58730438,-0.32
 138279\C,0,1.08191189,-0.50931982,-0.63618194\C,0,-0.10979749,-0.90645
 152,1.15215086\C,0,-1.12386454,-0.41316444,0.14602439\O,0,-2.33554406,
 -1.0885404,0.04583984\C,0,-1.01551069,1.01083358,-0.29296722\C,0,-0.30
 479707,-0.09376487,-1.0520811\H,0,2.91200032,0.24157336,0.23179697\H,0
 ,1.63700812,1.4964866,0.14419484\H,0,2.39330429,0.88272198,-1.31857642

 Normal termination of Gaussian 16 at Wed Apr  9 19:19:21 2025.
