 Gaussian 16, Revision C.01,

 ----------------------------------------------------------------------
 #t hf aug-cc-pvdz symm=none int=(grid=ultrafine) guess=(read,tcheck) s
 table=(opt,rrhf)
 ----------------------------------------------------------------------
 -----
 title
 -----
 Symbolic Z-matrix:
 Charge =  0 Multiplicity = 1

 SCF Done:  E(RHF) =  -317.660584185     A.U. after   15 cycles
 Normal termination of Gaussian 16 at Wed Apr  9 19:04:39 2025.
 Gaussian 16:  ES64L-G16RevC.01  3-Jul-2019

 ----------------------------------------------------------------------
 #t hf aug-cc-pvdz iop(5/13=1,5/36=2,99/5=2) pseudo=read geom=check gue
 ss=(read,tcheck) scf=(maxcycle=1)
 ----------------------------------------------------------------------
 -----
 title
 -----
 Structure from the checkpoint file:  "Grambow2020_wb97xd3_008059_reverse_mol1.chk"
 Charge =  0 Multiplicity = 1

                         Standard orientation:
 ---------------------------------------------------------------------
 Center     Atomic      Atomic             Coordinates (Angstroms)
 Number     Number       Type             X           Y           Z
 ---------------------------------------------------------------------
      1          7           0       -2.649890    0.350052   -0.067516
      2          6           0       -2.182719   -0.563342   -0.622108
      3          6           0        0.032048   -0.606621    0.621333
      4          6           0        1.279445   -1.076872   -0.019762
      5          7           0        1.935662    0.123839   -0.502645
      6          6           0        1.193606    1.090318   -0.168627
      7          7           0        0.042439    0.688853    0.550801
      8          1           0       -0.730270   -1.162442    1.139615
      9          1           0        1.919386   -1.632183    0.673194
     10          1           0        1.041672   -1.751042   -0.848471
     11          1           0        1.365462    2.136299   -0.380831
     12          1           0       -0.828013    1.209266    0.687006
 ---------------------------------------------------------------------

 SCF Done:  E(RHF) =  -319.113381963     A.U. after    2 cycles

 The electronic state is 1-A.
 Alpha  occ. eigenvalues --  -15.87046 -15.79352 -15.65592 -11.57810 -11.50590
 Alpha  occ. eigenvalues --  -11.47882 -11.28965  -1.63981  -1.35872  -1.20520
 Alpha  occ. eigenvalues --   -1.17133  -0.93200  -0.90041  -0.84374  -0.72039
 Alpha  occ. eigenvalues --   -0.66371  -0.62468  -0.59962  -0.57356  -0.52818
 Alpha  occ. eigenvalues --   -0.46324  -0.45014  -0.36558  -0.35819  -0.35502
 Alpha virt. eigenvalues --    0.01999   0.03486   0.04000   0.05483   0.06068
 Alpha virt. eigenvalues --    0.06641   0.07801   0.08832   0.10167   0.11120
 Alpha virt. eigenvalues --    0.11497   0.12262   0.12349   0.13925   0.13994

 Mulliken charges:
               1
     1  N   -1.188509
     2  C    0.147097
     3  C    0.042151
     4  C   -1.968162
     5  N   -2.586454
     6  C    1.534771
     7  N   -2.861870
     8  H    1.539251
     9  H    1.356350
    10  H    1.431061
    11  H    1.632699
    12  H    0.921614
 Sum of Mulliken charges =  -0.00000

 Dipole moment (field-independent basis, Debye):
    X=              7.5401    Y=              0.8314    Z=              3.4839  Tot=              8.3476

 Test job not archived.
 1\1\GINC-SE105\SP\RHF\Aug-CC-pVDZ\C4H5N3\OHZDE\09-Apr-2025\0\\#t hf au
 g-cc-pvdz iop(5/13=1,5/36=2,99/5=2) pseudo=read geom=check guess=(read
 ,tcheck) scf=(maxcycle=1)\\title\\0,1\N,0,2.64798898,0.25458846,1.1343
 6397\C,0,2.18505031,-0.80752431,1.00127248\C,0,0.35879767,-0.16741676,
 -0.64441184\C,0,-0.93340676,-0.88549502,-0.69644942\N,0,-1.83769082,-0
 .10246569,0.12491461\C,0,-1.17023345,0.88648051,0.5405868\N,0,0.162308
 59,0.9022529,0.06307374\H,0,1.28922809,-0.38279548,-1.14099433\H,0,-1.
 30994928,-0.99045936,-1.71884019\H,0,-0.81536987,-1.8955435,-0.2918893

 Normal termination of Gaussian 16 at Wed Apr  9 19:04:43 2025.
