 Gaussian 16, Revision C.01,

 ----------------------------------------------------------------------
 #t hf aug-cc-pvdz symm=none int=(grid=ultrafine) guess=(read,tcheck) s
 table=(opt,rrhf)
 ----------------------------------------------------------------------
 -----
 title
 -----
 Symbolic Z-matrix:
 Charge =  0 Multiplicity = 1

 SCF Done:  E(RHF) =  -322.753768584     A.U. after   14 cycles
 Normal termination of Gaussian 16 at Wed Apr  9 18:53:43 2025.
 Gaussian 16:  ES64L-G16RevC.01  3-Jul-2019

 ----------------------------------------------------------------------
 #t hf aug-cc-pvdz iop(5/13=1,5/36=2,99/5=2) pseudo=read geom=check gue
 ss=(read,tcheck) scf=(maxcycle=1)
 ----------------------------------------------------------------------
 -----
 title
 -----
 Structure from the checkpoint file:  "Grambow2020_wb97xd3_007749_forward_mol2.chk"
 Charge =  0 Multiplicity = 1

                         Standard orientation:
 ---------------------------------------------------------------------
 Center     Atomic      Atomic             Coordinates (Angstroms)
 Number     Number       Type             X           Y           Z
 ---------------------------------------------------------------------
      1          6           0       -2.503774   -0.448181    0.000871
      2          6           0       -1.043250   -0.166244   -0.000889
      3          6           0       -0.015905   -1.007599   -0.001129
      4          6           0        1.236059   -0.244285    0.000021
      5          7           0        2.409323   -0.700410    0.000470
      6          8           0        0.913215    1.086121    0.000559
      7          6           0       -0.498763    1.231982   -0.000691
      8          1           0       -2.981211   -0.008702    0.880386
      9          1           0       -2.983784   -0.010517   -0.878074
     10          1           0       -2.699980   -1.519323    0.002573
     11          1           0       -0.035136   -2.086647   -0.001556
     12          1           0        3.092033    0.052986    0.001743
     13          1           0       -0.805821    1.795855    0.886461
     14          1           0       -0.803296    1.796215   -0.888394
 ---------------------------------------------------------------------

 SCF Done:  E(RHF) =  -324.235358739     A.U. after    2 cycles

 The electronic state is 1-A.
 Alpha  occ. eigenvalues --  -21.07869 -15.71118 -11.50166 -11.46673 -11.44604
 Alpha  occ. eigenvalues --  -11.41866 -11.38474  -1.82191  -1.30386  -1.25446
 Alpha  occ. eigenvalues --   -1.06269  -1.01014  -0.80852  -0.77685  -0.66767
 Alpha  occ. eigenvalues --   -0.66526  -0.60266  -0.59345  -0.58330  -0.51299
 Alpha  occ. eigenvalues --   -0.51220  -0.48815  -0.41855  -0.36679  -0.36180
 Alpha  occ. eigenvalues --   -0.30128
 Alpha virt. eigenvalues --    0.02775   0.04814   0.05349   0.05465   0.06495
 Alpha virt. eigenvalues --    0.06701   0.07113   0.08588   0.11488   0.12185
 Alpha virt. eigenvalues --    0.12491   0.12822   0.13818   0.13948   0.14221

 Mulliken charges:
               1
     1  C   -5.314817
     2  C    5.600507
     3  C   -4.476406
     4  C    5.073986
     5  N   -3.873801
     6  O   -3.785209
     7  C   -1.457847
     8  H    1.131772
     9  H    1.132855
    10  H    1.260408
    11  H    1.455674
    12  H    0.816186
    13  H    1.218578
    14  H    1.218115
 Sum of Mulliken charges =  -0.00000

 Dipole moment (field-independent basis, Debye):
    X=             -3.5715    Y=              1.6084    Z=              0.0006  Tot=              3.9170

 Test job not archived.
 1\1\GINC-SE045\SP\RHF\Aug-CC-pVDZ\C5H7N1O1\OHZDE\09-Apr-2025\0\\#t hf
 aug-cc-pvdz iop(5/13=1,5/36=2,99/5=2) pseudo=read geom=check guess=(re
 ad,tcheck) scf=(maxcycle=1)\\title\\0,1\C,0,-2.01074279,-0.21760804,-0
 .43775058\C,0,-0.56000302,-0.08645707,-0.13646297\C,0,0.44021439,-0.92
 016448,-0.39687625\C,0,1.69349442,-0.34457277,0.10116577\N,0,2.8454326
 3,-0.84770783,0.03413891\O,0,1.39972091,0.86617119,0.66862069\C,0,0.00
 571681,1.1131842,0.56519584\H,0,-2.60123062,-0.18100435,0.48128063\H,0
 ,-2.35067034,0.60543266,-1.07143582\H,0,-2.22582375,-1.15569454,-0.947

 Normal termination of Gaussian 16 at Wed Apr  9 18:53:47 2025.
