 Gaussian 16, Revision C.01,

 ----------------------------------------------------------------------
 #t hf aug-cc-pvdz symm=none int=(grid=ultrafine) guess=(read,tcheck) s
 table=(opt,rrhf)
 ----------------------------------------------------------------------
 -----
 title
 -----
 Symbolic Z-matrix:
 Charge =  0 Multiplicity = 1

 SCF Done:  E(RHF) =  -394.456065445     A.U. after   13 cycles
 Normal termination of Gaussian 16 at Wed Apr  9 18:29:25 2025.
 Gaussian 16:  ES64L-G16RevC.01  3-Jul-2019

 ----------------------------------------------------------------------
 #t hf aug-cc-pvdz iop(5/13=1,5/36=2,99/5=2) pseudo=read geom=check gue
 ss=(read,tcheck) scf=(maxcycle=1)
 ----------------------------------------------------------------------
 -----
 title
 -----
 Structure from the checkpoint file:  "Grambow2020_wb97xd3_007194_reverse_mol2.chk"
 Charge =  0 Multiplicity = 1

                         Standard orientation:
 ---------------------------------------------------------------------
 Center     Atomic      Atomic             Coordinates (Angstroms)
 Number     Number       Type             X           Y           Z
 ---------------------------------------------------------------------
      1          7           0        2.307627   -0.531569    0.000052
      2          6           0        1.120791   -0.155229    0.000402
      3          8           0        0.009426   -0.959902   -0.000064
      4          6           0       -1.127563   -0.189582   -0.000213
      5          8           0       -2.221521   -0.628370    0.000237
      6          6           0        0.617040    1.259939    0.000182
      7          8           0       -0.797282    1.109622   -0.000367
      8          1           0        2.393913   -1.544217   -0.001051
      9          1           0        0.933774    1.801115   -0.891117
     10          1           0        0.932334    1.802522    0.891128
 ---------------------------------------------------------------------

 SCF Done:  E(RHF) =  -396.094948538     A.U. after    2 cycles

 The electronic state is 1-A.
 Alpha  occ. eigenvalues --  -21.15248 -21.13821 -21.07968 -15.76889 -11.57499
 Alpha  occ. eigenvalues --  -11.54652 -11.47040  -1.98849  -1.77277  -1.71981
 Alpha  occ. eigenvalues --   -1.36010  -1.10408  -0.86902  -0.85568  -0.72799
 Alpha  occ. eigenvalues --   -0.71214  -0.67433  -0.60946  -0.55759  -0.52953
 Alpha  occ. eigenvalues --   -0.51853  -0.45677  -0.42427  -0.36747  -0.35097
 Alpha  occ. eigenvalues --   -0.33296
 Alpha virt. eigenvalues --    0.02899   0.05157   0.05397   0.08269   0.09421
 Alpha virt. eigenvalues --    0.10579   0.11102   0.11277   0.11299   0.12186
 Alpha virt. eigenvalues --    0.13593   0.14237   0.14494   0.16583   0.16730

 Mulliken charges:
               1
     1  N   -3.365222
     2  C    4.181095
     3  O   -3.313593
     4  C    6.424385
     5  O   -3.205253
     6  C   -1.236023
     7  O   -2.831874
     8  H    0.702468
     9  H    1.321861
    10  H    1.322157
 Sum of Mulliken charges =   0.00000

 Dipole moment (field-independent basis, Debye):
    X=              0.8335    Y=              0.7358    Z=             -0.0009  Tot=              1.1118

 Test job not archived.
 1\1\GINC-SE173\SP\RHF\Aug-CC-pVDZ\C3H3N1O3\OHZDE\09-Apr-2025\0\\#t hf
 aug-cc-pvdz iop(5/13=1,5/36=2,99/5=2) pseudo=read geom=check guess=(re
 ad,tcheck) scf=(maxcycle=1)\\title\\0,1\N,0,-0.98843885,1.1954475,-1.3
 0893342\C,0,-0.33443537,0.50509432,-0.50525116\O,0,0.91103025,0.793247
 49,-0.00683868\C,0,1.31368835,-0.19948179,0.85251653\O,0,2.34608375,-0
 .20087013,1.42123337\C,0,-0.74318534,-0.80257393,0.11069624\O,0,0.3640
 108,-1.14186177,0.93646933\H,0,-0.49675904,2.04128389,-1.58409544\H,0,
 -0.89469557,-1.57433292,-0.64365147\H,0,-1.64209598,-0.70095567,0.7183

 Normal termination of Gaussian 16 at Wed Apr  9 18:29:28 2025.
