 Gaussian 16, Revision C.01,

 ----------------------------------------------------------------------
 #t hf aug-cc-pvdz symm=none int=(grid=ultrafine) guess=(read,tcheck) s
 table=(opt,rrhf)
 ----------------------------------------------------------------------
 -----
 title
 -----
 Symbolic Z-matrix:
 Charge =  0 Multiplicity = 1

 SCF Done:  E(RHF) =  -307.598382548     A.U. after   16 cycles

 1\1\GINC-SE131\Stability\RHF\Aug-CC-pVDZ\C6H10O1\OHZDE\09-Apr-2025\0\\
 #t hf aug-cc-pvdz symm=none int=(grid=ultrafine) guess=(read,tcheck) s
 table=(opt,rrhf)\\title\\0,1\C,0,1.62172625,-0.59754043,-0.39002365\C,
 0,0.66881889,0.32090205,0.343711\C,0,-0.05100203,1.44295226,-0.1641793
 \C,0,-1.38629419,0.73891189,-0.15652399\O,0,-1.62383218,-0.36114742,-1
 .0527221\C,0,-1.30570742,-1.34683191,-0.0549116\C,0,-0.68372317,-0.279
 73801,0.8398427\H,0,2.17783337,-1.21598981,0.31740003\H,0,2.33682224,-
 0.01035377,-0.96531452\H,0,1.09166318,-1.26161784,-1.07394494\H,0,1.65

 Normal termination of Gaussian 16 at Wed Apr  9 19:16:18 2025.
 Gaussian 16:  ES64L-G16RevC.01  3-Jul-2019

 ----------------------------------------------------------------------
 #t hf aug-cc-pvdz iop(5/13=1,5/36=2,99/5=2) pseudo=read geom=check gue
 ss=(read,tcheck) scf=(maxcycle=1)
 ----------------------------------------------------------------------
 -----
 title
 -----
 Structure from the checkpoint file:  "Grambow2020_wb97xd3_008497_forward_mol1.chk"
 Charge =  0 Multiplicity = 1

                         Standard orientation:
 ---------------------------------------------------------------------
 Center     Atomic      Atomic             Coordinates (Angstroms)
 Number     Number       Type             X           Y           Z
 ---------------------------------------------------------------------
      1          6           0        1.716534   -1.070113   -0.305334
      2          6           0        1.064488    0.118718    0.366566
      3          6           0        0.612768    1.335690   -0.225058
      4          6           0       -0.851510    0.991634   -0.097578
      5          8           0       -1.405647   -0.088851   -0.869077
      6          6           0       -1.279433   -1.030503    0.210628
      7          6           0       -0.361522   -0.078112    0.969923
      8          1           0        2.145572   -1.742928    0.439937
      9          1           0        2.517717   -0.733781   -0.962676
     10          1           0        0.999261   -1.638281   -0.898983
     11          1           0        2.270435    0.820342    0.458441
     12          1           0        0.879084    2.297465    0.187510
     13          1           0        2.240869    1.398447   -0.497450
     14          1           0       -1.589631    1.773150    0.089931
     15          1           0       -0.883794   -1.994024   -0.113847
     16          1           0       -2.244928   -1.184423    0.703843
     17          1           0       -0.497360    0.110955    2.031032
 ---------------------------------------------------------------------

 SCF Done:  E(RHF) =  -309.121279305     A.U. after    2 cycles

 The electronic state is 1-A.
 Alpha  occ. eigenvalues --  -21.04598 -11.49536 -11.46005 -11.44394 -11.43717
 Alpha  occ. eigenvalues --  -11.39787 -11.37536  -1.78645  -1.32692  -1.08068
 Alpha  occ. eigenvalues --   -1.05782  -0.93207  -0.86097  -0.74654  -0.71164
 Alpha  occ. eigenvalues --   -0.67488  -0.61771  -0.58545  -0.56358  -0.55680
 Alpha  occ. eigenvalues --   -0.51460  -0.46752  -0.42379  -0.37652  -0.35827
 Alpha  occ. eigenvalues --   -0.31478  -0.29608
 Alpha virt. eigenvalues --    0.03689   0.04739   0.04913   0.05296   0.05837
 Alpha virt. eigenvalues --    0.06346   0.06600   0.07002   0.08015   0.08835
 Alpha virt. eigenvalues --    0.10029   0.11207   0.11675   0.11880   0.13414

 Mulliken charges:
               1
     1  C   -4.026683
     2  C    0.073689
     3  C   -0.461913
     4  C    0.065433
     5  O   -2.909364
     6  C   -1.614722
     7  C   -2.746748
     8  H    1.226624
     9  H    1.179566
    10  H    1.308264
    11  H    0.428953
    12  H    1.313398
    13  H    0.262764
    14  H    1.556536
    15  H    1.556680
    16  H    1.414491
    17  H    1.373033
 Sum of Mulliken charges =   0.00000

 Dipole moment (field-independent basis, Debye):
    X=             -1.4720    Y=             -0.7738    Z=              1.3668  Tot=              2.1526

 Test job not archived.
 1\1\GINC-SE131\SP\RHF\Aug-CC-pVDZ\C6H10O1\OHZDE\09-Apr-2025\0\\#t hf a
 ug-cc-pvdz iop(5/13=1,5/36=2,99/5=2) pseudo=read geom=check guess=(rea
 d,tcheck) scf=(maxcycle=1)\\title\\0,1\C,0,1.62172625,-0.59754043,-0.3
 9002365\C,0,0.66881889,0.32090205,0.343711\C,0,-0.05100203,1.44295226,
 -0.1641793\C,0,-1.38629419,0.73891189,-0.15652399\O,0,-1.62383218,-0.3
 6114742,-1.0527221\C,0,-1.30570742,-1.34683191,-0.0549116\C,0,-0.68372
 317,-0.27973801,0.8398427\H,0,2.17783337,-1.21598981,0.31740003\H,0,2.
 33682224,-0.01035377,-0.96531452\H,0,1.09166318,-1.26161784,-1.0739449

 Normal termination of Gaussian 16 at Wed Apr  9 19:16:24 2025.
