 Gaussian 16, Revision C.01,

 ----------------------------------------------------------------------
 #t hf aug-cc-pvdz symm=none int=(grid=ultrafine) guess=(read,tcheck) s
 table=(opt,rrhf)
 ----------------------------------------------------------------------
 -----
 title
 -----
 Symbolic Z-matrix:
 Charge =  0 Multiplicity = 1

 SCF Done:  E(RHF) =  -272.978458779     A.U. after   16 cycles
 Normal termination of Gaussian 16 at Wed Apr  9 18:55:21 2025.
 Gaussian 16:  ES64L-G16RevC.01  3-Jul-2019

 ----------------------------------------------------------------------
 #t hf aug-cc-pvdz iop(5/13=1,5/36=2,99/5=2) pseudo=read geom=check gue
 ss=(read,tcheck) scf=(maxcycle=1)
 ----------------------------------------------------------------------
 -----
 title
 -----
 Structure from the checkpoint file:  "Grambow2020_wb97xd3_007782_forward_mol1.chk"
 Charge =  0 Multiplicity = 1

                         Standard orientation:
 ---------------------------------------------------------------------
 Center     Atomic      Atomic             Coordinates (Angstroms)
 Number     Number       Type             X           Y           Z
 ---------------------------------------------------------------------
      1          6           0       -0.931905    1.759757   -0.092781
      2          6           0       -0.291551    0.441568   -0.366236
      3          6           0       -1.502177   -0.995503   -0.865338
      4          6           0       -1.599141   -0.612420    0.921849
      5          6           0        0.888897    0.123781    0.442594
      6          6           0        2.216135    0.379739   -0.242303
      7          6           0        1.793957   -1.015728    0.062776
      8          1           0       -1.048586    2.034318    0.971704
      9          1           0       -0.265031    2.501635   -0.543866
     10          1           0       -1.902756    1.865831   -0.581924
     11          1           0       -2.279051   -1.737734   -0.610354
     12          1           0       -1.951558   -0.354330   -1.616297
     13          1           0       -0.687286   -1.570735   -1.289179
     14          1           0       -1.132322    0.095574    1.600742
     15          1           0       -2.670900   -0.431223    0.946329
     16          1           0       -1.358995   -1.613519    1.270729
     17          1           0        0.888096    0.372921    1.511472
     18          1           0        2.180900    0.702174   -1.273618
     19          1           0        2.998565    0.826636    0.357047
     20          1           0        2.297984   -1.542777    0.862043
     21          1           0        1.485650   -1.635929   -0.768187
 ---------------------------------------------------------------------

 SCF Done:  E(RHF) =  -274.438316277     A.U. after    2 cycles

 The electronic state is 1-A.
 Alpha  occ. eigenvalues --  -11.43039 -11.42416 -11.41537 -11.39265 -11.38660
 Alpha  occ. eigenvalues --  -11.36273 -11.34592  -1.33057  -1.17822  -1.05550
 Alpha  occ. eigenvalues --   -0.93489  -0.89358  -0.85398  -0.74502  -0.66951
 Alpha  occ. eigenvalues --   -0.62501  -0.61428  -0.59330  -0.55271  -0.54920
 Alpha  occ. eigenvalues --   -0.52789  -0.49782  -0.49380  -0.46952  -0.45905
 Alpha  occ. eigenvalues --   -0.38194  -0.37492  -0.24623
 Alpha virt. eigenvalues --    0.04381   0.04856   0.05164   0.05509   0.05570
 Alpha virt. eigenvalues --    0.05848   0.06006   0.06179   0.06708   0.08074
 Alpha virt. eigenvalues --    0.08653   0.08798   0.09492   0.10007   0.13003

 Mulliken charges:
               1
     1  C   -4.517765
     2  C   -0.887244
     3  C   -3.858014
     4  C   -3.544904
     5  C    0.792756
     6  C   -2.726619
     7  C   -2.873735
     8  H    1.016086
     9  H    1.206399
    10  H    1.442587
    11  H    0.776025
    12  H    1.182243
    13  H    1.318539
    14  H    1.718309
    15  H    1.089405
    16  H    1.238567
    17  H    1.314688
    18  H    1.361386
    19  H    1.242475
    20  H    1.257421
    21  H    1.451394
 Sum of Mulliken charges =  -0.00000

 Dipole moment (field-independent basis, Debye):
    X=             -0.4823    Y=             -0.6078    Z=              0.5349  Tot=              0.9424

 Test job not archived.
 1\1\GINC-SE454\SP\RHF\Aug-CC-pVDZ\C7H14\OHZDE\09-Apr-2025\0\\#t hf aug
 -cc-pvdz iop(5/13=1,5/36=2,99/5=2) pseudo=read geom=check guess=(read,
 tcheck) scf=(maxcycle=1)\\title\\0,1\C,0,-0.43946652,1.82275326,0.5420
 5172\C,0,-0.09911004,0.58311801,-0.2128756\C,0,-1.60967822,-0.40279584
 ,-0.93816702\C,0,-1.46420673,-0.61478486,0.87403953\C,0,1.0651012,-0.1
 6285544,0.27373212\C,0,2.34787424,0.09108573,-0.491884\C,0,1.68920601,
 -1.24278563,-0.56657701\H,0,-0.40120711,1.7489758,1.64442212\H,0,0.315
 93226,2.55682827,0.24357082\H,0,-1.41130524,2.23400224,0.2601505\H,0,-

 Normal termination of Gaussian 16 at Wed Apr  9 18:55:30 2025.
