 Gaussian 16, Revision C.01,

 ----------------------------------------------------------------------
 #t hf aug-cc-pvdz symm=none int=(grid=ultrafine) guess=(read,tcheck) s
 table=(opt,rrhf)
 ----------------------------------------------------------------------
 -----
 title
 -----
 Symbolic Z-matrix:
 Charge =  0 Multiplicity = 1

 SCF Done:  E(RHF) =  -321.379238120     A.U. after   17 cycles
 Normal termination of Gaussian 16 at Wed Apr  9 03:51:23 2025.
 Gaussian 16:  ES64L-G16RevC.01  3-Jul-2019

 ----------------------------------------------------------------------
 #t hf aug-cc-pvdz iop(5/13=1,5/36=2,99/5=2) pseudo=read geom=check gue
 ss=(read,tcheck) scf=(maxcycle=1)
 ----------------------------------------------------------------------
 -----
 title
 -----
 Structure from the checkpoint file:  "Grambow2020_wb97xd3_008197_forward_mol1.chk"
 Charge =  0 Multiplicity = 1

                         Standard orientation:
 ---------------------------------------------------------------------
 Center     Atomic      Atomic             Coordinates (Angstroms)
 Number     Number       Type             X           Y           Z
 ---------------------------------------------------------------------
      1          8           0       -1.945398    0.440258   -0.448334
      2          6           0       -0.248493    1.219154    0.296445
      3          6           0        0.550051    0.096988    0.710420
      4          6           0       -0.406657   -1.150265    0.478632
      5          6           0       -1.539064   -0.900595   -0.126567
      6          6           0        1.783074   -0.073614   -0.053069
      7          7           0        2.750699   -0.164233   -0.661467
      8          1           0       -2.127074    0.518287   -1.396233
      9          1           0       -0.046398    1.740761   -0.629192
     10          1           0       -0.838870    1.745220    1.031905
     11          1           0        0.772605    0.109309    1.776586
     12          1           0       -2.285440   -1.636026   -0.401290
 ---------------------------------------------------------------------

 SCF Done:  E(RHF) =  -322.831700188     A.U. after    2 cycles

 The electronic state is 1-A.
 Alpha  occ. eigenvalues --  -21.13698 -15.76248 -11.56274 -11.49259 -11.43703
 Alpha  occ. eigenvalues --  -11.41396 -11.35114  -1.78027  -1.34620  -1.24238
 Alpha  occ. eigenvalues --   -1.05860  -0.96344  -0.78301  -0.75097  -0.68386
 Alpha  occ. eigenvalues --   -0.67034  -0.61298  -0.55730  -0.52050  -0.51654
 Alpha  occ. eigenvalues --   -0.45461  -0.43833  -0.42632  -0.32886  -0.27364
 Alpha virt. eigenvalues --    0.02008   0.02990   0.04487   0.05562   0.05926
 Alpha virt. eigenvalues --    0.06764   0.09253   0.09772   0.10666   0.11792
 Alpha virt. eigenvalues --    0.12013   0.12589   0.13770   0.14554   0.14809

 Mulliken charges:
               1
     1  O   -2.639173
     2  C   -2.382489
     3  C   -1.599039
     4  C   -0.901440
     5  C    1.065697
     6  C    2.188077
     7  N   -2.532196
     8  H    0.830750
     9  H    1.473341
    10  H    1.383203
    11  H    1.488211
    12  H    1.625059
 Sum of Mulliken charges =  -0.00000

 Dipole moment (field-independent basis, Debye):
    X=             -4.3427    Y=              5.4917    Z=             -0.3048  Tot=              7.0079

 Test job not archived.
 1\1\GINC-SE051\SP\RHF\Aug-CC-pVDZ\C5H5N1O1\OHZDE\09-Apr-2025\0\\#t hf
 aug-cc-pvdz iop(5/13=1,5/36=2,99/5=2) pseudo=read geom=check guess=(re
 ad,tcheck) scf=(maxcycle=1)\\title\\0,1\O,0,-0.98638925,1.43609386,0.0
 6225584\C,0,-0.9241603,-0.56945791,-0.05919771\C,0,0.43200432,-0.89997
 924,-0.40543077\C,0,1.11508778,0.51534998,-0.63972617\C,0,0.38877731,1
 .56044059,-0.33772436\C,0,1.1520137,-1.63391579,0.6315316\N,0,1.678588
 53,-2.2253751,1.4607197\H,0,-1.12513625,1.85501741,0.92414776\H,0,-1.2
 8534378,-0.6719141,0.95508539\H,0,-1.67030116,-0.52332212,-0.83851553\

 Normal termination of Gaussian 16 at Wed Apr  9 03:51:27 2025.
