 Gaussian 16, Revision C.01,

 ----------------------------------------------------------------------
 #t hf aug-cc-pvdz symm=none int=(grid=ultrafine) guess=(read,tcheck) s
 table=(opt,rrhf)
 ----------------------------------------------------------------------
 -----
 title
 -----
 Symbolic Z-matrix:
 Charge =  0 Multiplicity = 1

 SCF Done:  E(RHF) =  -301.546388607     A.U. after   15 cycles
 Normal termination of Gaussian 16 at Wed Apr  9 03:46:27 2025.
 Gaussian 16:  ES64L-G16RevC.01  3-Jul-2019

 ----------------------------------------------------------------------
 #t hf aug-cc-pvdz iop(5/13=1,5/36=2,99/5=2) pseudo=read geom=check gue
 ss=(read,tcheck) scf=(maxcycle=1)
 ----------------------------------------------------------------------
 -----
 title
 -----
 Structure from the checkpoint file:  "Grambow2020_wb97xd3_007930_forward_mol1.chk"
 Charge =  0 Multiplicity = 1

                         Standard orientation:
 ---------------------------------------------------------------------
 Center     Atomic      Atomic             Coordinates (Angstroms)
 Number     Number       Type             X           Y           Z
 ---------------------------------------------------------------------
      1          6           0        1.610332    0.777741    0.042385
      2          6           0        1.661254   -0.782662   -0.008366
      3          6           0        0.151516   -0.666624   -0.067011
      4          7           0       -1.064869   -1.173061    0.095840
      5          6           0       -1.973023   -0.003957    0.089278
      6          6           0       -1.159989    1.108024   -0.015828
      7          7           0        0.136867    0.652098   -0.062913
      8          1           0        2.052424    1.306361   -0.799922
      9          1           0        1.928611    1.219165    0.985022
     10          1           0        2.139991   -1.200765   -0.892168
     11          1           0        2.057231   -1.255599    0.888597
     12          1           0       -2.009253   -1.171184   -0.594033
     13          1           0       -1.413532    2.153641   -0.060732
 ---------------------------------------------------------------------

 SCF Done:  E(RHF) =  -302.974531380     A.U. after    2 cycles

 The electronic state is 1-A.
 Alpha  occ. eigenvalues --  -15.79674 -15.74182 -11.52047 -11.46408 -11.41876
 Alpha  occ. eigenvalues --  -11.40356 -11.34468  -1.62526  -1.35891  -1.18434
 Alpha  occ. eigenvalues --   -1.00874  -0.97583  -0.81110  -0.76742  -0.71820
 Alpha  occ. eigenvalues --   -0.71239  -0.59088  -0.56422  -0.55315  -0.52278
 Alpha  occ. eigenvalues --   -0.50588  -0.41083  -0.39465  -0.31338  -0.29792
 Alpha virt. eigenvalues --    0.02786   0.04731   0.04986   0.05609   0.05715
 Alpha virt. eigenvalues --    0.07207   0.08344   0.09498   0.11002   0.11415
 Alpha virt. eigenvalues --    0.12253   0.12745   0.13237   0.13738   0.14192

 Mulliken charges:
               1
     1  C   -1.885032
     2  C   -3.276574
     3  C    3.918591
     4  N   -3.263959
     5  C   -1.123438
     6  C    0.347314
     7  N   -2.768149
     8  H    1.514748
     9  H    1.492211
    10  H    1.274200
    11  H    1.235651
    12  H    1.103763
    13  H    1.430674
 Sum of Mulliken charges =  -0.00000

 Dipole moment (field-independent basis, Debye):
    X=              6.0772    Y=              1.3047    Z=             -0.8165  Tot=              6.2691

 Test job not archived.
 1\1\GINC-SE460\SP\RHF\Aug-CC-pVDZ\C5H6N2\OHZDE\09-Apr-2025\0\\#t hf au
 g-cc-pvdz iop(5/13=1,5/36=2,99/5=2) pseudo=read geom=check guess=(read
 ,tcheck) scf=(maxcycle=1)\\title\\0,1\C,0,-1.37497808,-0.53036709,-0.0
 2626636\C,0,-1.22394798,1.01762606,0.11842187\C,0,0.25938773,0.7138323
 2,0.05810294\N,0,1.52637262,1.03339911,0.29308966\C,0,2.27684854,-0.23
 435863,0.1475954\C,0,1.33062623,-1.20935505,-0.10264268\N,0,0.10455343
 ,-0.5859233,-0.10289464\H,0,-1.86056709,-0.8890559,-0.93175627\H,0,-1.
 77019623,-1.03920199,0.85100762\H,0,-1.62334251,1.60019806,-0.70994901

 Normal termination of Gaussian 16 at Wed Apr  9 03:46:31 2025.
