 Gaussian 16, Revision C.01,

 ----------------------------------------------------------------------
 #t hf aug-cc-pvdz symm=none int=(grid=ultrafine) guess=(read,tcheck) s
 table=(opt,rrhf)
 ----------------------------------------------------------------------
 -----
 title
 -----
 Symbolic Z-matrix:
 Charge =  0 Multiplicity = 1

 SCF Done:  E(RHF) =  -306.761764350     A.U. after   15 cycles
 Normal termination of Gaussian 16 at Wed Apr  9 03:59:47 2025.
 Gaussian 16:  ES64L-G16RevC.01  3-Jul-2019

 ----------------------------------------------------------------------
 #t hf aug-cc-pvdz iop(5/13=1,5/36=2,99/5=2) pseudo=read geom=check gue
 ss=(read,tcheck) scf=(maxcycle=1)
 ----------------------------------------------------------------------
 -----
 title
 -----
 Structure from the checkpoint file:  "Grambow2020_wb97xd3_008774_forward_mol2.chk"
 Charge =  0 Multiplicity = 1

                         Standard orientation:
 ---------------------------------------------------------------------
 Center     Atomic      Atomic             Coordinates (Angstroms)
 Number     Number       Type             X           Y           Z
 ---------------------------------------------------------------------
      1          8           0       -2.341259    0.002399   -0.086341
      2          6           0       -1.136389    0.021640    0.018344
      3          6           0       -0.328869   -1.233068    0.276974
      4          6           0        1.062710   -1.159321   -0.341919
      5          6           0        1.806726    0.086656    0.126311
      6          6           0        0.956085    1.316281    0.026389
      7          6           0       -0.373501    1.287773   -0.049268
      8          1           0       -0.249485   -1.334311    1.366475
      9          1           0       -0.901460   -2.088106   -0.082433
     10          1           0        1.635136   -2.057356   -0.101663
     11          1           0        0.968594   -1.127083   -1.431855
     12          1           0        2.129076   -0.030186    1.169041
     13          1           0        2.722693    0.229435   -0.452270
     14          1           0        1.466679    2.275113    0.021677
     15          1           0       -0.961737    2.193541   -0.139223
 ---------------------------------------------------------------------

 SCF Done:  E(RHF) =  -308.199059183     A.U. after    2 cycles

 The electronic state is 1-A.
 Alpha  occ. eigenvalues --  -21.03992 -11.49511 -11.45929 -11.43561 -11.41625
 Alpha  occ. eigenvalues --  -11.39396 -11.36982  -1.70021  -1.31323  -1.12293
 Alpha  occ. eigenvalues --   -1.06903  -0.89840  -0.84965  -0.72446  -0.67385
 Alpha  occ. eigenvalues --   -0.62743  -0.58858  -0.58511  -0.56711  -0.51493
 Alpha  occ. eigenvalues --   -0.51083  -0.45306  -0.43537  -0.43306  -0.33689
 Alpha  occ. eigenvalues --   -0.27155
 Alpha virt. eigenvalues --    0.03216   0.04795   0.05124   0.05256   0.05700
 Alpha virt. eigenvalues --    0.06606   0.06696   0.07355   0.10602   0.11219
 Alpha virt. eigenvalues --    0.12075   0.12933   0.13339   0.13601   0.13922

 Mulliken charges:
               1
     1  O   -3.644227
     2  C    3.851450
     3  C   -3.760974
     4  C   -3.071410
     5  C   -3.465133
     6  C    0.870746
     7  C   -1.451659
     8  H    1.390123
     9  H    1.285099
    10  H    1.257349
    11  H    1.447722
    12  H    1.252169
    13  H    1.164404
    14  H    1.354007
    15  H    1.520333
 Sum of Mulliken charges =   0.00000

 Dipole moment (field-independent basis, Debye):
    X=              2.5783    Y=             -0.0931    Z=              0.1916  Tot=              2.5871

 Test job not archived.
 1\1\GINC-SE249\SP\RHF\Aug-CC-pVDZ\C6H8O1\OHZDE\09-Apr-2025\0\\#t hf au
 g-cc-pvdz iop(5/13=1,5/36=2,99/5=2) pseudo=read geom=check guess=(read
 ,tcheck) scf=(maxcycle=1)\\title\\0,1\O,0,0.68478768,-2.60526413,0.670
 16695\C,0,0.45727749,-1.46858549,0.32485293\C,0,-0.91398417,-1.0260407
 9,-0.14104873\C,0,-1.18798534,0.43781164,0.18609009\C,0,-0.09317693,1.
 33985208,-0.37335114\C,0,1.27595745,0.82053372,-0.05502358\C,0,1.52324
 061,-0.44294759,0.28673755\H,0,-0.9389337,-1.17823332,-1.22722485\H,0,
 -1.65532348,-1.69717641,0.29267463\H,0,-2.16369132,0.73885723,-0.20021

 Normal termination of Gaussian 16 at Wed Apr  9 03:59:53 2025.
