 Gaussian 16, Revision C.01,

 ----------------------------------------------------------------------
 #t hf aug-cc-pvdz symm=none int=(grid=ultrafine) guess=(read,tcheck) s
 table=(opt,rrhf)
 ----------------------------------------------------------------------
 -----
 title
 -----
 Symbolic Z-matrix:
 Charge =  0 Multiplicity = 1

 SCF Done:  E(RHF) =  -379.552137955     A.U. after   13 cycles
 Normal termination of Gaussian 16 at Wed Apr  9 19:16:53 2025.
 Gaussian 16:  ES64L-G16RevC.01  3-Jul-2019

 ----------------------------------------------------------------------
 #t hf aug-cc-pvdz iop(5/13=1,5/36=2,99/5=2) pseudo=read geom=check gue
 ss=(read,tcheck) scf=(maxcycle=1)
 ----------------------------------------------------------------------
 -----
 title
 -----
 Structure from the checkpoint file:  "Grambow2020_wb97xd3_008537_forward_mol2.chk"
 Charge =  0 Multiplicity = 1

                         Standard orientation:
 ---------------------------------------------------------------------
 Center     Atomic      Atomic             Coordinates (Angstroms)
 Number     Number       Type             X           Y           Z
 ---------------------------------------------------------------------
      1          8           0        0.641421    1.522875    0.001027
      2          6           0        0.058874    0.271122   -0.000675
      3          6           0       -1.064221   -0.001696   -1.024190
      4          8           0       -1.907247   -0.539725    0.000671
      5          6           0       -1.060752   -0.007581    1.025915
      6          6           0        1.102921   -0.813660   -0.004155
      7          8           0        2.277971   -0.563030    0.000579
      8          1           0        1.599438    1.387768    0.006834
      9          1           0       -0.877172   -0.718393   -1.827773
     10          1           0       -1.450513    0.935171   -1.436377
     11          1           0       -1.445149    0.927375    1.443883
     12          1           0       -0.871613   -0.728361    1.825279
     13          1           0        0.726911   -1.853643   -0.011435
 ---------------------------------------------------------------------

 SCF Done:  E(RHF) =  -381.189615143     A.U. after    2 cycles

 The electronic state is 1-A.
 Alpha  occ. eigenvalues --  -21.09261 -21.08812 -21.05811 -11.51253 -11.48726
 Alpha  occ. eigenvalues --  -11.47267 -11.41213  -1.82320  -1.75215  -1.70601
 Alpha  occ. eigenvalues --   -1.13716  -1.02117  -0.91997  -0.79791  -0.73278
 Alpha  occ. eigenvalues --   -0.67637  -0.62680  -0.60689  -0.59597  -0.54320
 Alpha  occ. eigenvalues --   -0.49267  -0.44524  -0.43678  -0.38675  -0.33659
 Alpha  occ. eigenvalues --   -0.32967  -0.30115
 Alpha virt. eigenvalues --    0.03735   0.04984   0.05436   0.06137   0.06415
 Alpha virt. eigenvalues --    0.06898   0.09100   0.10470   0.10526   0.12255
 Alpha virt. eigenvalues --    0.13257   0.13983   0.14273   0.14715   0.15118

 Mulliken charges:
               1
     1  O   -3.989381
     2  C    2.638052
     3  C   -0.770052
     4  O   -2.768619
     5  C   -0.778180
     6  C    0.789939
     7  O   -2.868149
     8  H    0.727060
     9  H    1.526276
    10  H    1.269089
    11  H    1.268778
    12  H    1.527389
    13  H    1.427797
 Sum of Mulliken charges =  -0.00000

 Dipole moment (field-independent basis, Debye):
    X=             -0.1219    Y=             -0.3077    Z=             -0.0013  Tot=              0.3310

 Test job not archived.
 1\1\GINC-SE104\SP\RHF\Aug-CC-pVDZ\C4H6O3\OHZDE\09-Apr-2025\0\\#t hf au
 g-cc-pvdz iop(5/13=1,5/36=2,99/5=2) pseudo=read geom=check guess=(read
 ,tcheck) scf=(maxcycle=1)\\title\\0,1\O,0,1.02192014,0.54230623,-1.299
 73988\C,0,0.27074888,0.09262306,-0.23213682\C,0,-0.91393159,-0.8516769
 3,-0.52909564\O,0,-1.78803724,-0.05673,0.27991998\C,0,-0.84085366,1.01
 692075,0.31112871\C,0,1.15252788,-0.43510308,0.86821263\O,0,2.35051242
 ,-0.43412419,0.77648836\H,0,1.95135215,0.40946888,-1.06608579\H,0,-0.8
 5641644,-1.88750949,-0.18539346\H,0,-1.17969881,-0.82019849,-1.5898585

 Normal termination of Gaussian 16 at Wed Apr  9 19:16:57 2025.
