 Gaussian 16, Revision C.01,

 ----------------------------------------------------------------------
 #t hf aug-cc-pvdz symm=none int=(grid=ultrafine) guess=(read,tcheck) s
 table=(opt,rrhf)
 ----------------------------------------------------------------------
 -----
 title
 -----
 Symbolic Z-matrix:
 Charge =  0 Multiplicity = 1

 SCF Done:  E(RHF) =  -271.025708016     A.U. after   15 cycles

 1\1\GINC-SE219\Stability\RHF\Aug-CC-pVDZ\C5H12O1\OHZDE\09-Apr-2025\0\\
 #t hf aug-cc-pvdz symm=none int=(grid=ultrafine) guess=(read,tcheck) s
 table=(opt,rrhf)\\title\\0,1\C,0,-2.65785503,0.01242192,0.26793176\C,0
 ,-1.46982425,-0.20646575,-0.67358977\C,0,-0.119579,0.1986442,0.1149595
 7\O,0,0.05124032,-0.575049,1.19145808\C,0,0.9033984,-0.01904967,-0.921
 32743\C,0,2.63368015,0.07204986,0.66258342\H,0,-3.58825374,-0.30831696
 ,-0.22405881\H,0,-2.50959927,-0.56604728,1.18613343\H,0,-2.75894129,1.
 07324034,0.53648353\H,0,-1.38954964,-1.26537193,-0.9507262\H,0,-1.5848

 Normal termination of Gaussian 16 at Wed Apr  9 16:24:11 2025.
 Gaussian 16:  ES64L-G16RevC.01  3-Jul-2019

 ----------------------------------------------------------------------
 #t hf aug-cc-pvdz iop(5/13=1,5/36=2,99/5=2) pseudo=read geom=check gue
 ss=(read,tcheck) scf=(maxcycle=1)
 ----------------------------------------------------------------------
 -----
 title
 -----
 Structure from the checkpoint file:  "Grambow2020_b97d3_006803_forward_mol1.chk"
 Charge =  0 Multiplicity = 1

                         Standard orientation:
 ---------------------------------------------------------------------
 Center     Atomic      Atomic             Coordinates (Angstroms)
 Number     Number       Type             X           Y           Z
 ---------------------------------------------------------------------
      1          6           0       -2.568854   -0.376358    0.176395
      2          6           0       -1.477110    0.633255   -0.190443
      3          6           0       -0.053320    0.028008    0.273865
      4          8           0        0.205247   -1.118233   -0.363241
      5          6           0        0.865300    1.116448   -0.099230
      6          6           0        2.736733   -0.279971    0.143057
      7          1           0       -3.545777   -0.015334   -0.178361
      8          1           0       -2.344530   -1.343458   -0.286311
      9          1           0       -2.628401   -0.515873    1.264818
     10          1           0       -1.439053    0.779610   -1.277487
     11          1           0       -1.667753    1.602189    0.290987
     12          1           0       -0.134309   -0.028972    1.387944
     13          1           0        1.678670   -0.741073   -0.224452
     14          1           0        1.058592    1.252339   -1.163984
     15          1           0        1.040028    1.986701    0.542377
     16          1           0        3.177853    0.670071   -0.180774
     17          1           0        2.790838   -0.360718    1.233703
     18          1           0        3.355374   -1.067899   -0.324403
 ---------------------------------------------------------------------

 SCF Done:  E(RHF) =  -272.374962867     A.U. after    2 cycles

 The electronic state is 1-A.
 Alpha  occ. eigenvalues --  -20.93710 -11.52706 -11.43536 -11.40217 -11.35887
 Alpha  occ. eigenvalues --  -11.35590  -1.61492  -1.19439  -1.09429  -1.01358
 Alpha  occ. eigenvalues --   -0.89930  -0.81206  -0.69011  -0.64482  -0.61074
 Alpha  occ. eigenvalues --   -0.56235  -0.55967  -0.54381  -0.52874  -0.49325
 Alpha  occ. eigenvalues --   -0.48049  -0.41777  -0.40292  -0.23706  -0.23130
 Alpha virt. eigenvalues --    0.02746   0.03248   0.04555   0.04730   0.05451
 Alpha virt. eigenvalues --    0.05992   0.06034   0.07055   0.07890   0.08439
 Alpha virt. eigenvalues --    0.08670   0.08970   0.10707   0.11094   0.13304

 Mulliken charges:
               1
     1  C   -3.958762
     2  C   -2.875470
     3  C    1.529047
     4  O   -2.990213
     5  C   -2.727977
     6  C   -5.352126
     7  H    1.062617
     8  H    1.337248
     9  H    1.264182
    10  H    1.367444
    11  H    1.319031
    12  H    1.717095
    13  H    2.363308
    14  H    1.324555
    15  H    1.450595
    16  H    1.210076
    17  H    1.172715
    18  H    0.786636
 Sum of Mulliken charges =   0.00000

 Dipole moment (field-independent basis, Debye):
    X=              0.3273    Y=              3.1421    Z=              0.1523  Tot=              3.1628

 Test job not archived.
 1\1\GINC-SE219\SP\RHF\Aug-CC-pVDZ\C5H12O1\OHZDE\09-Apr-2025\0\\#t hf a
 ug-cc-pvdz iop(5/13=1,5/36=2,99/5=2) pseudo=read geom=check guess=(rea
 d,tcheck) scf=(maxcycle=1)\\title\\0,1\C,0,-2.65785503,0.01242192,0.26
 793176\C,0,-1.46982425,-0.20646575,-0.67358977\C,0,-0.119579,0.1986442
 ,0.11495957\O,0,0.05124032,-0.575049,1.19145808\C,0,0.9033984,-0.01904
 967,-0.92132743\C,0,2.63368015,0.07204986,0.66258342\H,0,-3.58825374,-
 0.30831696,-0.22405881\H,0,-2.50959927,-0.56604728,1.18613343\H,0,-2.7
 5894129,1.07324034,0.53648353\H,0,-1.38954964,-1.26537193,-0.9507262\H

 Normal termination of Gaussian 16 at Wed Apr  9 16:24:16 2025.
