 Gaussian 16, Revision C.01,

 ----------------------------------------------------------------------
 #t hf aug-cc-pvdz symm=none int=(grid=ultrafine) guess=(read,tcheck) s
 table=(opt,rrhf)
 ----------------------------------------------------------------------
 -----
 title
 -----
 Symbolic Z-matrix:
 Charge =  0 Multiplicity = 1

 SCF Done:  E(RHF) =  -195.035146818     A.U. after   14 cycles
 Normal termination of Gaussian 16 at Wed Apr  9 03:07:51 2025.
 Gaussian 16:  ES64L-G16RevC.01  3-Jul-2019

 ----------------------------------------------------------------------
 #t hf aug-cc-pvdz iop(5/13=1,5/36=2,99/5=2) pseudo=read geom=check gue
 ss=(read,tcheck) scf=(maxcycle=1)
 ----------------------------------------------------------------------
 -----
 title
 -----
 Structure from the checkpoint file:  "Grambow2020_b97d3_006578_reverse_mol1.chk"
 Charge =  0 Multiplicity = 1

                         Standard orientation:
 ---------------------------------------------------------------------
 Center     Atomic      Atomic             Coordinates (Angstroms)
 Number     Number       Type             X           Y           Z
 ---------------------------------------------------------------------
      1          6           0       -1.379022   -0.995364    0.167398
      2          6           0       -0.678822    0.196342   -0.488076
      3          6           0       -0.273884    1.359242    0.428072
      4          6           0        0.805450    0.271117   -0.711564
      5          6           0        1.617127   -0.641129    0.196152
      6          1           0       -0.905382   -1.293258    1.111106
      7          1           0       -1.363305   -1.864484   -0.506332
      8          1           0       -2.430766   -0.757850    0.381181
      9          1           0       -1.254651    0.547870   -1.354008
     10          1           0       -0.733403    2.321008    0.183969
     11          1           0       -0.235591    1.113698    1.491806
     12          1           0        0.836168    1.559797    0.003396
     13          1           0        2.643229   -0.273019    0.330900
     14          1           0        1.206867   -0.914588    1.186247
     15          1           0        1.691740   -1.580420   -0.380151
 ---------------------------------------------------------------------

 SCF Done:  E(RHF) =  -196.055335076     A.U. after    2 cycles

 The electronic state is 1-A.
 Alpha  occ. eigenvalues --  -11.43384 -11.42290 -11.38621 -11.37765 -11.35677
 Alpha  occ. eigenvalues --   -1.31458  -1.06098  -1.02504  -0.86554  -0.75901
 Alpha  occ. eigenvalues --   -0.65641  -0.59303  -0.58269  -0.56384  -0.53160
 Alpha  occ. eigenvalues --   -0.50697  -0.49051  -0.47396  -0.40835  -0.28691
 Alpha virt. eigenvalues --    0.03777   0.05376   0.05438   0.05888   0.05932
 Alpha virt. eigenvalues --    0.06209   0.06447   0.06642   0.07984   0.09347
 Alpha virt. eigenvalues --    0.11420   0.12592   0.13877   0.14749   0.15137

 Mulliken charges:
               1
     1  C   -4.401131
     2  C   -0.505379
     3  C   -3.550420
     4  C   -1.021174
     5  C   -3.737557
     6  H    1.300936
     7  H    1.237392
     8  H    1.144141
     9  H    1.387602
    10  H    1.138857
    11  H    1.365705
    12  H    1.564108
    13  H    1.145534
    14  H    1.602239
    15  H    1.329147
 Sum of Mulliken charges =   0.00000

 Dipole moment (field-independent basis, Debye):
    X=             -1.3386    Y=             -0.0172    Z=              1.7127  Tot=              2.1738

 Test job not archived.
 1\1\GINC-SE164\SP\RHF\Aug-CC-pVDZ\C5H10\OHZDE\09-Apr-2025\0\\#t hf aug
 -cc-pvdz iop(5/13=1,5/36=2,99/5=2) pseudo=read geom=check guess=(read,
 tcheck) scf=(maxcycle=1)\\title\\0,1\C,0,1.33634805,-0.94612666,0.0190
 8514\C,0,0.62026019,0.24140664,0.66489474\C,0,0.29622218,1.43810021,-0
 .23985008\C,0,-0.87329688,0.34173951,0.79840197\C,0,-1.64461657,-0.526
 90416,-0.18418822\H,0,0.91669084,-1.20705675,-0.96043761\H,0,1.2615338
 7,-1.83335132,0.66465849\H,0,2.40385017,-0.72534393,-0.12224906\H,0,1.
 14779332,0.55593215,1.57471413\H,0,0.75848812,2.38250542,0.0603942\H,0

 Normal termination of Gaussian 16 at Wed Apr  9 03:07:55 2025.
