 Gaussian 16, Revision C.01,

 ----------------------------------------------------------------------
 #t hf aug-cc-pvdz symm=none int=(grid=ultrafine) guess=(read,tcheck) s
 table=(opt,rrhf)
 ----------------------------------------------------------------------
 -----
 title
 -----
 Symbolic Z-matrix:
 Charge =  0 Multiplicity = 1

 SCF Done:  E(RHF) =  -360.677356934     A.U. after   17 cycles
 Normal termination of Gaussian 16 at Wed Apr  9 18:13:26 2025.
 Gaussian 16:  ES64L-G16RevC.01  3-Jul-2019

 ----------------------------------------------------------------------
 #t hf aug-cc-pvdz iop(5/13=1,5/36=2,99/5=2) pseudo=read geom=check gue
 ss=(read,tcheck) scf=(maxcycle=1)
 ----------------------------------------------------------------------
 -----
 title
 -----
 Structure from the checkpoint file:  "Grambow2020_wb97xd3_006762_forward_mol1.chk"
 Charge =  0 Multiplicity = 1

                         Standard orientation:
 ---------------------------------------------------------------------
 Center     Atomic      Atomic             Coordinates (Angstroms)
 Number     Number       Type             X           Y           Z
 ---------------------------------------------------------------------
      1          6           0        1.902224   -0.785726    0.500713
      2          7           0        1.365865   -0.379252   -0.604488
      3          6           0        0.809992    0.809331   -0.799347
      4          8           0       -0.079785    1.389010   -0.048213
      5          6           0       -0.896319    0.743861    0.823596
      6          6           0       -1.342100   -0.637100    0.462945
      7          8           0       -1.579957   -0.805406   -0.924819
      8          1           0        0.669907   -0.399959    2.244015
      9          1           0        2.234126   -1.816209    0.567419
     10          1           0        2.219915   -0.098245    1.275383
     11          1           0        1.032430    1.366906   -1.699467
     12          1           0        0.082546    0.146460    2.036176
     13          1           0       -1.638335    1.449518    1.173775
     14          1           0       -0.629634   -1.400823    0.810620
     15          1           0       -2.282407   -0.807659    0.991968
     16          1           0       -0.814453   -1.236260   -1.311661
 ---------------------------------------------------------------------

 SCF Done:  E(RHF) =  -362.354585573     A.U. after    2 cycles

 The electronic state is 1-A.
 Alpha  occ. eigenvalues --  -21.16067 -21.05983 -15.77733 -11.49474 -11.46752
 Alpha  occ. eigenvalues --  -11.43793 -11.37434  -1.87140  -1.70025  -1.42003
 Alpha  occ. eigenvalues --   -1.10032  -1.01440  -0.88916  -0.78596  -0.74171
 Alpha  occ. eigenvalues --   -0.68529  -0.66658  -0.63688  -0.61180  -0.57668
 Alpha  occ. eigenvalues --   -0.54488  -0.51717  -0.47680  -0.41968  -0.40630
 Alpha  occ. eigenvalues --   -0.38557  -0.31380  -0.24053
 Alpha virt. eigenvalues --    0.03610   0.04503   0.05404   0.05761   0.06162
 Alpha virt. eigenvalues --    0.06889   0.07324   0.07684   0.09162   0.09589
 Alpha virt. eigenvalues --    0.10715   0.11921   0.12939   0.13481   0.14351

 Mulliken charges:
               1
     1  C   -1.929757
     2  N   -2.807516
     3  C    2.031339
     4  O   -3.403994
     5  C   -0.087973
     6  C   -1.209828
     7  O   -2.603979
     8  H   -0.094946
     9  H    1.372435
    10  H    1.522306
    11  H    1.891444
    12  H    0.125062
    13  H    1.471681
    14  H    1.853477
    15  H    1.104109
    16  H    0.766139
 Sum of Mulliken charges =  -0.00000

 Dipole moment (field-independent basis, Debye):
    X=              0.9607    Y=              0.7186    Z=             -0.4609  Tot=              1.2852

 Test job not archived.
 1\1\GINC-SE219\SP\RHF\Aug-CC-pVDZ\C4H9N1O2\OHZDE\09-Apr-2025\0\\#t hf
 aug-cc-pvdz iop(5/13=1,5/36=2,99/5=2) pseudo=read geom=check guess=(re
 ad,tcheck) scf=(maxcycle=1)\\title\\0,1\C,0,1.35107509,0.48595072,-1.4
 1094748\N,0,1.20642785,1.04274225,-0.25188238\C,0,1.18616577,0.4056698
 7,0.91148512\O,0,0.46960417,-0.63492197,1.22074619\C,0,-0.66657248,-1.
 01108019,0.5799644\C,0,-1.53531693,0.06878065,0.01869081\O,0,-1.578937
 42,1.23172113,0.8289111\H,0,0.08025392,-1.24962852,-1.69255019\H,0,1.2
 4968152,1.10182865,-2.29803133\H,0,1.76916114,-0.50678692,-1.52646812\

 Normal termination of Gaussian 16 at Wed Apr  9 18:13:31 2025.
