 Gaussian 16, Revision C.01,

 ----------------------------------------------------------------------
 #t hf aug-cc-pvdz symm=none int=(grid=ultrafine) guess=(read,tcheck) s
 table=(opt,rrhf)
 ----------------------------------------------------------------------
 -----
 title
 -----
 Symbolic Z-matrix:
 Charge =  0 Multiplicity = 1

 SCF Done:  E(RHF) =  -299.684468627     A.U. after   15 cycles
 Normal termination of Gaussian 16 at Wed Apr  9 17:33:11 2025.
 Gaussian 16:  ES64L-G16RevC.01  3-Jul-2019

 ----------------------------------------------------------------------
 #t hf aug-cc-pvdz iop(5/13=1,5/36=2,99/5=2) pseudo=read geom=check gue
 ss=(read,tcheck) scf=(maxcycle=1)
 ----------------------------------------------------------------------
 -----
 title
 -----
 Structure from the checkpoint file:  "Grambow2020_b97d3_007178_forward_mol2.chk"
 Charge =  0 Multiplicity = 1

                         Standard orientation:
 ---------------------------------------------------------------------
 Center     Atomic      Atomic             Coordinates (Angstroms)
 Number     Number       Type             X           Y           Z
 ---------------------------------------------------------------------
      1          6           0        2.099082    0.041930   -0.000090
      2          6           0        0.601678    0.007083    0.000265
      3          7           0       -0.065751   -1.130211   -0.000289
      4          8           0       -1.419297   -0.703646    0.000314
      5          6           0       -1.378554    0.643589   -0.000245
      6          7           0       -0.177607    1.149153    0.000044
      7          1           0        2.509812   -0.974153   -0.019819
      8          1           0        2.470362    0.592516   -0.875444
      9          1           0        2.472739    0.558339    0.895141
     10          1           0       -2.328268    1.164259   -0.000255
 ---------------------------------------------------------------------

 SCF Done:  E(RHF) =  -301.012551180     A.U. after    2 cycles

 The electronic state is 1-A.
 Alpha  occ. eigenvalues --  -21.14065 -15.78272 -15.75735 -11.49139 -11.46871
 Alpha  occ. eigenvalues --  -11.39741  -1.90738  -1.41098  -1.26144  -1.07645
 Alpha  occ. eigenvalues --   -0.88407  -0.78907  -0.71108  -0.65218  -0.59410
 Alpha  occ. eigenvalues --   -0.56901  -0.53350  -0.47951  -0.45043  -0.40000
 Alpha  occ. eigenvalues --   -0.39821  -0.36508
 Alpha virt. eigenvalues --    0.03472   0.04672   0.06526   0.06665   0.09356
 Alpha virt. eigenvalues --    0.09769   0.10374   0.12693   0.13406   0.13652
 Alpha virt. eigenvalues --    0.13819   0.14548   0.15733   0.15929   0.18352

 Mulliken charges:
               1
     1  C   -4.597143
     2  C    4.042128
     3  N   -1.116371
     4  O   -2.517289
     5  C    1.969199
     6  N   -3.120875
     7  H    1.316359
     8  H    1.170466
     9  H    1.173641
    10  H    1.679885
 Sum of Mulliken charges =  -0.00000

 Dipole moment (field-independent basis, Debye):
    X=             -0.4169    Y=              0.3946    Z=              0.0011  Tot=              0.5740

 Test job not archived.
 1\1\GINC-SE112\SP\RHF\Aug-CC-pVDZ\C3H4N2O1\OHZDE\09-Apr-2025\0\\#t hf
 aug-cc-pvdz iop(5/13=1,5/36=2,99/5=2) pseudo=read geom=check guess=(re
 ad,tcheck) scf=(maxcycle=1)\\title\\0,1\C,0,-1.62230992,0.05742017,-0.
 00145296\C,0,-0.13216776,-0.05106393,-0.10700674\N,0,0.45029724,-0.617
 598,-1.1455995\O,0,1.83065101,-0.50407237,-0.83611676\C,0,1.88814667,0
 .11953087,0.35741335\N,0,0.72782996,0.42740407,0.86411638\H,0,-2.10637
 569,-0.40339966,-0.87026794\H,0,-1.98012603,-0.44029091,0.91040676\H,0
 ,-1.92872638,1.1111327,0.0580055\H,0,2.87278091,0.30093705,0.77050192\

 Normal termination of Gaussian 16 at Wed Apr  9 17:33:14 2025.
