 Gaussian 16, Revision C.01,

 ----------------------------------------------------------------------
 #t hf aug-cc-pvdz symm=none int=(grid=ultrafine) guess=(read,tcheck) s
 table=(opt,rrhf)
 ----------------------------------------------------------------------
 -----
 title
 -----
 Symbolic Z-matrix:
 Charge =  0 Multiplicity = 1

 SCF Done:  E(RHF) =  -284.708808889     A.U. after   15 cycles
 Normal termination of Gaussian 16 at Wed Apr  9 17:39:40 2025.
 Gaussian 16:  ES64L-G16RevC.01  3-Jul-2019

 ----------------------------------------------------------------------
 #t hf aug-cc-pvdz iop(5/13=1,5/36=2,99/5=2) pseudo=read geom=check gue
 ss=(read,tcheck) scf=(maxcycle=1)
 ----------------------------------------------------------------------
 -----
 title
 -----
 Structure from the checkpoint file:  "Grambow2020_b97d3_007212_reverse_mol2.chk"
 Charge =  0 Multiplicity = 1

                         Standard orientation:
 ---------------------------------------------------------------------
 Center     Atomic      Atomic             Coordinates (Angstroms)
 Number     Number       Type             X           Y           Z
 ---------------------------------------------------------------------
      1          6           0       -1.197119    1.360687   -0.063772
      2          6           0       -1.568510   -0.068739   -0.192505
      3          8           0       -0.719530   -1.059621   -0.243096
      4          6           0        0.621525   -1.111192   -0.171647
      5          6           0        1.479505   -0.012996   -0.064096
      6          7           0        2.272999    0.859344    0.024334
      7          1           0       -0.573898    1.702153   -0.906521
      8          1           0       -2.109408    1.968401   -0.036185
      9          1           0       -0.616804    1.554728    0.851583
     10          1           0       -2.591958   -0.421163   -0.280712
     11          1           0       -0.996151   -0.531291    2.702483
     12          1           0        0.990724   -2.125949   -0.244279
     13          1           0       -0.269663   -0.691883    2.640194
 ---------------------------------------------------------------------

 SCF Done:  E(RHF) =  -286.047859076     A.U. after    2 cycles

 The electronic state is 1-A.
 Alpha  occ. eigenvalues --  -21.21436 -15.73142 -11.52563 -11.44382 -11.42281
 Alpha  occ. eigenvalues --  -11.40756  -1.89246  -1.27433  -1.17439  -1.04450
 Alpha  occ. eigenvalues --   -0.87102  -0.75587  -0.66418  -0.64497  -0.63955
 Alpha  occ. eigenvalues --   -0.61248  -0.57299  -0.54674  -0.51145  -0.45187
 Alpha  occ. eigenvalues --   -0.44529  -0.40686  -0.27143
 Alpha virt. eigenvalues --    0.02337   0.04105   0.05364   0.06190   0.06387
 Alpha virt. eigenvalues --    0.06899   0.07962   0.08933   0.09618   0.11305
 Alpha virt. eigenvalues --    0.12062   0.12298   0.13861   0.14207   0.14554

 Mulliken charges:
               1
     1  C   -3.816016
     2  C    0.582684
     3  O   -4.103337
     4  C    0.676820
     5  C    1.792473
     6  N   -2.388140
     7  H    1.339991
     8  H    1.202421
     9  H    1.407556
    10  H    1.758900
    11  H   -0.113174
    12  H    1.647873
    13  H    0.011949
 Sum of Mulliken charges =  -0.00000

 Dipole moment (field-independent basis, Debye):
    X=             -4.4780    Y=             -1.1981    Z=             -0.2945  Tot=              4.6449

 Test job not archived.
 1\1\GINC-SE103\SP\RHF\Aug-CC-pVDZ\C4H7N1O1\OHZDE\09-Apr-2025\0\\#t hf
 aug-cc-pvdz iop(5/13=1,5/36=2,99/5=2) pseudo=read geom=check guess=(re
 ad,tcheck) scf=(maxcycle=1)\\title\\0,1\C,0,-1.3024936,-0.73649612,-0.
 08601543\C,0,-1.02546719,0.7177671,-0.00767447\O,0,0.14001082,1.243028
 89,0.25866586\C,0,1.34781283,0.70221187,0.4930269\C,0,1.63637085,-0.66
 409429,0.55363767\N,0,1.96389789,-1.79819584,0.62412944\H,0,-1.0891116
 8,-1.24865061,0.86655773\H,0,-2.3596344,-0.88853505,-0.33438043\H,0,-0
 .68592849,-1.23266758,-0.85149167\H,0,-1.78215255,1.48481776,-0.143651

 Normal termination of Gaussian 16 at Wed Apr  9 17:39:44 2025.
