 Gaussian 16, Revision C.01,

 ----------------------------------------------------------------------
 #t hf aug-cc-pvdz symm=none int=(grid=ultrafine) guess=(read,tcheck) s
 table=(opt,rrhf)
 ----------------------------------------------------------------------
 -----
 title
 -----
 Symbolic Z-matrix:
 Charge =  0 Multiplicity = 1

 SCF Done:  E(RHF) =  -306.479535536     A.U. after   17 cycles
 Normal termination of Gaussian 16 at Wed Apr  9 19:14:08 2025.
 Gaussian 16:  ES64L-G16RevC.01  3-Jul-2019

 ----------------------------------------------------------------------
 #t hf aug-cc-pvdz iop(5/13=1,5/36=2,99/5=2) pseudo=read geom=check gue
 ss=(read,tcheck) scf=(maxcycle=1)
 ----------------------------------------------------------------------
 -----
 title
 -----
 Structure from the checkpoint file:  "Grambow2020_wb97xd3_008455_reverse_mol1.chk"
 Charge =  0 Multiplicity = 1

                         Standard orientation:
 ---------------------------------------------------------------------
 Center     Atomic      Atomic             Coordinates (Angstroms)
 Number     Number       Type             X           Y           Z
 ---------------------------------------------------------------------
      1          6           0        1.256834   -0.733456   -0.798275
      2          6           0        1.655658    0.445305    0.030933
      3          6           0       -0.671520    1.175764   -0.270179
      4          8           0       -1.536106    0.192591   -0.510419
      5          6           0       -1.524930   -0.835642    0.347880
      6          6           0        0.550299   -0.728355    0.519837
      7          6           0        0.393080    0.785549    0.675724
      8          1           0        0.653815   -0.592980   -1.693048
      9          1           0        2.019943   -1.496072   -0.933445
     10          1           0        2.653252    0.627579    0.412047
     11          1           0       -0.486365    1.777686   -1.151910
     12          1           0       -2.104808   -1.670246   -0.032419
     13          1           0       -1.666985   -0.606790    1.397990
     14          1           0        0.896002   -1.350536    1.334235
     15          1           0        0.367469    1.115638    1.714385
 ---------------------------------------------------------------------

 SCF Done:  E(RHF) =  -307.957388768     A.U. after    2 cycles

 The electronic state is 1-A.
 Alpha  occ. eigenvalues --  -21.11687 -11.48914 -11.44797 -11.43662 -11.40697
 Alpha  occ. eigenvalues --  -11.39611 -11.37542  -1.83239  -1.39773  -1.04934
 Alpha  occ. eigenvalues --   -0.98442  -0.87743  -0.84540  -0.75830  -0.72605
 Alpha  occ. eigenvalues --   -0.67401  -0.60698  -0.59064  -0.54700  -0.50961
 Alpha  occ. eigenvalues --   -0.49385  -0.45835  -0.42570  -0.40625  -0.32601
 Alpha  occ. eigenvalues --   -0.20795
 Alpha virt. eigenvalues --    0.03912   0.04771   0.04993   0.05282   0.05687
 Alpha virt. eigenvalues --    0.06073   0.06954   0.07386   0.10169   0.10566
 Alpha virt. eigenvalues --    0.11852   0.12903   0.13084   0.13873   0.14362

 Mulliken charges:
               1
     1  C   -3.198605
     2  C   -1.185122
     3  C    0.589828
     4  O   -3.034569
     5  C   -1.849142
     6  C   -0.253212
     7  C   -2.270292
     8  H    1.264916
     9  H    1.354794
    10  H    1.331961
    11  H    1.594527
    12  H    1.456150
    13  H    1.394286
    14  H    1.286037
    15  H    1.518442
 Sum of Mulliken charges =   0.00000

 Dipole moment (field-independent basis, Debye):
    X=              1.0372    Y=             -1.5244    Z=              0.6730  Tot=              1.9627

 Test job not archived.
 1\1\GINC-SE231\SP\RHF\Aug-CC-pVDZ\C6H8O1\OHZDE\09-Apr-2025\0\\#t hf au
 g-cc-pvdz iop(5/13=1,5/36=2,99/5=2) pseudo=read geom=check guess=(read
 ,tcheck) scf=(maxcycle=1)\\title\\0,1\C,0,1.01670066,1.07316604,0.3743
 2964\C,0,1.41136723,0.15324544,-0.73657511\C,0,0.05253941,-1.5167027,0
 .44869232\O,0,-0.90574123,-1.00779227,1.21977078\C,0,-1.7316758,-0.125
 58792,0.64217739\C,0,-0.16205176,0.68936996,-0.46225884\C,0,0.26283869
 ,-0.74313876,-0.79136672\H,0,1.03698983,0.72510904,1.40507218\H,0,1.35
 987663,2.10068907,0.28150499\H,0,2.0761772,0.41305049,-1.55155592\H,0,

 Normal termination of Gaussian 16 at Wed Apr  9 19:14:13 2025.
