 Gaussian 16, Revision C.01,

 ----------------------------------------------------------------------
 #t hf aug-cc-pvdz symm=none int=(grid=ultrafine) guess=(read,tcheck) s
 table=(opt,rrhf)
 ----------------------------------------------------------------------
 -----
 title
 -----
 Symbolic Z-matrix:
 Charge =  0 Multiplicity = 1

 SCF Done:  E(RHF) =  -283.559297558     A.U. after   16 cycles
 Normal termination of Gaussian 16 at Wed Apr  9 03:09:45 2025.
 Gaussian 16:  ES64L-G16RevC.01  3-Jul-2019

 ----------------------------------------------------------------------
 #t hf aug-cc-pvdz iop(5/13=1,5/36=2,99/5=2) pseudo=read geom=check gue
 ss=(read,tcheck) scf=(maxcycle=1)
 ----------------------------------------------------------------------
 -----
 title
 -----
 Structure from the checkpoint file:  "Grambow2020_b97d3_006668_reverse_mol2.chk"
 Charge =  0 Multiplicity = 1

                         Standard orientation:
 ---------------------------------------------------------------------
 Center     Atomic      Atomic             Coordinates (Angstroms)
 Number     Number       Type             X           Y           Z
 ---------------------------------------------------------------------
      1          7           0        2.583414   -0.994167    0.073453
      2          6           0        1.818298   -0.118811   -0.065396
      3          6           0        0.802864    0.951456   -0.192334
      4          6           0       -0.497576    0.603894    0.463894
      5          6           0       -2.510442   -0.602545   -0.000826
      6          8           0       -1.386079    0.001040   -0.307660
      7          1           0        0.637298    1.151477   -1.261564
      8          1           0        1.220377    1.870908    0.247085
      9          1           0       -0.602530    0.503668    1.543785
     10          1           0       -3.100130   -0.917016   -0.851858
     11          1           0       -2.829140   -0.662159    1.037640
 ---------------------------------------------------------------------

 SCF Done:  E(RHF) =  -284.866470503     A.U. after    2 cycles

 The electronic state is 1-A.
 Alpha  occ. eigenvalues --  -21.21384 -15.75828 -11.47988 -11.43921 -11.43458
 Alpha  occ. eigenvalues --  -11.41488  -1.88173  -1.30819  -1.16727  -1.00350
 Alpha  occ. eigenvalues --   -0.85274  -0.72086  -0.68755  -0.67978  -0.59896
 Alpha  occ. eigenvalues --   -0.58826  -0.54554  -0.50854  -0.44934  -0.42565
 Alpha  occ. eigenvalues --   -0.42494  -0.28107
 Alpha virt. eigenvalues --    0.03116   0.04808   0.05074   0.06009   0.06200
 Alpha virt. eigenvalues --    0.07802   0.09176   0.10703   0.11278   0.12116
 Alpha virt. eigenvalues --    0.13025   0.13866   0.14039   0.15284   0.16399

 Mulliken charges:
               1
     1  N   -2.313276
     2  C    2.119046
     3  C   -3.675756
     4  C    1.238431
     5  C   -1.554067
     6  O   -3.332598
     7  H    1.472327
     8  H    1.506946
     9  H    1.580272
    10  H    1.496578
    11  H    1.462098
 Sum of Mulliken charges =   0.00000

 Dipole moment (field-independent basis, Debye):
    X=             -2.9657    Y=              2.0552    Z=             -0.0930  Tot=              3.6094

 Test job not archived.
 1\1\GINC-SE143\SP\RHF\Aug-CC-pVDZ\C4H5N1O1\OHZDE\09-Apr-2025\0\\#t hf
 aug-cc-pvdz iop(5/13=1,5/36=2,99/5=2) pseudo=read geom=check guess=(re
 ad,tcheck) scf=(maxcycle=1)\\title\\0,1\N,0,2.72831031,-0.63769253,1.4
 5359852\C,0,1.96873889,-0.77529381,0.57323127\C,0,0.98161669,-0.877931
 59,-0.52574451\C,0,0.01543612,0.26591438,-0.5520324\C,0,-2.03003289,0.
 95033294,0.4827218\O,0,-1.09733256,0.09258042,0.14069344\H,0,0.4326186
 ,-1.82508872,-0.41544235\H,0,1.53484707,-0.93442989,-1.47629316\H,0,0.
 31737292,1.28472908,-0.7930226\H,0,-2.89377927,0.50951018,0.96282154\H

 Normal termination of Gaussian 16 at Wed Apr  9 03:09:48 2025.
