 Gaussian 16, Revision C.01,

 ----------------------------------------------------------------------
 #t hf aug-cc-pvdz symm=none int=(grid=ultrafine) guess=(read,tcheck) s
 table=(opt,rrhf)
 ----------------------------------------------------------------------
 -----
 title
 -----
 Symbolic Z-matrix:
 Charge =  0 Multiplicity = 1

 SCF Done:  E(RHF) =  -265.052790384     A.U. after   14 cycles
 Normal termination of Gaussian 16 at Wed Apr  9 03:08:56 2025.
 Gaussian 16:  ES64L-G16RevC.01  3-Jul-2019

 ----------------------------------------------------------------------
 #t hf aug-cc-pvdz iop(5/13=1,5/36=2,99/5=2) pseudo=read geom=check gue
 ss=(read,tcheck) scf=(maxcycle=1)
 ----------------------------------------------------------------------
 -----
 title
 -----
 Structure from the checkpoint file:  "Grambow2020_b97d3_006624_forward_mol2.chk"
 Charge =  0 Multiplicity = 1

                         Standard orientation:
 ---------------------------------------------------------------------
 Center     Atomic      Atomic             Coordinates (Angstroms)
 Number     Number       Type             X           Y           Z
 ---------------------------------------------------------------------
      1          6           0       -2.086296    0.516642    0.105094
      2          6           0       -1.101077   -0.571214   -0.333541
      3          6           0        0.270259   -0.476687    0.367205
      4          7           0        1.116270   -1.615225   -0.018200
      5          6           0        0.910172    0.834278    0.088372
      6          7           0        1.462581    1.832400   -0.177637
      7          1           0       -1.704126    1.519444   -0.129689
      8          1           0       -2.270381    0.468905    1.188206
      9          1           0       -3.049779    0.392447   -0.406861
     10          1           0       -1.493576   -1.572762   -0.110362
     11          1           0       -0.939422   -0.519693   -1.421433
     12          1           0        0.108024   -0.536464    1.454706
     13          1           0        1.317277   -1.547893   -1.020205
     14          1           0        2.021672   -1.542325    0.453718
 ---------------------------------------------------------------------

 SCF Done:  E(RHF) =  -266.323693141     A.U. after    2 cycles

 The electronic state is 1-A.
 Alpha  occ. eigenvalues --  -15.76456 -15.76016 -11.49461 -11.43974 -11.41539
 Alpha  occ. eigenvalues --  -11.37635  -1.40196  -1.27932  -1.17641  -1.00838
 Alpha  occ. eigenvalues --   -0.88986  -0.73724  -0.67313  -0.62704  -0.61395
 Alpha  occ. eigenvalues --   -0.56464  -0.53359  -0.50101  -0.49382  -0.48845
 Alpha  occ. eigenvalues --   -0.43810  -0.41877  -0.38333
 Alpha virt. eigenvalues --    0.03611   0.04998   0.05520   0.05787   0.05813
 Alpha virt. eigenvalues --    0.06114   0.07439   0.08807   0.09584   0.10586
 Alpha virt. eigenvalues --    0.12582   0.13492   0.13976   0.14533   0.14728

 Mulliken charges:
               1
     1  C   -3.488036
     2  C   -3.058108
     3  C   -0.336524
     4  N   -2.711253
     5  C    2.662332
     6  N   -2.465226
     7  H    1.305243
     8  H    1.216707
     9  H    1.119005
    10  H    1.328071
    11  H    1.399505
    12  H    1.839554
    13  H    0.583306
    14  H    0.605424
 Sum of Mulliken charges =  -0.00000

 Dipole moment (field-independent basis, Debye):
    X=             -1.2529    Y=             -2.2549    Z=              0.2819  Tot=              2.5950

 Test job not archived.
 1\1\GINC-SE132\SP\RHF\Aug-CC-pVDZ\C4H8N2\OHZDE\09-Apr-2025\0\\#t hf au
 g-cc-pvdz iop(5/13=1,5/36=2,99/5=2) pseudo=read geom=check guess=(read
 ,tcheck) scf=(maxcycle=1)\\title\\0,1\C,0,-1.83251121,0.19744033,0.107
 11253\C,0,-0.5760637,-0.60441004,-0.24624839\C,0,0.71683063,-0.0182880
 3,0.35825823\N,0,1.85633477,-0.9014967,0.07187658\C,0,0.93349345,1.371
 34304,-0.11907439\N,0,1.15979657,2.44105575,-0.53939178\H,0,-1.7695975
 6,1.22611544,-0.27322693\H,0,-1.97583851,0.24678368,1.19629531\H,0,-2.
 72404251,-0.2717387,-0.32976867\H,0,-0.64940612,-1.63650536,0.12302559

 Normal termination of Gaussian 16 at Wed Apr  9 03:09:00 2025.
