 Gaussian 16, Revision C.01,

 ----------------------------------------------------------------------
 #t hf aug-cc-pvdz symm=none int=(grid=ultrafine) guess=(read,tcheck) s
 table=(opt,rrhf)
 ----------------------------------------------------------------------
 -----
 title
 -----
 Symbolic Z-matrix:
 Charge =  0 Multiplicity = 1

 SCF Done:  E(RHF) =  -322.615344500     A.U. after   15 cycles
 Normal termination of Gaussian 16 at Wed Apr  9 18:53:45 2025.
 Gaussian 16:  ES64L-G16RevC.01  3-Jul-2019

 ----------------------------------------------------------------------
 #t hf aug-cc-pvdz iop(5/13=1,5/36=2,99/5=2) pseudo=read geom=check gue
 ss=(read,tcheck) scf=(maxcycle=1)
 ----------------------------------------------------------------------
 -----
 title
 -----
 Structure from the checkpoint file:  "Grambow2020_wb97xd3_007750_reverse_mol1.chk"
 Charge =  0 Multiplicity = 1

                         Standard orientation:
 ---------------------------------------------------------------------
 Center     Atomic      Atomic             Coordinates (Angstroms)
 Number     Number       Type             X           Y           Z
 ---------------------------------------------------------------------
      1          6           0       -2.463135   -0.362209    0.089677
      2          6           0       -0.993893   -0.152797   -0.016797
      3          6           0       -0.077462   -1.102355   -0.203159
      4          6           0        1.285704   -0.637994   -0.090469
      5          7           0        2.417900   -0.578601    0.281406
      6          8           0        0.913603    1.170096   -0.299250
      7          6           0       -0.403760    1.238897    0.122704
      8          1           0       -2.830224    0.011560    1.048962
      9          1           0       -2.980652    0.201652   -0.690346
     10          1           0       -2.736629   -1.412415    0.001082
     11          1           0       -0.266379   -2.163233   -0.282918
     12          1           0        1.983935    0.644560    0.256930
     13          1           0       -0.513333    1.560345    1.171049
     14          1           0       -0.975559    1.945718   -0.492331
 ---------------------------------------------------------------------

 SCF Done:  E(RHF) =  -324.134106134     A.U. after    2 cycles

 The electronic state is 1-A.
 Alpha  occ. eigenvalues --  -21.00573 -15.74587 -11.52559 -11.47983 -11.44157
 Alpha  occ. eigenvalues --  -11.42705 -11.40194  -1.72044  -1.35274  -1.26347
 Alpha  occ. eigenvalues --   -1.07561  -0.98666  -0.82465  -0.74989  -0.66446
 Alpha  occ. eigenvalues --   -0.63848  -0.61066  -0.58962  -0.57858  -0.52450
 Alpha  occ. eigenvalues --   -0.51483  -0.51005  -0.42219  -0.35461  -0.31909
 Alpha  occ. eigenvalues --   -0.27210
 Alpha virt. eigenvalues --    0.02742   0.04548   0.05265   0.05413   0.06445
 Alpha virt. eigenvalues --    0.06919   0.08191   0.09272   0.10395   0.10746
 Alpha virt. eigenvalues --    0.12183   0.12612   0.13118   0.13318   0.13869

 Mulliken charges:
               1
     1  C   -4.418460
     2  C    3.445179
     3  C   -2.710631
     4  C    2.432725
     5  N   -3.019787
     6  O   -2.774625
     7  C   -1.275758
     8  H    1.177228
     9  H    1.148947
    10  H    1.297597
    11  H    1.681777
    12  H    0.863098
    13  H    1.007288
    14  H    1.145422
 Sum of Mulliken charges =   0.00000

 Dipole moment (field-independent basis, Debye):
    X=             -4.1579    Y=             -0.1838    Z=              0.0518  Tot=              4.1623

 Test job not archived.
 1\1\GINC-SE135\SP\RHF\Aug-CC-pVDZ\C5H7N1O1\OHZDE\09-Apr-2025\0\\#t hf
 aug-cc-pvdz iop(5/13=1,5/36=2,99/5=2) pseudo=read geom=check guess=(re
 ad,tcheck) scf=(maxcycle=1)\\title\\0,1\C,0,-1.90951192,-0.20989516,-0
 .38472134\C,0,-0.43741409,-0.09901251,-0.19898681\C,0,0.47246736,-0.98
 941003,-0.59337746\C,0,1.81115874,-0.71229576,-0.12683393\N,0,2.869898
 58,-0.8857981,0.39532761\O,0,1.52388366,1.07302225,0.29901722\C,0,0.15
 798467,1.09368398,0.52730739\H,0,-2.41650559,-0.17947027,0.58312097\H,
 0,-2.2801626,0.63892814,-0.96464904\H,0,-2.19195994,-1.13024646,-0.893

 Normal termination of Gaussian 16 at Wed Apr  9 18:53:50 2025.
