 Gaussian 16, Revision C.01,

 ----------------------------------------------------------------------
 #t hf aug-cc-pvdz symm=none int=(grid=ultrafine) guess=(read,tcheck) s
 table=(opt,rrhf)
 ----------------------------------------------------------------------
 -----
 title
 -----
 Symbolic Z-matrix:
 Charge =  0 Multiplicity = 1

 SCF Done:  E(RHF) =  -310.064532002     A.U. after   15 cycles

 1\1\GINC-SE212\Stability\RHF\Aug-CC-pVDZ\C6H14O1\OHZDE\09-Apr-2025\0\\
 #t hf aug-cc-pvdz symm=none int=(grid=ultrafine) guess=(read,tcheck) s
 table=(opt,rrhf)\\title\\0,1\C,0,2.42715231,-1.40575605,-0.73007756\O,
 0,1.16804721,-1.08946058,-0.5056211\C,0,0.77950752,-0.01659151,0.10578
 632\C,0,-0.69702924,0.23487027,0.22789589\C,0,-0.89654524,1.73677681,0
 .45053088\C,0,-1.42915829,-0.20562184,-1.04057513\C,0,-1.24914787,-0.5
 3659063,1.43972857\H,0,2.50230513,0.36621705,-1.48958901\H,0,2.5405457
 2,-2.3247139,-1.28441282\H,0,3.16393163,-1.10362199,0.00481089\H,0,1.9

 Normal termination of Gaussian 16 at Wed Apr  9 19:21:46 2025.
 Gaussian 16:  ES64L-G16RevC.01  3-Jul-2019

 ----------------------------------------------------------------------
 #t hf aug-cc-pvdz iop(5/13=1,5/36=2,99/5=2) pseudo=read geom=check gue
 ss=(read,tcheck) scf=(maxcycle=1)
 ----------------------------------------------------------------------
 -----
 title
 -----
 Structure from the checkpoint file:  "Grambow2020_wb97xd3_008659_reverse_mol1.chk"
 Charge =  0 Multiplicity = 1

                         Standard orientation:
 ---------------------------------------------------------------------
 Center     Atomic      Atomic             Coordinates (Angstroms)
 Number     Number       Type             X           Y           Z
 ---------------------------------------------------------------------
      1          6           0       -2.779991   -0.071887   -0.106049
      2          8           0       -1.503434   -0.322249    0.102492
      3          6           0       -0.529845    0.376290   -0.387406
      4          6           0        0.874352    0.001798   -0.004927
      5          6           0        1.758552    1.234222   -0.215677
      6          6           0        0.938455   -0.441562    1.457396
      7          6           0        1.365855   -1.138222   -0.914490
      8          1           0       -2.300157    1.696985    0.496652
      9          1           0       -3.435639   -0.750289    0.417903
     10          1           0       -3.063601    0.349592   -1.063186
     11          1           0       -1.531760    1.917187    0.430552
     12          1           0       -0.717518    0.906830   -1.318352
     13          1           0        1.699791    1.593231   -1.246351
     14          1           0        2.802942    0.991283   -0.007841
     15          1           0        1.456008    2.048929    0.444587
     16          1           0        0.330353   -1.330289    1.631336
     17          1           0        0.577756    0.347325    2.119991
     18          1           0        1.969006   -0.678300    1.731281
     19          1           0        0.746568   -2.028724   -0.789108
     20          1           0        2.398586   -1.404539   -0.674098
     21          1           0        1.330872   -0.845059   -1.966391
 ---------------------------------------------------------------------

 SCF Done:  E(RHF) =  -311.649173495     A.U. after    2 cycles

 The electronic state is 1-A.
 Alpha  occ. eigenvalues --  -21.16027 -11.47612 -11.41960 -11.39316 -11.39249
 Alpha  occ. eigenvalues --  -11.39160 -11.35570  -1.86653  -1.28974  -1.01808
 Alpha  occ. eigenvalues --   -1.01078  -1.00988  -0.87512  -0.79224  -0.67736
 Alpha  occ. eigenvalues --   -0.65570  -0.64628  -0.60354  -0.60203  -0.59185
 Alpha  occ. eigenvalues --   -0.54594  -0.53464  -0.51501  -0.47049  -0.45737
 Alpha  occ. eigenvalues --   -0.44037  -0.43733  -0.39941  -0.26850
 Alpha virt. eigenvalues --    0.03943   0.04912   0.05081   0.05368   0.05534
 Alpha virt. eigenvalues --    0.05717   0.06057   0.06423   0.07330   0.08089
 Alpha virt. eigenvalues --    0.08686   0.09094   0.09373   0.11012   0.12152

 Mulliken charges:
               1
     1  C   -2.377308
     2  O   -3.998360
     3  C    1.164777
     4  C    3.143389
     5  C   -4.383719
     6  C   -4.906449
     7  C   -4.543284
     8  H    0.571341
     9  H    1.575084
    10  H    1.373964
    11  H   -0.702807
    12  H    1.816360
    13  H    1.256206
    14  H    1.186861
    15  H    1.338272
    16  H    1.368153
    17  H    1.254180
    18  H    1.146238
    19  H    1.255414
    20  H    1.233781
    21  H    1.227907
 Sum of Mulliken charges =  -0.00000

 Dipole moment (field-independent basis, Debye):
    X=              0.9782    Y=             -0.9059    Z=             -0.6818  Tot=              1.4975

 Test job not archived.
 1\1\GINC-SE212\SP\RHF\Aug-CC-pVDZ\C6H14O1\OHZDE\09-Apr-2025\0\\#t hf a
 ug-cc-pvdz iop(5/13=1,5/36=2,99/5=2) pseudo=read geom=check guess=(rea
 d,tcheck) scf=(maxcycle=1)\\title\\0,1\C,0,2.42715231,-1.40575605,-0.7
 3007756\O,0,1.16804721,-1.08946058,-0.5056211\C,0,0.77950752,-0.016591
 51,0.10578632\C,0,-0.69702924,0.23487027,0.22789589\C,0,-0.89654524,1.
 73677681,0.45053088\C,0,-1.42915829,-0.20562184,-1.04057513\C,0,-1.249
 14787,-0.53659063,1.43972857\H,0,2.50230513,0.36621705,-1.48958901\H,0
 ,2.54054572,-2.3247139,-1.28441282\H,0,3.16393163,-1.10362199,0.004810

 Normal termination of Gaussian 16 at Wed Apr  9 19:21:55 2025.
