 Gaussian 16, Revision C.01,

 ----------------------------------------------------------------------
 #t hf aug-cc-pvdz symm=none int=(grid=ultrafine) guess=(read,tcheck) s
 table=(opt,rrhf)
 ----------------------------------------------------------------------
 -----
 title
 -----
 Symbolic Z-matrix:
 Charge =  0 Multiplicity = 1

 SCF Done:  E(RHF) =  -343.575034015     A.U. after   16 cycles
 Normal termination of Gaussian 16 at Wed Apr  9 18:31:31 2025.
 Gaussian 16:  ES64L-G16RevC.01  3-Jul-2019

 ----------------------------------------------------------------------
 #t hf aug-cc-pvdz iop(5/13=1,5/36=2,99/5=2) pseudo=read geom=check gue
 ss=(read,tcheck) scf=(maxcycle=1)
 ----------------------------------------------------------------------
 -----
 title
 -----
 Structure from the checkpoint file:  "Grambow2020_wb97xd3_007215_forward_mol1.chk"
 Charge =  0 Multiplicity = 1

                         Standard orientation:
 ---------------------------------------------------------------------
 Center     Atomic      Atomic             Coordinates (Angstroms)
 Number     Number       Type             X           Y           Z
 ---------------------------------------------------------------------
      1          8           0       -2.863579   -0.028483   -0.158681
      2          6           0       -1.634170   -0.647348    0.220055
      3          6           0       -0.491150    0.115030   -0.346043
      4          6           0        0.224918    1.060541    0.409457
      5          6           0        1.494586    1.580527   -0.082969
      6          6           0        1.764373   -0.716147   -0.389248
      7          8           0        2.262946   -1.554634    0.195076
      8          1           0       -3.583642   -0.622642    0.061984
      9          1           0       -1.604368   -1.677815   -0.156065
     10          1           0       -1.547767   -0.691324    1.313800
     11          1           0       -0.465361    0.200927   -1.426920
     12          1           0        0.003557    2.174553    0.124081
     13          1           0        0.143378    0.985447    1.491955
     14          1           0        2.122522    2.168803    0.576778
     15          1           0        1.585399    1.771362   -1.144278
 ---------------------------------------------------------------------

 SCF Done:  E(RHF) =  -345.153475290     A.U. after    2 cycles

 The electronic state is 1-A.
 Alpha  occ. eigenvalues --  -21.12785 -21.06025 -11.47757 -11.46371 -11.44173
 Alpha  occ. eigenvalues --  -11.42250 -11.37092  -1.76540  -1.69936  -1.26572
 Alpha  occ. eigenvalues --   -1.05850  -0.89843  -0.80864  -0.71358  -0.66238
 Alpha  occ. eigenvalues --   -0.64225  -0.63327  -0.58301  -0.56118  -0.50414
 Alpha  occ. eigenvalues --   -0.50139  -0.48821  -0.48302  -0.42747  -0.40505
 Alpha  occ. eigenvalues --   -0.31483  -0.22873
 Alpha virt. eigenvalues --    0.03958   0.04958   0.05173   0.05488   0.06159
 Alpha virt. eigenvalues --    0.06640   0.06821   0.08210   0.08538   0.09916
 Alpha virt. eigenvalues --    0.11134   0.12637   0.13271   0.13942   0.14656

 Mulliken charges:
               1
     1  O   -2.455215
     2  C   -1.424125
     3  C   -1.698773
     4  C   -1.652138
     5  C   -3.004220
     6  C    2.066010
     7  O   -2.077041
     8  H    0.750660
     9  H    1.286506
    10  H    1.370934
    11  H    1.419302
    12  H    1.332555
    13  H    1.426976
    14  H    1.257119
    15  H    1.401452
 Sum of Mulliken charges =  -0.00000

 Dipole moment (field-independent basis, Debye):
    X=              0.6721    Y=              0.2080    Z=              1.1525  Tot=              1.3502

 Test job not archived.
 1\1\GINC-SE162\SP\RHF\Aug-CC-pVDZ\C5H8O2\OHZDE\09-Apr-2025\0\\#t hf au
 g-cc-pvdz iop(5/13=1,5/36=2,99/5=2) pseudo=read geom=check guess=(read
 ,tcheck) scf=(maxcycle=1)\\title\\0,1\O,0,2.60679393,0.53012883,0.5358
 307\C,0,1.70869409,-0.41054103,-0.05276097\C,0,0.31088945,-0.07711102,
 0.32558815\C,0,-0.54100735,0.65020604,-0.52459187\C,0,-1.96973337,0.71
 952543,-0.24376792\C,0,-1.54637243,-1.56365599,-0.02207254\O,0,-1.6591
 7726,-2.47381998,-0.69434262\H,0,3.50226868,0.20288984,0.42976749\H,0,
 1.94730452,-1.42283982,0.29728571\H,0,1.81022841,-0.40559859,-1.146078

 Normal termination of Gaussian 16 at Wed Apr  9 18:31:35 2025.
