 Gaussian 16, Revision C.01,

 ----------------------------------------------------------------------
 #t hf aug-cc-pvdz symm=none int=(grid=ultrafine) guess=(read,tcheck) s
 table=(opt,rrhf)
 ----------------------------------------------------------------------
 -----
 title
 -----
 Symbolic Z-matrix:
 Charge =  0 Multiplicity = 1

 SCF Done:  E(RHF) =  -323.840077436     A.U. after   14 cycles
 Normal termination of Gaussian 16 at Wed Apr  9 18:16:48 2025.
 Gaussian 16:  ES64L-G16RevC.01  3-Jul-2019

 ----------------------------------------------------------------------
 #t hf aug-cc-pvdz iop(5/13=1,5/36=2,99/5=2) pseudo=read geom=check gue
 ss=(read,tcheck) scf=(maxcycle=1)
 ----------------------------------------------------------------------
 -----
 title
 -----
 Structure from the checkpoint file:  "Grambow2020_wb97xd3_006829_reverse_mol2.chk"
 Charge =  0 Multiplicity = 1

                         Standard orientation:
 ---------------------------------------------------------------------
 Center     Atomic      Atomic             Coordinates (Angstroms)
 Number     Number       Type             X           Y           Z
 ---------------------------------------------------------------------
      1          6           0       -0.571487    1.454502   -0.002060
      2          6           0        0.951733   -0.657115    0.000718
      3          6           0        2.102375   -0.039244   -0.746583
      4          6           0        2.099564   -0.033391    0.747400
      5          6           0       -0.390683   -0.032583   -0.001314
      6          7           0       -1.368496   -0.847288    0.000483
      7          8           0       -2.593366   -0.184514    0.000521
      8          1           0        0.379189    1.984580   -0.013579
      9          1           0       -1.134038    1.761706    0.880985
     10          1           0       -1.157142    1.759239   -0.870582
     11          1           0        0.905757   -1.738262    0.004535
     12          1           0        2.776054   -0.711994   -1.259778
     13          1           0        1.932479    0.898802   -1.259233
     14          1           0        1.926768    0.908395    1.252218
     15          1           0        2.771844   -0.701438    1.268400
     16          1           0       -3.223518   -0.906914    0.000516
 ---------------------------------------------------------------------

 SCF Done:  E(RHF) =  -325.365258249     A.U. after    2 cycles

 The electronic state is 1-A.
 Alpha  occ. eigenvalues --  -21.08467 -15.75500 -11.46316 -11.42093 -11.40932
 Alpha  occ. eigenvalues --  -11.38081 -11.36823  -1.78372  -1.35687  -1.23040
 Alpha  occ. eigenvalues --   -1.05853  -0.89932  -0.87011  -0.74615  -0.67531
 Alpha  occ. eigenvalues --   -0.66611  -0.59864  -0.58987  -0.57656  -0.51918
 Alpha  occ. eigenvalues --   -0.51557  -0.49429  -0.47203  -0.41749  -0.40511
 Alpha  occ. eigenvalues --   -0.33827  -0.27260
 Alpha virt. eigenvalues --    0.03936   0.05429   0.05575   0.05909   0.06037
 Alpha virt. eigenvalues --    0.06298   0.06466   0.07758   0.08021   0.11251
 Alpha virt. eigenvalues --    0.12611   0.13080   0.13371   0.14881   0.15021

 Mulliken charges:
               1
     1  C   -5.189545
     2  C   -0.140809
     3  C   -2.034199
     4  C   -2.029017
     5  C    1.841725
     6  N   -1.050081
     7  O   -2.585201
     8  H    1.607624
     9  H    1.297129
    10  H    1.307806
    11  H    1.140371
    12  H    1.152558
    13  H    1.316725
    14  H    1.319412
    15  H    1.152434
    16  H    0.893068
 Sum of Mulliken charges =   0.00000

 Dipole moment (field-independent basis, Debye):
    X=              0.5936    Y=              0.8741    Z=              0.0012  Tot=              1.0566

 Test job not archived.
 1\1\GINC-SE131\SP\RHF\Aug-CC-pVDZ\C5H9N1O1\OHZDE\09-Apr-2025\0\\#t hf
 aug-cc-pvdz iop(5/13=1,5/36=2,99/5=2) pseudo=read geom=check guess=(re
 ad,tcheck) scf=(maxcycle=1)\\title\\0,1\C,0,-0.50210387,-0.97387456,1.
 11740836\C,0,0.35286674,0.66818512,-0.71338283\C,0,-0.9926029,1.236037
 14,-1.07595279\C,0,-0.14695857,1.92578143,-0.05557795\C,0,0.47437285,-
 0.59723449,0.04561229\N,0,1.46296538,-1.33103655,-0.27701138\O,0,1.509
 16221,-2.49841885,0.48105292\H,0,-1.28343889,-0.22650081,1.24329886\H,
 0,0.0186975,-1.10079745,2.06781031\H,0,-0.96475575,-1.93317324,0.88100

 Normal termination of Gaussian 16 at Wed Apr  9 18:16:54 2025.
