 Gaussian 16, Revision C.01,

 ----------------------------------------------------------------------
 #t hf aug-cc-pvdz symm=none int=(grid=ultrafine) guess=(read,tcheck) s
 table=(opt,rrhf)
 ----------------------------------------------------------------------
 -----
 title
 -----
 Symbolic Z-matrix:
 Charge =  0 Multiplicity = 1

 SCF Done:  E(RHF) =  -342.407274436     A.U. after   16 cycles
 Normal termination of Gaussian 16 at Wed Apr  9 19:26:05 2025.
 Gaussian 16:  ES64L-G16RevC.01  3-Jul-2019

 ----------------------------------------------------------------------
 #t hf aug-cc-pvdz iop(5/13=1,5/36=2,99/5=2) pseudo=read geom=check gue
 ss=(read,tcheck) scf=(maxcycle=1)
 ----------------------------------------------------------------------
 -----
 title
 -----
 Structure from the checkpoint file:  "Grambow2020_wb97xd3_008953_forward_mol1.chk"
 Charge =  0 Multiplicity = 1

                         Standard orientation:
 ---------------------------------------------------------------------
 Center     Atomic      Atomic             Coordinates (Angstroms)
 Number     Number       Type             X           Y           Z
 ---------------------------------------------------------------------
      1          8           0       -2.587620   -0.166430    0.212149
      2          6           0       -1.415106   -0.068947    0.010314
      3          6           0       -0.305818   -0.973809   -0.352175
      4          6           0        0.590562    0.159828   -0.437238
      5          6           0        2.036909    0.088992   -0.406878
      6          8           0        1.705717   -0.238370    0.938940
      7          6           0       -0.461552    1.167362   -0.060129
      8          1           0       -0.288112   -1.918856   -0.879621
      9          1           0        0.600962   -0.971499    0.674321
     10          1           0        2.506428   -0.710385   -0.982070
     11          1           0        2.584277    1.027399   -0.479407
     12          1           0       -0.287748    1.760235    0.835532
     13          1           0       -0.730555    1.810948   -0.900833
 ---------------------------------------------------------------------

 SCF Done:  E(RHF) =  -343.966009884     A.U. after    2 cycles

 The electronic state is 1-A.
 Alpha  occ. eigenvalues --  -21.05656 -21.03267 -11.56110 -11.50999 -11.47787
 Alpha  occ. eigenvalues --  -11.44401 -11.41162  -1.74635  -1.69871  -1.33674
 Alpha  occ. eigenvalues --   -1.03289  -1.02169  -0.85355  -0.76433  -0.69698
 Alpha  occ. eigenvalues --   -0.66716  -0.63386  -0.58379  -0.56639  -0.51057
 Alpha  occ. eigenvalues --   -0.48114  -0.45163  -0.43545  -0.32998  -0.28951
 Alpha  occ. eigenvalues --   -0.25284
 Alpha virt. eigenvalues --    0.02945   0.04571   0.04815   0.05331   0.06609
 Alpha virt. eigenvalues --    0.07259   0.08214   0.09078   0.10378   0.10549
 Alpha virt. eigenvalues --    0.12807   0.13072   0.13648   0.14237   0.14851

 Mulliken charges:
               1
     1  O   -3.100551
     2  C    4.288923
     3  C   -3.345230
     4  C    1.827239
     5  C   -1.933164
     6  O   -1.864512
     7  C   -3.822140
     8  H    1.075565
     9  H    1.688204
    10  H    1.366625
    11  H    1.369271
    12  H    1.255909
    13  H    1.193860
 Sum of Mulliken charges =   0.00000

 Dipole moment (field-independent basis, Debye):
    X=              2.5805    Y=              1.0109    Z=             -1.0819  Tot=              2.9752

 Test job not archived.
 1\1\GINC-SE018\SP\RHF\Aug-CC-pVDZ\C5H6O2\OHZDE\09-Apr-2025\0\\#t hf au
 g-cc-pvdz iop(5/13=1,5/36=2,99/5=2) pseudo=read geom=check guess=(read
 ,tcheck) scf=(maxcycle=1)\\title\\0,1\O,0,-2.88478347,-0.38635417,-0.1
 7030387\C,0,-1.70695793,-0.23875145,-0.04393501\C,0,-0.79667472,0.8436
 2882,0.38095354\C,0,0.32956995,-0.05858772,0.26500334\C,0,1.71827083,0
 .34196073,0.1705085\O,0,1.21647723,0.74605421,-1.09952657\C,0,-0.50385
 6,-1.22542992,-0.19124342\H,0,-0.94350605,1.69700211,1.03043134\H,0,0.
 0031845,1.17159473,-0.68140873\H,0,2.04650141,1.15138063,0.82426789\H,

 Normal termination of Gaussian 16 at Wed Apr  9 19:26:09 2025.
