 Gaussian 16, Revision C.01,

 ----------------------------------------------------------------------
 #t hf aug-cc-pvdz symm=none int=(grid=ultrafine) guess=(read,tcheck) s
 table=(opt,rrhf)
 ----------------------------------------------------------------------
 -----
 title
 -----
 Symbolic Z-matrix:
 Charge =  0 Multiplicity = 1

 SCF Done:  E(RHF) =  -343.551958960     A.U. after   16 cycles
 Normal termination of Gaussian 16 at Wed Apr  9 19:08:01 2025.
 Gaussian 16:  ES64L-G16RevC.01  3-Jul-2019

 ----------------------------------------------------------------------
 #t hf aug-cc-pvdz iop(5/13=1,5/36=2,99/5=2) pseudo=read geom=check gue
 ss=(read,tcheck) scf=(maxcycle=1)
 ----------------------------------------------------------------------
 -----
 title
 -----
 Structure from the checkpoint file:  "Grambow2020_wb97xd3_008130_reverse_mol1.chk"
 Charge =  0 Multiplicity = 1

                         Standard orientation:
 ---------------------------------------------------------------------
 Center     Atomic      Atomic             Coordinates (Angstroms)
 Number     Number       Type             X           Y           Z
 ---------------------------------------------------------------------
      1          6           0       -1.392451   -0.584993    0.896610
      2          8           0       -1.470607   -0.236073   -0.391077
      3          6           0       -0.583298    0.547103   -0.915799
      4          6           0        1.183742   -1.080648   -0.817654
      5          6           0        1.091830   -0.751604    0.489592
      6          6           0        1.084960    0.709999    0.774947
      7          8           0        0.134081    1.364338   -0.149623
      8          1           0       -2.127092   -1.337017    1.146467
      9          1           0       -1.195926    0.212366    1.599448
     10          1           0       -0.775243    0.844833   -1.935754
     11          1           0        1.550725   -0.368788   -1.546556
     12          1           0        1.073856   -2.103134   -1.157354
     13          1           0        1.039976   -1.461703    1.300378
     14          1           0        0.778890    0.952545    1.790921
     15          1           0        2.038318    1.195631    0.561872
 ---------------------------------------------------------------------

 SCF Done:  E(RHF) =  -345.152600365     A.U. after    2 cycles

 The electronic state is 1-A.
 Alpha  occ. eigenvalues --  -21.14954 -21.08741 -11.48476 -11.45812 -11.41169
 Alpha  occ. eigenvalues --  -11.37376 -11.36874  -1.89960  -1.74966  -1.19176
 Alpha  occ. eigenvalues --   -1.04066  -0.95759  -0.83084  -0.78732  -0.71963
 Alpha  occ. eigenvalues --   -0.69077  -0.62017  -0.60735  -0.58309  -0.55699
 Alpha  occ. eigenvalues --   -0.53556  -0.50577  -0.44024  -0.42041  -0.34387
 Alpha  occ. eigenvalues --   -0.32239  -0.25063
 Alpha virt. eigenvalues --    0.03773   0.04832   0.05272   0.05373   0.06052
 Alpha virt. eigenvalues --    0.06368   0.06539   0.08192   0.10080   0.11487
 Alpha virt. eigenvalues --    0.12230   0.12658   0.13272   0.13800   0.14262

 Mulliken charges:
               1
     1  C   -1.958031
     2  O   -3.123581
     3  C    2.890199
     4  C   -3.252656
     5  C   -1.188974
     6  C   -1.989011
     7  O   -3.039284
     8  H    1.400628
     9  H    1.454725
    10  H    1.820058
    11  H    1.368775
    12  H    1.300930
    13  H    1.521395
    14  H    1.527572
    15  H    1.267256
 Sum of Mulliken charges =   0.00000

 Dipole moment (field-independent basis, Debye):
    X=              0.1339    Y=              0.4576    Z=             -0.0099  Tot=              0.4769

 Test job not archived.
 1\1\GINC-SE028\SP\RHF\Aug-CC-pVDZ\C5H8O2\OHZDE\09-Apr-2025\0\\#t hf au
 g-cc-pvdz iop(5/13=1,5/36=2,99/5=2) pseudo=read geom=check guess=(read
 ,tcheck) scf=(maxcycle=1)\\title\\0,1\C,0,-1.45116523,1.01672695,0.293
 38509\O,0,-0.94514108,1.06740176,-0.94247977\C,0,0.30664824,0.81227326
 ,-1.15212081\C,0,0.10469727,-1.53209697,-0.65736932\C,0,0.01088759,-1.
 01804472,0.588648\C,0,1.06268122,-0.02555007,0.9442346\O,0,1.19527041,
 0.93758315,-0.1701949\H,0,-2.52591798,1.12846878,0.28410261\H,0,-0.878
 02969,1.50685309,1.06777248\H,0,0.64533819,0.96319,-2.166176\H,0,1.033

 Normal termination of Gaussian 16 at Wed Apr  9 19:08:06 2025.
