 Gaussian 16, Revision C.01,

 ----------------------------------------------------------------------
 #t hf aug-cc-pvdz symm=none int=(grid=ultrafine) guess=(read,tcheck) s
 table=(opt,rrhf)
 ----------------------------------------------------------------------
 -----
 title
 -----
 Symbolic Z-matrix:
 Charge =  0 Multiplicity = 1

 SCF Done:  E(RHF) =  -302.670727890     A.U. after   17 cycles
 Normal termination of Gaussian 16 at Wed Apr  9 04:05:50 2025.
 Gaussian 16:  ES64L-G16RevC.01  3-Jul-2019

 ----------------------------------------------------------------------
 #t hf aug-cc-pvdz iop(5/13=1,5/36=2,99/5=2) pseudo=read geom=check gue
 ss=(read,tcheck) scf=(maxcycle=1)
 ----------------------------------------------------------------------
 -----
 title
 -----
 Structure from the checkpoint file:  "Grambow2020_wb97xd3_009324_forward_mol1.chk"
 Charge =  0 Multiplicity = 1

                         Standard orientation:
 ---------------------------------------------------------------------
 Center     Atomic      Atomic             Coordinates (Angstroms)
 Number     Number       Type             X           Y           Z
 ---------------------------------------------------------------------
      1          6           0        2.338104   -0.402417    0.129286
      2          7           0        0.928629   -0.106595   -0.005764
      3          6           0       -0.022550   -0.886094   -0.458447
      4          6           0       -1.210543   -0.127652   -0.334391
      5          6           0       -2.323742   -0.605539    0.282054
      6          6           0       -0.721579    1.222856   -0.186266
      7          7           0        0.541864    1.228333    0.062754
      8          1           0        2.711881    0.148304    0.986703
      9          1           0        2.868773   -0.104398   -0.776496
     10          1           0        2.454278   -1.469591    0.301599
     11          1           0        0.100599   -1.955864   -0.508353
     12          1           0        0.106237   -0.204618    2.120472
     13          1           0       -2.495477   -1.669146    0.383924
     14          1           0       -3.101147    0.061586    0.629211
     15          1           0       -1.296728    2.134640   -0.129413
 ---------------------------------------------------------------------

 SCF Done:  E(RHF) =  -304.113609867     A.U. after    2 cycles

 The electronic state is 1-A.
 Alpha  occ. eigenvalues --  -15.85324 -15.78237 -11.49413 -11.47961 -11.46777
 Alpha  occ. eigenvalues --  -11.43185 -11.41830  -1.65506  -1.28798  -1.22843
 Alpha  occ. eigenvalues --   -1.08021  -0.96831  -0.84446  -0.82868  -0.72844
 Alpha  occ. eigenvalues --   -0.68048  -0.64807  -0.63105  -0.59185  -0.56511
 Alpha  occ. eigenvalues --   -0.55384  -0.52466  -0.43110  -0.39542  -0.37879
 Alpha  occ. eigenvalues --   -0.23122
 Alpha virt. eigenvalues --    0.02285   0.03361   0.04641   0.05033   0.05282
 Alpha virt. eigenvalues --    0.06050   0.06498   0.07811   0.09126   0.10453
 Alpha virt. eigenvalues --    0.11150   0.11699   0.12223   0.13217   0.13282

 Mulliken charges:
               1
     1  C   -3.322578
     2  N   -1.447691
     3  C   -0.676274
     4  C    0.852967
     5  C   -2.886522
     6  C    0.300016
     7  N   -2.366122
     8  H    1.492993
     9  H    1.490034
    10  H    1.512606
    11  H    1.504015
    12  H   -0.844466
    13  H    1.444826
    14  H    1.484775
    15  H    1.461420
 Sum of Mulliken charges =  -0.00000

 Dipole moment (field-independent basis, Debye):
    X=             -0.8443    Y=             -1.4398    Z=             -5.3206  Tot=              5.5762

 Test job not archived.
 1\1\GINC-SE341\SP\RHF\Aug-CC-pVDZ\C5H8N2\OHZDE\09-Apr-2025\0\\#t hf au
 g-cc-pvdz iop(5/13=1,5/36=2,99/5=2) pseudo=read geom=check guess=(read
 ,tcheck) scf=(maxcycle=1)\\title\\0,1\C,0,-2.24409821,-0.02430114,-0.4
 9585279\N,0,-0.89118834,0.10057916,0.00054279\C,0,-0.07115871,-0.85432
 45,0.36522569\C,0,1.12813676,-0.19365912,0.72182178\C,0,2.33923879,-0.
 55217382,0.21953378\C,0,0.70399492,1.17367482,0.90997148\N,0,-0.477069
 41,1.35745292,0.43076128\H,0,-2.41751809,0.78847282,-1.19405773\H,0,-2
 .95073445,0.02829954,0.33406517\H,0,-2.33819609,-0.97621009,-1.0126355

 Normal termination of Gaussian 16 at Wed Apr  9 04:05:55 2025.
