 Gaussian 16, Revision C.01,

 ----------------------------------------------------------------------
 #t hf aug-cc-pvdz symm=none int=(grid=ultrafine) guess=(read,tcheck) s
 table=(opt,rrhf)
 ----------------------------------------------------------------------
 -----
 title
 -----
 Symbolic Z-matrix:
 Charge =  0 Multiplicity = 1

 SCF Done:  E(RHF) =  -270.806522622     A.U. after   16 cycles
 Normal termination of Gaussian 16 at Wed Apr  9 03:53:56 2025.
 Gaussian 16:  ES64L-G16RevC.01  3-Jul-2019

 ----------------------------------------------------------------------
 #t hf aug-cc-pvdz iop(5/13=1,5/36=2,99/5=2) pseudo=read geom=check gue
 ss=(read,tcheck) scf=(maxcycle=1)
 ----------------------------------------------------------------------
 -----
 title
 -----
 Structure from the checkpoint file:  "Grambow2020_wb97xd3_008386_reverse_mol2.chk"
 Charge =  0 Multiplicity = 1

                         Standard orientation:
 ---------------------------------------------------------------------
 Center     Atomic      Atomic             Coordinates (Angstroms)
 Number     Number       Type             X           Y           Z
 ---------------------------------------------------------------------
      1          6           0        1.912943   -0.328099   -0.929421
      2          6           0       -1.764058    0.523634   -0.745763
      3          6           0       -0.681258    1.243527   -0.014161
      4          6           0        0.131426    0.253416    0.838002
      5          6           0        1.626965    0.150782    0.488706
      6          6           0       -0.625861   -1.005454    0.594474
      7          6           0       -1.649495   -0.838938   -0.269084
      8          1           0        2.982030   -0.282540   -1.141345
      9          1           0        1.589145   -1.360126   -1.078351
     10          1           0        1.402293    0.283274   -1.676256
     11          1           0       -1.183187    2.004751    0.597204
     12          1           0       -0.079534    1.826732   -0.718122
     13          1           0        0.064384    0.501491    1.904596
     14          1           0        2.112614   -0.520225    1.203440
     15          1           0        2.074364    1.136317    0.645128
     16          1           0       -0.353995   -1.945525    1.069654
     17          1           0       -2.312086   -1.637354   -0.582466
 ---------------------------------------------------------------------

 SCF Done:  E(RHF) =  -272.147943947     A.U. after    2 cycles

 The electronic state is 1-A.
 Alpha  occ. eigenvalues --  -11.47781 -11.44503 -11.41473 -11.39207 -11.38402
 Alpha  occ. eigenvalues --  -11.37096 -11.35115  -1.36350  -1.16551  -1.03876
 Alpha  occ. eigenvalues --   -1.00631  -0.88618  -0.78708  -0.73415  -0.67397
 Alpha  occ. eigenvalues --   -0.64184  -0.61620  -0.55100  -0.53322  -0.51048
 Alpha  occ. eigenvalues --   -0.46693  -0.45834  -0.44746  -0.44688  -0.37844
 Alpha  occ. eigenvalues --   -0.30093
 Alpha virt. eigenvalues --    0.03368   0.04576   0.04774   0.05092   0.05203
 Alpha virt. eigenvalues --    0.05711   0.06484   0.06844   0.07440   0.07895
 Alpha virt. eigenvalues --    0.09345   0.11010   0.12093   0.12737   0.13461

 Mulliken charges:
               1
     1  C   -3.762229
     2  C   -2.560874
     3  C   -3.378509
     4  C   -1.514061
     5  C   -3.215540
     6  C   -0.240730
     7  C    0.639050
     8  H    1.097284
     9  H    1.417306
    10  H    1.411640
    11  H    1.374940
    12  H    1.641279
    13  H    1.389896
    14  H    1.232372
    15  H    1.400312
    16  H    1.522809
    17  H    1.545056
 Sum of Mulliken charges =  -0.00000

 Dipole moment (field-independent basis, Debye):
    X=              2.7985    Y=             -1.3630    Z=              2.4651  Tot=              3.9706

 Test job not archived.
 1\1\GINC-SE328\SP\RHF\Aug-CC-pVDZ\C7H10\OHZDE\09-Apr-2025\0\\#t hf aug
 -cc-pvdz iop(5/13=1,5/36=2,99/5=2) pseudo=read geom=check guess=(read,
 tcheck) scf=(maxcycle=1)\\title\\0,1\C,0,1.5395236,-0.35757482,-1.0626
 6883\C,0,-0.22641393,0.5857199,2.14219809\C,0,-0.50915042,-0.63850537,
 1.33766366\C,0,-0.85218037,-0.25267716,-0.11162037\C,0,0.0919055,-0.81
 664419,-1.18856944\C,0,-0.82638985,1.23306296,-0.01437638\C,0,-0.48289
 97,1.66878729,1.21584522\H,0,2.16902865,-0.86956821,-1.79172395\H,0,1.
 6374878,0.71595814,-1.23597336\H,0,1.94753331,-0.56486818,-0.07127542\

 Normal termination of Gaussian 16 at Wed Apr  9 03:54:02 2025.
