 Gaussian 16, Revision C.01,

 ----------------------------------------------------------------------
 #t hf aug-cc-pvdz symm=none int=(grid=ultrafine) guess=(read,tcheck) s
 table=(opt,rrhf)
 ----------------------------------------------------------------------
 -----
 title
 -----
 Symbolic Z-matrix:
 Charge =  0 Multiplicity = 1

 SCF Done:  E(RHF) =  -289.024690020     A.U. after   14 cycles

 1\1\GINC-SE035\Stability\RHF\Aug-CC-pVDZ\C6H13N1\OHZDE\09-Apr-2025\0\\
 #t hf aug-cc-pvdz symm=none int=(grid=ultrafine) guess=(read,tcheck) s
 table=(opt,rrhf)\\title\\0,1\C,0,-1.31252703,1.82149807,0.84626457\C,0
 ,-0.56310807,0.51636237,0.76151517\N,0,-0.60298003,-0.17123103,-0.5052
 3393\C,0,-0.87759329,-1.58741675,-0.54285959\C,0,0.82867018,0.44843152
 ,0.31142759\C,0,1.70141326,-0.61302808,0.89409886\C,0,0.65462872,0.377
 47052,-1.60438543\H,0,-2.39282649,1.65765148,0.84648929\H,0,-1.0405826
 7,2.35336032,1.7602983\H,0,-1.05634411,2.45545209,-0.00257528\H,0,-0.7

 Normal termination of Gaussian 16 at Wed Apr  9 19:31:43 2025.
 Gaussian 16:  ES64L-G16RevC.01  3-Jul-2019

 ----------------------------------------------------------------------
 #t hf aug-cc-pvdz iop(5/13=1,5/36=2,99/5=2) pseudo=read geom=check gue
 ss=(read,tcheck) scf=(maxcycle=1)
 ----------------------------------------------------------------------
 -----
 title
 -----
 Structure from the checkpoint file:  "Grambow2020_wb97xd3_009128_reverse_mol1.chk"
 Charge =  0 Multiplicity = 1

                         Standard orientation:
 ---------------------------------------------------------------------
 Center     Atomic      Atomic             Coordinates (Angstroms)
 Number     Number       Type             X           Y           Z
 ---------------------------------------------------------------------
      1          6           0        2.328089    0.134546    0.040712
      2          6           0        0.903895    0.214447   -0.446605
      3          7           0        0.000079   -0.804157    0.027306
      4          6           0       -0.874389   -1.475100   -0.904119
      5          6           0       -0.132724    0.930393    0.299774
      6          6           0       -1.228051    1.583798   -0.475600
      7          6           0       -0.729138   -0.386023    1.571389
      8          1           0        2.857402   -0.702494   -0.420898
      9          1           0        2.860275    1.057610   -0.198079
     10          1           0        2.346187    0.004240    1.122724
     11          1           0        0.814625    0.313880   -1.530822
     12          1           0       -1.556347   -2.112778   -0.333821
     13          1           0       -1.474209   -0.815723   -1.539444
     14          1           0       -0.271011   -2.116156   -1.549228
     15          1           0       -0.891775    2.609044   -0.656347
     16          1           0       -1.468040    1.157194   -1.458995
     17          1           0       -2.151187    1.649364    0.107838
     18          1           0        0.059994   -0.364312    2.312075
     19          1           0       -1.211020   -1.380429    1.588728
     20          1           0       -1.521542    0.317290    1.851822
 ---------------------------------------------------------------------

 SCF Done:  E(RHF) =  -290.525049268     A.U. after    2 cycles

 The electronic state is 1-A.
 Alpha  occ. eigenvalues --  -15.73426 -11.45404 -11.43156 -11.39322 -11.38833
 Alpha  occ. eigenvalues --  -11.37253 -11.34811  -1.47895  -1.14048  -1.08741
 Alpha  occ. eigenvalues --   -1.03481  -0.97808  -0.82424  -0.75845  -0.65085
 Alpha  occ. eigenvalues --   -0.63828  -0.62090  -0.58742  -0.55632  -0.55406
 Alpha  occ. eigenvalues --   -0.53757  -0.52133  -0.51169  -0.48504  -0.45147
 Alpha  occ. eigenvalues --   -0.42744  -0.32608  -0.24805
 Alpha virt. eigenvalues --    0.03994   0.05285   0.05568   0.05599   0.05782
 Alpha virt. eigenvalues --    0.06121   0.06242   0.06522   0.07180   0.08401
 Alpha virt. eigenvalues --    0.08672   0.09287   0.09675   0.11748   0.12060

 Mulliken charges:
               1
     1  C   -4.142764
     2  C   -0.384920
     3  N   -1.711472
     4  C   -3.504065
     5  C   -0.131623
     6  C   -4.262586
     7  C   -3.466429
     8  H    1.222788
     9  H    1.199909
    10  H    1.310544
    11  H    1.935110
    12  H    1.448333
    13  H    1.544342
    14  H    1.407418
    15  H    1.181454
    16  H    1.341553
    17  H    1.364361
    18  H    1.263949
    19  H    1.172028
    20  H    1.212072
 Sum of Mulliken charges =   0.00000

 Dipole moment (field-independent basis, Debye):
    X=             -0.4080    Y=             -1.1070    Z=             -1.1060  Tot=              1.6172

 Test job not archived.
 1\1\GINC-SE035\SP\RHF\Aug-CC-pVDZ\C6H13N1\OHZDE\09-Apr-2025\0\\#t hf a
 ug-cc-pvdz iop(5/13=1,5/36=2,99/5=2) pseudo=read geom=check guess=(rea
 d,tcheck) scf=(maxcycle=1)\\title\\0,1\C,0,-1.31252703,1.82149807,0.84
 626457\C,0,-0.56310807,0.51636237,0.76151517\N,0,-0.60298003,-0.171231
 03,-0.50523393\C,0,-0.87759329,-1.58741675,-0.54285959\C,0,0.82867018,
 0.44843152,0.31142759\C,0,1.70141326,-0.61302808,0.89409886\C,0,0.6546
 2872,0.37747052,-1.60438543\H,0,-2.39282649,1.65765148,0.84648929\H,0,
 -1.04058267,2.35336032,1.7602983\H,0,-1.05634411,2.45545209,-0.0025752

 Normal termination of Gaussian 16 at Wed Apr  9 19:31:51 2025.
