 Gaussian 16, Revision C.01,

 ----------------------------------------------------------------------
 #t hf aug-cc-pvdz symm=none int=(grid=ultrafine) guess=(read,tcheck) s
 table=(opt,rrhf)
 ----------------------------------------------------------------------
 -----
 title
 -----
 Symbolic Z-matrix:
 Charge =  0 Multiplicity = 1

 SCF Done:  E(RHF) =  -301.987400310     A.U. after   14 cycles
 Normal termination of Gaussian 16 at Wed Apr  9 17:07:18 2025.
 Gaussian 16:  ES64L-G16RevC.01  3-Jul-2019

 ----------------------------------------------------------------------
 #t hf aug-cc-pvdz iop(5/13=1,5/36=2,99/5=2) pseudo=read geom=check gue
 ss=(read,tcheck) scf=(maxcycle=1)
 ----------------------------------------------------------------------
 -----
 title
 -----
 Structure from the checkpoint file:  "Grambow2020_b97d3_007044_forward_mol1.chk"
 Charge =  0 Multiplicity = 1

                         Standard orientation:
 ---------------------------------------------------------------------
 Center     Atomic      Atomic             Coordinates (Angstroms)
 Number     Number       Type             X           Y           Z
 ---------------------------------------------------------------------
      1          6           0        1.293515   -1.225553    0.048031
      2          7           0        0.588665   -0.003060   -0.359531
      3          6           0        1.290551    1.227682    0.027861
      4          6           0       -0.930300    0.001091    0.145558
      5          8           0       -1.254586    0.011501    1.318056
      6          7           0       -1.450257   -0.010379   -1.079461
      7          1           0        0.736144   -2.093498   -0.323694
      8          1           0        2.305478   -1.232105   -0.378290
      9          1           0        1.356736   -1.281648    1.145465
     10          1           0        1.354159    1.299651    1.124236
     11          1           0        2.301897    1.231025   -0.399781
     12          1           0        0.729462    2.088076   -0.355639
     13          1           0       -2.464550   -0.014334   -1.193963
     14          1           0       -0.174093   -0.014415   -1.418543
 ---------------------------------------------------------------------

 SCF Done:  E(RHF) =  -303.407178889     A.U. after    2 cycles

 The electronic state is 1-A.
 Alpha  occ. eigenvalues --  -21.03284 -15.76243 -15.72297 -11.50597 -11.41301
 Alpha  occ. eigenvalues --  -11.40904  -1.69949  -1.46840  -1.28507  -1.06150
 Alpha  occ. eigenvalues --   -0.95512  -0.76900  -0.71184  -0.65652  -0.63052
 Alpha  occ. eigenvalues --   -0.60561  -0.57255  -0.53827  -0.52908  -0.49400
 Alpha  occ. eigenvalues --   -0.45854  -0.38494  -0.30355  -0.27587
 Alpha virt. eigenvalues --    0.03301   0.05026   0.05210   0.06128   0.06221
 Alpha virt. eigenvalues --    0.06626   0.07245   0.07486   0.10764   0.12301
 Alpha virt. eigenvalues --    0.12976   0.14182   0.14453   0.14971   0.16242

 Mulliken charges:
               1
     1  C   -3.633603
     2  N   -2.358506
     3  C   -3.635038
     4  C    5.577220
     5  O   -2.951398
     6  N   -2.998451
     7  H    1.347111
     8  H    1.377049
     9  H    1.424194
    10  H    1.425383
    11  H    1.377227
    12  H    1.346732
    13  H    0.802805
    14  H    0.899274
 Sum of Mulliken charges =   0.00000

 Dipole moment (field-independent basis, Debye):
    X=              2.6887    Y=             -0.0108    Z=             -0.8699  Tot=              2.8259

 Test job not archived.
 1\1\GINC-SE229\SP\RHF\Aug-CC-pVDZ\C3H8N2O1\OHZDE\09-Apr-2025\0\\#t hf
 aug-cc-pvdz iop(5/13=1,5/36=2,99/5=2) pseudo=read geom=check guess=(re
 ad,tcheck) scf=(maxcycle=1)\\title\\0,1\C,0,-1.08571974,-0.93315825,0.
 52195818\N,0,-0.10710344,0.12903973,0.25464784\C,0,-0.68376647,1.28754
 888,-0.44015988\C,0,1.18337598,-0.43284675,-0.50780512\O,0,1.15511571,
 -0.91095659,-1.62612243\N,0,2.02390623,-0.15527729,0.48598633\H,0,-0.5
 9186835,-1.73230823,1.08732486\H,0,-1.92031269,-0.53129649,1.11172373\
 H,0,-1.46911619,-1.34553134,-0.42380132\H,0,-1.04668993,0.9912434,-1.4

 Normal termination of Gaussian 16 at Wed Apr  9 17:07:22 2025.
