 Gaussian 16, Revision C.01,

 ----------------------------------------------------------------------
 #t hf aug-cc-pvdz symm=none int=(grid=ultrafine) guess=(read,tcheck) s
 table=(opt,rrhf)
 ----------------------------------------------------------------------
 -----
 title
 -----
 Symbolic Z-matrix:
 Charge =  0 Multiplicity = 1

 SCF Done:  E(RHF) =  -307.773633299     A.U. after   15 cycles

 1\1\GINC-SE340\Stability\RHF\Aug-CC-pVDZ\C6H10O1\OHZDE\09-Apr-2025\0\\
 #t hf aug-cc-pvdz symm=none int=(grid=ultrafine) guess=(read,tcheck) s
 table=(opt,rrhf)\\title\\0,1\C,0,-2.52019762,0.45910421,-0.99042154\C,
 0,-1.42820077,-0.18108557,-0.24893231\C,0,-0.11443395,0.17423457,-0.77
 784652\C,0,1.09044052,-0.0804237,0.09141425\O,0,2.24169015,0.25142005,
 -0.63936107\C,0,1.1090387,-1.2242032,1.04421939\C,0,1.02625803,0.19890
 277,1.55625888\H,0,-3.44239522,-0.12249127,-0.99760298\H,0,-2.72837508
 ,1.31151262,-0.31883127\H,0,-2.29367741,0.87285118,-1.9836123\H,0,-0.0

 Normal termination of Gaussian 16 at Wed Apr  9 19:03:56 2025.
 Gaussian 16:  ES64L-G16RevC.01  3-Jul-2019

 ----------------------------------------------------------------------
 #t hf aug-cc-pvdz iop(5/13=1,5/36=2,99/5=2) pseudo=read geom=check gue
 ss=(read,tcheck) scf=(maxcycle=1)
 ----------------------------------------------------------------------
 -----
 title
 -----
 Structure from the checkpoint file:  "Grambow2020_wb97xd3_008045_reverse_mol2.chk"
 Charge =  0 Multiplicity = 1

                         Standard orientation:
 ---------------------------------------------------------------------
 Center     Atomic      Atomic             Coordinates (Angstroms)
 Number     Number       Type             X           Y           Z
 ---------------------------------------------------------------------
      1          6           0       -2.941192    0.007370    0.091049
      2          6           0       -1.586082   -0.453951   -0.229836
      3          6           0       -0.591112    0.605668   -0.091170
      4          6           0        0.859993    0.206565   -0.006326
      5          8           0        1.638380    1.373548    0.036027
      6          6           0        1.356231   -1.002082   -0.720002
      7          6           0        1.259426   -0.990004    0.791537
      8          1           0       -3.722879   -0.522097   -0.454280
      9          1           0       -3.022947   -0.359347    1.130186
     10          1           0       -3.123707    1.091437    0.111385
     11          1           0       -0.821706    1.370473    0.667231
     12          1           0       -0.757727    1.121183   -1.060734
     13          1           0        2.562593    1.134284    0.121732
     14          1           0        2.344407   -0.948580   -1.161233
     15          1           0        0.632153   -1.598598   -1.259912
     16          1           0        2.181315   -0.932970    1.358191
     17          1           0        0.477869   -1.585559    1.247711
 ---------------------------------------------------------------------

 SCF Done:  E(RHF) =  -309.233088485     A.U. after    2 cycles

 The electronic state is 1-A.
 Alpha  occ. eigenvalues --  -21.07206 -11.46195 -11.42606 -11.41362 -11.39598
 Alpha  occ. eigenvalues --  -11.37768 -11.36367  -1.72761  -1.29409  -1.18802
 Alpha  occ. eigenvalues --   -1.03082  -0.86812  -0.82944  -0.73136  -0.67183
 Alpha  occ. eigenvalues --   -0.63384  -0.61490  -0.57970  -0.55492  -0.54643
 Alpha  occ. eigenvalues --   -0.51336  -0.47523  -0.45390  -0.43592  -0.36762
 Alpha  occ. eigenvalues --   -0.31975  -0.28403
 Alpha virt. eigenvalues --    0.03885   0.05046   0.05361   0.05635   0.05799
 Alpha virt. eigenvalues --    0.06569   0.06848   0.06951   0.07400   0.08330
 Alpha virt. eigenvalues --    0.09832   0.10612   0.11526   0.13385   0.14284

 Mulliken charges:
               1
     1  C   -4.255003
     2  C   -0.206981
     3  C   -4.030846
     4  C    4.565758
     5  O   -3.679366
     6  C   -2.393793
     7  C   -2.582630
     8  H    1.296458
     9  H    1.239559
    10  H    1.217053
    11  H    1.427411
    12  H    1.424730
    13  H    0.713666
    14  H    1.142922
    15  H    1.503279
    16  H    1.157078
    17  H    1.460704
 Sum of Mulliken charges =  -0.00000

 Dipole moment (field-independent basis, Debye):
    X=             -0.4136    Y=              0.9504    Z=              0.5255  Tot=              1.1621

 Test job not archived.
 1\1\GINC-SE340\SP\RHF\Aug-CC-pVDZ\C6H10O1\OHZDE\09-Apr-2025\0\\#t hf a
 ug-cc-pvdz iop(5/13=1,5/36=2,99/5=2) pseudo=read geom=check guess=(rea
 d,tcheck) scf=(maxcycle=1)\\title\\0,1\C,0,-2.52019762,0.45910421,-0.9
 9042154\C,0,-1.42820077,-0.18108557,-0.24893231\C,0,-0.11443395,0.1742
 3457,-0.77784652\C,0,1.09044052,-0.0804237,0.09141425\O,0,2.24169015,0
 .25142005,-0.63936107\C,0,1.1090387,-1.2242032,1.04421939\C,0,1.026258
 03,0.19890277,1.55625888\H,0,-3.44239522,-0.12249127,-0.99760298\H,0,-
 2.72837508,1.31151262,-0.31883127\H,0,-2.29367741,0.87285118,-1.983612

 Normal termination of Gaussian 16 at Wed Apr  9 19:04:00 2025.
