 Gaussian 16, Revision C.01,

 ----------------------------------------------------------------------
 #t hf aug-cc-pvdz symm=none int=(grid=ultrafine) guess=(read,tcheck) s
 table=(opt,rrhf)
 ----------------------------------------------------------------------
 -----
 title
 -----
 Symbolic Z-matrix:
 Charge =  0 Multiplicity = 1

 SCF Done:  E(RHF) =  -322.691747247     A.U. after   15 cycles
 Normal termination of Gaussian 16 at Wed Apr  9 03:33:17 2025.
 Gaussian 16:  ES64L-G16RevC.01  3-Jul-2019

 ----------------------------------------------------------------------
 #t hf aug-cc-pvdz iop(5/13=1,5/36=2,99/5=2) pseudo=read geom=check gue
 ss=(read,tcheck) scf=(maxcycle=1)
 ----------------------------------------------------------------------
 -----
 title
 -----
 Structure from the checkpoint file:  "Grambow2020_wb97xd3_007024_reverse_mol2.chk"
 Charge =  0 Multiplicity = 1

                         Standard orientation:
 ---------------------------------------------------------------------
 Center     Atomic      Atomic             Coordinates (Angstroms)
 Number     Number       Type             X           Y           Z
 ---------------------------------------------------------------------
      1          6           0        1.919912   -1.329095    0.020706
      2          6           0        0.693109   -0.537596   -0.357367
      3          6           0       -0.297769   -0.038437    0.737160
      4          6           0       -1.750614   -0.089933    0.462931
      5          7           0       -2.205850   -0.502992   -0.641810
      6          6           0        0.573609    0.877247   -0.060161
      7          8           0        0.920063    2.000696   -0.225258
      8          1           0        1.660249   -2.373841    0.198026
      9          1           0        2.382557   -0.932401    0.926328
     10          1           0        2.662046   -1.289608   -0.777456
     11          1           0        0.156681   -0.855125   -1.249346
     12          1           0       -0.002005   -0.166171    1.774610
     13          1           0       -2.388968    0.280695    1.271880
     14          1           0       -3.219594   -0.441279   -0.668924
 ---------------------------------------------------------------------

 SCF Done:  E(RHF) =  -324.164229050     A.U. after    2 cycles

 The electronic state is 1-A.
 Alpha  occ. eigenvalues --  -21.07941 -15.74818 -11.51181 -11.47211 -11.44494
 Alpha  occ. eigenvalues --  -11.40920 -11.39113  -1.72329  -1.38866  -1.27809
 Alpha  occ. eigenvalues --   -1.07105  -0.94460  -0.80651  -0.73375  -0.70785
 Alpha  occ. eigenvalues --   -0.63838  -0.59610  -0.57751  -0.55366  -0.52771
 Alpha  occ. eigenvalues --   -0.50522  -0.46239  -0.44172  -0.40312  -0.38071
 Alpha  occ. eigenvalues --   -0.26299
 Alpha virt. eigenvalues --    0.03362   0.04755   0.05145   0.05332   0.06125
 Alpha virt. eigenvalues --    0.06692   0.08266   0.09742   0.10358   0.11421
 Alpha virt. eigenvalues --    0.12125   0.12517   0.13439   0.13857   0.14202

 Mulliken charges:
               1
     1  C   -4.409569
     2  C   -1.067460
     3  C   -1.270867
     4  C   -0.129420
     5  N   -3.040262
     6  C    4.407348
     7  O   -3.235586
     8  H    1.262096
     9  H    1.183694
    10  H    1.166836
    11  H    1.438660
    12  H    1.443288
    13  H    1.509595
    14  H    0.741646
 Sum of Mulliken charges =  -0.00000

 Dipole moment (field-independent basis, Debye):
    X=             -0.3909    Y=             -0.9727    Z=              1.4216  Tot=              1.7663

 Test job not archived.
 1\1\GINC-SE366\SP\RHF\Aug-CC-pVDZ\C5H7N1O1\OHZDE\09-Apr-2025\0\\#t hf
 aug-cc-pvdz iop(5/13=1,5/36=2,99/5=2) pseudo=read geom=check guess=(re
 ad,tcheck) scf=(maxcycle=1)\\title\\0,1\C,0,-1.91750375,0.79333762,-0.
 04891434\C,0,-0.67485306,0.01070952,-0.39208689\C,0,0.47592932,-0.1470
 4969,0.64704673\C,0,1.87715015,-0.07436798,0.17810178\N,0,2.16363635,0
 .08629041,-1.04272843\C,0,-0.39361907,-1.2801215,0.20712498\O,0,-0.652
 7181,-2.42921883,0.35500715\H,0,-1.73568688,1.86385305,-0.15522117\H,0
 ,-2.23555517,0.5998998,0.97723505\H,0,-2.73922543,0.51646122,-0.710350

 Normal termination of Gaussian 16 at Wed Apr  9 03:33:21 2025.
