 Gaussian 16, Revision C.01,

 ----------------------------------------------------------------------
 #t hf aug-cc-pvdz symm=none int=(grid=ultrafine) guess=(read,tcheck) s
 table=(opt,rrhf)
 ----------------------------------------------------------------------
 -----
 title
 -----
 Symbolic Z-matrix:
 Charge =  0 Multiplicity = 1

 SCF Done:  E(RHF) =  -322.738484383     A.U. after   13 cycles
 Normal termination of Gaussian 16 at Wed Apr  9 18:26:21 2025.
 Gaussian 16:  ES64L-G16RevC.01  3-Jul-2019

 ----------------------------------------------------------------------
 #t hf aug-cc-pvdz iop(5/13=1,5/36=2,99/5=2) pseudo=read geom=check gue
 ss=(read,tcheck) scf=(maxcycle=1)
 ----------------------------------------------------------------------
 -----
 title
 -----
 Structure from the checkpoint file:  "Grambow2020_wb97xd3_007119_reverse_mol2.chk"
 Charge =  0 Multiplicity = 1

                         Standard orientation:
 ---------------------------------------------------------------------
 Center     Atomic      Atomic             Coordinates (Angstroms)
 Number     Number       Type             X           Y           Z
 ---------------------------------------------------------------------
      1          7           0        2.299117    0.063195   -0.157497
      2          6           0        1.050397    0.019554    0.005979
      3          8           0        0.379439   -1.154571   -0.048720
      4          6           0       -1.025260   -1.232070    0.178790
      5          6           0       -1.771400    0.012335   -0.174073
      6          6           0        0.270334    1.284449    0.259722
      7          6           0       -1.166607    1.186603   -0.147121
      8          1           0        2.672375   -0.872364   -0.303158
      9          1           0       -1.192142   -1.495306    1.230778
     10          1           0       -1.365782   -2.074599   -0.424477
     11          1           0       -2.818296   -0.089594   -0.434427
     12          1           0        0.334690    1.511476    1.330521
     13          1           0        0.792550    2.091152   -0.251514
     14          1           0       -1.697506    2.098205   -0.395257
 ---------------------------------------------------------------------

 SCF Done:  E(RHF) =  -324.222087634     A.U. after    2 cycles

 The electronic state is 1-A.
 Alpha  occ. eigenvalues --  -21.08041 -15.70869 -11.49473 -11.46690 -11.44116
 Alpha  occ. eigenvalues --  -11.41188 -11.38226  -1.81084  -1.31413  -1.24415
 Alpha  occ. eigenvalues --   -1.08494  -0.95959  -0.84331  -0.70900  -0.70688
 Alpha  occ. eigenvalues --   -0.65995  -0.63402  -0.60124  -0.55936  -0.54157
 Alpha  occ. eigenvalues --   -0.48927  -0.47519  -0.40559  -0.36296  -0.35259
 Alpha  occ. eigenvalues --   -0.30260
 Alpha virt. eigenvalues --    0.03073   0.04890   0.05161   0.05365   0.06273
 Alpha virt. eigenvalues --    0.06758   0.07140   0.10097   0.11070   0.11776
 Alpha virt. eigenvalues --    0.12562   0.13222   0.14064   0.14261   0.15114

 Mulliken charges:
               1
     1  N   -3.622116
     2  C    4.980108
     3  O   -3.211556
     4  C   -2.327668
     5  C   -0.567534
     6  C   -3.639513
     7  C   -0.111091
     8  H    0.711404
     9  H    1.278451
    10  H    1.217647
    11  H    1.428060
    12  H    1.311676
    13  H    1.134710
    14  H    1.417420
 Sum of Mulliken charges =  -0.00000

 Dipole moment (field-independent basis, Debye):
    X=             -3.0773    Y=             -0.7368    Z=              0.3858  Tot=              3.1877

 Test job not archived.
 1\1\GINC-SE108\SP\RHF\Aug-CC-pVDZ\C5H7N1O1\OHZDE\09-Apr-2025\0\\#t hf
 aug-cc-pvdz iop(5/13=1,5/36=2,99/5=2) pseudo=read geom=check guess=(re
 ad,tcheck) scf=(maxcycle=1)\\title\\0,1\N,0,1.61982997,-1.89806911,-1.
 06484541\C,0,0.85401514,-0.9151645,-0.87680756\O,0,1.34504395,0.340718
 57,-0.76107921\C,0,0.49358434,1.47125218,-0.59417567\C,0,-0.80228338,1
 .16619129,0.08217003\C,0,-0.63566792,-1.11962244,-0.76778493\C,0,-1.32
 62619,-0.0445305,0.01141405\H,0,2.58737436,-1.58889341,-1.12870588\H,0
 ,0.31674647,1.92061558,-1.57937713\H,0,1.07805841,2.18498132,-0.012177

 Normal termination of Gaussian 16 at Wed Apr  9 18:26:26 2025.
