 Gaussian 16, Revision C.01,

 ----------------------------------------------------------------------
 #t hf aug-cc-pvdz symm=none int=(grid=ultrafine) guess=(read,tcheck) s
 table=(opt,rrhf)
 ----------------------------------------------------------------------
 -----
 title
 -----
 Symbolic Z-matrix:
 Charge =  0 Multiplicity = 1

 SCF Done:  E(RHF) =  -302.759816437     A.U. after   15 cycles
 Normal termination of Gaussian 16 at Wed Apr  9 19:22:06 2025.
 Gaussian 16:  ES64L-G16RevC.01  3-Jul-2019

 ----------------------------------------------------------------------
 #t hf aug-cc-pvdz iop(5/13=1,5/36=2,99/5=2) pseudo=read geom=check gue
 ss=(read,tcheck) scf=(maxcycle=1)
 ----------------------------------------------------------------------
 -----
 title
 -----
 Structure from the checkpoint file:  "Grambow2020_wb97xd3_008834_reverse_mol2.chk"
 Charge =  0 Multiplicity = 1

                         Standard orientation:
 ---------------------------------------------------------------------
 Center     Atomic      Atomic             Coordinates (Angstroms)
 Number     Number       Type             X           Y           Z
 ---------------------------------------------------------------------
      1          6           0       -0.556765    1.568245   -0.577192
      2          6           0       -0.764316    0.223604    0.016623
      3          6           0       -1.649789   -0.118318    1.080692
      4          6           0       -1.986942   -0.983171   -0.272928
      5          7           0       -0.760365   -0.933629   -0.740595
      6          6           0        2.594310   -0.646230   -0.197789
      7          7           0        2.306157    0.318742    0.563860
      8          1           0       -1.521279    1.989997   -0.881114
      9          1           0       -0.096701    2.232971    0.152446
     10          1           0        0.081605    1.493750   -1.455509
     11          1           0       -2.333008    0.617564    1.497647
     12          1           0       -1.321191   -0.878531    1.775997
     13          1           0        3.617516   -0.967505   -0.415752
     14          1           0        1.786265   -1.197944   -0.678543
     15          1           0        3.147259    0.749123    0.945534
 ---------------------------------------------------------------------

 SCF Done:  E(RHF) =  -304.192479927     A.U. after    2 cycles

 The electronic state is 1-A.
 Alpha  occ. eigenvalues --  -15.75598 -15.75354 -11.48710 -11.43376 -11.42273
 Alpha  occ. eigenvalues --  -11.40541 -11.39404  -1.52271  -1.33607  -1.11763
 Alpha  occ. eigenvalues --   -1.04989  -0.87996  -0.80650  -0.72875  -0.67798
 Alpha  occ. eigenvalues --   -0.65549  -0.60862  -0.58015  -0.57508  -0.54122
 Alpha  occ. eigenvalues --   -0.49141  -0.44967  -0.43564  -0.40541  -0.39555
 Alpha  occ. eigenvalues --   -0.30371
 Alpha virt. eigenvalues --    0.03532   0.04647   0.05201   0.05825   0.06134
 Alpha virt. eigenvalues --    0.06744   0.06957   0.08071   0.09605   0.10377
 Alpha virt. eigenvalues --    0.11168   0.12051   0.12144   0.13092   0.14111

 Mulliken charges:
               1
     1  C   -4.247685
     2  C    2.827581
     3  C   -2.962674
     4  C   -0.164324
     5  N   -2.095698
     6  C   -1.249018
     7  N   -2.451655
     8  H    1.055073
     9  H    1.270830
    10  H    1.303629
    11  H    1.532040
    12  H    1.401705
    13  H    1.389400
    14  H    1.648853
    15  H    0.741942
 Sum of Mulliken charges =   0.00000

 Dipole moment (field-independent basis, Debye):
    X=              3.0255    Y=              1.8413    Z=              1.3271  Tot=              3.7822

 Test job not archived.
 1\1\GINC-SE028\SP\RHF\Aug-CC-pVDZ\C5H8N2\OHZDE\09-Apr-2025\0\\#t hf au
 g-cc-pvdz iop(5/13=1,5/36=2,99/5=2) pseudo=read geom=check guess=(read
 ,tcheck) scf=(maxcycle=1)\\title\\0,1\C,0,-0.48379656,1.53811607,-0.35
 732136\C,0,0.68221089,0.62970325,-0.21961009\C,0,1.74275342,0.4452291,
 -1.15472212\C,0,2.31615362,0.93011938,0.30473859\N,0,1.32002638,0.4144
 5727,0.98846526\C,0,-1.16889396,-1.89808954,1.28592213\N,0,-1.47315943
 ,-1.60434526,0.09619516\H,0,-0.13608488,2.55376696,-0.57659785\H,0,-1.
 12565282,1.20303776,-1.17073015\H,0,-1.05233835,1.55873528,0.57049432\

 Normal termination of Gaussian 16 at Wed Apr  9 19:22:11 2025.
