 Gaussian 16, Revision C.01,

 ----------------------------------------------------------------------
 #t hf aug-cc-pvdz symm=none int=(grid=ultrafine) guess=(read,tcheck) s
 table=(opt,rrhf)
 ----------------------------------------------------------------------
 -----
 title
 -----
 Symbolic Z-matrix:
 Charge =  0 Multiplicity = 1

 SCF Done:  E(RHF) =  -373.404056388     A.U. after   15 cycles
 Normal termination of Gaussian 16 at Wed Apr  9 04:04:26 2025.
 Gaussian 16:  ES64L-G16RevC.01  3-Jul-2019

 ----------------------------------------------------------------------
 #t hf aug-cc-pvdz iop(5/13=1,5/36=2,99/5=2) pseudo=read geom=check gue
 ss=(read,tcheck) scf=(maxcycle=1)
 ----------------------------------------------------------------------
 -----
 title
 -----
 Structure from the checkpoint file:  "Grambow2020_wb97xd3_009224_reverse_mol2.chk"
 Charge =  0 Multiplicity = 1

                         Standard orientation:
 ---------------------------------------------------------------------
 Center     Atomic      Atomic             Coordinates (Angstroms)
 Number     Number       Type             X           Y           Z
 ---------------------------------------------------------------------
      1          7           0        1.509787   -0.504398    0.728048
      2          6           0        2.378336   -0.009265    0.056696
      3          8           0        3.280494    0.487490   -0.482404
      4          6           0       -2.162186   -0.630835   -0.216683
      5          8           0       -1.260287   -1.405863   -0.151677
      6          6           0       -1.911501    1.893117    0.167011
      7          7           0       -1.999409    0.736853   -0.003003
      8          1           0        0.635072   -0.890714    0.403564
      9          1           0       -3.197272   -0.907585   -0.448377
 ---------------------------------------------------------------------

 SCF Done:  E(RHF) =  -374.953027720     A.U. after    2 cycles

 The electronic state is 1-A.
 Alpha  occ. eigenvalues --  -21.13469 -21.11526 -15.82756 -15.76584 -11.58161
 Alpha  occ. eigenvalues --  -11.56229 -11.49382  -1.79950  -1.76421  -1.43917
 Alpha  occ. eigenvalues --   -1.34624  -1.02612  -0.81066  -0.78278  -0.63308
 Alpha  occ. eigenvalues --   -0.61296  -0.61116  -0.58459  -0.57144  -0.52178
 Alpha  occ. eigenvalues --   -0.50862  -0.45929  -0.39430  -0.36802  -0.33639
 Alpha virt. eigenvalues --    0.02331   0.05768   0.06253   0.07890   0.08180
 Alpha virt. eigenvalues --    0.09170   0.10162   0.10790   0.11410   0.11923
 Alpha virt. eigenvalues --    0.12444   0.13948   0.14139   0.14439   0.15544

 Mulliken charges:
               1
     1  N   -2.521655
     2  C    3.758714
     3  O   -2.182173
     4  C    2.267860
     5  O   -2.592273
     6  C   -0.501968
     7  N   -0.971116
     8  H    1.041077
     9  H    1.701533
 Sum of Mulliken charges =  -0.00000

 Dipole moment (field-independent basis, Debye):
    X=             -2.5880    Y=             -2.2053    Z=             -1.5896  Tot=              3.7534

 Test job not archived.
 1\1\GINC-SE070\SP\RHF\Aug-CC-pVDZ\C3H2N2O2\OHZDE\09-Apr-2025\0\\#t hf
 aug-cc-pvdz iop(5/13=1,5/36=2,99/5=2) pseudo=read geom=check guess=(re
 ad,tcheck) scf=(maxcycle=1)\\title\\0,1\N,0,-1.44041301,-1.32369732,-0
 .08732247\C,0,-1.65410662,-1.81832571,0.98967659\O,0,-1.98307455,-2.30
 127728,1.99457442\C,0,1.44369191,1.01232298,-0.87271609\O,0,1.15605187
 ,-0.1170314,-1.11795036\C,0,0.0788707,2.53296136,0.67819378\N,0,0.6841
 4621,1.81829898,-0.02641869\H,0,-0.54906785,-1.0195235,-0.45151976\H,0
 ,2.32184134,1.5270549,-1.27963043\\Version=ES64L-G16RevC.01\State=1-A\

 Normal termination of Gaussian 16 at Wed Apr  9 04:04:29 2025.
