 Gaussian 16, Revision C.01,

 ----------------------------------------------------------------------
 #t hf aug-cc-pvdz symm=none int=(grid=ultrafine) guess=(read,tcheck) s
 table=(opt,rrhf)
 ----------------------------------------------------------------------
 -----
 title
 -----
 Symbolic Z-matrix:
 Charge =  0 Multiplicity = 1

 SCF Done:  E(RHF) =  -307.815826239     A.U. after   15 cycles

 1\1\GINC-SE037\Stability\RHF\Aug-CC-pVDZ\C6H10O1\OHZDE\09-Apr-2025\0\\
 #t hf aug-cc-pvdz symm=none int=(grid=ultrafine) guess=(read,tcheck) s
 table=(opt,rrhf)\\title\\0,1\C,0,1.80683717,0.31402836,-0.37710767\C,0
 ,0.60755173,-0.5633738,-0.03568007\C,0,0.13934522,-0.36248933,1.418227
 72\C,0,-0.92043592,0.6572963,1.50518453\O,0,-1.46683401,-1.34300569,-0
 .89453361\C,0,-1.29635501,0.88272027,0.08647689\C,0,-0.6515403,-0.1821
 1984,-0.81432423\H,0,2.66721594,0.04559527,0.23843235\H,0,1.60005634,1
 .37313224,-0.19987094\H,0,2.09586003,0.1996468,-1.42353905\H,0,0.85057

 Normal termination of Gaussian 16 at Wed Apr  9 19:19:15 2025.
 Gaussian 16:  ES64L-G16RevC.01  3-Jul-2019

 ----------------------------------------------------------------------
 #t hf aug-cc-pvdz iop(5/13=1,5/36=2,99/5=2) pseudo=read geom=check gue
 ss=(read,tcheck) scf=(maxcycle=1)
 ----------------------------------------------------------------------
 -----
 title
 -----
 Structure from the checkpoint file:  "Grambow2020_wb97xd3_008619_reverse_mol2.chk"
 Charge =  0 Multiplicity = 1

                         Standard orientation:
 ---------------------------------------------------------------------
 Center     Atomic      Atomic             Coordinates (Angstroms)
 Number     Number       Type             X           Y           Z
 ---------------------------------------------------------------------
      1          6           0       -1.948871   -0.688535    0.442222
      2          6           0       -0.708315   -0.474403   -0.417931
      3          6           0       -0.568999    0.989398   -0.877599
      4          6           0        0.268645    1.766939    0.052156
      5          8           0        1.593139   -1.043014   -0.586820
      6          6           0        0.867565    0.726356    0.925852
      7          6           0        0.595365   -0.674076    0.355053
      8          1           0       -2.854463   -0.483093   -0.131271
      9          1           0       -1.960000   -0.026620    1.312634
     10          1           0       -2.007810   -1.717195    0.802806
     11          1           0       -0.728849   -1.165468   -1.262822
     12          1           0       -1.474833    1.490844   -1.222448
     13          1           0        0.135627    1.041609   -1.733457
     14          1           0        2.447501   -1.040590   -0.151572
     15          1           0        1.896708    0.924188    1.235728
     16          1           0        0.263854    0.891605    1.836881
     17          1           0        0.504818   -1.445243    1.129568
 ---------------------------------------------------------------------

 SCF Done:  E(RHF) =  -309.277795483     A.U. after    2 cycles

 The electronic state is 1-A.
 Alpha  occ. eigenvalues --  -21.07211 -11.47618 -11.43624 -11.40245 -11.39663
 Alpha  occ. eigenvalues --  -11.38352 -11.35312  -1.72545  -1.32485  -1.11042
 Alpha  occ. eigenvalues --   -1.03453  -0.95380  -0.80459  -0.74750  -0.66991
 Alpha  occ. eigenvalues --   -0.66453  -0.59730  -0.58910  -0.55937  -0.54318
 Alpha  occ. eigenvalues --   -0.47706  -0.46605  -0.44292  -0.43634  -0.40403
 Alpha  occ. eigenvalues --   -0.34417  -0.29240
 Alpha virt. eigenvalues --    0.03792   0.04934   0.05109   0.05294   0.05584
 Alpha virt. eigenvalues --    0.06138   0.06547   0.07226   0.07676   0.09121
 Alpha virt. eigenvalues --    0.09507   0.09911   0.12565   0.13271   0.14072

 Mulliken charges:
               1
     1  C   -3.728857
     2  C   -2.395354
     3  C   -2.843117
     4  C   -0.591494
     5  O   -3.309641
     6  C   -2.739919
     7  C    1.662349
     8  H    1.231621
     9  H    1.330014
    10  H    1.191777
    11  H    1.759438
    12  H    1.438349
    13  H    1.497313
    14  H    0.653544
    15  H    1.352542
    16  H    1.565210
    17  H    1.926225
 Sum of Mulliken charges =  -0.00000

 Dipole moment (field-independent basis, Debye):
    X=             -0.2980    Y=             -2.3053    Z=              0.3312  Tot=              2.3480

 Test job not archived.
 1\1\GINC-SE037\SP\RHF\Aug-CC-pVDZ\C6H10O1\OHZDE\09-Apr-2025\0\\#t hf a
 ug-cc-pvdz iop(5/13=1,5/36=2,99/5=2) pseudo=read geom=check guess=(rea
 d,tcheck) scf=(maxcycle=1)\\title\\0,1\C,0,1.80683717,0.31402836,-0.37
 710767\C,0,0.60755173,-0.5633738,-0.03568007\C,0,0.13934522,-0.3624893
 3,1.41822772\C,0,-0.92043592,0.6572963,1.50518453\O,0,-1.46683401,-1.3
 4300569,-0.89453361\C,0,-1.29635501,0.88272027,0.08647689\C,0,-0.65154
 03,-0.18211984,-0.81432423\H,0,2.66721594,0.04559527,0.23843235\H,0,1.
 60005634,1.37313224,-0.19987094\H,0,2.09586003,0.1996468,-1.42353905\H

 Normal termination of Gaussian 16 at Wed Apr  9 19:19:21 2025.
