 Gaussian 16, Revision C.01,

 ----------------------------------------------------------------------
 #t hf aug-cc-pvdz symm=none int=(grid=ultrafine) guess=(read,tcheck) s
 table=(opt,rrhf)
 ----------------------------------------------------------------------
 -----
 title
 -----
 Symbolic Z-matrix:
 Charge =  0 Multiplicity = 1

 SCF Done:  E(RHF) =  -305.679450452     A.U. after   15 cycles
 Normal termination of Gaussian 16 at Wed Apr  9 17:19:24 2025.
 Gaussian 16:  ES64L-G16RevC.01  3-Jul-2019

 ----------------------------------------------------------------------
 #t hf aug-cc-pvdz iop(5/13=1,5/36=2,99/5=2) pseudo=read geom=check gue
 ss=(read,tcheck) scf=(maxcycle=1)
 ----------------------------------------------------------------------
 -----
 title
 -----
 Structure from the checkpoint file:  "Grambow2020_b97d3_007096_forward_mol1.chk"
 Charge =  0 Multiplicity = 1

                         Standard orientation:
 ---------------------------------------------------------------------
 Center     Atomic      Atomic             Coordinates (Angstroms)
 Number     Number       Type             X           Y           Z
 ---------------------------------------------------------------------
      1          6           0        0.723611    1.445462   -0.256035
      2          6           0        0.788117   -0.020134    0.115562
      3          6           0        2.063294   -0.669075    0.044460
      4          8           0       -0.262144   -0.883841   -0.289863
      5          6           0       -1.585855   -0.551031   -0.142714
      6          8           0       -2.059528    0.473888    0.281577
      7          1           0        1.549907    1.973722    0.234101
      8          1           0        0.866161    1.506031   -1.344299
      9          1           0       -0.226694    1.896684    0.029229
     10          1           0        0.230280    0.166205    1.632422
     11          1           0        2.127392   -1.743957    0.181295
     12          1           0        1.293644   -0.268415    1.267414
     13          1           0        2.959939   -0.059592    0.002113
     14          1           0       -2.162250   -1.422381   -0.503630
 ---------------------------------------------------------------------

 SCF Done:  E(RHF) =  -307.095302458     A.U. after    2 cycles

 The electronic state is 1-A.
 Alpha  occ. eigenvalues --  -21.12442 -21.08122 -11.55540 -11.53064 -11.40437
 Alpha  occ. eigenvalues --  -11.37155  -1.85696  -1.69336  -1.23712  -1.03409
 Alpha  occ. eigenvalues --   -0.91047  -0.79340  -0.71900  -0.66856  -0.62838
 Alpha  occ. eigenvalues --   -0.58848  -0.56257  -0.55253  -0.52231  -0.50792
 Alpha  occ. eigenvalues --   -0.43904  -0.35675  -0.33281  -0.27167
 Alpha virt. eigenvalues --    0.03795   0.05172   0.05610   0.05745   0.05922
 Alpha virt. eigenvalues --    0.06042   0.08076   0.08624   0.09837   0.11211
 Alpha virt. eigenvalues --    0.12182   0.12365   0.13655   0.14803   0.15150

 Mulliken charges:
               1
     1  C   -3.899421
     2  C    1.450514
     3  C   -3.485382
     4  O   -3.334307
     5  C    2.227301
     6  O   -2.451600
     7  H    1.160581
     8  H    1.223203
     9  H    1.358048
    10  H   -0.354807
    11  H    1.313757
    12  H    1.689292
    13  H    1.422109
    14  H    1.680712
 Sum of Mulliken charges =   0.00000

 Dipole moment (field-independent basis, Debye):
    X=              0.6055    Y=             -0.1675    Z=             -0.9628  Tot=              1.1497

 Test job not archived.
 1\1\GINC-SE103\SP\RHF\Aug-CC-pVDZ\C4H8O2\OHZDE\09-Apr-2025\0\\#t hf au
 g-cc-pvdz iop(5/13=1,5/36=2,99/5=2) pseudo=read geom=check guess=(read
 ,tcheck) scf=(maxcycle=1)\\title\\0,1\C,0,-0.19492479,1.37028792,0.033
 83646\C,0,-0.33308411,-0.1355594,0.09345612\C,0,-1.54639015,-0.6714863
 2,0.63468187\O,0,0.79269721,-0.92013035,0.45466728\C,0,2.03777798,-0.7
 114094,-0.08462432\O,0,2.38413947,0.13895767,-0.86677342\H,0,-1.120660
 69,1.79703265,-0.36984445\H,0,-0.06977326,1.72114485,1.06802394\H,0,0.
 65323899,1.67772713,-0.57784644\H,0,-0.16182022,-0.38362926,-1.5052613

 Normal termination of Gaussian 16 at Wed Apr  9 17:19:28 2025.
