 Gaussian 16, Revision C.01,

 ----------------------------------------------------------------------
 #t hf aug-cc-pvdz symm=none int=(grid=ultrafine) guess=(read,tcheck) s
 table=(opt,rrhf)
 ----------------------------------------------------------------------
 -----
 title
 -----
 Symbolic Z-matrix:
 Charge =  0 Multiplicity = 1

 SCF Done:  E(RHF) =  -339.132887518     A.U. after   17 cycles
 Normal termination of Gaussian 16 at Wed Apr  9 16:29:40 2025.
 Gaussian 16:  ES64L-G16RevC.01  3-Jul-2019

 ----------------------------------------------------------------------
 #t hf aug-cc-pvdz iop(5/13=1,5/36=2,99/5=2) pseudo=read geom=check gue
 ss=(read,tcheck) scf=(maxcycle=1)
 ----------------------------------------------------------------------
 -----
 title
 -----
 Structure from the checkpoint file:  "Grambow2020_b97d3_006820_reverse_mol2.chk"
 Charge =  0 Multiplicity = 1

                         Standard orientation:
 ---------------------------------------------------------------------
 Center     Atomic      Atomic             Coordinates (Angstroms)
 Number     Number       Type             X           Y           Z
 ---------------------------------------------------------------------
      1          8           0        1.918971   -0.501177   -0.614794
      2          6           0        1.489006    0.438758   -0.007672
      3          6           0       -2.083537    0.772814   -0.651832
      4          8           0        0.288501    0.563211    0.655019
      5          6           0       -1.631251   -0.372983   -0.119342
      6          8           0       -0.496241   -0.714904    0.554044
      7          1           0        1.972362    1.422549    0.161361
      8          1           0       -2.307519   -1.231122   -0.242443
 ---------------------------------------------------------------------

 SCF Done:  E(RHF) =  -340.510668519     A.U. after    2 cycles

 The electronic state is 1-A.
 Alpha  occ. eigenvalues --  -21.18702 -21.18389 -21.10256 -11.54891 -11.47256
 Alpha  occ. eigenvalues --  -11.45017  -2.00888  -1.74581  -1.56476  -1.09632
 Alpha  occ. eigenvalues --   -0.89704  -0.75328  -0.70541  -0.65731  -0.57743
 Alpha  occ. eigenvalues --   -0.56385  -0.52713  -0.47991  -0.42308  -0.37264
 Alpha  occ. eigenvalues --   -0.34106  -0.32350
 Alpha virt. eigenvalues --    0.02895   0.04527   0.05326   0.08365   0.09772
 Alpha virt. eigenvalues --    0.09982   0.10961   0.11767   0.12619   0.13100
 Alpha virt. eigenvalues --    0.14366   0.14992   0.15499   0.16162   0.17500

 Mulliken charges:
               1
     1  O   -2.324594
     2  C    2.297494
     3  C   -1.771884
     4  O   -1.386516
     5  C    1.840302
     6  O   -1.889456
     7  H    1.517618
     8  H    1.717034
 Sum of Mulliken charges =   0.00000

 Dipole moment (field-independent basis, Debye):
    X=              0.6607    Y=             -1.3349    Z=              1.2768  Tot=              1.9618

 Test job not archived.
 1\1\GINC-SE129\SP\RHF\Aug-CC-pVDZ\C3H2O3\OHZDE\09-Apr-2025\0\\#t hf au
 g-cc-pvdz iop(5/13=1,5/36=2,99/5=2) pseudo=read geom=check guess=(read
 ,tcheck) scf=(maxcycle=1)\\title\\0,1\O,0,-2.13292146,0.26019774,0.109
 87042\C,0,-1.20554486,0.91565689,0.49365522\C,0,1.72917038,-1.21784241
 ,0.84752855\O,0,0.11731039,0.84343358,0.11855573\C,0,1.1414117,-1.1283
 5335,-0.3555885\O,0,0.30363871,-0.21842733,-0.92897892\H,0,-1.211037,1
 .73792189,1.23790019\H,0,1.37360613,-1.95756801,-1.03924369\\Version=E
 S64L-G16RevC.01\State=1-A\HF=-340.5106685\RMSD=1.610e-01\Dipole=-0.216

 Normal termination of Gaussian 16 at Wed Apr  9 16:29:43 2025.
