 Gaussian 16, Revision C.01,

 ----------------------------------------------------------------------
 #t hf aug-cc-pvdz symm=none int=(grid=ultrafine) guess=(read,tcheck) s
 table=(opt,rrhf)
 ----------------------------------------------------------------------
 -----
 title
 -----
 Symbolic Z-matrix:
 Charge =  0 Multiplicity = 1

 SCF Done:  E(RHF) =  -184.502832619     A.U. after   15 cycles
 Normal termination of Gaussian 16 at Wed Apr  9 16:29:36 2025.
 Gaussian 16:  ES64L-G16RevC.01  3-Jul-2019

 ----------------------------------------------------------------------
 #t hf aug-cc-pvdz iop(5/13=1,5/36=2,99/5=2) pseudo=read geom=check gue
 ss=(read,tcheck) scf=(maxcycle=1)
 ----------------------------------------------------------------------
 -----
 title
 -----
 Structure from the checkpoint file:  "Grambow2020_b97d3_006824_forward_mol1.chk"
 Charge =  0 Multiplicity = 1

                         Standard orientation:
 ---------------------------------------------------------------------
 Center     Atomic      Atomic             Coordinates (Angstroms)
 Number     Number       Type             X           Y           Z
 ---------------------------------------------------------------------
      1          7           0       -1.070743   -0.579384   -0.000020
      2          6           0       -1.002320    0.643049   -0.000068
      3          6           0        0.409859    0.112227    0.000202
      4          7           0        1.578567   -0.067995   -0.000095
 ---------------------------------------------------------------------

 SCF Done:  E(RHF) =  -185.286595837     A.U. after    2 cycles

 The electronic state is 1-A.
 Alpha  occ. eigenvalues --  -15.90037 -15.82757 -11.53010 -11.50124  -1.53404
 Alpha  occ. eigenvalues --   -1.31168  -0.83522  -0.72120  -0.61782  -0.56984
 Alpha  occ. eigenvalues --   -0.55336  -0.44445  -0.44425
 Alpha virt. eigenvalues --    0.04405   0.06554   0.08118   0.08784   0.09819
 Alpha virt. eigenvalues --    0.11455   0.12640   0.13355   0.13823   0.15435
 Alpha virt. eigenvalues --    0.17948   0.20572   0.22101   0.22302   0.23430

 Mulliken charges:
               1
     1  N   -0.889364
     2  C    0.179006
     3  C    2.784431
     4  N   -2.074072
 Sum of Mulliken charges =  -0.00000

 Dipole moment (field-independent basis, Debye):
    X=             -1.5245    Y=             -0.3849    Z=              0.0002  Tot=              1.5724

 Test job not archived.
 1\1\GINC-SE113\SP\RHF\Aug-CC-pVDZ\C2N2\OHZDE\09-Apr-2025\0\\#t hf aug-
 cc-pvdz iop(5/13=1,5/36=2,99/5=2) pseudo=read geom=check guess=(read,t
 check) scf=(maxcycle=1)\\title\\0,1\N,0,-1.10354476,0.01220571,-0.4827
 0026\C,0,-0.90497087,0.07448946,0.72382902\C,0,0.43352892,0.20043011,0
 .03930043\N,0,1.56896071,0.31682372,-0.26989919\\Version=ES64L-G16RevC
 .01\State=1-A\HF=-185.2865958\RMSD=1.942e-01\Dipole=-0.6088597,-0.0706
 266,-0.0835991\Quadrupole=-0.6306047,0.9300043,-0.2993996,-0.1465118,0
 .8688176,0.0552233\PG=C01 [X(C2N2)]\\@

 Normal termination of Gaussian 16 at Wed Apr  9 16:29:38 2025.
