 Gaussian 16, Revision C.01,

 ----------------------------------------------------------------------
 #t hf aug-cc-pvdz symm=none int=(grid=ultrafine) guess=(read,tcheck) s
 table=(opt,rrhf)
 ----------------------------------------------------------------------
 -----
 title
 -----
 Symbolic Z-matrix:
 Charge =  0 Multiplicity = 1

 SCF Done:  E(RHF) =  -394.373974480     A.U. after   15 cycles
 Normal termination of Gaussian 16 at Wed Apr  9 18:30:26 2025.
 Gaussian 16:  ES64L-G16RevC.01  3-Jul-2019

 ----------------------------------------------------------------------
 #t hf aug-cc-pvdz iop(5/13=1,5/36=2,99/5=2) pseudo=read geom=check gue
 ss=(read,tcheck) scf=(maxcycle=1)
 ----------------------------------------------------------------------
 -----
 title
 -----
 Structure from the checkpoint file:  "Grambow2020_wb97xd3_007205_reverse_mol2.chk"
 Charge =  0 Multiplicity = 1

                         Standard orientation:
 ---------------------------------------------------------------------
 Center     Atomic      Atomic             Coordinates (Angstroms)
 Number     Number       Type             X           Y           Z
 ---------------------------------------------------------------------
      1          7           0       -1.282442    1.110666   -0.332095
      2          6           0       -1.693439   -0.106978    0.068828
      3          8           0       -2.543771   -0.929210   -0.028983
      4          6           0        1.961311    0.086764    0.218616
      5          8           0        2.928122   -0.362265   -0.296559
      6          6           0       -0.352799    0.333574    0.502386
      7          8           0        0.712339   -0.302801   -0.129833
      8          1           0       -1.149774    1.486353   -1.260617
      9          1           0        1.969892    0.843684    1.022076
     10          1           0       -0.106977    0.769341    1.467224
 ---------------------------------------------------------------------

 SCF Done:  E(RHF) =  -396.010209527     A.U. after    2 cycles

 The electronic state is 1-A.
 Alpha  occ. eigenvalues --  -21.13958 -21.08900 -21.08463 -15.80661 -11.57070
 Alpha  occ. eigenvalues --  -11.54097 -11.52298  -1.89519  -1.74576  -1.70491
 Alpha  occ. eigenvalues --   -1.47791  -1.00727  -0.90457  -0.86365  -0.73885
 Alpha  occ. eigenvalues --   -0.66939  -0.64235  -0.58545  -0.56093  -0.55171
 Alpha  occ. eigenvalues --   -0.51191  -0.46902  -0.39404  -0.35266  -0.34050
 Alpha  occ. eigenvalues --   -0.29524
 Alpha virt. eigenvalues --    0.03006   0.04372   0.05394   0.08431   0.09172
 Alpha virt. eigenvalues --    0.09655   0.10818   0.11566   0.11921   0.12673
 Alpha virt. eigenvalues --    0.13735   0.14264   0.15250   0.16293   0.16811

 Mulliken charges:
               1
     1  N   -2.196876
     2  C    4.031998
     3  O   -2.912143
     4  C    2.508979
     5  O   -2.630596
     6  C    0.859434
     7  O   -3.243779
     8  H    0.709365
     9  H    1.293939
    10  H    1.579682
 Sum of Mulliken charges =   0.00000

 Dipole moment (field-independent basis, Debye):
    X=              0.2268    Y=              1.8288    Z=              0.1278  Tot=              1.8473

 Test job not archived.
 1\1\GINC-SE029\SP\RHF\Aug-CC-pVDZ\C3H3N1O3\OHZDE\09-Apr-2025\0\\#t hf
 aug-cc-pvdz iop(5/13=1,5/36=2,99/5=2) pseudo=read geom=check guess=(re
 ad,tcheck) scf=(maxcycle=1)\\title\\0,1\N,0,-1.22266469,0.92891257,-0.
 52865309\C,0,-0.52725097,0.53600157,-1.61232054\O,0,-0.23940454,0.7992
 9168,-2.73326713\C,0,1.07102062,-0.74274193,1.42536233\O,0,2.05837703,
 -0.61936066,2.06696855\C,0,-0.34945716,-0.24473962,-0.37207604\O,0,0.8
 7304655,-0.0650412,0.27009735\H,0,-1.21542673,1.80523986,-0.02576856\H
 ,0,0.23085195,-1.41013698,1.68468768\H,0,-0.85118705,-1.1779063,-0.129

 Normal termination of Gaussian 16 at Wed Apr  9 18:30:29 2025.
