 Gaussian 16, Revision C.01,

 ----------------------------------------------------------------------
 #t hf aug-cc-pvdz symm=none int=(grid=ultrafine) guess=(read,tcheck) s
 table=(opt,rrhf)
 ----------------------------------------------------------------------
 -----
 title
 -----
 Symbolic Z-matrix:
 Charge =  0 Multiplicity = 1

 SCF Done:  E(RHF) =  -307.732349471     A.U. after   14 cycles

 1\1\GINC-SE419\Stability\RHF\Aug-CC-pVDZ\C6H10O1\OHZDE\09-Apr-2025\0\\
 #t hf aug-cc-pvdz symm=none int=(grid=ultrafine) guess=(read,tcheck) s
 table=(opt,rrhf)\\title\\0,1\C,0,1.89396426,-0.25744208,-0.04099477\C,
 0,0.74683848,0.28075411,0.53382303\C,0,-0.05619104,-0.66268583,1.18677
 656\C,0,-1.01153615,-0.99409108,0.22591885\C,0,-1.33182786,0.22994341,
 -0.61709941\C,0,-0.1453768,1.17375349,-0.31170785\O,0,-0.53050317,2.35
 857804,0.35571751\H,0,2.46482699,0.30321731,-0.77433865\H,0,1.02339022
 ,-1.19092417,-0.83958878\H,0,2.46078578,-1.0089365,0.50403147\H,0,0.33

 Normal termination of Gaussian 16 at Wed Apr  9 18:52:48 2025.
 Gaussian 16:  ES64L-G16RevC.01  3-Jul-2019

 ----------------------------------------------------------------------
 #t hf aug-cc-pvdz iop(5/13=1,5/36=2,99/5=2) pseudo=read geom=check gue
 ss=(read,tcheck) scf=(maxcycle=1)
 ----------------------------------------------------------------------
 -----
 title
 -----
 Structure from the checkpoint file:  "Grambow2020_wb97xd3_007744_forward_mol1.chk"
 Charge =  0 Multiplicity = 1

                         Standard orientation:
 ---------------------------------------------------------------------
 Center     Atomic      Atomic             Coordinates (Angstroms)
 Number     Number       Type             X           Y           Z
 ---------------------------------------------------------------------
      1          6           0        1.541145   -1.271864    0.374459
      2          6           0        0.507413   -0.664460   -0.331536
      3          6           0        0.881094    0.521796   -0.975307
      4          6           0        0.495155    1.513935   -0.073935
      5          6           0       -0.773145    1.083104    0.645320
      6          6           0       -0.822003   -0.437591    0.368179
      7          8           0       -1.931196   -0.827958   -0.415972
      8          1           0        1.335331   -2.045001    1.107886
      9          1           0        1.709662   -0.002735    1.166895
     10          1           0        2.535850   -1.309193   -0.064008
     11          1           0        1.765699    0.607671   -1.594916
     12          1           0        0.734040    2.566592   -0.187767
     13          1           0        1.474545    0.984535    0.960920
     14          1           0       -0.758283    1.323466    1.708180
     15          1           0       -1.651047    1.567005    0.212256
     16          1           0       -0.897849   -1.016494    1.288593
     17          1           0       -1.776342   -0.521710   -1.313350
 ---------------------------------------------------------------------

 SCF Done:  E(RHF) =  -309.261668494     A.U. after    2 cycles

 The electronic state is 1-A.
 Alpha  occ. eigenvalues --  -21.06344 -11.51071 -11.44273 -11.43052 -11.41181
 Alpha  occ. eigenvalues --  -11.39816 -11.36466  -1.71696  -1.36390  -1.10914
 Alpha  occ. eigenvalues --   -1.02956  -0.93996  -0.81782  -0.76583  -0.68208
 Alpha  occ. eigenvalues --   -0.67999  -0.61560  -0.57607  -0.56884  -0.53596
 Alpha  occ. eigenvalues --   -0.49545  -0.48852  -0.46439  -0.40116  -0.35462
 Alpha  occ. eigenvalues --   -0.31310  -0.30087
 Alpha virt. eigenvalues --    0.04184   0.04852   0.04969   0.05577   0.05769
 Alpha virt. eigenvalues --    0.06171   0.06682   0.07657   0.08387   0.09203
 Alpha virt. eigenvalues --    0.09839   0.11324   0.12300   0.13542   0.14226

 Mulliken charges:
               1
     1  C   -3.251558
     2  C   -0.521638
     3  C   -0.851226
     4  C   -1.640502
     5  C   -3.735835
     6  C    2.000699
     7  O   -3.471195
     8  H    1.302070
     9  H    0.819588
    10  H    1.216467
    11  H    1.477573
    12  H    1.408126
    13  H    0.303848
    14  H    1.247434
    15  H    1.240700
    16  H    1.704582
    17  H    0.750867
 Sum of Mulliken charges =   0.00000

 Dipole moment (field-independent basis, Debye):
    X=              0.8405    Y=              0.5163    Z=              0.1765  Tot=              1.0021

 Test job not archived.
 1\1\GINC-SE419\SP\RHF\Aug-CC-pVDZ\C6H10O1\OHZDE\09-Apr-2025\0\\#t hf a
 ug-cc-pvdz iop(5/13=1,5/36=2,99/5=2) pseudo=read geom=check guess=(rea
 d,tcheck) scf=(maxcycle=1)\\title\\0,1\C,0,1.89396426,-0.25744208,-0.0
 4099477\C,0,0.74683848,0.28075411,0.53382303\C,0,-0.05619104,-0.662685
 83,1.18677656\C,0,-1.01153615,-0.99409108,0.22591885\C,0,-1.33182786,0
 .22994341,-0.61709941\C,0,-0.1453768,1.17375349,-0.31170785\O,0,-0.530
 50317,2.35857804,0.35571751\H,0,2.46482699,0.30321731,-0.77433865\H,0,
 1.02339022,-1.19092417,-0.83958878\H,0,2.46078578,-1.0089365,0.5040314

 Normal termination of Gaussian 16 at Wed Apr  9 18:52:53 2025.
