 Gaussian 16, Revision C.01,

 ----------------------------------------------------------------------
 #t hf aug-cc-pvdz symm=none int=(grid=ultrafine) guess=(read,tcheck) s
 table=(opt,rrhf)
 ----------------------------------------------------------------------
 -----
 title
 -----
 Symbolic Z-matrix:
 Charge =  0 Multiplicity = 1

 SCF Done:  E(RHF) =  -344.669616748     A.U. after   16 cycles

 1\1\GINC-SE105\Stability\RHF\Aug-CC-pVDZ\C5H10O2\OHZDE\09-Apr-2025\0\\
 #t hf aug-cc-pvdz symm=none int=(grid=ultrafine) guess=(read,tcheck) s
 table=(opt,rrhf)\\title\\0,1\O,0,2.72433048,-0.28788969,-0.43880577\C,
 0,1.56271145,-0.92008282,-0.03814907\C,0,0.92729736,-0.44095528,1.0762
 0576\C,0,-0.77654714,0.94257775,0.63050012\C,0,-1.09270696,0.98419554,
 -0.71323258\O,0,-2.21194624,0.14798159,-0.6547114\C,0,-2.03866354,0.12
 142483,0.7859807\H,0,2.9212889,-0.52814462,-1.34531583\H,0,1.45395174,
 -1.95989929,-0.33465408\H,0,0.57884202,-0.47708566,-1.20046518\H,0,1.4

 Normal termination of Gaussian 16 at Wed Apr  9 18:42:04 2025.
 Gaussian 16:  ES64L-G16RevC.01  3-Jul-2019

 ----------------------------------------------------------------------
 #t hf aug-cc-pvdz iop(5/13=1,5/36=2,99/5=2) pseudo=read geom=check gue
 ss=(read,tcheck) scf=(maxcycle=1)
 ----------------------------------------------------------------------
 -----
 title
 -----
 Structure from the checkpoint file:  "Grambow2020_wb97xd3_007547_forward_mol1.chk"
 Charge =  0 Multiplicity = 1

                         Standard orientation:
 ---------------------------------------------------------------------
 Center     Atomic      Atomic             Coordinates (Angstroms)
 Number     Number       Type             X           Y           Z
 ---------------------------------------------------------------------
      1          8           0       -2.812703   -0.443262    0.243863
      2          6           0       -1.819311    0.117413   -0.536116
      3          6           0       -1.041802    1.094426    0.026047
      4          6           0        0.922258    0.358033    0.810967
      5          6           0        1.182463   -0.950672    0.454747
      6          8           0        2.071758   -0.673675   -0.588230
      7          6           0        1.957851    0.727935   -0.229285
      8          1           0       -3.099142   -1.268569   -0.149959
      9          1           0       -1.973911    0.081653   -1.611189
     10          1           0       -0.807993   -1.100428   -0.632670
     11          1           0       -1.304996    1.438470    1.016191
     12          1           0       -0.556126    1.805543   -0.626320
     13          1           0        0.743631    0.786758    1.781998
     14          1           0       -0.107742   -1.434875   -0.282663
     15          1           0        1.259304   -1.882345    1.001129
     16          1           0        2.904426    1.084444    0.182531
     17          1           0        1.661360    1.342039   -1.082271
 ---------------------------------------------------------------------

 SCF Done:  E(RHF) =  -346.315491813     A.U. after    2 cycles

 The electronic state is 1-A.
 Alpha  occ. eigenvalues --  -21.08781 -21.04939 -11.46778 -11.45165 -11.44924
 Alpha  occ. eigenvalues --  -11.38282 -11.37863  -1.78820  -1.73300  -1.13995
 Alpha  occ. eigenvalues --   -1.07898  -0.98187  -0.83534  -0.77164  -0.70024
 Alpha  occ. eigenvalues --   -0.69657  -0.67263  -0.61802  -0.55755  -0.54192
 Alpha  occ. eigenvalues --   -0.52081  -0.47906  -0.45031  -0.40516  -0.38858
 Alpha  occ. eigenvalues --   -0.35162  -0.33257  -0.22846
 Alpha virt. eigenvalues --    0.03990   0.04918   0.05091   0.05478   0.06011
 Alpha virt. eigenvalues --    0.06149   0.06913   0.07314   0.08558   0.10270
 Alpha virt. eigenvalues --    0.11205   0.11627   0.12927   0.13352   0.14451

 Mulliken charges:
               1
     1  O   -3.044524
     2  C    0.751064
     3  C   -3.612160
     4  C   -2.790500
     5  C    0.852596
     6  O   -2.829846
     7  C   -1.206512
     8  H    0.825523
     9  H    1.465746
    10  H    0.471935
    11  H    1.376116
    12  H    1.427396
    13  H    1.151124
    14  H    0.882050
    15  H    1.322667
    16  H    1.443018
    17  H    1.514307
 Sum of Mulliken charges =   0.00000

 Dipole moment (field-independent basis, Debye):
    X=             -0.1389    Y=              0.1330    Z=              0.1937  Tot=              0.2729

 Test job not archived.
 1\1\GINC-SE105\SP\RHF\Aug-CC-pVDZ\C5H10O2\OHZDE\09-Apr-2025\0\\#t hf a
 ug-cc-pvdz iop(5/13=1,5/36=2,99/5=2) pseudo=read geom=check guess=(rea
 d,tcheck) scf=(maxcycle=1)\\title\\0,1\O,0,2.72433048,-0.28788969,-0.4
 3880577\C,0,1.56271145,-0.92008282,-0.03814907\C,0,0.92729736,-0.44095
 528,1.07620576\C,0,-0.77654714,0.94257775,0.63050012\C,0,-1.09270696,0
 .98419554,-0.71323258\O,0,-2.21194624,0.14798159,-0.6547114\C,0,-2.038
 66354,0.12142483,0.7859807\H,0,2.9212889,-0.52814462,-1.34531583\H,0,1
 .45395174,-1.95989929,-0.33465408\H,0,0.57884202,-0.47708566,-1.200465

 Normal termination of Gaussian 16 at Wed Apr  9 18:42:10 2025.
