 Gaussian 16, Revision C.01,

 ----------------------------------------------------------------------
 #t hf aug-cc-pvdz symm=none int=(grid=ultrafine) guess=(read,tcheck) s
 table=(opt,rrhf)
 ----------------------------------------------------------------------
 -----
 title
 -----
 Symbolic Z-matrix:
 Charge =  0 Multiplicity = 1

 SCF Done:  E(RHF) =  -302.768251979     A.U. after   15 cycles
 Normal termination of Gaussian 16 at Wed Apr  9 18:32:30 2025.
 Gaussian 16:  ES64L-G16RevC.01  3-Jul-2019

 ----------------------------------------------------------------------
 #t hf aug-cc-pvdz iop(5/13=1,5/36=2,99/5=2) pseudo=read geom=check gue
 ss=(read,tcheck) scf=(maxcycle=1)
 ----------------------------------------------------------------------
 -----
 title
 -----
 Structure from the checkpoint file:  "Grambow2020_wb97xd3_007243_reverse_mol1.chk"
 Charge =  0 Multiplicity = 1

                         Standard orientation:
 ---------------------------------------------------------------------
 Center     Atomic      Atomic             Coordinates (Angstroms)
 Number     Number       Type             X           Y           Z
 ---------------------------------------------------------------------
      1          6           0       -2.443441   -0.508420    0.171292
      2          7           0       -1.087601   -0.100988   -0.174672
      3          6           0       -0.596386    1.190474   -0.042969
      4          7           0        0.685585    1.196852    0.060148
      5          6           0        1.101643   -0.125165    0.010142
      6          6           0        2.559283   -0.436527    0.063950
      7          6           0        0.094799   -1.066324   -0.043225
      8          1           0       -2.581680   -1.534955   -0.160882
      9          1           0       -2.567776   -0.468738    1.251972
     10          1           0       -3.169401    0.145370   -0.311896
     11          1           0       -1.246256    2.054490   -0.061987
     12          1           0        3.090211    0.030708   -0.767486
     13          1           0        2.999417   -0.057238    0.988542
     14          1           0        2.712687   -1.513591    0.020544
     15          1           0       -0.718473   -0.651320   -1.112280
 ---------------------------------------------------------------------

 SCF Done:  E(RHF) =  -304.226762009     A.U. after    2 cycles

 The electronic state is 1-A.
 Alpha  occ. eigenvalues --  -15.81796 -15.74379 -11.43865 -11.43453 -11.41322
 Alpha  occ. eigenvalues --  -11.37378 -11.34733  -1.59674  -1.33828  -1.13372
 Alpha  occ. eigenvalues --   -1.06718  -0.97756  -0.81539  -0.77340  -0.70979
 Alpha  occ. eigenvalues --   -0.68216  -0.60443  -0.59579  -0.57294  -0.54514
 Alpha  occ. eigenvalues --   -0.49800  -0.48284  -0.42221  -0.40381  -0.33091
 Alpha  occ. eigenvalues --   -0.30562
 Alpha virt. eigenvalues --    0.02788   0.04846   0.05292   0.05711   0.06112
 Alpha virt. eigenvalues --    0.06538   0.07507   0.07722   0.10144   0.11104
 Alpha virt. eigenvalues --    0.11243   0.11763   0.12493   0.13464   0.14064

 Mulliken charges:
               1
     1  C   -3.340881
     2  N   -2.533568
     3  C    1.903771
     4  N   -3.857616
     5  C    5.114016
     6  C   -4.696307
     7  C   -3.268700
     8  H    1.409142
     9  H    1.406618
    10  H    1.414382
    11  H    1.706691
    12  H    1.171500
    13  H    1.207149
    14  H    1.292115
    15  H    1.071687
 Sum of Mulliken charges =  -0.00000

 Dipole moment (field-independent basis, Debye):
    X=             -3.7928    Y=              1.5972    Z=             -0.3834  Tot=              4.1332

 Test job not archived.
 1\1\GINC-SE028\SP\RHF\Aug-CC-pVDZ\C5H8N2\OHZDE\09-Apr-2025\0\\#t hf au
 g-cc-pvdz iop(5/13=1,5/36=2,99/5=2) pseudo=read geom=check guess=(read
 ,tcheck) scf=(maxcycle=1)\\title\\0,1\C,0,-2.36467066,-0.01907204,-0.4
 4831087\N,0,-1.01137549,0.17553666,0.05638006\C,0,-0.54683086,-0.31122
 153,1.27037145\N,0,0.73296355,-0.43862369,1.2662583\C,0,1.17467495,-0.
 04091966,0.01323894\C,0,2.63688169,-0.03840832,-0.28087095\C,0,0.18678
 132,0.28617974,-0.89198694\H,0,-2.47812485,0.58156318,-1.34808147\H,0,
 -2.5071189,-1.06728522,-0.70494531\H,0,-3.09497876,0.28378508,0.301928

 Normal termination of Gaussian 16 at Wed Apr  9 18:32:35 2025.
