 Gaussian 16, Revision C.01,

 ----------------------------------------------------------------------
 #t hf aug-cc-pvdz symm=none int=(grid=ultrafine) guess=(read,tcheck) s
 table=(opt,rrhf)
 ----------------------------------------------------------------------
 -----
 title
 -----
 Symbolic Z-matrix:
 Charge =  0 Multiplicity = 1

 SCF Done:  E(RHF) =  -287.903124034     A.U. after   15 cycles

 1\1\GINC-SE362\Stability\RHF\Aug-CC-pVDZ\C6H11N1\OHZDE\09-Apr-2025\0\\
 #t hf aug-cc-pvdz symm=none int=(grid=ultrafine) guess=(read,tcheck) s
 table=(opt,rrhf)\\title\\0,1\C,0,2.19561172,-0.30792081,-0.18292637\C,
 0,1.2572104,-0.68697523,0.73113235\C,0,-0.95051982,0.32083238,0.145277
 98\C,0,-1.69089801,-0.99592258,0.10434684\C,0,-0.73209147,1.06593118,-
 0.9945067\C,0,-0.96169674,1.01603004,1.39889004\N,0,-0.98506465,1.5598
 2106,2.41321769\H,0,2.90484919,0.47695397,0.05633492\H,0,1.44975596,0.
 57136098,-1.17870714\H,0,2.50110203,-0.99505873,-0.96501881\H,0,1.1729

 Normal termination of Gaussian 16 at Wed Apr  9 18:40:47 2025.
 Gaussian 16:  ES64L-G16RevC.01  3-Jul-2019

 ----------------------------------------------------------------------
 #t hf aug-cc-pvdz iop(5/13=1,5/36=2,99/5=2) pseudo=read geom=check gue
 ss=(read,tcheck) scf=(maxcycle=1)
 ----------------------------------------------------------------------
 -----
 title
 -----
 Structure from the checkpoint file:  "Grambow2020_wb97xd3_007527_forward_mol1.chk"
 Charge =  0 Multiplicity = 1

                         Standard orientation:
 ---------------------------------------------------------------------
 Center     Atomic      Atomic             Coordinates (Angstroms)
 Number     Number       Type             X           Y           Z
 ---------------------------------------------------------------------
      1          6           0       -2.461920    0.441233    0.074889
      2          6           0       -1.421096    0.613344   -0.789313
      3          6           0        0.624237   -0.494169    0.117882
      4          6           0        0.863416   -1.351905   -1.103085
      5          6           0        0.249358   -1.041692    1.326880
      6          6           0        1.294252    0.772861    0.144023
      7          7           0        1.843342    1.784595    0.147124
      8          1           0       -2.764066    1.248548    0.733101
      9          1           0       -1.893120   -0.379501    1.225488
     10          1           0       -3.220431   -0.306957   -0.130109
     11          1           0       -0.852515    1.532321   -0.798367
     12          1           0       -1.309780   -0.036810   -1.646089
     13          1           0        0.797645   -0.776174   -2.025824
     14          1           0        1.861143   -1.797376   -1.065712
     15          1           0        0.133622   -2.161375   -1.148346
     16          1           0        0.130327   -2.118629    1.390368
     17          1           0        0.526280   -0.544463    2.248744
     18          1           0       -1.201975   -0.789784    1.559207
 ---------------------------------------------------------------------

 SCF Done:  E(RHF) =  -289.381904881     A.U. after    2 cycles

 The electronic state is 1-A.
 Alpha  occ. eigenvalues --  -15.74258 -11.47767 -11.44434 -11.43062 -11.41935
 Alpha  occ. eigenvalues --  -11.39230 -11.38649  -1.32913  -1.22194  -1.15219
 Alpha  occ. eigenvalues --   -1.03508  -0.90193  -0.85333  -0.69408  -0.66092
 Alpha  occ. eigenvalues --   -0.65537  -0.61550  -0.59120  -0.56687  -0.55943
 Alpha  occ. eigenvalues --   -0.52484  -0.51578  -0.48496  -0.46325  -0.42381
 Alpha  occ. eigenvalues --   -0.35791  -0.31029
 Alpha virt. eigenvalues --    0.03243   0.04676   0.04870   0.05249   0.05326
 Alpha virt. eigenvalues --    0.06385   0.06529   0.06782   0.08190   0.08831
 Alpha virt. eigenvalues --    0.09680   0.10082   0.11301   0.11686   0.12270

 Mulliken charges:
               1
     1  C   -3.474805
     2  C   -3.111717
     3  C    1.783384
     4  C   -4.534417
     5  C   -4.259275
     6  C    1.766738
     7  N   -2.581966
     8  H    1.203928
     9  H    1.523672
    10  H    1.191942
    11  H    1.518565
    12  H    1.514237
    13  H    1.394453
    14  H    1.214884
    15  H    1.325426
    16  H    1.453243
    17  H    1.452205
    18  H    0.619502
 Sum of Mulliken charges =   0.00000

 Dipole moment (field-independent basis, Debye):
    X=             -2.4033    Y=             -3.1190    Z=             -0.0022  Tot=              3.9375

 Test job not archived.
 1\1\GINC-SE362\SP\RHF\Aug-CC-pVDZ\C6H11N1\OHZDE\09-Apr-2025\0\\#t hf a
 ug-cc-pvdz iop(5/13=1,5/36=2,99/5=2) pseudo=read geom=check guess=(rea
 d,tcheck) scf=(maxcycle=1)\\title\\0,1\C,0,2.19561172,-0.30792081,-0.1
 8292637\C,0,1.2572104,-0.68697523,0.73113235\C,0,-0.95051982,0.3208323
 8,0.14527798\C,0,-1.69089801,-0.99592258,0.10434684\C,0,-0.73209147,1.
 06593118,-0.9945067\C,0,-0.96169674,1.01603004,1.39889004\N,0,-0.98506
 465,1.55982106,2.41321769\H,0,2.90484919,0.47695397,0.05633492\H,0,1.4
 4975596,0.57136098,-1.17870714\H,0,2.50110203,-0.99505873,-0.96501881\

 Normal termination of Gaussian 16 at Wed Apr  9 18:40:53 2025.
