 Gaussian 16, Revision C.01,

 ----------------------------------------------------------------------
 #t hf aug-cc-pvdz symm=none int=(grid=ultrafine) guess=(read,tcheck) s
 table=(opt,rrhf)
 ----------------------------------------------------------------------
 -----
 title
 -----
 Symbolic Z-matrix:
 Charge =  0 Multiplicity = 1

 SCF Done:  E(RHF) =  -359.504824272     A.U. after   21 cycles
 Normal termination of Gaussian 16 at Wed Apr  9 18:34:37 2025.
 Gaussian 16:  ES64L-G16RevC.01  3-Jul-2019

 ----------------------------------------------------------------------
 #t hf aug-cc-pvdz iop(5/13=1,5/36=2,99/5=2) pseudo=read geom=check gue
 ss=(read,tcheck) scf=(maxcycle=1)
 ----------------------------------------------------------------------
 -----
 title
 -----
 Structure from the checkpoint file:  "Grambow2020_wb97xd3_007281_forward_mol1.chk"
 Charge =  0 Multiplicity = 1

                         Standard orientation:
 ---------------------------------------------------------------------
 Center     Atomic      Atomic             Coordinates (Angstroms)
 Number     Number       Type             X           Y           Z
 ---------------------------------------------------------------------
      1          8           0       -1.145425   -1.182590   -1.070249
      2          6           0        0.272453    1.089656   -0.590568
      3          6           0       -1.032568    1.134045    0.070422
      4          7           0       -1.128808   -0.140020    0.693593
      5          6           0        0.184842   -0.586540    1.073329
      6          6           0        1.085236    0.080774    0.022336
      7          8           0        2.246759   -0.221327   -0.181205
      8          1           0       -0.463962   -0.897383   -1.687196
      9          1           0        0.632364    1.827276   -1.291292
     10          1           0       -1.001052    1.891428    0.880644
     11          1           0       -1.897643    1.347227   -0.555147
     12          1           0       -1.951725   -0.410582    1.208114
     13          1           0        0.260837   -1.670048    1.086644
     14          1           0        0.452383   -0.184059    2.061610
 ---------------------------------------------------------------------

 SCF Done:  E(RHF) =  -361.114080594     A.U. after    2 cycles

 The electronic state is 1-A.
 Alpha  occ. eigenvalues --  -21.09828 -21.01363 -15.83683 -11.50911 -11.46248
 Alpha  occ. eigenvalues --  -11.42686 -11.39450  -1.68083  -1.59465  -1.47296
 Alpha  occ. eigenvalues --   -1.13679  -1.09055  -0.89076  -0.78906  -0.71521
 Alpha  occ. eigenvalues --   -0.70241  -0.62003  -0.57055  -0.56026  -0.55492
 Alpha  occ. eigenvalues --   -0.54482  -0.46652  -0.43250  -0.35650  -0.33742
 Alpha  occ. eigenvalues --   -0.26232  -0.21321
 Alpha virt. eigenvalues --    0.02683   0.03393   0.04524   0.04857   0.05085
 Alpha virt. eigenvalues --    0.05759   0.06856   0.08268   0.09892   0.11206
 Alpha virt. eigenvalues --    0.12521   0.13274   0.13692   0.14183   0.14881

 Mulliken charges:
               1
     1  O   -1.448803
     2  C   -1.525432
     3  C   -3.049603
     4  N   -1.205649
     5  C   -3.256228
     6  C    4.867505
     7  O   -3.677698
     8  H    1.264505
     9  H    1.509445
    10  H    1.307182
    11  H    1.417137
    12  H    1.044858
    13  H    1.470450
    14  H    1.282331
 Sum of Mulliken charges =   0.00000

 Dipole moment (field-independent basis, Debye):
    X=             -4.9904    Y=             -0.8945    Z=              1.3026  Tot=              5.2346

 Test job not archived.
 1\1\GINC-SE174\SP\RHF\Aug-CC-pVDZ\C4H7N1O2\OHZDE\09-Apr-2025\0\\#t hf
 aug-cc-pvdz iop(5/13=1,5/36=2,99/5=2) pseudo=read geom=check guess=(re
 ad,tcheck) scf=(maxcycle=1)\\title\\0,1\O,0,1.1452638,-0.1514941,-1.86
 947458\C,0,0.76175461,0.05330154,0.81651832\C,0,0.1891514,1.20236469,0
 .11385154\N,0,-0.52692061,0.60720995,-0.96033514\C,0,-1.02243407,-0.67
 92255,-0.54947473\C,0,0.02044549,-1.12787297,0.48576401\O,0,0.12625928
 ,-2.26440779,0.90875659\H,0,1.7393707,-0.60032445,-1.25960003\H,0,1.49
 552953,0.1179002,1.60520951\H,0,-0.55813492,1.69190378,0.7718759\H,0,0

 Normal termination of Gaussian 16 at Wed Apr  9 18:34:41 2025.
