 Gaussian 16, Revision C.01,

 ----------------------------------------------------------------------
 #t hf aug-cc-pvdz symm=none int=(grid=ultrafine) guess=(read,tcheck) s
 table=(opt,rrhf)
 ----------------------------------------------------------------------
 -----
 title
 -----
 Symbolic Z-matrix:
 Charge =  0 Multiplicity = 1

 SCF Done:  E(RHF) =  -306.583218897     A.U. after   16 cycles
 Normal termination of Gaussian 16 at Wed Apr  9 18:35:31 2025.
 Gaussian 16:  ES64L-G16RevC.01  3-Jul-2019

 ----------------------------------------------------------------------
 #t hf aug-cc-pvdz iop(5/13=1,5/36=2,99/5=2) pseudo=read geom=check gue
 ss=(read,tcheck) scf=(maxcycle=1)
 ----------------------------------------------------------------------
 -----
 title
 -----
 Structure from the checkpoint file:  "Grambow2020_wb97xd3_007303_forward_mol1.chk"
 Charge =  0 Multiplicity = 1

                         Standard orientation:
 ---------------------------------------------------------------------
 Center     Atomic      Atomic             Coordinates (Angstroms)
 Number     Number       Type             X           Y           Z
 ---------------------------------------------------------------------
      1          6           0       -2.294525   -0.833392   -0.256898
      2          6           0       -1.646134    0.541732   -0.260172
      3          6           0       -0.250894    0.572040    0.267429
      4          8           0        0.205773   -0.389751    1.034813
      5          6           0        0.807706    1.453095   -0.176672
      6          6           0        1.373992    0.268284    0.019913
      7          6           0        2.325221   -0.757057   -0.428341
      8          1           0       -1.762560   -1.520289   -0.916700
      9          1           0       -3.326243   -0.764141   -0.602544
     10          1           0       -2.293290   -1.266875    0.742905
     11          1           0       -2.196802    1.236332    0.385903
     12          1           0       -1.642689    1.003459   -1.248102
     13          1           0        2.884265   -1.154123    0.419263
     14          1           0        1.791105   -1.580520   -0.904911
     15          1           0        3.007840   -0.304051   -1.145874
 ---------------------------------------------------------------------

 SCF Done:  E(RHF) =  -308.028412152     A.U. after    2 cycles

 The electronic state is 1-A.
 Alpha  occ. eigenvalues --  -21.07716 -11.53600 -11.49866 -11.43708 -11.41816
 Alpha  occ. eigenvalues --  -11.38283 -11.36243  -1.79951  -1.22906  -1.19239
 Alpha  occ. eigenvalues --   -1.09607  -0.95687  -0.77741  -0.68268  -0.65419
 Alpha  occ. eigenvalues --   -0.62976  -0.61101  -0.58415  -0.56713  -0.52902
 Alpha  occ. eigenvalues --   -0.51917  -0.47820  -0.46922  -0.40141  -0.33786
 Alpha  occ. eigenvalues --   -0.27518
 Alpha virt. eigenvalues --    0.02960   0.04673   0.05457   0.05820   0.06076
 Alpha virt. eigenvalues --    0.06439   0.06975   0.07957   0.09735   0.10154
 Alpha virt. eigenvalues --    0.10550   0.12565   0.13163   0.13286   0.13651

 Mulliken charges:
               1
     1  C   -3.863355
     2  C   -3.270212
     3  C    4.645091
     4  O   -3.094091
     5  C   -3.104028
     6  C    3.546518
     7  C   -4.721183
     8  H    1.278975
     9  H    1.098859
    10  H    1.308418
    11  H    1.359250
    12  H    1.271510
    13  H    1.285806
    14  H    1.153175
    15  H    1.105269
 Sum of Mulliken charges =  -0.00000

 Dipole moment (field-independent basis, Debye):
    X=             -1.1217    Y=             -3.5994    Z=              0.4989  Tot=              3.8030

 Test job not archived.
 1\1\GINC-SE454\SP\RHF\Aug-CC-pVDZ\C6H8O1\OHZDE\09-Apr-2025\0\\#t hf au
 g-cc-pvdz iop(5/13=1,5/36=2,99/5=2) pseudo=read geom=check guess=(read
 ,tcheck) scf=(maxcycle=1)\\title\\0,1\C,0,-2.08022366,-0.10033181,0.91
 487663\C,0,-1.47599926,-0.34994105,-0.45771134\C,0,-0.14795506,0.29320
 479,-0.67825016\O,0,0.25054529,1.29968268,0.06381763\C,0,0.92634748,-0
 .23107207,-1.49380192\C,0,1.50243318,0.28361792,-0.41383838\C,0,2.5264
 9707,0.17567312,0.63341338\H,0,-1.45967328,-0.5314846,1.70175398\H,0,-
 3.06978719,-0.55352139,0.97884163\H,0,-2.17506386,0.96662572,1.1151834

 Normal termination of Gaussian 16 at Wed Apr  9 18:35:35 2025.
