 Gaussian 16, Revision C.01,

 ----------------------------------------------------------------------
 #t hf aug-cc-pvdz symm=none int=(grid=ultrafine) guess=(read,tcheck) s
 table=(opt,rrhf)
 ----------------------------------------------------------------------
 -----
 title
 -----
 Symbolic Z-matrix:
 Charge =  0 Multiplicity = 1

 SCF Done:  E(RHF) =  -306.806710105     A.U. after   16 cycles

 1\1\GINC-SE173\Stability\RHF\Aug-CC-pVDZ\C4H10O2\OHZDE\09-Apr-2025\0\\
 #t hf aug-cc-pvdz symm=none int=(grid=ultrafine) guess=(read,tcheck) s
 table=(opt,rrhf)\\title\\0,1\C,0,2.05393413,0.79378929,-0.68985289\O,0
 ,0.71015153,0.37550718,-0.88268141\C,0,0.41555943,-0.88054653,-0.25208
 206\C,0,-1.08566271,-1.00719671,-0.19722571\C,0,-1.48566279,0.39754163
 ,1.32893224\O,0,-1.86245884,0.60887072,-0.2329845\H,0,2.76554488,0.075
 58151,-1.13345452\H,0,2.16021823,1.76129011,-1.19427656\H,0,2.28779347
 ,0.9108363,0.38215699\H,0,0.84176586,-0.9157701,0.75790059\H,0,0.83407

 Normal termination of Gaussian 16 at Wed Apr  9 16:18:04 2025.
 Gaussian 16:  ES64L-G16RevC.01  3-Jul-2019

 ----------------------------------------------------------------------
 #t hf aug-cc-pvdz iop(5/13=1,5/36=2,99/5=2) pseudo=read geom=check gue
 ss=(read,tcheck) scf=(maxcycle=1)
 ----------------------------------------------------------------------
 -----
 title
 -----
 Structure from the checkpoint file:  "Grambow2020_b97d3_006774_reverse_mol1.chk"
 Charge =  0 Multiplicity = 1

                         Standard orientation:
 ---------------------------------------------------------------------
 Center     Atomic      Atomic             Coordinates (Angstroms)
 Number     Number       Type             X           Y           Z
 ---------------------------------------------------------------------
      1          6           0       -2.336270   -0.543362    0.110296
      2          8           0       -1.100484   -0.093789   -0.426928
      3          6           0       -0.489681    0.942753    0.357045
      4          6           0        0.947925    1.043788   -0.085446
      5          6           0        1.695815   -0.724051    0.796513
      6          8           0        1.504949   -0.504972   -0.797787
      7          1           0       -3.081071    0.271116    0.140173
      8          1           0       -2.699972   -1.337186   -0.552549
      9          1           0       -2.207851   -0.946073    1.129574
     10          1           0       -0.547310    0.704196    1.426029
     11          1           0       -1.010761    1.901388    0.146207
     12          1           0        1.016222    1.510001   -1.085814
     13          1           0        1.589324    1.575511    0.613850
     14          1           0        2.788374   -0.620081    0.879176
     15          1           0        1.441519   -1.785862    0.967643
     16          1           0        0.569077   -0.797692   -0.937016
 ---------------------------------------------------------------------

 SCF Done:  E(RHF) =  -308.246042700     A.U. after    2 cycles

 The electronic state is 1-A.
 Alpha  occ. eigenvalues --  -21.07388 -21.06636 -11.51282 -11.43433 -11.41702
 Alpha  occ. eigenvalues --  -11.32458  -1.77839  -1.68667  -1.13395  -0.98766
 Alpha  occ. eigenvalues --   -0.88627  -0.87329  -0.68198  -0.66578  -0.62871
 Alpha  occ. eigenvalues --   -0.60173  -0.57979  -0.55117  -0.50188  -0.47974
 Alpha  occ. eigenvalues --   -0.46674  -0.40416  -0.37653  -0.31981  -0.22458
 Alpha virt. eigenvalues --    0.03670   0.04678   0.05014   0.05201   0.06027
 Alpha virt. eigenvalues --    0.06350   0.06487   0.07055   0.08471   0.09025
 Alpha virt. eigenvalues --    0.11236   0.12165   0.13297   0.14379   0.14738

 Mulliken charges:
               1
     1  C   -2.848450
     2  O   -2.878701
     3  C   -1.295556
     4  C   -2.004370
     5  C   -2.377440
     6  O   -2.100724
     7  H    1.356392
     8  H    1.302835
     9  H    1.396682
    10  H    1.860272
    11  H    1.356258
    12  H    1.116320
    13  H    1.404253
    14  H    1.173395
    15  H    1.194818
    16  H    1.344016
 Sum of Mulliken charges =   0.00000

 Dipole moment (field-independent basis, Debye):
    X=             -1.6848    Y=              0.8362    Z=             -1.8731  Tot=              2.6544

 Test job not archived.
 1\1\GINC-SE173\SP\RHF\Aug-CC-pVDZ\C4H10O2\OHZDE\09-Apr-2025\0\\#t hf a
 ug-cc-pvdz iop(5/13=1,5/36=2,99/5=2) pseudo=read geom=check guess=(rea
 d,tcheck) scf=(maxcycle=1)\\title\\0,1\C,0,2.05393413,0.79378929,-0.68
 985289\O,0,0.71015153,0.37550718,-0.88268141\C,0,0.41555943,-0.8805465
 3,-0.25208206\C,0,-1.08566271,-1.00719671,-0.19722571\C,0,-1.48566279,
 0.39754163,1.32893224\O,0,-1.86245884,0.60887072,-0.2329845\H,0,2.7655
 4488,0.07558151,-1.13345452\H,0,2.16021823,1.76129011,-1.19427656\H,0,
 2.28779347,0.9108363,0.38215699\H,0,0.84176586,-0.9157701,0.75790059\H

 Normal termination of Gaussian 16 at Wed Apr  9 16:18:08 2025.
