 Gaussian 16, Revision C.01,

 ----------------------------------------------------------------------
 #t hf aug-cc-pvdz symm=none int=(grid=ultrafine) guess=(read,tcheck) s
 table=(opt,rrhf)
 ----------------------------------------------------------------------
 -----
 title
 -----
 Symbolic Z-matrix:
 Charge =  0 Multiplicity = 1

 SCF Done:  E(RHF) =  -305.600726516     A.U. after   16 cycles
 Normal termination of Gaussian 16 at Wed Apr  9 03:05:54 2025.
 Gaussian 16:  ES64L-G16RevC.01  3-Jul-2019

 ----------------------------------------------------------------------
 #t hf aug-cc-pvdz iop(5/13=1,5/36=2,99/5=2) pseudo=read geom=check gue
 ss=(read,tcheck) scf=(maxcycle=1)
 ----------------------------------------------------------------------
 -----
 title
 -----
 Structure from the checkpoint file:  "Grambow2020_b97d3_006513_forward_mol1.chk"
 Charge =  0 Multiplicity = 1

                         Standard orientation:
 ---------------------------------------------------------------------
 Center     Atomic      Atomic             Coordinates (Angstroms)
 Number     Number       Type             X           Y           Z
 ---------------------------------------------------------------------
      1          8           0        1.879677   -0.623113   -0.537041
      2          6           0        1.415532    0.247615    0.378725
      3          6           0       -0.010720    0.324369    0.661838
      4          6           0       -0.810587    0.902906   -0.532419
      5          6           0       -1.844953   -0.203636   -0.263386
      6          8           0       -0.803328   -0.918939    0.479995
      7          1           0        1.092991   -1.105956   -0.883890
      8          1           0        2.195338    0.642397    1.022946
      9          1           0        0.929051    2.187409   -0.208509
     10          1           0       -0.217988    0.821985    1.620652
     11          1           0        0.050516    2.187234   -0.390457
     12          1           0       -0.270596    0.688958   -1.471465
     13          1           0       -2.215805   -0.800015   -1.106536
     14          1           0       -2.669933    0.086885    0.405083
 ---------------------------------------------------------------------

 SCF Done:  E(RHF) =  -307.015791869     A.U. after    2 cycles

 The electronic state is 1-A.
 Alpha  occ. eigenvalues --  -21.15779 -21.06581 -11.55097 -11.45649 -11.44245
 Alpha  occ. eigenvalues --  -11.36556  -1.81511  -1.75460  -1.14636  -1.04788
 Alpha  occ. eigenvalues --   -0.91622  -0.79882  -0.72960  -0.68415  -0.63208
 Alpha  occ. eigenvalues --   -0.60014  -0.56541  -0.49462  -0.49196  -0.46844
 Alpha  occ. eigenvalues --   -0.41968  -0.39124  -0.32590  -0.23571
 Alpha virt. eigenvalues --    0.03772   0.04809   0.05323   0.05921   0.06368
 Alpha virt. eigenvalues --    0.06543   0.07117   0.07511   0.08633   0.11488
 Alpha virt. eigenvalues --    0.11911   0.12249   0.13792   0.14307   0.15019

 Mulliken charges:
               1
     1  O   -3.233400
     2  C    1.046510
     3  C    0.389586
     4  C   -1.811442
     5  C   -2.095326
     6  O   -2.610717
     7  H    0.944783
     8  H    1.531479
     9  H    0.288335
    10  H    1.522389
    11  H   -0.118572
    12  H    1.311866
    13  H    1.312713
    14  H    1.521795
 Sum of Mulliken charges =   0.00000

 Dipole moment (field-independent basis, Debye):
    X=              1.3294    Y=             -3.2053    Z=              0.4479  Tot=              3.4989

 Test job not archived.
 1\1\GINC-SE188\SP\RHF\Aug-CC-pVDZ\C4H8O2\OHZDE\09-Apr-2025\0\\#t hf au
 g-cc-pvdz iop(5/13=1,5/36=2,99/5=2) pseudo=read geom=check guess=(read
 ,tcheck) scf=(maxcycle=1)\\title\\0,1\O,0,-2.15222764,0.5302359,-0.280
 9656\C,0,-1.47415375,-0.51773021,0.22322544\C,0,-0.08364364,-0.3661863
 4,0.62789117\C,0,0.85312446,-0.1346522,-0.58437894\C,0,1.54259787,0.94
 654994,0.26553516\O,0,0.33925341,0.97661841,1.10238379\H,0,-1.52538386
 ,1.2914081,-0.28152921\H,0,-2.12075453,-1.33494079,0.52825916\H,0,-0.4
 7030295,-1.80550007,-1.07224427\H,0,0.24482323,-1.17454186,1.29764976\

 Normal termination of Gaussian 16 at Wed Apr  9 03:05:58 2025.
