 Gaussian 16, Revision C.01,

 ----------------------------------------------------------------------
 #t hf aug-cc-pvdz symm=none int=(grid=ultrafine) guess=(read,tcheck) s
 table=(opt,rrhf)
 ----------------------------------------------------------------------
 -----
 title
 -----
 Symbolic Z-matrix:
 Charge =  0 Multiplicity = 1

 SCF Done:  E(RHF) =  -342.357880749     A.U. after   16 cycles
 Normal termination of Gaussian 16 at Wed Apr  9 03:59:10 2025.
 Gaussian 16:  ES64L-G16RevC.01  3-Jul-2019

 ----------------------------------------------------------------------
 #t hf aug-cc-pvdz iop(5/13=1,5/36=2,99/5=2) pseudo=read geom=check gue
 ss=(read,tcheck) scf=(maxcycle=1)
 ----------------------------------------------------------------------
 -----
 title
 -----
 Structure from the checkpoint file:  "Grambow2020_wb97xd3_008758_forward_mol1.chk"
 Charge =  0 Multiplicity = 1

                         Standard orientation:
 ---------------------------------------------------------------------
 Center     Atomic      Atomic             Coordinates (Angstroms)
 Number     Number       Type             X           Y           Z
 ---------------------------------------------------------------------
      1          8           0       -2.446425   -0.372277   -0.198745
      2          6           0       -1.542102    0.120027    0.553240
      3          6           0       -0.397002    0.355255   -0.249208
      4          8           0        0.616577    1.292110    0.077433
      5          6           0        1.619795    0.345050   -0.280367
      6          6           0        1.587955   -0.844721    0.610718
      7          6           0        0.618793   -0.740561   -0.546738
      8          1           0       -1.748458    0.313931    1.605472
      9          1           0       -1.614670   -0.024284   -1.063368
     10          1           0        2.471197    0.699852   -0.844011
     11          1           0        2.388660   -1.558964    0.460504
     12          1           0        1.245998   -0.737420    1.633619
     13          1           0        0.571416   -1.462077   -1.347592
 ---------------------------------------------------------------------

 SCF Done:  E(RHF) =  -343.914778081     A.U. after    2 cycles

 The electronic state is 1-A.
 Alpha  occ. eigenvalues --  -21.09855 -21.05310 -11.52518 -11.46803 -11.45205
 Alpha  occ. eigenvalues --  -11.41538 -11.38024  -1.81477  -1.76001  -1.26005
 Alpha  occ. eigenvalues --   -1.06404  -0.90974  -0.85325  -0.80575  -0.73351
 Alpha  occ. eigenvalues --   -0.63231  -0.61989  -0.56639  -0.54706  -0.51186
 Alpha  occ. eigenvalues --   -0.46131  -0.43607  -0.40510  -0.36105  -0.33488
 Alpha  occ. eigenvalues --   -0.22645
 Alpha virt. eigenvalues --    0.03743   0.04951   0.05520   0.05678   0.05952
 Alpha virt. eigenvalues --    0.07403   0.08166   0.09708   0.10588   0.11841
 Alpha virt. eigenvalues --    0.13113   0.13255   0.13937   0.14265   0.14959

 Mulliken charges:
               1
     1  O   -2.697202
     2  C    1.228022
     3  C    0.842808
     4  O   -3.400850
     5  C    1.418437
     6  C   -3.279723
     7  C   -1.435472
     8  H    1.301212
     9  H    1.118108
    10  H    1.259870
    11  H    1.324303
    12  H    1.236579
    13  H    1.083908
 Sum of Mulliken charges =   0.00000

 Dipole moment (field-independent basis, Debye):
    X=             -0.0511    Y=             -0.9260    Z=              0.7856  Tot=              1.2154

 Test job not archived.
 1\1\GINC-SE054\SP\RHF\Aug-CC-pVDZ\C5H6O2\OHZDE\09-Apr-2025\0\\#t hf au
 g-cc-pvdz iop(5/13=1,5/36=2,99/5=2) pseudo=read geom=check guess=(read
 ,tcheck) scf=(maxcycle=1)\\title\\0,1\O,0,2.07161321,0.9412422,-1.5013
 5171\C,0,1.69981453,0.8143768,-0.28837389\C,0,0.8247239,-0.29928213,-0
 .22137112\O,0,0.57692151,-1.03797452,0.96381251\C,0,-0.81908452,-1.047
 61353,0.6766478\C,0,-1.38758359,0.32613215,0.69187678\C,0,-0.66104356,
 -0.17812559,-0.53600348\H,0,2.08712071,1.48554383,0.47772205\H,0,1.509
 12478,-0.17233598,-1.56491212\H,0,-1.36260938,-1.96701657,0.84321212\H

 Normal termination of Gaussian 16 at Wed Apr  9 03:59:14 2025.
