 Gaussian 16, Revision C.01,

 ----------------------------------------------------------------------
 #t hf aug-cc-pvdz symm=none int=(grid=ultrafine) guess=(read,tcheck) s
 table=(opt,rrhf)
 ----------------------------------------------------------------------
 -----
 title
 -----
 Symbolic Z-matrix:
 Charge =  0 Multiplicity = 1

 SCF Done:  E(RHF) =  -322.522172317     A.U. after   16 cycles
 Normal termination of Gaussian 16 at Wed Apr  9 03:33:27 2025.
 Gaussian 16:  ES64L-G16RevC.01  3-Jul-2019

 ----------------------------------------------------------------------
 #t hf aug-cc-pvdz iop(5/13=1,5/36=2,99/5=2) pseudo=read geom=check gue
 ss=(read,tcheck) scf=(maxcycle=1)
 ----------------------------------------------------------------------
 -----
 title
 -----
 Structure from the checkpoint file:  "Grambow2020_wb97xd3_007016_forward_mol1.chk"
 Charge =  0 Multiplicity = 1

                         Standard orientation:
 ---------------------------------------------------------------------
 Center     Atomic      Atomic             Coordinates (Angstroms)
 Number     Number       Type             X           Y           Z
 ---------------------------------------------------------------------
      1          6           0       -2.156948    0.282967    0.043461
      2          6           0       -0.865325   -0.345227    0.516198
      3          6           0       -0.168836   -1.216709   -0.505939
      4          6           0        1.147982   -0.852150   -0.518375
      5          7           0        1.492643   -0.197707    0.808945
      6          6           0        0.398147    0.520419    0.363066
      7          8           0        0.617377    1.410007   -0.552407
      8          1           0       -2.933790   -0.476642   -0.053971
      9          1           0       -2.023696    0.768959   -0.923723
     10          1           0       -2.503119    1.035300    0.754222
     11          1           0       -0.937775   -0.751638    1.524771
     12          1           0       -0.655453   -1.609289   -1.390862
     13          1           0        1.201416    0.455634   -1.198660
     14          1           0        2.334777    0.345765    0.654391
 ---------------------------------------------------------------------

 SCF Done:  E(RHF) =  -324.037663322     A.U. after    2 cycles

 The electronic state is 1-A.
 Alpha  occ. eigenvalues --  -21.06470 -15.77137 -11.56459 -11.46389 -11.43483
 Alpha  occ. eigenvalues --  -11.40431 -11.38850  -1.79002  -1.46074  -1.23101
 Alpha  occ. eigenvalues --   -1.07237  -0.95338  -0.82377  -0.76546  -0.67998
 Alpha  occ. eigenvalues --   -0.66278  -0.62953  -0.57248  -0.54962  -0.52492
 Alpha  occ. eigenvalues --   -0.51820  -0.49473  -0.41427  -0.37050  -0.30688
 Alpha  occ. eigenvalues --   -0.28732
 Alpha virt. eigenvalues --    0.03786   0.05354   0.05472   0.05921   0.06139
 Alpha virt. eigenvalues --    0.06732   0.07089   0.07797   0.09106   0.10882
 Alpha virt. eigenvalues --    0.11893   0.12432   0.13694   0.14078   0.14466

 Mulliken charges:
               1
     1  C   -3.743238
     2  C   -2.916555
     3  C    0.274560
     4  C   -1.899173
     5  N   -2.361756
     6  C    5.519817
     7  O   -2.999119
     8  H    1.200926
     9  H    1.333592
    10  H    1.213012
    11  H    1.476133
    12  H    1.465498
    13  H    0.853331
    14  H    0.582972
 Sum of Mulliken charges =  -0.00000

 Dipole moment (field-independent basis, Debye):
    X=             -1.3493    Y=              1.3316    Z=              0.6358  Tot=              1.9995

 Test job not archived.
 1\1\GINC-SE424\SP\RHF\Aug-CC-pVDZ\C5H7N1O1\OHZDE\09-Apr-2025\0\\#t hf
 aug-cc-pvdz iop(5/13=1,5/36=2,99/5=2) pseudo=read geom=check guess=(re
 ad,tcheck) scf=(maxcycle=1)\\title\\0,1\C,0,-1.82447667,0.17172004,0.1
 5758163\C,0,-0.50783236,0.26037639,-0.58064985\C,0,0.53526053,1.135541
 89,0.0791869\C,0,1.70488849,0.42928519,0.09466949\N,0,1.66296525,-0.62
 125406,-1.00236051\C,0,0.50810048,-0.85579998,-0.27868267\O,0,0.639749
 51,-1.49734808,0.83872666\H,0,-2.36242498,1.11808675,0.08698123\H,0,-1
 .66636457,-0.05966822,1.21155038\H,0,-2.45423004,-0.61094907,-0.268868

 Normal termination of Gaussian 16 at Wed Apr  9 03:33:32 2025.
