 Gaussian 16, Revision C.01,

 ----------------------------------------------------------------------
 #t hf aug-cc-pvdz symm=none int=(grid=ultrafine) guess=(read,tcheck) s
 table=(opt,rrhf)
 ----------------------------------------------------------------------
 -----
 title
 -----
 Symbolic Z-matrix:
 Charge =  0 Multiplicity = 1

 SCF Done:  E(RHF) =  -301.911151733     A.U. after   15 cycles
 Normal termination of Gaussian 16 at Wed Apr  9 17:07:21 2025.
 Gaussian 16:  ES64L-G16RevC.01  3-Jul-2019

 ----------------------------------------------------------------------
 #t hf aug-cc-pvdz iop(5/13=1,5/36=2,99/5=2) pseudo=read geom=check gue
 ss=(read,tcheck) scf=(maxcycle=1)
 ----------------------------------------------------------------------
 -----
 title
 -----
 Structure from the checkpoint file:  "Grambow2020_b97d3_007045_reverse_mol1.chk"
 Charge =  0 Multiplicity = 1

                         Standard orientation:
 ---------------------------------------------------------------------
 Center     Atomic      Atomic             Coordinates (Angstroms)
 Number     Number       Type             X           Y           Z
 ---------------------------------------------------------------------
      1          6           0        1.732719   -1.127325   -0.025388
      2          7           0        0.388006   -0.601552    0.042585
      3          6           0       -1.674325   -1.215934    0.010662
      4          6           0        0.189302    0.704120    0.009765
      5          8           0        0.929081    1.696141    0.011319
      6          7           0       -1.305262    0.842553   -0.026414
      7          1           0        2.457360   -0.300088    0.075173
      8          1           0        1.919347   -1.855582    0.780009
      9          1           0        1.925302   -1.629887   -0.989401
     10          1           0       -2.659587   -0.913543   -0.346500
     11          1           0       -1.250685   -2.001965   -0.611133
     12          1           0       -1.638152   -1.433601    1.073493
     13          1           0       -1.602446    1.287615   -0.901073
     14          1           0       -1.649171    1.425747    0.745450
 ---------------------------------------------------------------------

 SCF Done:  E(RHF) =  -303.322309680     A.U. after    2 cycles

 The electronic state is 1-A.
 Alpha  occ. eigenvalues --  -20.98513 -15.77975 -15.67318 -11.50624 -11.45577
 Alpha  occ. eigenvalues --  -11.36053  -1.66105  -1.37650  -1.26477  -1.04722
 Alpha  occ. eigenvalues --   -0.96735  -0.72442  -0.69258  -0.65782  -0.62214
 Alpha  occ. eigenvalues --   -0.59810  -0.56582  -0.55568  -0.49941  -0.44715
 Alpha  occ. eigenvalues --   -0.42259  -0.34218  -0.24867  -0.24449
 Alpha virt. eigenvalues --    0.01646   0.04223   0.04836   0.05273   0.05920
 Alpha virt. eigenvalues --    0.06693   0.07451   0.08400   0.09562   0.11233
 Alpha virt. eigenvalues --    0.12445   0.13199   0.14522   0.14652   0.14988

 Mulliken charges:
               1
     1  C   -3.262701
     2  N   -2.206968
     3  C   -3.561530
     4  C    5.431923
     5  O   -2.894689
     6  N   -2.511380
     7  H    1.191023
     8  H    1.342775
     9  H    1.309070
    10  H    1.270297
    11  H    1.310777
    12  H    1.332875
    13  H    0.609065
    14  H    0.639464
 Sum of Mulliken charges =   0.00000

 Dipole moment (field-independent basis, Debye):
    X=             -4.8543    Y=             -2.0338    Z=             -0.0922  Tot=              5.2639

 Test job not archived.
 1\1\GINC-SE162\SP\RHF\Aug-CC-pVDZ\C3H8N2O1\OHZDE\09-Apr-2025\0\\#t hf
 aug-cc-pvdz iop(5/13=1,5/36=2,99/5=2) pseudo=read geom=check guess=(re
 ad,tcheck) scf=(maxcycle=1)\\title\\0,1\C,0,-1.54022005,-1.2909143,0.3
 4943825\N,0,-0.45398874,-0.35672938,0.15784008\C,0,-0.05732301,1.71443
 55,-0.27183968\C,0,0.78936597,-0.7980037,0.08938314\O,0,1.32902054,-1.
 90206367,0.23500525\N,0,1.59216564,0.428862,-0.23389443\H,0,-1.1307076
 6,-2.28812506,0.58903838\H,0,-2.19880467,-0.97582257,1.17456617\H,0,-2
 .15822659,-1.38908818,-0.56018087\H,0,0.6292721,2.36780884,-0.81168848

 Normal termination of Gaussian 16 at Wed Apr  9 17:07:25 2025.
