 Gaussian 16, Revision C.01,

 ----------------------------------------------------------------------
 #t hf aug-cc-pvdz symm=none int=(grid=ultrafine) guess=(read,tcheck) s
 table=(opt,rrhf)
 ----------------------------------------------------------------------
 -----
 title
 -----
 Symbolic Z-matrix:
 Charge =  0 Multiplicity = 1

 SCF Done:  E(RHF) =  -304.624428303     A.U. after   14 cycles
 Normal termination of Gaussian 16 at Wed Apr  9 03:16:21 2025.
 Gaussian 16:  ES64L-G16RevC.01  3-Jul-2019

 ----------------------------------------------------------------------
 #t hf aug-cc-pvdz iop(5/13=1,5/36=2,99/5=2) pseudo=read geom=check gue
 ss=(read,tcheck) scf=(maxcycle=1)
 ----------------------------------------------------------------------
 -----
 title
 -----
 Structure from the checkpoint file:  "Grambow2020_b97d3_007011_reverse_mol2.chk"
 Charge =  0 Multiplicity = 1

                         Standard orientation:
 ---------------------------------------------------------------------
 Center     Atomic      Atomic             Coordinates (Angstroms)
 Number     Number       Type             X           Y           Z
 ---------------------------------------------------------------------
      1          8           0       -1.243211    0.694376   -0.613660
      2          6           0        1.732083   -0.561345   -0.500718
      3          6           0        1.789531    0.621159    0.457651
      4          6           0        2.869189   -0.369071    0.096848
      5          6           0       -1.841275   -0.148568    0.267441
      6          8           0       -3.013133   -0.431397    0.216982
      7          1           0       -0.290627    0.763647   -0.382242
      8          1           0        1.117209   -1.123898   -1.193749
      9          1           0        1.852701    1.646594    0.068262
     10          1           0        1.312001    0.553896    1.444977
     11          1           0        3.899670   -0.650700    0.276589
     12          1           0       -1.137362   -0.546424    1.032253
 ---------------------------------------------------------------------

 SCF Done:  E(RHF) =  -305.970947186     A.U. after    2 cycles

 The electronic state is 1-A.
 Alpha  occ. eigenvalues --  -21.12421 -21.06116 -11.51184 -11.47452 -11.46647
 Alpha  occ. eigenvalues --  -11.41712  -1.81162  -1.65294  -1.31286  -0.88784
 Alpha  occ. eigenvalues --   -0.86229  -0.82229  -0.73223  -0.70224  -0.62671
 Alpha  occ. eigenvalues --   -0.53892  -0.53122  -0.49204  -0.48030  -0.42370
 Alpha  occ. eigenvalues --   -0.36817  -0.33750  -0.31040
 Alpha virt. eigenvalues --    0.03062   0.04594   0.05107   0.05702   0.06556
 Alpha virt. eigenvalues --    0.07704   0.09044   0.10268   0.11128   0.11731
 Alpha virt. eigenvalues --    0.12993   0.13739   0.13955   0.14232   0.14994

 Mulliken charges:
               1
     1  O   -2.976210
     2  C   -0.168000
     3  C   -2.761317
     4  C   -1.212598
     5  C    2.403717
     6  O   -2.563235
     7  H    1.712143
     8  H    0.858836
     9  H    1.208689
    10  H    1.243003
    11  H    0.760482
    12  H    1.494489
 Sum of Mulliken charges =   0.00000

 Dipole moment (field-independent basis, Debye):
    X=              3.4672    Y=             -0.1686    Z=              0.0508  Tot=              3.4716

 Test job not archived.
 1\1\GINC-SE036\SP\RHF\Aug-CC-pVDZ\C4H6O2\OHZDE\09-Apr-2025\0\\#t hf au
 g-cc-pvdz iop(5/13=1,5/36=2,99/5=2) pseudo=read geom=check guess=(read
 ,tcheck) scf=(maxcycle=1)\\title\\0,1\O,0,-1.09225805,1.21257773,1.264
 1166\C,0,-0.2313755,-1.24298501,-0.6518842\C,0,0.3259853,-0.01034906,-
 1.3519169\C,0,0.41943161,-1.46140816,-1.75452007\C,0,-0.08142339,1.116
 25591,2.16606448\O,0,-0.19223299,1.45571488,3.3185739\H,0,-0.77387588,
 0.86880302,0.40027571\H,0,-0.79496057,-1.61342509,0.19662844\H,0,-0.34
 262428,0.65790463,-1.91185463\H,0,1.21908518,0.49198905,-0.95517999\H,

 Normal termination of Gaussian 16 at Wed Apr  9 03:16:26 2025.
