 Gaussian 16, Revision C.01,

 ----------------------------------------------------------------------
 #t hf aug-cc-pvdz symm=none int=(grid=ultrafine) guess=(read,tcheck) s
 table=(opt,rrhf)
 ----------------------------------------------------------------------
 -----
 title
 -----
 Symbolic Z-matrix:
 Charge =  0 Multiplicity = 1

 SCF Done:  E(RHF) =  -321.520944454     A.U. after   14 cycles
 Normal termination of Gaussian 16 at Wed Apr  9 19:09:42 2025.
 Gaussian 16:  ES64L-G16RevC.01  3-Jul-2019

 ----------------------------------------------------------------------
 #t hf aug-cc-pvdz iop(5/13=1,5/36=2,99/5=2) pseudo=read geom=check gue
 ss=(read,tcheck) scf=(maxcycle=1)
 ----------------------------------------------------------------------
 -----
 title
 -----
 Structure from the checkpoint file:  "Grambow2020_wb97xd3_008182_forward_mol2.chk"
 Charge =  0 Multiplicity = 1

                         Standard orientation:
 ---------------------------------------------------------------------
 Center     Atomic      Atomic             Coordinates (Angstroms)
 Number     Number       Type             X           Y           Z
 ---------------------------------------------------------------------
      1          8           0        1.890830   -1.261690    0.087095
      2          6           0        0.549373   -1.215495   -0.301131
      3          6           0       -0.208820   -0.081433    0.433299
      4          6           0        0.379077    1.222831    0.119211
      5          6           0        0.910527    2.257277   -0.158746
      6          6           0       -1.634881   -0.127791    0.092253
      7          7           0       -2.744209   -0.208385   -0.184569
      8          1           0        2.330156   -0.463082   -0.217986
      9          1           0        0.431232   -1.077622   -1.381372
     10          1           0        0.100929   -2.169366   -0.023410
     11          1           0       -0.115605   -0.260064    1.508804
     12          1           0        1.364451    3.190022   -0.400127
 ---------------------------------------------------------------------

 SCF Done:  E(RHF) =  -322.971581060     A.U. after    2 cycles

 The electronic state is 1-A.
 Alpha  occ. eigenvalues --  -21.09598 -15.77223 -11.51892 -11.46713 -11.45821
 Alpha  occ. eigenvalues --  -11.43755 -11.43089  -1.74693  -1.34696  -1.23285
 Alpha  occ. eigenvalues --   -1.08557  -0.95317  -0.79151  -0.73684  -0.70838
 Alpha  occ. eigenvalues --   -0.64204  -0.60849  -0.56880  -0.53182  -0.47040
 Alpha  occ. eigenvalues --   -0.45416  -0.42943  -0.40554  -0.40199  -0.34272
 Alpha virt. eigenvalues --    0.02609   0.04559   0.05794   0.06161   0.06612
 Alpha virt. eigenvalues --    0.09256   0.09761   0.09846   0.10050   0.11115
 Alpha virt. eigenvalues --    0.12035   0.13483   0.13787   0.13826   0.14785

 Mulliken charges:
               1
     1  O   -2.684074
     2  C   -0.307966
     3  C   -3.750078
     4  C    5.502868
     5  C   -4.647912
     6  C    2.793601
     7  N   -2.654357
     8  H    0.777230
     9  H    1.470392
    10  H    1.270241
    11  H    1.464107
    12  H    0.765948
 Sum of Mulliken charges =   0.00000

 Dipole moment (field-independent basis, Debye):
    X=              3.1918    Y=              0.5612    Z=              0.2648  Tot=              3.2515

 Test job not archived.
 1\1\GINC-SE207\SP\RHF\Aug-CC-pVDZ\C5H5N1O1\OHZDE\09-Apr-2025\0\\#t hf
 aug-cc-pvdz iop(5/13=1,5/36=2,99/5=2) pseudo=read geom=check guess=(re
 ad,tcheck) scf=(maxcycle=1)\\title\\0,1\O,0,-2.01290549,-0.0015317,-0.
 37145439\C,0,-0.99965873,-0.71568315,0.27327817\C,0,0.3838578,-0.42197
 024,-0.35914199\C,0,0.71463619,1.00026778,-0.2442398\C,0,0.92345792,2.
 17281289,-0.13789359\C,0,1.40956192,-1.26735121,0.26164393\N,0,2.17807
 312,-1.95754741,0.75838652\H,0,-1.88483539,0.93670347,-0.20662515\H,0,
 -0.95151492,-0.49735032,1.34561212\H,0,-1.22162198,-1.77522301,0.14596

 Normal termination of Gaussian 16 at Wed Apr  9 19:09:46 2025.
