 Gaussian 16, Revision C.01,

 ----------------------------------------------------------------------
 #t hf aug-cc-pvdz symm=none int=(grid=ultrafine) guess=(read,tcheck) s
 table=(opt,rrhf)
 ----------------------------------------------------------------------
 -----
 title
 -----
 Symbolic Z-matrix:
 Charge =  0 Multiplicity = 1

 SCF Done:  E(RHF) =  -283.487939792     A.U. after   16 cycles
 Normal termination of Gaussian 16 at Wed Apr  9 17:42:30 2025.
 Gaussian 16:  ES64L-G16RevC.01  3-Jul-2019

 ----------------------------------------------------------------------
 #t hf aug-cc-pvdz iop(5/13=1,5/36=2,99/5=2) pseudo=read geom=check gue
 ss=(read,tcheck) scf=(maxcycle=1)
 ----------------------------------------------------------------------
 -----
 title
 -----
 Structure from the checkpoint file:  "Grambow2020_wb97xd3_006131_reverse_mol2.chk"
 Charge =  0 Multiplicity = 1

                         Standard orientation:
 ---------------------------------------------------------------------
 Center     Atomic      Atomic             Coordinates (Angstroms)
 Number     Number       Type             X           Y           Z
 ---------------------------------------------------------------------
      1          7           0        2.594178    0.051687    0.158494
      2          6           0        1.489546   -0.079407   -0.117066
      3          6           0        0.104922   -0.242894   -0.504401
      4          6           0       -0.973784   -0.952230    0.335202
      5          8           0       -1.788288    0.144726    0.114661
      6          6           0       -0.855456    0.876633   -0.437163
      7          1           0        0.030865   -0.713974   -1.492717
      8          1           0       -0.003996    1.130604    2.052490
      9          1           0       -1.426367   -1.905446    0.072308
     10          1           0       -0.181366    0.401558    2.126093
     11          1           0       -0.863448    1.955029   -0.444354
 ---------------------------------------------------------------------

 SCF Done:  E(RHF) =  -284.781171704     A.U. after    2 cycles

 The electronic state is 1-A.
 Alpha  occ. eigenvalues --  -21.19552 -15.77413 -11.52802 -11.49368 -11.45217
 Alpha  occ. eigenvalues --  -11.41511  -1.92016  -1.33261  -1.18628  -1.00377
 Alpha  occ. eigenvalues --   -0.84923  -0.77027  -0.73641  -0.62620  -0.61906
 Alpha  occ. eigenvalues --   -0.57124  -0.53855  -0.50400  -0.47521  -0.43589
 Alpha  occ. eigenvalues --   -0.41911  -0.30029
 Alpha virt. eigenvalues --    0.03106   0.04567   0.05164   0.07226   0.07560
 Alpha virt. eigenvalues --    0.08401   0.08965   0.09768   0.10334   0.11188
 Alpha virt. eigenvalues --    0.12597   0.13179   0.13504   0.14800   0.15051

 Mulliken charges:
               1
     1  N   -2.329311
     2  C    1.188740
     3  C   -1.424772
     4  C   -0.045568
     5  O   -2.629790
     6  C    1.309801
     7  H    1.235488
     8  H    0.059007
     9  H    1.517491
    10  H   -0.268562
    11  H    1.387476
 Sum of Mulliken charges =   0.00000

 Dipole moment (field-independent basis, Debye):
    X=             -3.4525    Y=              0.5986    Z=             -1.8459  Tot=              3.9605

 Test job not archived.
 1\1\GINC-SE362\SP\RHF\Aug-CC-pVDZ\C4H5N1O1\OHZDE\09-Apr-2025\0\\#t hf
 aug-cc-pvdz iop(5/13=1,5/36=2,99/5=2) pseudo=read geom=check guess=(re
 ad,tcheck) scf=(maxcycle=1)\\title\\0,1\N,0,2.56432664,-0.59347669,0.8
 8001936\C,0,1.54954264,-0.59860409,0.34755633\C,0,0.28529879,-0.624934
 31,-0.35595974\C,0,-1.10232704,-0.57514206,0.31015879\O,0,-1.43874439,
 0.41893335,-0.59206351\C,0,-0.22924417,0.56142191,-1.0686954\H,0,0.231
 80305,-1.49173784,-1.02674969\H,0,0.1994765,1.81359256,1.21956239\H,0,
 -1.79939345,-1.40937289,0.33702887\H,0,-0.22691602,1.27375371,1.528025

 Normal termination of Gaussian 16 at Wed Apr  9 17:42:33 2025.
