 Gaussian 16, Revision C.01,

 ----------------------------------------------------------------------
 #t hf aug-cc-pvdz symm=none int=(grid=ultrafine) guess=(read,tcheck) s
 table=(opt,rrhf)
 ----------------------------------------------------------------------
 -----
 title
 -----
 Symbolic Z-matrix:
 Charge =  0 Multiplicity = 1

 SCF Done:  E(RHF) =  -375.597678632     A.U. after   15 cycles
 Normal termination of Gaussian 16 at Wed Apr  9 18:56:41 2025.
 Gaussian 16:  ES64L-G16RevC.01  3-Jul-2019

 ----------------------------------------------------------------------
 #t hf aug-cc-pvdz iop(5/13=1,5/36=2,99/5=2) pseudo=read geom=check gue
 ss=(read,tcheck) scf=(maxcycle=1)
 ----------------------------------------------------------------------
 -----
 title
 -----
 Structure from the checkpoint file:  "Grambow2020_wb97xd3_007857_reverse_mol1.chk"
 Charge =  0 Multiplicity = 1

                         Standard orientation:
 ---------------------------------------------------------------------
 Center     Atomic      Atomic             Coordinates (Angstroms)
 Number     Number       Type             X           Y           Z
 ---------------------------------------------------------------------
      1          7           0        2.291477    0.906958    0.177788
      2          6           0        1.539102   -0.104530   -0.084223
      3          8           0        1.626669   -1.330351   -0.295780
      4          6           0        0.079007    0.195672   -0.266662
      5          8           0       -0.739697   -0.149090    0.689950
      6          6           0       -2.100107   -0.212656    0.422775
      7          7           0       -2.577826    0.293718   -0.606575
      8          1           0        3.275176    0.675890    0.239395
      9          1           0        0.926030    1.876318    0.012936
     10          1           0       -0.343584    0.229285   -1.269612
     11          1           0        0.116662    1.935968   -0.146968
     12          1           0       -2.591561   -0.727278    1.244159
     13          1           0       -3.582068    0.169696   -0.663094
 ---------------------------------------------------------------------

 SCF Done:  E(RHF) =  -377.261361620     A.U. after    2 cycles

 The electronic state is 1-A.
 Alpha  occ. eigenvalues --  -21.18606 -21.00159 -15.80112 -15.69807 -11.57126
 Alpha  occ. eigenvalues --  -11.52567 -11.46945  -1.91942  -1.67457  -1.38543
 Alpha  occ. eigenvalues --   -1.29241  -1.07474  -0.90013  -0.83525  -0.75015
 Alpha  occ. eigenvalues --   -0.71804  -0.69387  -0.60710  -0.59231  -0.51588
 Alpha  occ. eigenvalues --   -0.50996  -0.48452  -0.46258  -0.43234  -0.37265
 Alpha  occ. eigenvalues --   -0.27175  -0.26895
 Alpha virt. eigenvalues --    0.02208   0.04216   0.04560   0.06173   0.06583
 Alpha virt. eigenvalues --    0.06750   0.08872   0.09980   0.10634   0.11179
 Alpha virt. eigenvalues --    0.12782   0.13193   0.13771   0.14903   0.15612

 Mulliken charges:
               1
     1  N   -3.295456
     2  C    6.224259
     3  O   -3.105173
     4  C   -0.962030
     5  O   -3.182815
     6  C    1.907171
     7  N   -2.694458
     8  H    0.856798
     9  H    0.072858
    10  H    1.593348
    11  H    0.093172
    12  H    1.665922
    13  H    0.826404
 Sum of Mulliken charges =   0.00000

 Dipole moment (field-independent basis, Debye):
    X=             -5.7226    Y=             -0.4270    Z=              0.8652  Tot=              5.8034

 Test job not archived.
 1\1\GINC-SE104\SP\RHF\Aug-CC-pVDZ\C3H6N2O2\OHZDE\09-Apr-2025\0\\#t hf
 aug-cc-pvdz iop(5/13=1,5/36=2,99/5=2) pseudo=read geom=check guess=(re
 ad,tcheck) scf=(maxcycle=1)\\title\\0,1\N,0,-2.39625265,-0.72320295,0.
 64825106\C,0,-1.73954847,0.2770016,0.17269129\O,0,-1.91985115,1.463494
 16,-0.16611243\C,0,-0.30058598,0.0133794,-0.16667999\O,0,0.61365909,0.
 50378017,0.62572572\C,0,1.9233257,0.5867272,0.17402889\N,0,2.29244248,
 -0.02276737,-0.84403827\H,0,-3.37511009,-0.52450588,0.81320789\H,0,-1.
 01244078,-1.65197443,0.41645995\H,0,-0.00836261,-0.12615465,-1.2062749

 Normal termination of Gaussian 16 at Wed Apr  9 18:56:44 2025.
