 Gaussian 16, Revision C.01,

 ----------------------------------------------------------------------
 #t hf aug-cc-pvdz symm=none int=(grid=ultrafine) guess=(read,tcheck) s
 table=(opt,rrhf)
 ----------------------------------------------------------------------
 -----
 title
 -----
 Symbolic Z-matrix:
 Charge =  0 Multiplicity = 1

 SCF Done:  E(RHF) =  -358.615569976     A.U. after   14 cycles
 Normal termination of Gaussian 16 at Wed Apr  9 04:04:03 2025.
 Gaussian 16:  ES64L-G16RevC.01  3-Jul-2019

 ----------------------------------------------------------------------
 #t hf aug-cc-pvdz iop(5/13=1,5/36=2,99/5=2) pseudo=read geom=check gue
 ss=(read,tcheck) scf=(maxcycle=1)
 ----------------------------------------------------------------------
 -----
 title
 -----
 Structure from the checkpoint file:  "Grambow2020_wb97xd3_009145_reverse_mol2.chk"
 Charge =  0 Multiplicity = 1

                         Standard orientation:
 ---------------------------------------------------------------------
 Center     Atomic      Atomic             Coordinates (Angstroms)
 Number     Number       Type             X           Y           Z
 ---------------------------------------------------------------------
      1          6           0       -2.390499   -0.554010   -0.005470
      2          6           0       -1.125910   -0.158428    0.001318
      3          6           0       -0.589859    1.254817    0.004555
      4          8           0        0.829708    1.115879   -0.004633
      5          6           0        1.176655   -0.191810   -0.000308
      6          8           0        2.299627   -0.592245   -0.003314
      7          7           0        0.017889   -0.935332    0.007907
      8          1           0       -3.187641    0.175653   -0.010507
      9          1           0       -2.661351   -1.601095   -0.004857
     10          1           0       -0.896589    1.814232   -0.880015
     11          1           0       -0.884916    1.804014    0.899663
     12          1           0        0.048272   -1.937962    0.003373
 ---------------------------------------------------------------------

 SCF Done:  E(RHF) =  -360.175084019     A.U. after    2 cycles

 The electronic state is 1-A.
 Alpha  occ. eigenvalues --  -21.10432 -21.04535 -15.79711 -11.53498 -11.49605
 Alpha  occ. eigenvalues --  -11.44843 -11.38978  -1.88105  -1.68518  -1.44001
 Alpha  occ. eigenvalues --   -1.16384  -1.01667  -0.87082  -0.84274  -0.69665
 Alpha  occ. eigenvalues --   -0.68672  -0.63320  -0.60260  -0.58329  -0.53807
 Alpha  occ. eigenvalues --   -0.51159  -0.47154  -0.43903  -0.32891  -0.31282
 Alpha  occ. eigenvalues --   -0.30473
 Alpha virt. eigenvalues --    0.02810   0.04935   0.05055   0.05823   0.06503
 Alpha virt. eigenvalues --    0.08655   0.10397   0.10965   0.11499   0.11680
 Alpha virt. eigenvalues --    0.12687   0.13235   0.14096   0.15276   0.15793

 Mulliken charges:
               1
     1  C   -3.974732
     2  C    2.155617
     3  C   -0.818246
     4  O   -3.039453
     5  C    6.109171
     6  O   -3.365866
     7  N   -3.224049
     8  H    1.439016
     9  H    1.382581
    10  H    1.311695
    11  H    1.310497
    12  H    0.713770
 Sum of Mulliken charges =   0.00000

 Dipole moment (field-independent basis, Debye):
    X=             -2.3914    Y=              0.0913    Z=              0.0053  Tot=              2.3931

 Test job not archived.
 1\1\GINC-SE222\SP\RHF\Aug-CC-pVDZ\C4H5N1O2\OHZDE\09-Apr-2025\0\\#t hf
 aug-cc-pvdz iop(5/13=1,5/36=2,99/5=2) pseudo=read geom=check guess=(re
 ad,tcheck) scf=(maxcycle=1)\\title\\0,1\C,0,-1.57871385,-0.77790141,-0
 .59834059\C,0,-0.45200156,-0.23022992,-0.16672475\C,0,-0.06558434,1.23
 103534,-0.16374679\O,0,1.24845503,1.2687828,0.38981851\C,0,1.66012378,
 0.02182524,0.71549686\O,0,2.71917093,-0.23454729,1.19935231\N,0,0.6498
 5452,-0.85450457,0.38833673\H,0,-2.36020727,-0.15714823,-1.01283058\H,
 0,-1.75050561,-1.84460616,-0.5495856\H,0,-0.03840217,1.65244774,-1.169

 Normal termination of Gaussian 16 at Wed Apr  9 04:04:08 2025.
