 Gaussian 16, Revision C.01,

 ----------------------------------------------------------------------
 #t hf aug-cc-pvdz symm=none int=(grid=ultrafine) guess=(read,tcheck) s
 table=(opt,rrhf)
 ----------------------------------------------------------------------
 -----
 title
 -----
 Symbolic Z-matrix:
 Charge =  0 Multiplicity = 1

 SCF Done:  E(RHF) =  -285.909615190     A.U. after   16 cycles
 Normal termination of Gaussian 16 at Wed Apr  9 03:21:11 2025.
 Gaussian 16:  ES64L-G16RevC.01  3-Jul-2019

 ----------------------------------------------------------------------
 #t hf aug-cc-pvdz iop(5/13=1,5/36=2,99/5=2) pseudo=read geom=check gue
 ss=(read,tcheck) scf=(maxcycle=1)
 ----------------------------------------------------------------------
 -----
 title
 -----
 Structure from the checkpoint file:  "Grambow2020_wb97xd3_006066_reverse_mol1.chk"
 Charge =  0 Multiplicity = 1

                         Standard orientation:
 ---------------------------------------------------------------------
 Center     Atomic      Atomic             Coordinates (Angstroms)
 Number     Number       Type             X           Y           Z
 ---------------------------------------------------------------------
      1          6           0        2.782194   -0.149194    0.144114
      2          6           0        1.405168   -0.124835   -0.517086
      3          6           0        0.320816   -0.055939    0.517102
      4          6           0       -1.325950   -0.134568   -0.374340
      5          8           0       -0.984552    1.071091   -0.058116
      6          7           0       -2.536955   -0.504066    0.079619
      7          1           0        3.566242   -0.229894   -0.609958
      8          1           0        2.888779   -0.999890    0.821624
      9          1           0        2.964273    0.762193    0.717631
     10          1           0        1.316467    0.749396   -1.163059
     11          1           0        1.256145   -1.004545   -1.143294
     12          1           0        0.095236   -1.003564    1.006634
     13          1           0        0.510852    0.688030    1.293778
     14          1           0       -3.121976    0.166290    0.564966
     15          1           0       -2.934288   -1.381062   -0.199472
 ---------------------------------------------------------------------

 SCF Done:  E(RHF) =  -287.270225733     A.U. after    2 cycles

 The electronic state is 1-A.
 Alpha  occ. eigenvalues --  -21.04760 -15.75406 -11.49421 -11.40900 -11.39726
 Alpha  occ. eigenvalues --  -11.36536  -1.72888  -1.31039  -1.21322  -0.99969
 Alpha  occ. eigenvalues --   -0.85844  -0.79790  -0.68769  -0.65926  -0.61069
 Alpha  occ. eigenvalues --   -0.59544  -0.55160  -0.51309  -0.49466  -0.47528
 Alpha  occ. eigenvalues --   -0.47231  -0.40113  -0.33261  -0.23432
 Alpha virt. eigenvalues --    0.03693   0.04885   0.05554   0.05731   0.06251
 Alpha virt. eigenvalues --    0.06335   0.06831   0.07758   0.08729   0.10728
 Alpha virt. eigenvalues --    0.11326   0.13171   0.13543   0.14799   0.15511

 Mulliken charges:
               1
     1  C   -3.701745
     2  C   -2.685256
     3  C   -2.183306
     4  C    2.503693
     5  O   -1.863942
     6  N   -2.624736
     7  H    1.115461
     8  H    1.256675
     9  H    1.259793
    10  H    1.535661
    11  H    1.450444
    12  H    1.471465
    13  H    1.249610
    14  H    0.462192
    15  H    0.753991
 Sum of Mulliken charges =  -0.00000

 Dipole moment (field-independent basis, Debye):
    X=              0.2091    Y=             -0.0535    Z=              1.1846  Tot=              1.2041

 Test job not archived.
 1\1\GINC-SE250\SP\RHF\Aug-CC-pVDZ\C4H9N1O1\OHZDE\09-Apr-2025\0\\#t hf
 aug-cc-pvdz iop(5/13=1,5/36=2,99/5=2) pseudo=read geom=check guess=(re
 ad,tcheck) scf=(maxcycle=1)\\title\\0,1\C,0,2.33012489,0.10732359,-0.4
 1828202\C,0,0.84447107,0.24449429,-0.74691278\C,0,0.00428007,-0.050732
 23,0.46016204\C,0,-1.79442861,0.03955465,-0.05866733\O,0,-1.38596103,1
 .11904309,0.52272934\N,0,-2.88415962,-0.5134611,0.50329464\H,0,2.93609
 645,0.29310774,-1.30606092\H,0,2.57228111,-0.89580711,-0.05890617\H,0,
 2.6354841,0.82208253,0.34890528\H,0,0.62662703,1.26197957,-1.0735593\H

 Normal termination of Gaussian 16 at Wed Apr  9 03:21:16 2025.
