 Gaussian 16, Revision C.01,

 ----------------------------------------------------------------------
 #t hf aug-cc-pvdz symm=none int=(grid=ultrafine) guess=(read,tcheck) s
 table=(opt,rrhf)
 ----------------------------------------------------------------------
 -----
 title
 -----
 Symbolic Z-matrix:
 Charge =  0 Multiplicity = 1

 SCF Done:  E(RHF) =  -283.688491758     A.U. after   13 cycles
 Normal termination of Gaussian 16 at Wed Apr  9 17:52:38 2025.
 Gaussian 16:  ES64L-G16RevC.01  3-Jul-2019

 ----------------------------------------------------------------------
 #t hf aug-cc-pvdz iop(5/13=1,5/36=2,99/5=2) pseudo=read geom=check gue
 ss=(read,tcheck) scf=(maxcycle=1)
 ----------------------------------------------------------------------
 -----
 title
 -----
 Structure from the checkpoint file:  "Grambow2020_wb97xd3_006224_reverse_mol2.chk"
 Charge =  0 Multiplicity = 1

                         Standard orientation:
 ---------------------------------------------------------------------
 Center     Atomic      Atomic             Coordinates (Angstroms)
 Number     Number       Type             X           Y           Z
 ---------------------------------------------------------------------
      1          8           0        2.021980   -0.115130   -0.006391
      2          6           0        0.828911   -0.079815   -0.000099
      3          6           0       -0.192016   -1.190235    0.007993
      4          6           0       -1.528673   -0.444105   -0.007862
      5          6           0       -1.250065    1.043431    0.002368
      6          7           0        0.068235    1.128564    0.004328
      7          1           0       -0.034611   -1.800148    0.898155
      8          1           0       -0.023426   -1.833189   -0.855849
      9          1           0       -2.137167   -0.659020   -0.889389
     10          1           0       -2.168436   -0.673083    0.847026
     11          1           0        0.561209    2.010876    0.006491
 ---------------------------------------------------------------------

 SCF Done:  E(RHF) =  -284.959485138     A.U. after    2 cycles

 The electronic state is 1-A.
 Alpha  occ. eigenvalues --  -21.06953 -15.80687 -11.53015 -11.44936 -11.40969
 Alpha  occ. eigenvalues --  -11.37949  -1.74405  -1.47546  -1.18295  -1.01967
 Alpha  occ. eigenvalues --   -0.84402  -0.83253  -0.67642  -0.63400  -0.57550
 Alpha  occ. eigenvalues --   -0.54866  -0.52902  -0.52782  -0.50405  -0.38782
 Alpha  occ. eigenvalues --   -0.36891  -0.29382
 Alpha virt. eigenvalues --    0.03079   0.05722   0.05872   0.06209   0.06343
 Alpha virt. eigenvalues --    0.09058   0.09449   0.09703   0.10819   0.12140
 Alpha virt. eigenvalues --    0.13355   0.13884   0.14937   0.15234   0.16005

 Mulliken charges:
               1
     1  O   -3.245423
     2  C    4.336779
     3  C   -3.195886
     4  C   -2.138277
     5  C   -0.200373
     6  N   -2.016975
     7  H    1.374181
     8  H    1.369326
     9  H    1.491057
    10  H    1.483871
    11  H    0.741722
 Sum of Mulliken charges =  -0.00000

 Dipole moment (field-independent basis, Debye):
    X=              0.5385    Y=             -1.4598    Z=              0.0027  Tot=              1.5560

 Test job not archived.
 1\1\GINC-SE219\SP\RHF\Aug-CC-pVDZ\C4H5N1O1\OHZDE\09-Apr-2025\0\\#t hf
 aug-cc-pvdz iop(5/13=1,5/36=2,99/5=2) pseudo=read geom=check guess=(re
 ad,tcheck) scf=(maxcycle=1)\\title\\0,1\O,0,-1.30035972,1.97853408,0.1
 4704651\C,0,-0.57325519,1.03320246,0.09839811\C,0,-0.80113768,-0.36205
 005,-0.42765422\C,0,0.53332664,-1.06398283,-0.16287276\C,0,1.48311709,
 -0.07003027,0.46993449\N,0,0.77513699,1.04095912,0.56808431\H,0,-1.066
 23564,-0.29610643,-1.48336888\H,0,-1.65328984,-0.80161977,0.09066142\H
 ,0,0.45002275,-1.91698411,0.51461691\H,0,1.00812498,-1.45695433,-1.064

 Normal termination of Gaussian 16 at Wed Apr  9 17:52:41 2025.
