 Gaussian 16, Revision C.01,

 ----------------------------------------------------------------------
 #t hf aug-cc-pvdz symm=none int=(grid=ultrafine) guess=(read,tcheck) s
 table=(opt,rrhf)
 ----------------------------------------------------------------------
 -----
 title
 -----
 Symbolic Z-matrix:
 Charge =  0 Multiplicity = 1

 SCF Done:  E(RHF) =  -284.713109963     A.U. after   15 cycles
 Normal termination of Gaussian 16 at Wed Apr  9 03:06:51 2025.
 Gaussian 16:  ES64L-G16RevC.01  3-Jul-2019

 ----------------------------------------------------------------------
 #t hf aug-cc-pvdz iop(5/13=1,5/36=2,99/5=2) pseudo=read geom=check gue
 ss=(read,tcheck) scf=(maxcycle=1)
 ----------------------------------------------------------------------
 -----
 title
 -----
 Structure from the checkpoint file:  "Grambow2020_b97d3_006536_reverse_mol1.chk"
 Charge =  0 Multiplicity = 1

                         Standard orientation:
 ---------------------------------------------------------------------
 Center     Atomic      Atomic             Coordinates (Angstroms)
 Number     Number       Type             X           Y           Z
 ---------------------------------------------------------------------
      1          6           0        1.484801    0.984438   -0.597018
      2          6           0       -1.105131    1.225257    0.255037
      3          8           0       -1.552184   -0.058560   -0.184011
      4          6           0       -0.705851   -1.130155   -0.145547
      5          7           0        0.536314   -1.265579    0.098770
      6          6           0        1.443081   -0.166193    0.301475
      7          1           0       -0.277576    1.583770   -0.414234
      8          1           0        2.152101    1.720264   -0.080235
      9          1           0       -0.755370    1.190430    1.295551
     10          1           0       -1.966999    1.895126    0.166501
     11          1           0       -1.303865   -2.021653   -0.355439
     12          1           0        2.470241   -0.465960   -0.101325
     13          1           0        1.643338   -0.054528    1.386205
 ---------------------------------------------------------------------

 SCF Done:  E(RHF) =  -286.007629242     A.U. after    2 cycles

 The electronic state is 1-A.
 Alpha  occ. eigenvalues --  -21.09221 -15.72476 -11.46986 -11.44478 -11.42716
 Alpha  occ. eigenvalues --  -11.40018  -1.79559  -1.37151  -1.13450  -1.01030
 Alpha  occ. eigenvalues --   -0.87849  -0.74854  -0.68568  -0.64881  -0.62442
 Alpha  occ. eigenvalues --   -0.59146  -0.57311  -0.54304  -0.48225  -0.43882
 Alpha  occ. eigenvalues --   -0.35034  -0.33315  -0.31204
 Alpha virt. eigenvalues --    0.03277   0.05027   0.05595   0.05817   0.06037
 Alpha virt. eigenvalues --    0.06656   0.07830   0.08344   0.10770   0.11238
 Alpha virt. eigenvalues --    0.12399   0.12735   0.13442   0.13766   0.15260

 Mulliken charges:
               1
     1  C   -1.948865
     2  C   -3.090215
     3  O   -2.928452
     4  C    2.102202
     5  N   -2.875969
     6  C   -1.383514
     7  H    1.845948
     8  H    1.173664
     9  H    1.413672
    10  H    1.147314
    11  H    1.807054
    12  H    1.250150
    13  H    1.487010
 Sum of Mulliken charges =  -0.00000

 Dipole moment (field-independent basis, Debye):
    X=             -0.8489    Y=              1.3662    Z=              1.8270  Tot=              2.4341

 Test job not archived.
 1\1\GINC-SE054\SP\RHF\Aug-CC-pVDZ\C4H7N1O1\OHZDE\09-Apr-2025\0\\#t hf
 aug-cc-pvdz iop(5/13=1,5/36=2,99/5=2) pseudo=read geom=check guess=(re
 ad,tcheck) scf=(maxcycle=1)\\title\\0,1\C,0,1.30874285,-0.43801333,0.8
 8650146\C,0,-1.21402703,-1.0598235,0.02584938\O,0,-1.76515193,0.253084
 24,0.14134809\C,0,-0.98950385,1.34801494,-0.11472354\N,0,0.25189707,1.
 51682939,-0.34150183\C,0,1.23732431,0.47123196,-0.25418071\H,0,-0.3994
 9678,-1.19344779,0.78741786\H,0,2.04759816,-1.22013819,0.57639389\H,0,
 -0.8155367,-1.23686932,-0.98215606\H,0,-2.03381781,-1.75450648,0.23736

 Normal termination of Gaussian 16 at Wed Apr  9 03:06:55 2025.
