 Gaussian 16, Revision C.01,

 ----------------------------------------------------------------------
 #t hf aug-cc-pvdz symm=none int=(grid=ultrafine) guess=(read,tcheck) s
 table=(opt,rrhf)
 ----------------------------------------------------------------------
 -----
 title
 -----
 Symbolic Z-matrix:
 Charge =  0 Multiplicity = 1

 SCF Done:  E(RHF) =  -299.676501852     A.U. after   14 cycles
 Normal termination of Gaussian 16 at Wed Apr  9 17:45:15 2025.
 Gaussian 16:  ES64L-G16RevC.01  3-Jul-2019

 ----------------------------------------------------------------------
 #t hf aug-cc-pvdz iop(5/13=1,5/36=2,99/5=2) pseudo=read geom=check gue
 ss=(read,tcheck) scf=(maxcycle=1)
 ----------------------------------------------------------------------
 -----
 title
 -----
 Structure from the checkpoint file:  "Grambow2020_wb97xd3_006149_reverse_mol2.chk"
 Charge =  0 Multiplicity = 1

                         Standard orientation:
 ---------------------------------------------------------------------
 Center     Atomic      Atomic             Coordinates (Angstroms)
 Number     Number       Type             X           Y           Z
 ---------------------------------------------------------------------
      1          7           0        1.875432   -0.611395   -0.034557
      2          6           0        0.746131    0.143061   -0.025255
      3          6           0       -0.531030   -0.629825   -0.167551
      4          6           0       -1.742713    0.100220   -0.471137
      5          7           0       -1.681241   -0.196158    0.730974
      6          8           0        0.756358    1.351223    0.063898
      7          1           0        2.754446   -0.148423    0.113020
      8          1           0        1.840089   -1.611280    0.026755
      9          1           0       -0.462757   -1.695939   -0.367281
     10          1           0       -2.376311    0.617991   -1.174935
 ---------------------------------------------------------------------

 SCF Done:  E(RHF) =  -300.997013293     A.U. after    2 cycles

 The electronic state is 1-A.
 Alpha  occ. eigenvalues --  -21.02478 -15.78512 -15.78375 -11.52230 -11.48443
 Alpha  occ. eigenvalues --  -11.43357  -1.71207  -1.47966  -1.35064  -1.00213
 Alpha  occ. eigenvalues --   -0.84605  -0.80269  -0.72370  -0.69302  -0.62813
 Alpha  occ. eigenvalues --   -0.55552  -0.50591  -0.50358  -0.41449  -0.38163
 Alpha  occ. eigenvalues --   -0.32504  -0.29373
 Alpha virt. eigenvalues --    0.03158   0.04703   0.04971   0.06541   0.09801
 Alpha virt. eigenvalues --    0.10001   0.11648   0.11973   0.12672   0.13334
 Alpha virt. eigenvalues --    0.13719   0.15074   0.15342   0.17067   0.17380

 Mulliken charges:
               1
     1  N   -3.071650
     2  C    4.513207
     3  C   -1.799791
     4  C    1.266500
     5  N   -1.678555
     6  O   -3.196551
     7  H    0.754607
     8  H    0.785540
     9  H    1.469835
    10  H    0.956859
 Sum of Mulliken charges =   0.00000

 Dipole moment (field-independent basis, Debye):
    X=              0.4418    Y=             -1.9514    Z=             -1.5062  Tot=              2.5043

 Test job not archived.
 1\1\GINC-SE030\SP\RHF\Aug-CC-pVDZ\C3H4N2O1\OHZDE\09-Apr-2025\0\\#t hf
 aug-cc-pvdz iop(5/13=1,5/36=2,99/5=2) pseudo=read geom=check guess=(re
 ad,tcheck) scf=(maxcycle=1)\\title\\0,1\N,0,1.76738202,-0.11785562,-0.
 24499404\C,0,0.57675253,-0.29320274,0.38450105\C,0,-0.61662469,0.21433
 041,-0.36849531\C,0,-1.86942897,0.34669521,0.34302888\N,0,-1.84949551,
 -0.67907968,-0.35272907\O,0,0.47451199,-0.79569249,1.48211684\H,0,2.59
 207291,-0.48967067,0.1913837\H,0,1.817676,0.174028,-1.20262348\H,0,-0.
 44273374,0.76438362,-1.28955757\H,0,-2.50599555,0.87810396,1.03386301\

 Normal termination of Gaussian 16 at Wed Apr  9 17:45:18 2025.
