 Gaussian 16, Revision C.01,

 ----------------------------------------------------------------------
 #t hf aug-cc-pvdz symm=none int=(grid=ultrafine) guess=(read,tcheck) s
 table=(opt,rrhf)
 ----------------------------------------------------------------------
 -----
 title
 -----
 Symbolic Z-matrix:
 Charge =  0 Multiplicity = 1

 SCF Done:  E(RHF) =  -310.003164036     A.U. after   16 cycles

 1\1\GINC-SE108\Stability\RHF\Aug-CC-pVDZ\C6H14O1\OHZDE\09-Apr-2025\0\\
 #t hf aug-cc-pvdz symm=none int=(grid=ultrafine) guess=(read,tcheck) s
 table=(opt,rrhf)\\title\\0,1\C,0,-2.24414601,0.86157877,-1.19563661\C,
 0,-1.65314698,0.64335015,0.18345703\C,0,-0.86246577,-1.85203269,-0.119
 58245\C,0,0.46711191,-1.49416628,0.31407782\C,0,0.93443679,-0.1084617,
 -0.07888989\O,0,2.01943697,0.35793754,0.58687063\C,0,2.91151773,1.1553
 4368,-0.16330644\H,0,-3.05754991,1.59307418,-1.16543224\H,0,-2.6418163
 ,-0.06361023,-1.61279042\H,0,-1.49946799,1.24277032,-1.8995902\H,0,-1.

 Normal termination of Gaussian 16 at Wed Apr  9 18:52:23 2025.
 Gaussian 16:  ES64L-G16RevC.01  3-Jul-2019

 ----------------------------------------------------------------------
 #t hf aug-cc-pvdz iop(5/13=1,5/36=2,99/5=2) pseudo=read geom=check gue
 ss=(read,tcheck) scf=(maxcycle=1)
 ----------------------------------------------------------------------
 -----
 title
 -----
 Structure from the checkpoint file:  "Grambow2020_wb97xd3_007723_forward_mol1.chk"
 Charge =  0 Multiplicity = 1

                         Standard orientation:
 ---------------------------------------------------------------------
 Center     Atomic      Atomic             Coordinates (Angstroms)
 Number     Number       Type             X           Y           Z
 ---------------------------------------------------------------------
      1          6           0        2.446261   -1.333137   -0.422670
      2          6           0        1.695033   -0.731500    0.748864
      3          6           0        1.280419    1.673507   -0.245111
      4          6           0       -0.132443    1.552899    0.025405
      5          6           0       -0.710658    0.160463   -0.115249
      6          8           0       -1.930825   -0.029771    0.444211
      7          6           0       -2.799437   -0.904080   -0.245374
      8          1           0        3.147018   -2.104347   -0.088306
      9          1           0        3.014445   -0.577783   -0.965571
     10          1           0        1.768592   -1.807452   -1.137647
     11          1           0        1.322443   -1.521961    1.410879
     12          1           0        2.312792   -0.074762    1.348898
     13          1           0        1.886020    2.349003    0.344343
     14          1           0        1.651915    1.449241   -1.238442
     15          1           0       -0.695916    2.069989   -0.773592
     16          1           0       -0.434513    1.974372    0.984900
     17          1           0       -0.618840   -0.276581   -1.119174
     18          1           0        0.523974   -0.361129    0.449371
     19          1           0       -3.027007   -0.519202   -1.245223
     20          1           0       -3.717202   -0.966804    0.335841
     21          1           0       -2.362173   -1.903326   -0.335148
 ---------------------------------------------------------------------

 SCF Done:  E(RHF) =  -311.562165689     A.U. after    2 cycles

 The electronic state is 1-A.
 Alpha  occ. eigenvalues --  -21.07585 -11.46610 -11.41894 -11.41650 -11.39797
 Alpha  occ. eigenvalues --  -11.36128 -11.35285  -1.78929  -1.20418  -1.11998
 Alpha  occ. eigenvalues --   -1.01860  -0.90805  -0.87211  -0.80843  -0.66302
 Alpha  occ. eigenvalues --   -0.63748  -0.62456  -0.61192  -0.58867  -0.57647
 Alpha  occ. eigenvalues --   -0.54917  -0.49377  -0.48482  -0.48432  -0.47074
 Alpha  occ. eigenvalues --   -0.44104  -0.40206  -0.35708  -0.18574
 Alpha virt. eigenvalues --    0.03651   0.04616   0.05103   0.05278   0.05551
 Alpha virt. eigenvalues --    0.05958   0.06219   0.06485   0.06718   0.06997
 Alpha virt. eigenvalues --    0.07879   0.08576   0.09540   0.10052   0.10922

 Mulliken charges:
               1
     1  C   -4.252455
     2  C   -4.782461
     3  C   -3.155030
     4  C   -4.142790
     5  C    1.308927
     6  O   -3.656042
     7  C   -3.193992
     8  H    1.186700
     9  H    1.378906
    10  H    1.159072
    11  H    0.285010
    12  H    0.944878
    13  H    1.219527
    14  H    1.342547
    15  H    1.440389
    16  H    1.201300
    17  H    1.402408
    18  H    6.399786
    19  H    1.280466
    20  H    1.316170
    21  H    1.316685
 Sum of Mulliken charges =  -0.00000

 Dipole moment (field-independent basis, Debye):
    X=             -2.3343    Y=             -1.5480    Z=              0.0410  Tot=              2.8012

 Test job not archived.
 1\1\GINC-SE108\SP\RHF\Aug-CC-pVDZ\C6H14O1\OHZDE\09-Apr-2025\0\\#t hf a
 ug-cc-pvdz iop(5/13=1,5/36=2,99/5=2) pseudo=read geom=check guess=(rea
 d,tcheck) scf=(maxcycle=1)\\title\\0,1\C,0,-2.24414601,0.86157877,-1.1
 9563661\C,0,-1.65314698,0.64335015,0.18345703\C,0,-0.86246577,-1.85203
 269,-0.11958245\C,0,0.46711191,-1.49416628,0.31407782\C,0,0.93443679,-
 0.1084617,-0.07888989\O,0,2.01943697,0.35793754,0.58687063\C,0,2.91151
 773,1.15534368,-0.16330644\H,0,-3.05754991,1.59307418,-1.16543224\H,0,
 -2.6418163,-0.06361023,-1.61279042\H,0,-1.49946799,1.24277032,-1.89959

 Normal termination of Gaussian 16 at Wed Apr  9 18:52:32 2025.
