 Gaussian 16, Revision C.01,

 ----------------------------------------------------------------------
 #t hf aug-cc-pvdz symm=none int=(grid=ultrafine) guess=(read,tcheck) s
 table=(opt,rrhf)
 ----------------------------------------------------------------------
 -----
 title
 -----
 Symbolic Z-matrix:
 Charge =  0 Multiplicity = 1

 SCF Done:  E(RHF) =  -302.854741418     A.U. after   15 cycles
 Normal termination of Gaussian 16 at Wed Apr  9 19:23:08 2025.
 Gaussian 16:  ES64L-G16RevC.01  3-Jul-2019

 ----------------------------------------------------------------------
 #t hf aug-cc-pvdz iop(5/13=1,5/36=2,99/5=2) pseudo=read geom=check gue
 ss=(read,tcheck) scf=(maxcycle=1)
 ----------------------------------------------------------------------
 -----
 title
 -----
 Structure from the checkpoint file:  "Grambow2020_wb97xd3_008842_reverse_mol2.chk"
 Charge =  0 Multiplicity = 1

                         Standard orientation:
 ---------------------------------------------------------------------
 Center     Atomic      Atomic             Coordinates (Angstroms)
 Number     Number       Type             X           Y           Z
 ---------------------------------------------------------------------
      1          6           0        0.131395    1.709152   -0.018262
      2          6           0        0.433039    0.235712   -0.231838
      3          6           0       -0.562059   -0.685069    0.494517
      4          6           0       -1.936167   -0.472487    0.051100
      5          7           0       -3.007004   -0.285710   -0.314440
      6          6           0        2.681325   -0.872443   -0.296851
      7          7           0        1.789991   -0.085405    0.233177
      8          1           0       -0.863218    1.956607   -0.389263
      9          1           0        0.165124    1.966984    1.044090
     10          1           0        0.858635    2.326313   -0.545927
     11          1           0       -0.515492   -0.512518    1.573399
     12          1           0       -0.294951   -1.728769    0.318572
     13          1           0        0.412417   -0.000816   -1.297284
     14          1           0        2.228397   -1.278477   -1.225367
     15          1           0        2.042981    0.379293    1.098622
 ---------------------------------------------------------------------

 SCF Done:  E(RHF) =  -304.289431830     A.U. after    2 cycles

 The electronic state is 1-A.
 Alpha  occ. eigenvalues --  -15.80372 -15.76902 -11.50225 -11.46916 -11.43561
 Alpha  occ. eigenvalues --  -11.40219 -11.39109  -1.46903  -1.32804  -1.20782
 Alpha  occ. eigenvalues --   -1.08165  -0.92873  -0.87506  -0.72892  -0.68464
 Alpha  occ. eigenvalues --   -0.66185  -0.61863  -0.58788  -0.56106  -0.53939
 Alpha  occ. eigenvalues --   -0.52503  -0.51921  -0.46704  -0.44481  -0.41414
 Alpha  occ. eigenvalues --   -0.33702
 Alpha virt. eigenvalues --    0.02944   0.04827   0.05084   0.05570   0.05715
 Alpha virt. eigenvalues --    0.06029   0.06907   0.07404   0.09238   0.10692
 Alpha virt. eigenvalues --    0.11283   0.12211   0.12751   0.12906   0.13363

 Mulliken charges:
               1
     1  C   -3.650851
     2  C   -0.771562
     3  C   -2.889185
     4  C    2.224433
     5  N   -2.432609
     6  C   -1.618703
     7  N   -1.850309
     8  H    1.270178
     9  H    1.236507
    10  H    1.202649
    11  H    1.540022
    12  H    1.589447
    13  H    1.946511
    14  H    1.595117
    15  H    0.608356
 Sum of Mulliken charges =   0.00000

 Dipole moment (field-independent basis, Debye):
    X=              0.1354    Y=              1.5630    Z=              1.0632  Tot=              1.8951

 Test job not archived.
 1\1\GINC-SE041\SP\RHF\Aug-CC-pVDZ\C5H8N2\OHZDE\09-Apr-2025\0\\#t hf au
 g-cc-pvdz iop(5/13=1,5/36=2,99/5=2) pseudo=read geom=check guess=(read
 ,tcheck) scf=(maxcycle=1)\\title\\0,1\C,0,-0.96763696,1.20026029,-0.04
 107897\C,0,-0.16926444,-0.06105032,0.24056978\C,0,1.20306623,-0.062158
 08,-0.45394862\C,0,2.0356252,1.06050153,-0.03387346\N,0,2.66933444,1.9
 5135601,0.31251977\C,0,-1.02343086,-2.41453618,0.37667551\N,0,-0.91375
 156,-1.2507714,-0.19643617\H,0,-0.43103286,2.08216301,0.3088257\H,0,-1
 .14541219,1.3212929,-1.11343759\H,0,-1.93185611,1.16080917,0.46579645\

 Normal termination of Gaussian 16 at Wed Apr  9 19:23:12 2025.
