 Gaussian 16, Revision C.01,

 ----------------------------------------------------------------------
 #t hf aug-cc-pvdz symm=none int=(grid=ultrafine) guess=(read,tcheck) s
 table=(opt,rrhf)
 ----------------------------------------------------------------------
 -----
 title
 -----
 Symbolic Z-matrix:
 Charge =  0 Multiplicity = 1

 SCF Done:  E(RHF) =  -310.039844572     A.U. after   16 cycles

 1\1\GINC-SE224\Stability\RHF\Aug-CC-pVDZ\C6H14O1\OHZDE\09-Apr-2025\0\\
 #t hf aug-cc-pvdz symm=none int=(grid=ultrafine) guess=(read,tcheck) s
 table=(opt,rrhf)\\title\\0,1\C,0,1.87677278,-1.77777488,0.41274197\O,0
 ,1.56816838,-0.23126106,-1.15162626\C,0,0.8184406,0.79129988,-0.842007
 2\C,0,-0.58089234,0.41726332,0.00585096\C,0,-1.13412075,1.77473029,0.4
 2287056\C,0,-1.50088311,-0.31926017,-0.95834171\C,0,-0.18573236,-0.411
 78774,1.13108058\H,0,1.64967847,-2.37023284,1.30114804\H,0,2.80881373,
 -1.23728548,0.4801149\H,0,1.764207,-2.33069324,-0.50680557\H,0,0.34069

 Normal termination of Gaussian 16 at Wed Apr  9 19:21:49 2025.
 Gaussian 16:  ES64L-G16RevC.01  3-Jul-2019

 ----------------------------------------------------------------------
 #t hf aug-cc-pvdz iop(5/13=1,5/36=2,99/5=2) pseudo=read geom=check gue
 ss=(read,tcheck) scf=(maxcycle=1)
 ----------------------------------------------------------------------
 -----
 title
 -----
 Structure from the checkpoint file:  "Grambow2020_wb97xd3_008660_forward_mol1.chk"
 Charge =  0 Multiplicity = 1

                         Standard orientation:
 ---------------------------------------------------------------------
 Center     Atomic      Atomic             Coordinates (Angstroms)
 Number     Number       Type             X           Y           Z
 ---------------------------------------------------------------------
      1          6           0       -2.486508   -0.590410   -0.062020
      2          8           0       -1.266365    1.259261    0.093410
      3          6           0       -0.047489    1.212445   -0.371065
      4          6           0        0.807419   -0.180058    0.012297
      5          6           0        2.078897   -0.074161   -0.821258
      6          6           0        1.082656   -0.134248    1.509182
      7          6           0       -0.030096   -1.307160   -0.358953
      8          1           0       -2.686601   -1.661242   -0.133625
      9          1           0       -2.882432   -0.020340   -0.888841
     10          1           0       -2.730777   -0.176237    0.903770
     11          1           0        0.629464    1.941740    0.110025
     12          1           0        0.044241    1.304994   -1.474042
     13          1           0        1.867591   -0.154530   -1.889151
     14          1           0        2.790996   -0.858885   -0.556222
     15          1           0        2.559058    0.892925   -0.644571
     16          1           0        0.147852   -0.032302    2.064046
     17          1           0        1.711185    0.722959    1.759736
     18          1           0        1.592841   -1.039124    1.849377
     19          1           0       -1.189901   -0.796085   -0.240952
     20          1           0       -0.147621   -2.129109    0.342687
     21          1           0       -0.004248   -1.627298   -1.398610
 ---------------------------------------------------------------------

 SCF Done:  E(RHF) =  -311.604511985     A.U. after    2 cycles

 The electronic state is 1-A.
 Alpha  occ. eigenvalues --  -20.94100 -11.50979 -11.45994 -11.40786 -11.39160
 Alpha  occ. eigenvalues --  -11.38563 -11.35619  -1.60116  -1.27865  -1.08401
 Alpha  occ. eigenvalues --   -1.00878  -0.99677  -0.89218  -0.77072  -0.64947
 Alpha  occ. eigenvalues --   -0.64296  -0.61958  -0.60200  -0.59446  -0.57733
 Alpha  occ. eigenvalues --   -0.55146  -0.52260  -0.51694  -0.46720  -0.45041
 Alpha  occ. eigenvalues --   -0.43126  -0.37109  -0.22120  -0.21887
 Alpha virt. eigenvalues --    0.02831   0.03776   0.04616   0.04879   0.05240
 Alpha virt. eigenvalues --    0.05655   0.06367   0.06985   0.07231   0.08075
 Alpha virt. eigenvalues --    0.08721   0.08881   0.08957   0.09533   0.10407

 Mulliken charges:
               1
     1  C   -5.185859
     2  O   -2.866454
     3  C   -0.350305
     4  C    1.858610
     5  C   -3.991403
     6  C   -4.980520
     7  C   -4.947236
     8  H    0.704789
     9  H    0.852423
    10  H    0.847132
    11  H    1.224275
    12  H    1.096231
    13  H    1.414623
    14  H    1.210084
    15  H    1.202266
    16  H    1.120964
    17  H    1.237819
    18  H    1.224138
    19  H    7.124942
    20  H    0.750471
    21  H    0.453010
 Sum of Mulliken charges =  -0.00000

 Dipole moment (field-independent basis, Debye):
    X=             -0.6457    Y=             -2.4858    Z=             -0.2104  Tot=              2.5769

 Test job not archived.
 1\1\GINC-SE224\SP\RHF\Aug-CC-pVDZ\C6H14O1\OHZDE\09-Apr-2025\0\\#t hf a
 ug-cc-pvdz iop(5/13=1,5/36=2,99/5=2) pseudo=read geom=check guess=(rea
 d,tcheck) scf=(maxcycle=1)\\title\\0,1\C,0,1.87677278,-1.77777488,0.41
 274197\O,0,1.56816838,-0.23126106,-1.15162626\C,0,0.8184406,0.79129988
 ,-0.8420072\C,0,-0.58089234,0.41726332,0.00585096\C,0,-1.13412075,1.77
 473029,0.42287056\C,0,-1.50088311,-0.31926017,-0.95834171\C,0,-0.18573
 236,-0.41178774,1.13108058\H,0,1.64967847,-2.37023284,1.30114804\H,0,2
 .80881373,-1.23728548,0.4801149\H,0,1.764207,-2.33069324,-0.50680557\H

 Normal termination of Gaussian 16 at Wed Apr  9 19:21:57 2025.
