 Gaussian 16, Revision C.01,

 ----------------------------------------------------------------------
 #t hf aug-cc-pvdz symm=none int=(grid=ultrafine) guess=(read,tcheck) s
 table=(opt,rrhf)
 ----------------------------------------------------------------------
 -----
 title
 -----
 Symbolic Z-matrix:
 Charge =  0 Multiplicity = 1

 SCF Done:  E(RHF) =  -354.639977448     A.U. after   15 cycles
 Normal termination of Gaussian 16 at Wed Apr  9 03:39:45 2025.
 Gaussian 16:  ES64L-G16RevC.01  3-Jul-2019

 ----------------------------------------------------------------------
 #t hf aug-cc-pvdz iop(5/13=1,5/36=2,99/5=2) pseudo=read geom=check gue
 ss=(read,tcheck) scf=(maxcycle=1)
 ----------------------------------------------------------------------
 -----
 title
 -----
 Structure from the checkpoint file:  "Grambow2020_wb97xd3_007465_reverse_mol1.chk"
 Charge =  0 Multiplicity = 1

                         Standard orientation:
 ---------------------------------------------------------------------
 Center     Atomic      Atomic             Coordinates (Angstroms)
 Number     Number       Type             X           Y           Z
 ---------------------------------------------------------------------
      1          7           0       -2.247227   -0.643479   -0.133394
      2          6           0       -1.184832    0.123524    0.123281
      3          6           0       -0.591125    1.330164    0.089521
      4          7           0        0.830178    1.111803   -0.012089
      5          6           0        1.176891   -0.185299   -0.053012
      6          8           0        2.244945   -0.723301   -0.124260
      7          7           0       -0.112731   -0.891850    0.158495
      8          1           0       -3.081056   -0.185794   -0.467826
      9          1           0       -1.022944   -1.425144   -0.459499
     10          1           0       -1.010398    2.294593   -0.132921
     11          1           0        1.528010    1.831789   -0.048961
     12          1           0       -0.070319   -1.374686    1.053459
 ---------------------------------------------------------------------

 SCF Done:  E(RHF) =  -356.229521463     A.U. after    2 cycles

 The electronic state is 1-A.
 Alpha  occ. eigenvalues --  -21.06172 -15.81812 -15.79640 -15.70020 -11.54074
 Alpha  occ. eigenvalues --  -11.48602 -11.40478  -1.75396  -1.57170  -1.38432
 Alpha  occ. eigenvalues --   -1.24531  -1.05400  -0.90348  -0.84232  -0.74033
 Alpha  occ. eigenvalues --   -0.68449  -0.65998  -0.60504  -0.56099  -0.53888
 Alpha  occ. eigenvalues --   -0.51828  -0.47185  -0.40958  -0.36472  -0.32243
 Alpha  occ. eigenvalues --   -0.23421
 Alpha virt. eigenvalues --    0.03146   0.05394   0.05562   0.05943   0.07276
 Alpha virt. eigenvalues --    0.09874   0.10510   0.10703   0.11773   0.12478
 Alpha virt. eigenvalues --    0.13216   0.13703   0.14297   0.14617   0.15639

 Mulliken charges:
               1
     1  N   -3.068452
     2  C    3.375518
     3  C   -0.688509
     4  N   -2.623778
     5  C    4.827190
     6  O   -3.037202
     7  N   -2.683048
     8  H    0.712246
     9  H    0.517124
    10  H    1.295938
    11  H    0.726679
    12  H    0.646294
 Sum of Mulliken charges =  -0.00000

 Dipole moment (field-independent basis, Debye):
    X=              0.7933    Y=              1.4072    Z=              0.0283  Tot=              1.6157

 Test job not archived.
 1\1\GINC-SE108\SP\RHF\Aug-CC-pVDZ\C3H5N3O1\OHZDE\09-Apr-2025\0\\#t hf
 aug-cc-pvdz iop(5/13=1,5/36=2,99/5=2) pseudo=read geom=check guess=(re
 ad,tcheck) scf=(maxcycle=1)\\title\\0,1\N,0,2.06664288,-0.23924212,-0.
 13898316\C,0,0.80777936,0.16108186,-0.33357196\C,0,-0.08054068,1.15985
 54,-0.4850501\N,0,-1.35194195,0.68765281,0.00349055\C,0,-1.31846968,-0
 .57129017,0.47071823\O,0,-2.17218276,-1.27313029,0.9331626\N,0,0.06399
 502,-1.01646053,0.15816466\H,0,2.78551753,0.4676983,-0.14570828\H,0,1.
 17257887,-1.11827182,0.66361877\H,0,0.0883348,2.21085549,-0.63429511\H

 Normal termination of Gaussian 16 at Wed Apr  9 03:39:49 2025.
