 Gaussian 16, Revision C.01,

 ----------------------------------------------------------------------
 #t hf aug-cc-pvdz symm=none int=(grid=ultrafine) guess=(read,tcheck) s
 table=(opt,rrhf)
 ----------------------------------------------------------------------
 -----
 title
 -----
 Symbolic Z-matrix:
 Charge =  0 Multiplicity = 1

 SCF Done:  E(RHF) =  -307.906903125     A.U. after   13 cycles

 1\1\GINC-SE131\Stability\RHF\Aug-CC-pVDZ\C6H10O1\OHZDE\09-Apr-2025\0\\
 #t hf aug-cc-pvdz symm=none int=(grid=ultrafine) guess=(read,tcheck) s
 table=(opt,rrhf)\\title\\0,1\C,0,-2.22582284,0.25499692,0.17210604\C,0
 ,-0.73415474,0.17401523,0.40603197\C,0,-0.15721563,-1.20935892,0.12626
 898\C,0,1.34134574,-1.15300728,0.06687612\C,0,1.98345824,-0.00072301,-
 0.04955574\C,0,1.25109545,1.30066818,-0.18240604\O,0,-0.12235533,1.135
 17739,-0.43800034\H,0,-2.75179514,-0.4763595,0.78867652\H,0,-2.4514605
 8,0.05204667,-0.8766209\H,0,-2.59825024,1.24988823,0.41729469\H,0,-0.5

 Normal termination of Gaussian 16 at Wed Apr  9 19:29:19 2025.
 Gaussian 16:  ES64L-G16RevC.01  3-Jul-2019

 ----------------------------------------------------------------------
 #t hf aug-cc-pvdz iop(5/13=1,5/36=2,99/5=2) pseudo=read geom=check gue
 ss=(read,tcheck) scf=(maxcycle=1)
 ----------------------------------------------------------------------
 -----
 title
 -----
 Structure from the checkpoint file:  "Grambow2020_wb97xd3_009030_forward_mol2.chk"
 Charge =  0 Multiplicity = 1

                         Standard orientation:
 ---------------------------------------------------------------------
 Center     Atomic      Atomic             Coordinates (Angstroms)
 Number     Number       Type             X           Y           Z
 ---------------------------------------------------------------------
      1          6           0        2.354236   -0.076410   -0.009405
      2          6           0        0.880860   -0.005793    0.323052
      3          6           0        0.231811    1.306361   -0.103371
      4          6           0       -1.263833    1.199065   -0.040719
      5          6           0       -1.866951    0.023981    0.054418
      6          6           0       -1.095426   -1.261459    0.050245
      7          8           0        0.248932   -1.094716   -0.329203
      8          1           0        2.893508    0.750237    0.456994
      9          1           0        2.496901   -0.018745   -1.090262
     10          1           0        2.781778   -1.015028    0.343912
     11          1           0        0.743626   -0.120780    1.410440
     12          1           0        0.551352    1.564853   -1.119574
     13          1           0        0.578049    2.114887    0.547553
     14          1           0       -1.846889    2.113658   -0.067370
     15          1           0       -2.946781   -0.047803    0.132920
     16          1           0       -1.156274   -1.738343    1.042190
     17          1           0       -1.530912   -1.959676   -0.668495
 ---------------------------------------------------------------------

 SCF Done:  E(RHF) =  -309.380918542     A.U. after    2 cycles

 The electronic state is 1-A.
 Alpha  occ. eigenvalues --  -21.03374 -11.46488 -11.44288 -11.41833 -11.40347
 Alpha  occ. eigenvalues --  -11.37515 -11.35331  -1.76260  -1.22736  -1.16076
 Alpha  occ. eigenvalues --   -1.01501  -0.92689  -0.85296  -0.73758  -0.68437
 Alpha  occ. eigenvalues --   -0.63371  -0.61826  -0.58306  -0.55195  -0.52952
 Alpha  occ. eigenvalues --   -0.51679  -0.50214  -0.47066  -0.42620  -0.36698
 Alpha  occ. eigenvalues --   -0.33317  -0.28648
 Alpha virt. eigenvalues --    0.03995   0.05027   0.05099   0.05555   0.05837
 Alpha virt. eigenvalues --    0.06043   0.06739   0.07100   0.07371   0.08276
 Alpha virt. eigenvalues --    0.11838   0.12152   0.12951   0.13905   0.14611

 Mulliken charges:
               1
     1  C   -4.230504
     2  C    0.393871
     3  C   -3.375223
     4  C    0.180714
     5  C   -0.758504
     6  C   -2.135387
     7  O   -3.458584
     8  H    1.174642
     9  H    1.220826
    10  H    1.197172
    11  H    1.963102
    12  H    1.383365
    13  H    1.166450
    14  H    1.413094
    15  H    1.509986
    16  H    1.194958
    17  H    1.160021
 Sum of Mulliken charges =   0.00000

 Dipole moment (field-independent basis, Debye):
    X=             -0.1118    Y=              0.2874    Z=              0.2573  Tot=              0.4016

 Test job not archived.
 1\1\GINC-SE131\SP\RHF\Aug-CC-pVDZ\C6H10O1\OHZDE\09-Apr-2025\0\\#t hf a
 ug-cc-pvdz iop(5/13=1,5/36=2,99/5=2) pseudo=read geom=check guess=(rea
 d,tcheck) scf=(maxcycle=1)\\title\\0,1\C,0,-2.22582284,0.25499692,0.17
 210604\C,0,-0.73415474,0.17401523,0.40603197\C,0,-0.15721563,-1.209358
 92,0.12626898\C,0,1.34134574,-1.15300728,0.06687612\C,0,1.98345824,-0.
 00072301,-0.04955574\C,0,1.25109545,1.30066818,-0.18240604\O,0,-0.1223
 5533,1.13517739,-0.43800034\H,0,-2.75179514,-0.4763595,0.78867652\H,0,
 -2.45146058,0.05204667,-0.8766209\H,0,-2.59825024,1.24988823,0.4172946

 Normal termination of Gaussian 16 at Wed Apr  9 19:29:25 2025.
