 Gaussian 16, Revision C.01,

 ----------------------------------------------------------------------
 #t hf aug-cc-pvdz symm=none int=(grid=ultrafine) guess=(read,tcheck) s
 table=(opt,rrhf)
 ----------------------------------------------------------------------
 -----
 title
 -----
 Symbolic Z-matrix:
 Charge =  0 Multiplicity = 1

 SCF Done:  E(RHF) =  -286.716191339     A.U. after   16 cycles
 Normal termination of Gaussian 16 at Wed Apr  9 18:46:49 2025.
 Gaussian 16:  ES64L-G16RevC.01  3-Jul-2019

 ----------------------------------------------------------------------
 #t hf aug-cc-pvdz iop(5/13=1,5/36=2,99/5=2) pseudo=read geom=check gue
 ss=(read,tcheck) scf=(maxcycle=1)
 ----------------------------------------------------------------------
 -----
 title
 -----
 Structure from the checkpoint file:  "Grambow2020_wb97xd3_007642_reverse_mol1.chk"
 Charge =  0 Multiplicity = 1

                         Standard orientation:
 ---------------------------------------------------------------------
 Center     Atomic      Atomic             Coordinates (Angstroms)
 Number     Number       Type             X           Y           Z
 ---------------------------------------------------------------------
      1          6           0        1.989867   -0.700561    0.298239
      2          6           0        0.816486   -0.024191   -0.330173
      3          6           0        0.816621    1.273754   -0.666374
      4          6           0       -0.547517    0.847497    1.301374
      5          6           0       -1.289388   -0.284119    0.640252
      6          7           0       -1.703602   -0.290965   -0.757463
      7          6           0       -0.421446   -0.869684   -0.401882
      8          1           0        1.690422   -1.178263    1.232699
      9          1           0        2.799280   -0.001821    0.501702
     10          1           0        2.358795   -1.481958   -0.372474
     11          1           0        1.672721    1.895984   -0.441450
     12          1           0        0.009827    1.740563   -1.215256
     13          1           0       -0.988935    1.811433    0.991516
     14          1           0       -1.880266   -0.894596    1.318156
     15          1           0       -1.623261    0.622267   -1.187824
     16          1           0       -0.301109   -1.933028   -0.573450
 ---------------------------------------------------------------------

 SCF Done:  E(RHF) =  -288.102082286     A.U. after    2 cycles

 The electronic state is 1-A.
 Alpha  occ. eigenvalues --  -15.73892 -11.50491 -11.45746 -11.42092 -11.40464
 Alpha  occ. eigenvalues --  -11.40305 -11.37917  -1.49370  -1.22750  -1.03440
 Alpha  occ. eigenvalues --   -1.01244  -0.95026  -0.82715  -0.75458  -0.68149
 Alpha  occ. eigenvalues --   -0.66148  -0.60451  -0.57979  -0.57029  -0.51812
 Alpha  occ. eigenvalues --   -0.47443  -0.46883  -0.44562  -0.40006  -0.33333
 Alpha  occ. eigenvalues --   -0.30139
 Alpha virt. eigenvalues --    0.03709   0.04867   0.05284   0.05524   0.05752
 Alpha virt. eigenvalues --    0.06216   0.06625   0.07309   0.08847   0.08968
 Alpha virt. eigenvalues --    0.09279   0.11564   0.13043   0.13620   0.13928

 Mulliken charges:
               1
     1  C   -4.511698
     2  C    2.147540
     3  C   -4.206091
     4  C   -2.662902
     5  C    0.706405
     6  N   -2.692852
     7  C   -0.577540
     8  H    1.309080
     9  H    1.368469
    10  H    1.119175
    11  H    1.630923
    12  H    1.494439
    13  H    1.229808
    14  H    1.577356
    15  H    0.575346
    16  H    1.492542
 Sum of Mulliken charges =   0.00000

 Dipole moment (field-independent basis, Debye):
    X=              0.8582    Y=             -0.0377    Z=             -1.3907  Tot=              1.6346

 Test job not archived.
 1\1\GINC-SE029\SP\RHF\Aug-CC-pVDZ\C6H9N1\OHZDE\09-Apr-2025\0\\#t hf au
 g-cc-pvdz iop(5/13=1,5/36=2,99/5=2) pseudo=read geom=check guess=(read
 ,tcheck) scf=(maxcycle=1)\\title\\0,1\C,0,1.56673283,-0.70415004,0.896
 3137\C,0,0.58495792,-0.3442592,-0.16942319\C,0,0.87054506,0.50365336,-
 1.16801075\C,0,-0.6202561,1.50453729,0.47221545\C,0,-1.56073855,0.3284
 7074,0.45300353\N,0,-1.91831966,-0.41958579,-0.74606903\C,0,-0.8002170
 4,-0.87502716,0.05872799\H,0,1.14101731,-0.50303157,1.88089461\H,0,2.4
 9776667,-0.14971523,0.79354172\H,0,1.78557941,-1.7744164,0.83990794\H,

 Normal termination of Gaussian 16 at Wed Apr  9 18:46:54 2025.
