 Gaussian 16, Revision C.01,

 ----------------------------------------------------------------------
 #t hf aug-cc-pvdz symm=none int=(grid=ultrafine) guess=(read,tcheck) s
 table=(opt,rrhf)
 ----------------------------------------------------------------------
 -----
 title
 -----
 Symbolic Z-matrix:
 Charge =  0 Multiplicity = 1

 SCF Done:  E(RHF) =  -380.717525692     A.U. after   14 cycles
 Normal termination of Gaussian 16 at Wed Apr  9 19:14:59 2025.
 Gaussian 16:  ES64L-G16RevC.01  3-Jul-2019

 ----------------------------------------------------------------------
 #t hf aug-cc-pvdz iop(5/13=1,5/36=2,99/5=2) pseudo=read geom=check gue
 ss=(read,tcheck) scf=(maxcycle=1)
 ----------------------------------------------------------------------
 -----
 title
 -----
 Structure from the checkpoint file:  "Grambow2020_wb97xd3_008490_reverse_mol2.chk"
 Charge =  0 Multiplicity = 1

                         Standard orientation:
 ---------------------------------------------------------------------
 Center     Atomic      Atomic             Coordinates (Angstroms)
 Number     Number       Type             X           Y           Z
 ---------------------------------------------------------------------
      1          6           0       -3.263307   -0.251573    0.167138
      2          8           0       -2.127883   -1.028734   -0.163371
      3          6           0        0.118877    0.829566    0.014441
      4          8           0       -0.524859    1.732552   -0.317716
      5          6           0        0.877281   -0.161833    0.412074
      6          6           0        2.361040   -0.018980    0.510993
      7          8           0        2.973739   -0.693670   -0.578813
      8          1           0       -3.198110    0.761633   -0.242352
      9          1           0       -4.191638   -0.719776   -0.176063
     10          1           0       -3.295214   -0.181980    1.253723
     11          1           0        0.377162   -1.102352    0.594772
     12          1           0       -2.078653   -1.114430   -1.116458
     13          1           0        2.633996    1.042934    0.513844
     14          1           0        2.698678   -0.450609    1.460371
     15          1           0        3.922457   -0.699693   -0.436515
 ---------------------------------------------------------------------

 SCF Done:  E(RHF) =  -382.388510660     A.U. after    2 cycles

 The electronic state is 1-A.
 Alpha  occ. eigenvalues --  -21.12523 -21.07354 -21.06986 -11.53803 -11.44868
 Alpha  occ. eigenvalues --  -11.39868 -11.38437  -1.76661  -1.71229  -1.70704
 Alpha  occ. eigenvalues --   -1.16331  -0.97618  -0.93593  -0.71994  -0.65675
 Alpha  occ. eigenvalues --   -0.64198  -0.62076  -0.60254  -0.57386  -0.54729
 Alpha  occ. eigenvalues --   -0.54360  -0.53870  -0.46145  -0.42308  -0.41469
 Alpha  occ. eigenvalues --   -0.32580  -0.32243  -0.27503
 Alpha virt. eigenvalues --    0.03425   0.04829   0.05701   0.06106   0.06326
 Alpha virt. eigenvalues --    0.06827   0.07159   0.07908   0.10027   0.11344
 Alpha virt. eigenvalues --    0.12550   0.12739   0.13060   0.14780   0.15556

 Mulliken charges:
               1
     1  C   -2.536950
     2  O   -2.368782
     3  C    1.655599
     4  O   -2.438224
     5  C   -0.265776
     6  C   -1.755518
     7  O   -2.357859
     8  H    1.388746
     9  H    1.275835
    10  H    1.334767
    11  H    1.616172
    12  H    0.922559
    13  H    1.429833
    14  H    1.306326
    15  H    0.793272
 Sum of Mulliken charges =  -0.00000

 Dipole moment (field-independent basis, Debye):
    X=             -0.6468    Y=              0.4499    Z=             -0.0994  Tot=              0.7942

 Test job not archived.
 1\1\GINC-SE113\SP\RHF\Aug-CC-pVDZ\C4H8O3\OHZDE\09-Apr-2025\0\\#t hf au
 g-cc-pvdz iop(5/13=1,5/36=2,99/5=2) pseudo=read geom=check guess=(read
 ,tcheck) scf=(maxcycle=1)\\title\\0,1\C,0,-3.0854918,-0.1445715,0.1863
 4851\O,0,-1.91395769,-0.52306583,0.88395501\C,0,0.26790889,0.02951958,
 -0.97801473\O,0,-0.38483945,-0.2043189,-1.90502428\C,0,1.03456557,0.32
 14687,0.04333948\C,0,2.50728115,0.51511066,-0.11586278\O,0,3.18999254,
 -0.62629583,0.38351859\H,0,-3.02986955,-0.40315368,-0.87598832\H,0,-3.
 98275978,-0.59729951,0.62079885\H,0,-3.17088835,0.93790725,0.27281269\

 Normal termination of Gaussian 16 at Wed Apr  9 19:15:03 2025.
