 Gaussian 16, Revision C.01,

 ----------------------------------------------------------------------
 #t hf aug-cc-pvdz symm=none int=(grid=ultrafine) guess=(read,tcheck) s
 table=(opt,rrhf)
 ----------------------------------------------------------------------
 -----
 title
 -----
 Symbolic Z-matrix:
 Charge =  0 Multiplicity = 1

 SCF Done:  E(RHF) =  -304.662572773     A.U. after   14 cycles
 Normal termination of Gaussian 16 at Wed Apr  9 03:15:51 2025.
 Gaussian 16:  ES64L-G16RevC.01  3-Jul-2019

 ----------------------------------------------------------------------
 #t hf aug-cc-pvdz iop(5/13=1,5/36=2,99/5=2) pseudo=read geom=check gue
 ss=(read,tcheck) scf=(maxcycle=1)
 ----------------------------------------------------------------------
 -----
 title
 -----
 Structure from the checkpoint file:  "Grambow2020_b97d3_006985_reverse_mol2.chk"
 Charge =  0 Multiplicity = 1

                         Standard orientation:
 ---------------------------------------------------------------------
 Center     Atomic      Atomic             Coordinates (Angstroms)
 Number     Number       Type             X           Y           Z
 ---------------------------------------------------------------------
      1          6           0       -2.133001   -0.112368    0.476466
      2          6           0       -0.974935    0.105107   -0.473795
      3          6           0        0.092823    1.130028   -0.141863
      4          6           0        0.930399    0.072972   -0.012111
      5          8           0        2.206196   -0.230575    0.278578
      6          8           0        0.079559   -0.967383   -0.290824
      7          1           0       -1.776438   -0.148176    1.513286
      8          1           0       -2.662519   -1.047158    0.242647
      9          1           0       -2.846232    0.719410    0.380170
     10          1           0       -1.291863    0.068470   -1.525701
     11          1           0        2.672418    0.609960    0.446447
     12          1           0        0.126878    2.206735   -0.051060
 ---------------------------------------------------------------------

 SCF Done:  E(RHF) =  -306.023204259     A.U. after    2 cycles

 The electronic state is 1-A.
 Alpha  occ. eigenvalues --  -21.13125 -21.06452 -11.50624 -11.47147 -11.39031
 Alpha  occ. eigenvalues --  -11.37160  -1.84279  -1.71519  -1.15528  -1.06140
 Alpha  occ. eigenvalues --   -0.87980  -0.74698  -0.69621  -0.64384  -0.61403
 Alpha  occ. eigenvalues --   -0.56073  -0.54195  -0.49298  -0.47155  -0.41838
 Alpha  occ. eigenvalues --   -0.39108  -0.34815  -0.26840
 Alpha virt. eigenvalues --    0.03298   0.05087   0.05299   0.05932   0.06528
 Alpha virt. eigenvalues --    0.06666   0.10667   0.11053   0.11697   0.12217
 Alpha virt. eigenvalues --    0.12989   0.14566   0.14940   0.15440   0.15880

 Mulliken charges:
               1
     1  C   -3.736946
     2  C    0.300994
     3  C   -2.636488
     4  C    5.101526
     5  O   -3.251007
     6  O   -2.851970
     7  H    1.308823
     8  H    1.251494
     9  H    1.165737
    10  H    1.490237
    11  H    0.907903
    12  H    0.949698
 Sum of Mulliken charges =   0.00000

 Dipole moment (field-independent basis, Debye):
    X=              0.4851    Y=              0.4261    Z=              0.1798  Tot=              0.6702

 Test job not archived.
 1\1\GINC-SE322\SP\RHF\Aug-CC-pVDZ\C4H6O2\OHZDE\09-Apr-2025\0\\#t hf au
 g-cc-pvdz iop(5/13=1,5/36=2,99/5=2) pseudo=read geom=check guess=(read
 ,tcheck) scf=(maxcycle=1)\\title\\0,1\C,0,-1.65572573,-0.30399258,0.46
 096849\C,0,-0.53361863,-0.03643341,-0.51918207\C,0,0.58331224,0.919817
 09,-0.14662468\C,0,1.38785078,-0.17033035,-0.15242714\O,0,2.66365908,-
 0.53899132,0.04931964\O,0,0.48928676,-1.15360461,-0.48364042\H,0,-1.25
 538298,-0.44599725,1.47239103\H,0,-2.22776918,-1.19635854,0.16883571\H
 ,0,-2.34261822,0.55498286,0.47385521\H,0,-0.89761735,0.03361699,-1.554

 Normal termination of Gaussian 16 at Wed Apr  9 03:15:56 2025.
