 Gaussian 16, Revision C.01,

 ----------------------------------------------------------------------
 #t hf aug-cc-pvdz symm=none int=(grid=ultrafine) guess=(read,tcheck) s
 table=(opt,rrhf)
 ----------------------------------------------------------------------
 -----
 title
 -----
 Symbolic Z-matrix:
 Charge =  0 Multiplicity = 1

 SCF Done:  E(RHF) =  -322.547106992     A.U. after   15 cycles
 Normal termination of Gaussian 16 at Wed Apr  9 03:26:50 2025.
 Gaussian 16:  ES64L-G16RevC.01  3-Jul-2019

 ----------------------------------------------------------------------
 #t hf aug-cc-pvdz iop(5/13=1,5/36=2,99/5=2) pseudo=read geom=check gue
 ss=(read,tcheck) scf=(maxcycle=1)
 ----------------------------------------------------------------------
 -----
 title
 -----
 Structure from the checkpoint file:  "Grambow2020_wb97xd3_006644_reverse_mol2.chk"
 Charge =  0 Multiplicity = 1

                         Standard orientation:
 ---------------------------------------------------------------------
 Center     Atomic      Atomic             Coordinates (Angstroms)
 Number     Number       Type             X           Y           Z
 ---------------------------------------------------------------------
      1          6           0       -1.710151   -0.217519    0.757595
      2          7           0       -1.606992   -0.809229   -0.531098
      3          6           0       -0.522097    0.137901   -0.162770
      4          6           0       -0.647745    1.540797   -0.213759
      5          6           0        1.936296    0.204315    0.610384
      6          6           0        0.784694   -0.539903    0.117219
      7          8           0        1.845985   -0.193631   -0.749693
      8          1           0       -2.481418    0.515783    0.965875
      9          1           0       -1.414429   -0.828285    1.602952
     10          1           0       -2.247228   -0.359365   -1.176212
     11          1           0       -1.639662    1.783351   -0.632650
     12          1           0        1.824287    1.269115    0.784809
     13          1           0        2.691331   -0.316063    1.192647
     14          1           0        0.702205   -1.604440    0.325800
 ---------------------------------------------------------------------

 SCF Done:  E(RHF) =  -324.010204913     A.U. after    2 cycles

 The electronic state is 1-A.
 Alpha  occ. eigenvalues --  -21.05888 -15.77090 -11.51710 -11.48398 -11.44579
 Alpha  occ. eigenvalues --  -11.42077 -11.39920  -1.78959  -1.50284  -1.09224
 Alpha  occ. eigenvalues --   -0.98584  -0.94951  -0.92939  -0.79147  -0.71553
 Alpha  occ. eigenvalues --   -0.65741  -0.62875  -0.59507  -0.53333  -0.52166
 Alpha  occ. eigenvalues --   -0.47161  -0.45426  -0.40515  -0.35834  -0.32631
 Alpha  occ. eigenvalues --   -0.30567
 Alpha virt. eigenvalues --    0.03604   0.04611   0.05232   0.05532   0.06101
 Alpha virt. eigenvalues --    0.06542   0.07268   0.09108   0.09221   0.11529
 Alpha virt. eigenvalues --    0.11784   0.13050   0.13475   0.14087   0.14777

 Mulliken charges:
               1
     1  C   -1.756059
     2  N   -2.671048
     3  C    2.184273
     4  C   -3.055643
     5  C   -1.710807
     6  C    0.842594
     7  O   -2.661356
     8  H    1.271764
     9  H    1.460923
    10  H    0.511383
    11  H    1.154375
    12  H    1.634938
    13  H    1.359558
    14  H    1.435104
 Sum of Mulliken charges =  -0.00000

 Dipole moment (field-independent basis, Debye):
    X=             -2.2628    Y=             -1.3651    Z=              0.5158  Tot=              2.6926

 Test job not archived.
 1\1\GINC-SE165\SP\RHF\Aug-CC-pVDZ\C5H7N1O1\OHZDE\09-Apr-2025\0\\#t hf
 aug-cc-pvdz iop(5/13=1,5/36=2,99/5=2) pseudo=read geom=check guess=(re
 ad,tcheck) scf=(maxcycle=1)\\title\\0,1\C,0,-1.48875543,-0.69406976,-0
 .16102685\N,0,-1.68177682,0.70581906,-0.00435405\C,0,-0.33146298,0.193
 1994,0.3472011\C,0,-0.02438946,-0.45551874,1.56020444\C,0,2.08493457,0
 .0672686,-0.54220129\C,0,0.72307038,0.57488083,-0.64667666\O,0,1.76191
 929,1.39194912,-0.14570369\H,0,-1.97720993,-1.39472666,0.50714748\H,0,
 -1.32418901,-1.05679968,-1.16922346\H,0,-2.20533409,0.89530829,0.84324

 Normal termination of Gaussian 16 at Wed Apr  9 03:26:55 2025.
