 Gaussian 16, Revision C.01,

 ----------------------------------------------------------------------
 #t hf aug-cc-pvdz symm=none int=(grid=ultrafine) guess=(read,tcheck) s
 table=(opt,rrhf)
 ----------------------------------------------------------------------
 -----
 title
 -----
 Symbolic Z-matrix:
 Charge =  0 Multiplicity = 1

 SCF Done:  E(RHF) =  -338.672720244     A.U. after   14 cycles
 Normal termination of Gaussian 16 at Wed Apr  9 03:52:33 2025.
 Gaussian 16:  ES64L-G16RevC.01  3-Jul-2019

 ----------------------------------------------------------------------
 #t hf aug-cc-pvdz iop(5/13=1,5/36=2,99/5=2) pseudo=read geom=check gue
 ss=(read,tcheck) scf=(maxcycle=1)
 ----------------------------------------------------------------------
 -----
 title
 -----
 Structure from the checkpoint file:  "Grambow2020_wb97xd3_008313_reverse_mol2.chk"
 Charge =  0 Multiplicity = 1

                         Standard orientation:
 ---------------------------------------------------------------------
 Center     Atomic      Atomic             Coordinates (Angstroms)
 Number     Number       Type             X           Y           Z
 ---------------------------------------------------------------------
      1          6           0        2.469284    0.231165    0.008443
      2          8           0        1.355907   -0.541584   -0.388838
      3          6           0        0.208568   -0.258510    0.316059
      4          6           0       -0.905730   -1.265725    0.093159
      5          7           0       -1.923715   -0.448588   -0.081562
      6          6           0       -1.550101    0.932336   -0.102108
      7          7           0       -0.319160    1.105491    0.078224
      8          1           0        2.295255    1.296982   -0.159742
      9          1           0        3.312852   -0.101179   -0.593363
     10          1           0        2.696249    0.067419    1.069246
     11          1           0        0.378448   -0.305236    1.411975
     12          1           0       -2.870457   -0.765653   -0.221968
     13          1           0       -2.291599    1.706428   -0.265391
 ---------------------------------------------------------------------

 SCF Done:  E(RHF) =  -340.193113735     A.U. after    2 cycles

 The electronic state is 1-A.
 Alpha  occ. eigenvalues --  -21.05391 -15.81117 -15.73776 -11.45909 -11.44931
 Alpha  occ. eigenvalues --  -11.40110 -11.39052  -1.78127  -1.54423  -1.28946
 Alpha  occ. eigenvalues --   -1.07807  -0.96641  -0.84576  -0.81995  -0.72793
 Alpha  occ. eigenvalues --   -0.66001  -0.62526  -0.60847  -0.56564  -0.52736
 Alpha  occ. eigenvalues --   -0.48602  -0.43556  -0.40343  -0.37573  -0.34388
 Alpha  occ. eigenvalues --   -0.30320
 Alpha virt. eigenvalues --    0.03109   0.05031   0.05481   0.06358   0.06768
 Alpha virt. eigenvalues --    0.07092   0.08776   0.10002   0.10547   0.11622
 Alpha virt. eigenvalues --    0.11980   0.13231   0.13867   0.14848   0.15044

 Mulliken charges:
               1
     1  C   -3.018406
     2  O   -3.293364
     3  C    2.337683
     4  C   -0.979274
     5  N   -2.217234
     6  C    1.693286
     7  N   -2.733798
     8  H    1.341203
     9  H    1.261863
    10  H    1.286468
    11  H    1.903629
    12  H    0.827716
    13  H    1.590230
 Sum of Mulliken charges =   0.00000

 Dipole moment (field-independent basis, Debye):
    X=             -2.2137    Y=              1.9121    Z=             -0.0754  Tot=              2.9261

 Test job not archived.
 1\1\GINC-SE058\SP\RHF\Aug-CC-pVDZ\C4H6N2O1\OHZDE\09-Apr-2025\0\\#t hf
 aug-cc-pvdz iop(5/13=1,5/36=2,99/5=2) pseudo=read geom=check guess=(re
 ad,tcheck) scf=(maxcycle=1)\\title\\0,1\C,0,2.22683809,0.09063747,-0.4
 6733219\O,0,1.04516734,-0.62904183,-0.75070468\C,0,0.02890113,-0.39585
 69,0.14719577\C,0,-1.13289002,-1.36469202,0.01518506\N,0,-2.14353802,-
 0.52225878,0.07375945\C,0,-1.7410003,0.85005298,0.11479142\N,0,-0.4928
 1723,0.99060876,0.11427512\H,0,2.05727528,1.16938516,-0.51304401\H,0,2
 .9577808,-0.19700688,-1.22046785\H,0,2.61104488,-0.17064145,0.52652177

 Normal termination of Gaussian 16 at Wed Apr  9 03:52:38 2025.
