 Gaussian 16, Revision C.01,

 ----------------------------------------------------------------------
 #t hf aug-cc-pvdz symm=none int=(grid=ultrafine) guess=(read,tcheck) s
 table=(opt,rrhf)
 ----------------------------------------------------------------------
 -----
 title
 -----
 Symbolic Z-matrix:
 Charge =  0 Multiplicity = 1

 SCF Done:  E(RHF) =  -309.011633493     A.U. after   15 cycles

 1\1\GINC-SE104\Stability\RHF\Aug-CC-pVDZ\C6H12O1\OHZDE\09-Apr-2025\0\\
 #t hf aug-cc-pvdz symm=none int=(grid=ultrafine) guess=(read,tcheck) s
 table=(opt,rrhf)\\title\\0,1\C,0,-1.57904292,-0.61102938,-0.70860421\C
 ,0,-1.03060012,0.34655961,0.3437589\C,0,-2.09219244,0.70991392,1.37746
 756\C,0,0.18280233,-0.22559819,1.05421146\O,0,1.23907656,-0.5122225,0.
 11573198\C,0,2.17301579,0.381068,0.00591203\C,0,3.14417954,-0.08546242
 ,-1.02869383\H,0,-2.42641947,-0.16384184,-1.23185408\H,0,-0.82144118,-
 0.86841884,-1.44943227\H,0,-1.92647424,-1.53931771,-0.24557967\H,0,-0.

 Normal termination of Gaussian 16 at Wed Apr  9 18:50:02 2025.
 Gaussian 16:  ES64L-G16RevC.01  3-Jul-2019

 ----------------------------------------------------------------------
 #t hf aug-cc-pvdz iop(5/13=1,5/36=2,99/5=2) pseudo=read geom=check gue
 ss=(read,tcheck) scf=(maxcycle=1)
 ----------------------------------------------------------------------
 -----
 title
 -----
 Structure from the checkpoint file:  "Grambow2020_wb97xd3_007693_reverse_mol2.chk"
 Charge =  0 Multiplicity = 1

                         Standard orientation:
 ---------------------------------------------------------------------
 Center     Atomic      Atomic             Coordinates (Angstroms)
 Number     Number       Type             X           Y           Z
 ---------------------------------------------------------------------
      1          6           0        1.451105    1.491854    0.089199
      2          6           0        1.279065    0.034477   -0.325156
      3          6           0        2.606621   -0.716661   -0.294408
      4          6           0        0.274930   -0.690310    0.552823
      5          8           0       -1.016163   -0.051704    0.490586
      6          6           0       -1.883569   -0.578843   -0.316879
      7          6           0       -3.131419    0.240138   -0.258928
      8          1           0        2.147952    2.002290   -0.578389
      9          1           0        0.502960    2.029844    0.064235
     10          1           0        1.851653    1.562163    1.104796
     11          1           0        0.881897    0.000439   -1.346196
     12          1           0        3.024520   -0.732702    0.716443
     13          1           0        3.338288   -0.233635   -0.944102
     14          1           0        2.493513   -1.750026   -0.628684
     15          1           0        0.571127   -0.652566    1.604291
     16          1           0        0.144720   -1.725985    0.236866
     17          1           0       -3.088001    1.110336    0.403749
     18          1           0       -3.944213   -0.427337    0.042176
     19          1           0       -3.375513    0.546887   -1.279785
 ---------------------------------------------------------------------

 SCF Done:  E(RHF) =  -310.516284695     A.U. after    2 cycles

 The electronic state is 1-A.
 Alpha  occ. eigenvalues --  -21.10098 -11.45079 -11.41812 -11.40835 -11.38660
 Alpha  occ. eigenvalues --  -11.35817 -11.35255  -1.81470  -1.25019  -1.10035
 Alpha  occ. eigenvalues --   -1.00592  -0.98115  -0.82616  -0.74907  -0.67696
 Alpha  occ. eigenvalues --   -0.61868  -0.60019  -0.59431  -0.56600  -0.55075
 Alpha  occ. eigenvalues --   -0.53602  -0.50724  -0.48155  -0.47121  -0.45242
 Alpha  occ. eigenvalues --   -0.43342  -0.38727  -0.30096
 Alpha virt. eigenvalues --    0.04175   0.04969   0.05334   0.05417   0.05684
 Alpha virt. eigenvalues --    0.06102   0.06118   0.06691   0.07109   0.08041
 Alpha virt. eigenvalues --    0.08810   0.08933   0.11198   0.12476   0.12909

 Mulliken charges:
               1
     1  C   -3.592772
     2  C   -1.847016
     3  C   -4.029477
     4  C   -1.703475
     5  O   -2.664878
     6  C    0.053464
     7  C   -3.333068
     8  H    1.209857
     9  H    1.407712
    10  H    1.309351
    11  H    1.943673
    12  H    1.281047
    13  H    1.235066
    14  H    1.248656
    15  H    1.456217
    16  H    1.925716
    17  H    1.384738
    18  H    1.344131
    19  H    1.371056
 Sum of Mulliken charges =  -0.00000

 Dipole moment (field-independent basis, Debye):
    X=              1.2716    Y=              1.1741    Z=              1.0697  Tot=              2.0346

 Test job not archived.
 1\1\GINC-SE104\SP\RHF\Aug-CC-pVDZ\C6H12O1\OHZDE\09-Apr-2025\0\\#t hf a
 ug-cc-pvdz iop(5/13=1,5/36=2,99/5=2) pseudo=read geom=check guess=(rea
 d,tcheck) scf=(maxcycle=1)\\title\\0,1\C,0,-1.57904292,-0.61102938,-0.
 70860421\C,0,-1.03060012,0.34655961,0.3437589\C,0,-2.09219244,0.709913
 92,1.37746756\C,0,0.18280233,-0.22559819,1.05421146\O,0,1.23907656,-0.
 5122225,0.11573198\C,0,2.17301579,0.381068,0.00591203\C,0,3.14417954,-
 0.08546242,-1.02869383\H,0,-2.42641947,-0.16384184,-1.23185408\H,0,-0.
 82144118,-0.86841884,-1.44943227\H,0,-1.92647424,-1.53931771,-0.245579

 Normal termination of Gaussian 16 at Wed Apr  9 18:50:09 2025.
