 Gaussian 16, Revision C.01,

 ----------------------------------------------------------------------
 #t hf aug-cc-pvdz symm=none int=(grid=ultrafine) guess=(read,tcheck) s
 table=(opt,rrhf)
 ----------------------------------------------------------------------
 -----
 title
 -----
 Symbolic Z-matrix:
 Charge =  0 Multiplicity = 1

 SCF Done:  E(RHF) =  -358.614341010     A.U. after   14 cycles
 Normal termination of Gaussian 16 at Wed Apr  9 04:03:59 2025.
 Gaussian 16:  ES64L-G16RevC.01  3-Jul-2019

 ----------------------------------------------------------------------
 #t hf aug-cc-pvdz iop(5/13=1,5/36=2,99/5=2) pseudo=read geom=check gue
 ss=(read,tcheck) scf=(maxcycle=1)
 ----------------------------------------------------------------------
 -----
 title
 -----
 Structure from the checkpoint file:  "Grambow2020_wb97xd3_009140_forward_mol2.chk"
 Charge =  0 Multiplicity = 1

                         Standard orientation:
 ---------------------------------------------------------------------
 Center     Atomic      Atomic             Coordinates (Angstroms)
 Number     Number       Type             X           Y           Z
 ---------------------------------------------------------------------
      1          6           0       -2.454169   -0.448212    0.001479
      2          6           0       -1.041208    0.003286   -0.001369
      3          6           0       -0.495575    1.218952   -0.000999
      4          8           0        0.878466    1.125672   -0.000114
      5          6           0        1.221483   -0.197538   -0.000069
      6          8           0        2.343546   -0.614251    0.001691
      7          7           0        0.034650   -0.883011   -0.002132
      8          1           0       -2.677361   -1.053902   -0.879851
      9          1           0       -2.675476   -1.047978    0.887330
     10          1           0       -3.121631    0.411938   -0.000470
     11          1           0       -0.922950    2.205577    0.002975
     12          1           0       -0.004418   -1.884852   -0.001930
 ---------------------------------------------------------------------

 SCF Done:  E(RHF) =  -360.179388678     A.U. after    2 cycles

 The electronic state is 1-A.
 Alpha  occ. eigenvalues --  -21.11253 -21.03340 -15.79441 -11.52471 -11.47787
 Alpha  occ. eigenvalues --  -11.44261 -11.40729  -1.88774  -1.67759  -1.43433
 Alpha  occ. eigenvalues --   -1.16603  -1.02610  -0.87438  -0.83089  -0.69410
 Alpha  occ. eigenvalues --   -0.66239  -0.62521  -0.58983  -0.57958  -0.55721
 Alpha  occ. eigenvalues --   -0.50392  -0.44932  -0.44021  -0.42067  -0.30267
 Alpha  occ. eigenvalues --   -0.24904
 Alpha virt. eigenvalues --    0.02439   0.04476   0.05043   0.05509   0.06574
 Alpha virt. eigenvalues --    0.08452   0.10213   0.10668   0.11977   0.12058
 Alpha virt. eigenvalues --    0.12975   0.13632   0.13699   0.15503   0.15723

 Mulliken charges:
               1
     1  C   -4.460808
     2  C    3.002129
     3  C    0.003540
     4  O   -3.452160
     5  C    6.055791
     6  O   -3.358967
     7  N   -3.318519
     8  H    1.087120
     9  H    1.086949
    10  H    1.167485
    11  H    1.385092
    12  H    0.802350
 Sum of Mulliken charges =   0.00000

 Dipole moment (field-independent basis, Debye):
    X=             -4.1574    Y=             -0.4543    Z=              0.0048  Tot=              4.1821

 Test job not archived.
 1\1\GINC-SE135\SP\RHF\Aug-CC-pVDZ\C4H5N1O2\OHZDE\09-Apr-2025\0\\#t hf
 aug-cc-pvdz iop(5/13=1,5/36=2,99/5=2) pseudo=read geom=check guess=(re
 ad,tcheck) scf=(maxcycle=1)\\title\\0,1\C,0,-1.55465569,-0.35232963,-0
 .71465221\C,0,-0.27554508,0.09976723,-0.11481719\C,0,0.18323583,1.3122
 559,0.19332408\O,0,1.44331814,1.22095093,0.74154425\C,0,1.80111675,-0.
 09764232,0.7844084\O,0,2.84100934,-0.51174842,1.20845789\N,0,0.7386712
 1,-0.78229593,0.25440074\H,0,-1.38454972,-0.88637366,-1.65235088\H,0,-
 2.09330372,-1.02085553,-0.0391095\H,0,-2.19320384,0.50440572,-0.923526

 Normal termination of Gaussian 16 at Wed Apr  9 04:04:04 2025.
