 Gaussian 16, Revision C.01,

 ----------------------------------------------------------------------
 #t hf aug-cc-pvdz symm=none int=(grid=ultrafine) guess=(read,tcheck) s
 table=(opt,rrhf)
 ----------------------------------------------------------------------
 -----
 title
 -----
 Symbolic Z-matrix:
 Charge =  0 Multiplicity = 1

 SCF Done:  E(RHF) =  -306.860930499     A.U. after   15 cycles

 1\1\GINC-SE141\Stability\RHF\Aug-CC-pVDZ\C4H10O2\OHZDE\09-Apr-2025\0\\
 #t hf aug-cc-pvdz symm=none int=(grid=ultrafine) guess=(read,tcheck) s
 table=(opt,rrhf)\\title\\0,1\C,0,1.91336179,0.64297433,-1.45010715\O,0
 ,0.60575636,0.06029192,-1.348589\C,0,0.38281631,-0.67570158,-0.2500264
 1\C,0,-0.937923,-1.07950986,0.04402377\C,0,-1.95651051,0.28175788,0.81
 246735\O,0,-1.41158719,0.86179825,1.83022687\H,0,2.69640321,-0.1242146
 2,-1.35654509\H,0,1.96474834,1.10927632,-2.43815041\H,0,2.03776351,1.3
 9830371,-0.66040479\H,0,0.7500192,0.55400832,1.20785043\H,0,1.25140538

 Normal termination of Gaussian 16 at Wed Apr  9 16:18:02 2025.
 Gaussian 16:  ES64L-G16RevC.01  3-Jul-2019

 ----------------------------------------------------------------------
 #t hf aug-cc-pvdz iop(5/13=1,5/36=2,99/5=2) pseudo=read geom=check gue
 ss=(read,tcheck) scf=(maxcycle=1)
 ----------------------------------------------------------------------
 -----
 title
 -----
 Structure from the checkpoint file:  "Grambow2020_b97d3_006771_forward_mol1.chk"
 Charge =  0 Multiplicity = 1

                         Standard orientation:
 ---------------------------------------------------------------------
 Center     Atomic      Atomic             Coordinates (Angstroms)
 Number     Number       Type             X           Y           Z
 ---------------------------------------------------------------------
      1          6           0       -2.520612   -0.592923   -0.113009
      2          8           0       -1.430551    0.273593   -0.460244
      3          6           0       -0.562047    0.536698    0.527028
      4          6           0        0.656752    1.175858    0.210986
      5          6           0        1.917791    0.009423   -0.517222
      6          8           0        2.122707   -1.067478    0.166529
      7          1           0       -3.065163   -0.211406    0.763573
      8          1           0       -3.183308   -0.614703   -0.982876
      9          1           0       -2.131929   -1.599319    0.100813
     10          1           0        0.049893   -1.221792    1.079906
     11          1           0       -0.923205    0.436481    1.550003
     12          1           0        0.596024    1.851366   -0.645732
     13          1           0        1.150575    1.613471    1.080355
     14          1           0        1.466932   -0.084592   -1.531574
     15          1           0        2.732021    0.762916   -0.497321
     16          1           0        0.819602   -1.355669    0.785882
 ---------------------------------------------------------------------

 SCF Done:  E(RHF) =  -308.313090025     A.U. after    2 cycles

 The electronic state is 1-A.
 Alpha  occ. eigenvalues --  -21.12672 -20.97803 -11.53661 -11.44472 -11.42032
 Alpha  occ. eigenvalues --  -11.38761  -1.83222  -1.62876  -1.16112  -1.02168
 Alpha  occ. eigenvalues --   -0.91455  -0.82693  -0.69156  -0.67042  -0.65378
 Alpha  occ. eigenvalues --   -0.62949  -0.59219  -0.57140  -0.52521  -0.48599
 Alpha  occ. eigenvalues --   -0.45230  -0.42117  -0.40489  -0.24600  -0.24271
 Alpha virt. eigenvalues --    0.03064   0.04444   0.04942   0.05122   0.05970
 Alpha virt. eigenvalues --    0.06270   0.06749   0.07638   0.08462   0.09765
 Alpha virt. eigenvalues --    0.11003   0.11488   0.12969   0.13789   0.14191

 Mulliken charges:
               1
     1  C   -3.058843
     2  O   -3.374936
     3  C    1.703789
     4  C   -3.372528
     5  C   -0.402569
     6  O   -2.455154
     7  H    1.270640
     8  H    1.309766
     9  H    1.450600
    10  H   -0.240757
    11  H    1.794276
    12  H    1.382250
    13  H    1.282131
    14  H    1.290180
    15  H    1.109142
    16  H    0.312011
 Sum of Mulliken charges =   0.00000

 Dipole moment (field-independent basis, Debye):
    X=             -3.7948    Y=              1.5252    Z=             -0.3700  Tot=              4.1066

 Test job not archived.
 1\1\GINC-SE141\SP\RHF\Aug-CC-pVDZ\C4H10O2\OHZDE\09-Apr-2025\0\\#t hf a
 ug-cc-pvdz iop(5/13=1,5/36=2,99/5=2) pseudo=read geom=check guess=(rea
 d,tcheck) scf=(maxcycle=1)\\title\\0,1\C,0,1.91336179,0.64297433,-1.45
 010715\O,0,0.60575636,0.06029192,-1.348589\C,0,0.38281631,-0.67570158,
 -0.25002641\C,0,-0.937923,-1.07950986,0.04402377\C,0,-1.95651051,0.281
 75788,0.81246735\O,0,-1.41158719,0.86179825,1.83022687\H,0,2.69640321,
 -0.12421462,-1.35654509\H,0,1.96474834,1.10927632,-2.43815041\H,0,2.03
 776351,1.39830371,-0.66040479\H,0,0.7500192,0.55400832,1.20785043\H,0,

 Normal termination of Gaussian 16 at Wed Apr  9 16:18:07 2025.
