 Gaussian 16, Revision C.01,

 ----------------------------------------------------------------------
 #t hf aug-cc-pvdz symm=none int=(grid=ultrafine) guess=(read,tcheck) s
 table=(opt,rrhf)
 ----------------------------------------------------------------------
 -----
 title
 -----
 Symbolic Z-matrix:
 Charge =  0 Multiplicity = 1

 SCF Done:  E(RHF) =  -322.604186774     A.U. after   15 cycles
 Normal termination of Gaussian 16 at Wed Apr  9 18:26:19 2025.
 Gaussian 16:  ES64L-G16RevC.01  3-Jul-2019

 ----------------------------------------------------------------------
 #t hf aug-cc-pvdz iop(5/13=1,5/36=2,99/5=2) pseudo=read geom=check gue
 ss=(read,tcheck) scf=(maxcycle=1)
 ----------------------------------------------------------------------
 -----
 title
 -----
 Structure from the checkpoint file:  "Grambow2020_wb97xd3_007118_reverse_mol2.chk"
 Charge =  0 Multiplicity = 1

                         Standard orientation:
 ---------------------------------------------------------------------
 Center     Atomic      Atomic             Coordinates (Angstroms)
 Number     Number       Type             X           Y           Z
 ---------------------------------------------------------------------
      1          7           0       -1.888429   -1.243224    0.058613
      2          6           0       -1.756305   -2.383686   -0.114865
      3          8           0       -1.799417    1.555401    0.231567
      4          6           0       -0.816734    1.997172   -0.303971
      5          6           0        2.422127    0.043566   -0.622003
      6          6           0        2.132447    0.055386    0.850166
      7          6           0        1.667948   -0.909109   -0.200565
      8          1           0       -1.965807   -0.236279    0.193520
      9          1           0       -0.637322    3.083853   -0.348284
     10          1           0       -0.061473    1.338574   -0.766305
     11          1           0        2.953641    0.518178   -1.427943
     12          1           0        1.432165    0.782412    1.264557
     13          1           0        2.903266   -0.248259    1.556370
     14          1           0        1.092974   -1.799091   -0.387321
 ---------------------------------------------------------------------

 SCF Done:  E(RHF) =  -324.065042576     A.U. after    2 cycles

 The electronic state is 1-A.
 Alpha  occ. eigenvalues --  -21.11252 -15.77436 -11.51300 -11.45223 -11.43442
 Alpha  occ. eigenvalues --  -11.42074 -11.39527  -1.75781  -1.34062  -1.29915
 Alpha  occ. eigenvalues --   -0.93394  -0.86635  -0.82947  -0.80116  -0.70266
 Alpha  occ. eigenvalues --   -0.69528  -0.60915  -0.57307  -0.49008  -0.47478
 Alpha  occ. eigenvalues --   -0.46861  -0.46385  -0.46130  -0.40658  -0.36068
 Alpha  occ. eigenvalues --   -0.34181
 Alpha virt. eigenvalues --    0.02866   0.04344   0.05182   0.06075   0.06582
 Alpha virt. eigenvalues --    0.07099   0.07844   0.09073   0.10025   0.10500
 Alpha virt. eigenvalues --    0.11643   0.11869   0.12552   0.13296   0.13349

 Mulliken charges:
               1
     1  N   -0.909402
     2  C    0.013817
     3  O   -2.415283
     4  C   -0.876545
     5  C   -0.966260
     6  C   -2.497870
     7  C   -0.519871
     8  H    1.150548
     9  H    1.393695
    10  H    1.714403
    11  H    0.730523
    12  H    1.322279
    13  H    1.142839
    14  H    0.717128
 Sum of Mulliken charges =  -0.00000

 Dipole moment (field-independent basis, Debye):
    X=              1.0931    Y=              4.2167    Z=             -0.5848  Tot=              4.3951

 Test job not archived.
 1\1\GINC-SE035\SP\RHF\Aug-CC-pVDZ\C5H7N1O1\OHZDE\09-Apr-2025\0\\#t hf
 aug-cc-pvdz iop(5/13=1,5/36=2,99/5=2) pseudo=read geom=check guess=(re
 ad,tcheck) scf=(maxcycle=1)\\title\\0,1\N,0,2.15527007,-1.42601437,0.2
 2780488\C,0,1.95235087,-2.19855096,1.07054701\O,0,2.26597369,0.6721357
 8,-1.63113288\C,0,1.3730344,1.45967733,-1.45773714\C,0,-1.96372215,0.5
 003686,0.0764469\C,0,-1.80941598,-0.4223074,-1.09666505\C,0,-1.3264777
 8,-0.59131077,0.31338893\H,0,2.29710032,-0.72819889,-0.50093658\H,0,1.
 28236485,2.3592693,-2.08824621\H,0,0.6147475,1.31367585,-0.66931699\H,

 Normal termination of Gaussian 16 at Wed Apr  9 18:26:22 2025.
