 Gaussian 16, Revision C.01,

 ----------------------------------------------------------------------
 #t hf aug-cc-pvdz symm=none int=(grid=ultrafine) guess=(read,tcheck) s
 table=(opt,rrhf)
 ----------------------------------------------------------------------
 -----
 title
 -----
 Symbolic Z-matrix:
 Charge =  0 Multiplicity = 1

 SCF Done:  E(RHF) =  -270.035346125     A.U. after   13 cycles

 1\1\GINC-SE108\Stability\RHF\Aug-CC-pVDZ\C5H10O1\OHZDE\09-Apr-2025\0\\
 #t hf aug-cc-pvdz symm=none int=(grid=ultrafine) guess=(read,tcheck) s
 table=(opt,rrhf)\\title\\0,1\C,0,2.35823731,0.36860446,-1.09424173\C,0
 ,0.9088697,0.13011001,-0.77397558\C,0,0.44423403,-0.30593795,0.4095912
 \O,0,-1.28876637,0.19290617,2.01360262\C,0,-1.00061045,-0.5256582,0.79
 532444\C,0,-2.02496277,-0.19573522,-0.2937487\H,0,3.00298682,0.1497946
 1,-0.23254923\H,0,2.52972511,1.41446967,-1.39611431\H,0,2.68546904,-0.
 25987986,-1.93808979\H,0,-1.08235184,1.12868086,1.82462148\H,0,0.20424

 Normal termination of Gaussian 16 at Wed Apr  9 03:08:59 2025.
 Gaussian 16:  ES64L-G16RevC.01  3-Jul-2019

 ----------------------------------------------------------------------
 #t hf aug-cc-pvdz iop(5/13=1,5/36=2,99/5=2) pseudo=read geom=check gue
 ss=(read,tcheck) scf=(maxcycle=1)
 ----------------------------------------------------------------------
 -----
 title
 -----
 Structure from the checkpoint file:  "Grambow2020_b97d3_006621_reverse_mol2.chk"
 Charge =  0 Multiplicity = 1

                         Standard orientation:
 ---------------------------------------------------------------------
 Center     Atomic      Atomic             Coordinates (Angstroms)
 Number     Number       Type             X           Y           Z
 ---------------------------------------------------------------------
      1          6           0        2.799994   -0.086620    0.124693
      2          6           0        1.356761    0.328508    0.054944
      3          6           0        0.347875   -0.461401   -0.351313
      4          8           0       -1.882322   -1.101879    0.312764
      5          6           0       -1.120647   -0.107500   -0.404615
      6          6           0       -1.470176    1.304337    0.073686
      7          1           0        2.935439   -1.129481   -0.191834
      8          1           0        3.192057    0.016121    1.149437
      9          1           0        3.426958    0.552764   -0.517379
     10          1           0       -1.523586   -1.106142    1.221216
     11          1           0        1.143797    1.357809    0.357786
     12          1           0        0.566221   -1.490524   -0.654297
     13          1           0       -1.470251   -0.222689   -1.442773
     14          1           0       -1.142112    1.458449    1.112562
     15          1           0       -2.557539    1.442842    0.031995
     16          1           0       -0.995247    2.071940   -0.553198
 ---------------------------------------------------------------------

 SCF Done:  E(RHF) =  -271.337236456     A.U. after    2 cycles

 The electronic state is 1-A.
 Alpha  occ. eigenvalues --  -21.05944 -11.46507 -11.43901 -11.39715 -11.38624
 Alpha  occ. eigenvalues --  -11.36315  -1.69860  -1.22371  -1.10168  -0.99356
 Alpha  occ. eigenvalues --   -0.87513  -0.76591  -0.66249  -0.60942  -0.59056
 Alpha  occ. eigenvalues --   -0.56411  -0.54693  -0.53163  -0.50308  -0.49161
 Alpha  occ. eigenvalues --   -0.46520  -0.39475  -0.34227  -0.30372
 Alpha virt. eigenvalues --    0.03628   0.05076   0.05578   0.05830   0.06156
 Alpha virt. eigenvalues --    0.06424   0.06579   0.06697   0.07869   0.08836
 Alpha virt. eigenvalues --    0.11049   0.12376   0.13705   0.14104   0.14588

 Mulliken charges:
               1
     1  C   -4.689515
     2  C    0.123467
     3  C   -0.732047
     4  O   -3.026691
     5  C   -0.178639
     6  C   -4.010147
     7  H    1.271963
     8  H    1.151914
     9  H    1.125778
    10  H    0.853760
    11  H    1.510604
    12  H    1.403744
    13  H    1.524727
    14  H    1.285506
    15  H    1.074360
    16  H    1.311217
 Sum of Mulliken charges =  -0.00000

 Dipole moment (field-independent basis, Debye):
    X=              0.7260    Y=              0.4866    Z=              0.1065  Tot=              0.8805

 Test job not archived.
 1\1\GINC-SE108\SP\RHF\Aug-CC-pVDZ\C5H10O1\OHZDE\09-Apr-2025\0\\#t hf a
 ug-cc-pvdz iop(5/13=1,5/36=2,99/5=2) pseudo=read geom=check guess=(rea
 d,tcheck) scf=(maxcycle=1)\\title\\0,1\C,0,2.35823731,0.36860446,-1.09
 424173\C,0,0.9088697,0.13011001,-0.77397558\C,0,0.44423403,-0.30593795
 ,0.4095912\O,0,-1.28876637,0.19290617,2.01360262\C,0,-1.00061045,-0.52
 56582,0.79532444\C,0,-2.02496277,-0.19573522,-0.2937487\H,0,3.00298682
 ,0.14979461,-0.23254923\H,0,2.52972511,1.41446967,-1.39611431\H,0,2.68
 546904,-0.25987986,-1.93808979\H,0,-1.08235184,1.12868086,1.82462148\H

 Normal termination of Gaussian 16 at Wed Apr  9 03:09:04 2025.
