 Gaussian 16, Revision C.01,

 ----------------------------------------------------------------------
 #t hf aug-cc-pvdz symm=none int=(grid=ultrafine) guess=(read,tcheck) s
 table=(opt,rrhf)
 ----------------------------------------------------------------------
 -----
 title
 -----
 Symbolic Z-matrix:
 Charge =  0 Multiplicity = 1

 SCF Done:  E(RHF) =  -279.745077344     A.U. after   17 cycles
 Normal termination of Gaussian 16 at Wed Apr  9 17:07:06 2025.
 Gaussian 16:  ES64L-G16RevC.01  3-Jul-2019

 ----------------------------------------------------------------------
 #t hf aug-cc-pvdz iop(5/13=1,5/36=2,99/5=2) pseudo=read geom=check gue
 ss=(read,tcheck) scf=(maxcycle=1)
 ----------------------------------------------------------------------
 -----
 title
 -----
 Structure from the checkpoint file:  "Grambow2020_b97d3_007047_forward_mol1.chk"
 Charge =  0 Multiplicity = 1

                         Standard orientation:
 ---------------------------------------------------------------------
 Center     Atomic      Atomic             Coordinates (Angstroms)
 Number     Number       Type             X           Y           Z
 ---------------------------------------------------------------------
      1          7           0        2.124300   -0.320925   -0.078575
      2          6           0        0.786331    0.094098   -0.005016
      3          6           0       -0.196546   -0.995780   -0.006827
      4          6           0       -1.453750   -0.479128   -0.003081
      5          7           0       -2.285924    0.453393    0.001414
      6          7           0        0.370623    1.320022    0.007867
      7          1           0        2.310454   -1.242616    0.309434
      8          1           0        2.790117    0.368070    0.262101
      9          1           0        0.041612   -2.049240   -0.068473
     10          1           0       -2.543242   -0.973045    0.099388
     11          1           0        1.121852    2.014270   -0.027844
 ---------------------------------------------------------------------

 SCF Done:  E(RHF) =  -281.019962390     A.U. after    2 cycles

 The electronic state is 1-A.
 Alpha  occ. eigenvalues --  -15.84261 -15.76674 -15.69488 -11.51710 -11.48306
 Alpha  occ. eigenvalues --  -11.39622  -1.44563  -1.37480  -1.22449  -1.08957
 Alpha  occ. eigenvalues --   -0.83522  -0.71802  -0.71323  -0.66291  -0.60610
 Alpha  occ. eigenvalues --   -0.56147  -0.54729  -0.50652  -0.49966  -0.38216
 Alpha  occ. eigenvalues --   -0.34236  -0.28170
 Alpha virt. eigenvalues --    0.02790   0.04623   0.05168   0.06121   0.07837
 Alpha virt. eigenvalues --    0.09200   0.11484   0.12470   0.12546   0.12990
 Alpha virt. eigenvalues --    0.13203   0.13936   0.15128   0.15311   0.16345

 Mulliken charges:
               1
     1  N   -3.114709
     2  C    3.822546
     3  C   -1.739108
     4  C    1.147870
     5  N   -1.818248
     6  N   -3.218315
     7  H    0.664635
     8  H    0.589837
     9  H    1.472357
    10  H    1.422212
    11  H    0.770921
 Sum of Mulliken charges =  -0.00000

 Dipole moment (field-independent basis, Debye):
    X=              1.0118    Y=             -2.4079    Z=              0.7677  Tot=              2.7223

 Test job not archived.
 1\1\GINC-SE113\SP\RHF\Aug-CC-pVDZ\C3H5N3\OHZDE\09-Apr-2025\0\\#t hf au
 g-cc-pvdz iop(5/13=1,5/36=2,99/5=2) pseudo=read geom=check guess=(read
 ,tcheck) scf=(maxcycle=1)\\title\\0,1\N,0,-1.83973522,-0.16245273,0.18
 648452\C,0,-0.50894588,0.25730952,0.04290537\C,0,0.48570115,-0.8200925
 ,0.10427485\C,0,1.73651308,-0.29416894,0.0244014\N,0,2.55782277,0.6424
 1199,-0.0775568\N,0,-0.10741861,1.48194415,-0.07922423\H,0,-2.02601815
 ,-1.11385824,-0.12148221\H,0,-2.52214021,0.49109587,-0.18939364\H,0,0.
 2610438,-1.86733328,0.25630719\H,0,2.82827502,-0.7849326,-0.0686128\H,

 Normal termination of Gaussian 16 at Wed Apr  9 17:07:09 2025.
