 Gaussian 16, Revision C.01,

 ----------------------------------------------------------------------
 #t hf aug-cc-pvdz symm=none int=(grid=ultrafine) guess=(read,tcheck) s
 table=(opt,rrhf)
 ----------------------------------------------------------------------
 -----
 title
 -----
 Symbolic Z-matrix:
 Charge =  0 Multiplicity = 1

 SCF Done:  E(RHF) =  -224.824385798     A.U. after   15 cycles
 Normal termination of Gaussian 16 at Wed Apr  9 16:57:53 2025.
 Gaussian 16:  ES64L-G16RevC.01  3-Jul-2019

 ----------------------------------------------------------------------
 #t hf aug-cc-pvdz iop(5/13=1,5/36=2,99/5=2) pseudo=read geom=check gue
 ss=(read,tcheck) scf=(maxcycle=1)
 ----------------------------------------------------------------------
 -----
 title
 -----
 Structure from the checkpoint file:  "Grambow2020_b97d3_006882_forward_mol2.chk"
 Charge =  0 Multiplicity = 1

                         Standard orientation:
 ---------------------------------------------------------------------
 Center     Atomic      Atomic             Coordinates (Angstroms)
 Number     Number       Type             X           Y           Z
 ---------------------------------------------------------------------
      1          7           0        1.011652   -0.400927    0.000015
      2          6           0        0.697047    0.927778    0.000014
      3          6           0       -0.690403    0.989131   -0.000007
      4          6           0       -1.107900   -0.365624   -0.000031
      5          7           0       -0.065285   -1.213209   -0.000036
      6          1           0        1.934898   -0.818909    0.000175
      7          1           0        1.462811    1.695025   -0.000173
      8          1           0       -1.299990    1.883604    0.000106
      9          1           0       -2.114748   -0.768481    0.000174
 ---------------------------------------------------------------------

 SCF Done:  E(RHF) =  -225.868421129     A.U. after    2 cycles

 The electronic state is 1-A.
 Alpha  occ. eigenvalues --  -15.80866 -15.74918 -11.45096 -11.42562 -11.37170
 Alpha  occ. eigenvalues --   -1.59305  -1.17229  -1.13383  -0.84034  -0.81040
 Alpha  occ. eigenvalues --   -0.74598  -0.59631  -0.57636  -0.54881  -0.52683
 Alpha  occ. eigenvalues --   -0.40825  -0.33686  -0.32528
 Alpha virt. eigenvalues --    0.03393   0.05232   0.05643   0.05975   0.10394
 Alpha virt. eigenvalues --    0.11195   0.11992   0.12714   0.13619   0.14116
 Alpha virt. eigenvalues --    0.14632   0.15494   0.16571   0.17237   0.18966

 Mulliken charges:
               1
     1  N   -1.949638
     2  C    0.087211
     3  C   -0.886782
     4  C    0.167664
     5  N   -2.087676
     6  H    0.866063
     7  H    1.258266
     8  H    1.144558
     9  H    1.400334
 Sum of Mulliken charges =   0.00000

 Dipole moment (field-independent basis, Debye):
    X=              1.6228    Y=              1.3413    Z=              0.0003  Tot=              2.1054

 Test job not archived.
 1\1\GINC-SE229\SP\RHF\Aug-CC-pVDZ\C3H4N2\OHZDE\09-Apr-2025\0\\#t hf au
 g-cc-pvdz iop(5/13=1,5/36=2,99/5=2) pseudo=read geom=check guess=(read
 ,tcheck) scf=(maxcycle=1)\\title\\0,1\N,0,-1.03268224,-0.61192682,0.00
 543191\C,0,-0.71389904,0.71568442,-0.0106985\C,0,0.6737341,0.77270715,
 -0.00824527\C,0,1.08696516,-0.58323346,0.00993487\N,0,0.04169136,-1.42
 749519,0.01828197\H,0,-1.95723534,-1.0269968,0.00843947\H,0,-1.4772434
 3,1.48525528,-0.02201885\H,0,1.28613119,1.66520219,-0.01829738\H,0,2.0
 9253824,-0.98919676,0.01717178\\Version=ES64L-G16RevC.01\State=1-A\HF=

 Normal termination of Gaussian 16 at Wed Apr  9 16:57:55 2025.
