 Gaussian 16, Revision C.01,

 ----------------------------------------------------------------------
 #t hf aug-cc-pvdz symm=none int=(grid=ultrafine) guess=(read,tcheck) s
 table=(opt,rrhf)
 ----------------------------------------------------------------------
 -----
 title
 -----
 Symbolic Z-matrix:
 Charge =  0 Multiplicity = 1

 SCF Done:  E(RHF) =  -307.712813381     A.U. after   17 cycles

 1\1\GINC-SE105\Stability\RHF\Aug-CC-pVDZ\C6H10O1\OHZDE\09-Apr-2025\0\\
 #t hf aug-cc-pvdz symm=none int=(grid=ultrafine) guess=(read,tcheck) s
 table=(opt,rrhf)\\title\\0,1\O,0,1.91261319,-1.07719739,1.04942029\C,0
 ,1.26430803,-0.56819325,-0.11517733\C,0,0.02394398,-1.35296421,-0.4349
 1361\C,0,-0.94370506,-0.89912381,0.58912159\C,0,-1.49502033,1.47484087
 ,-0.38939713\C,0,-0.16072945,1.60737239,-0.55292567\C,0,0.84944593,0.8
 630865,0.10783971\H,0,1.49751846,-0.67176408,1.81520573\H,0,2.03563521
 ,-0.64592878,-0.89303776\H,0,0.22206186,-2.43295721,-0.38588443\H,0,-0

 Normal termination of Gaussian 16 at Wed Apr  9 19:13:18 2025.
 Gaussian 16:  ES64L-G16RevC.01  3-Jul-2019

 ----------------------------------------------------------------------
 #t hf aug-cc-pvdz iop(5/13=1,5/36=2,99/5=2) pseudo=read geom=check gue
 ss=(read,tcheck) scf=(maxcycle=1)
 ----------------------------------------------------------------------
 -----
 title
 -----
 Structure from the checkpoint file:  "Grambow2020_wb97xd3_008424_forward_mol1.chk"
 Charge =  0 Multiplicity = 1

                         Standard orientation:
 ---------------------------------------------------------------------
 Center     Atomic      Atomic             Coordinates (Angstroms)
 Number     Number       Type             X           Y           Z
 ---------------------------------------------------------------------
      1          8           0        2.132554   -0.476415   -0.446214
      2          6           0        1.026965   -0.420011    0.453876
      3          6           0        0.652843    1.000399    0.768628
      4          6           0       -0.025436    1.458754   -0.464584
      5          6           0       -2.304287    0.185172   -0.178257
      6          6           0       -1.549551   -0.888481    0.141559
      7          6           0       -0.178260   -1.078892   -0.165573
      8          1           0        1.785781   -0.403755   -1.339285
      9          1           0        1.381853   -0.976542    1.331591
     10          1           0        1.545313    1.594463    1.010755
     11          1           0       -0.020549    1.037574    1.625920
     12          1           0        0.520583    1.386295   -1.397123
     13          1           0       -0.686904    2.315258   -0.421574
     14          1           0       -3.278149    0.352656    0.273482
     15          1           0       -2.033579    0.796342   -1.023897
     16          1           0       -2.068874   -1.723204    0.623072
     17          1           0        0.060447   -2.109410   -0.447115
 ---------------------------------------------------------------------

 SCF Done:  E(RHF) =  -309.201534977     A.U. after    2 cycles

 The electronic state is 1-A.
 Alpha  occ. eigenvalues --  -21.05735 -11.47053 -11.44094 -11.43536 -11.40980
 Alpha  occ. eigenvalues --  -11.38669 -11.37011  -1.71016  -1.25845  -1.14327
 Alpha  occ. eigenvalues --   -1.02274  -0.91216  -0.84417  -0.74753  -0.68573
 Alpha  occ. eigenvalues --   -0.65502  -0.63329  -0.57055  -0.55395  -0.52632
 Alpha  occ. eigenvalues --   -0.51430  -0.48376  -0.46641  -0.39804  -0.35452
 Alpha  occ. eigenvalues --   -0.31007  -0.24774
 Alpha virt. eigenvalues --    0.03520   0.04642   0.05015   0.05291   0.05325
 Alpha virt. eigenvalues --    0.05780   0.06488   0.06717   0.07143   0.07643
 Alpha virt. eigenvalues --    0.08760   0.11683   0.12533   0.13451   0.13627

 Mulliken charges:
               1
     1  O   -3.154719
     2  C    1.093710
     3  C   -3.589533
     4  C   -2.522959
     5  C   -3.303977
     6  C    0.041086
     7  C   -1.690622
     8  H    0.824274
     9  H    1.622297
    10  H    1.312563
    11  H    1.546997
    12  H    1.273453
    13  H    1.410802
    14  H    1.308692
    15  H    1.522285
    16  H    1.139755
    17  H    1.165897
 Sum of Mulliken charges =  -0.00000

 Dipole moment (field-independent basis, Debye):
    X=             -0.8652    Y=              0.8005    Z=              0.3717  Tot=              1.2359

 Test job not archived.
 1\1\GINC-SE105\SP\RHF\Aug-CC-pVDZ\C6H10O1\OHZDE\09-Apr-2025\0\\#t hf a
 ug-cc-pvdz iop(5/13=1,5/36=2,99/5=2) pseudo=read geom=check guess=(rea
 d,tcheck) scf=(maxcycle=1)\\title\\0,1\O,0,1.91261319,-1.07719739,1.04
 942029\C,0,1.26430803,-0.56819325,-0.11517733\C,0,0.02394398,-1.352964
 21,-0.43491361\C,0,-0.94370506,-0.89912381,0.58912159\C,0,-1.49502033,
 1.47484087,-0.38939713\C,0,-0.16072945,1.60737239,-0.55292567\C,0,0.84
 944593,0.8630865,0.10783971\H,0,1.49751846,-0.67176408,1.81520573\H,0,
 2.03563521,-0.64592878,-0.89303776\H,0,0.22206186,-2.43295721,-0.38588

 Normal termination of Gaussian 16 at Wed Apr  9 19:13:24 2025.
