 Gaussian 16, Revision C.01,

 ----------------------------------------------------------------------
 #t hf aug-cc-pvdz symm=none int=(grid=ultrafine) guess=(read,tcheck) s
 table=(opt,rrhf)
 ----------------------------------------------------------------------
 -----
 title
 -----
 Symbolic Z-matrix:
 Charge =  0 Multiplicity = 1

 SCF Done:  E(RHF) =  -308.794596850     A.U. after   16 cycles

 1\1\GINC-SE054\Stability\RHF\Aug-CC-pVDZ\C6H12O1\OHZDE\09-Apr-2025\0\\
 #t hf aug-cc-pvdz symm=none int=(grid=ultrafine) guess=(read,tcheck) s
 table=(opt,rrhf)\\title\\0,1\C,0,-0.13370135,-1.38208393,-0.5809389\C,
 0,-0.62600636,0.02004948,-0.52348265\C,0,-1.05809768,0.51804346,0.8603
 5562\C,0,-0.53334855,1.94857708,0.88846878\O,0,0.56521696,1.97115515,-
 0.07130413\C,0,0.52912359,0.86658558,-0.77126802\C,0,1.65964341,-1.117
 28833,0.02754812\H,0,-1.7372385,-1.75135086,-1.12960503\H,0,0.10335057
 ,-1.78733871,-1.55297401\H,0,-0.43299966,-2.04731904,0.21332305\H,0,-1

 Normal termination of Gaussian 16 at Wed Apr  9 03:29:17 2025.
 Gaussian 16:  ES64L-G16RevC.01  3-Jul-2019

 ----------------------------------------------------------------------
 #t hf aug-cc-pvdz iop(5/13=1,5/36=2,99/5=2) pseudo=read geom=check gue
 ss=(read,tcheck) scf=(maxcycle=1)
 ----------------------------------------------------------------------
 -----
 title
 -----
 Structure from the checkpoint file:  "Grambow2020_wb97xd3_006726_forward_mol1.chk"
 Charge =  0 Multiplicity = 1

                         Standard orientation:
 ---------------------------------------------------------------------
 Center     Atomic      Atomic             Coordinates (Angstroms)
 Number     Number       Type             X           Y           Z
 ---------------------------------------------------------------------
      1          6           0       -1.651062    0.702241   -0.199038
      2          6           0       -0.206624    0.681777   -0.552340
      3          6           0        0.759666    1.070914    0.572189
      4          6           0        1.911655    0.090294    0.388114
      5          8           0        1.333264   -1.050810   -0.313219
      6          6           0        0.144725   -0.715329   -0.744675
      7          6           0       -1.789463   -0.989144    0.682167
      8          1           0       -1.649379    2.259955   -0.962090
      9          1           0       -2.360091    0.509979   -0.989981
     10          1           0       -1.947975    1.302625    0.646155
     11          1           0       -0.034510    1.323306   -1.445187
     12          1           0        0.279452    0.922689    1.540335
     13          1           0        1.073500    2.110509    0.496685
     14          1           0        2.346068   -0.288983    1.310423
     15          1           0        2.704725    0.476311   -0.254002
     16          1           0       -0.313528   -1.412646   -1.432124
     17          1           0       -1.094542   -1.193129    1.499585
     18          1           0       -2.757057   -0.750885    1.122326
     19          1           0       -1.926153   -1.897773    0.095120
 ---------------------------------------------------------------------

 SCF Done:  E(RHF) =  -310.337433098     A.U. after    2 cycles

 The electronic state is 1-A.
 Alpha  occ. eigenvalues --  -21.15884 -11.55451 -11.51153 -11.47105 -11.43121
 Alpha  occ. eigenvalues --  -11.38975 -11.35179  -1.88156  -1.29468  -1.14513
 Alpha  occ. eigenvalues --   -1.02812  -0.94531  -0.89192  -0.83695  -0.73963
 Alpha  occ. eigenvalues --   -0.70641  -0.63338  -0.61408  -0.58171  -0.56105
 Alpha  occ. eigenvalues --   -0.54116  -0.52936  -0.49809  -0.46770  -0.45578
 Alpha  occ. eigenvalues --   -0.43691  -0.38127  -0.21946
 Alpha virt. eigenvalues --    0.02841   0.04062   0.04360   0.04956   0.05261
 Alpha virt. eigenvalues --    0.05724   0.06111   0.06757   0.07637   0.08210
 Alpha virt. eigenvalues --    0.08691   0.09137   0.10343   0.11191   0.11727

 Mulliken charges:
               1
     1  C   -2.753077
     2  C   -1.299182
     3  C   -3.175055
     4  C   -1.953260
     5  O   -3.587463
     6  C    1.719001
     7  C   -3.986239
     8  H   -0.525172
     9  H    1.501638
    10  H    1.569624
    11  H    1.532997
    12  H    1.680341
    13  H    1.286583
    14  H    1.406227
    15  H    1.536925
    16  H    1.697540
    17  H    1.252540
    18  H    0.959919
    19  H    1.136114
 Sum of Mulliken charges =   0.00000

 Dipole moment (field-independent basis, Debye):
    X=              5.8564    Y=             -4.8909    Z=              1.1001  Tot=              7.7090

 Test job not archived.
 1\1\GINC-SE054\SP\RHF\Aug-CC-pVDZ\C6H12O1\OHZDE\09-Apr-2025\0\\#t hf a
 ug-cc-pvdz iop(5/13=1,5/36=2,99/5=2) pseudo=read geom=check guess=(rea
 d,tcheck) scf=(maxcycle=1)\\title\\0,1\C,0,-0.13370135,-1.38208393,-0.
 5809389\C,0,-0.62600636,0.02004948,-0.52348265\C,0,-1.05809768,0.51804
 346,0.86035562\C,0,-0.53334855,1.94857708,0.88846878\O,0,0.56521696,1.
 97115515,-0.07130413\C,0,0.52912359,0.86658558,-0.77126802\C,0,1.65964
 341,-1.11728833,0.02754812\H,0,-1.7372385,-1.75135086,-1.12960503\H,0,
 0.10335057,-1.78733871,-1.55297401\H,0,-0.43299966,-2.04731904,0.21332

 Normal termination of Gaussian 16 at Wed Apr  9 03:29:25 2025.
