 Gaussian 16, Revision C.01,

 ----------------------------------------------------------------------
 #t hf aug-cc-pvdz symm=none int=(grid=ultrafine) guess=(read,tcheck) s
 table=(opt,rrhf)
 ----------------------------------------------------------------------
 -----
 title
 -----
 Symbolic Z-matrix:
 Charge =  0 Multiplicity = 1

 SCF Done:  E(RHF) =  -375.692517340     A.U. after   14 cycles
 Normal termination of Gaussian 16 at Wed Apr  9 03:46:25 2025.
 Gaussian 16:  ES64L-G16RevC.01  3-Jul-2019

 ----------------------------------------------------------------------
 #t hf aug-cc-pvdz iop(5/13=1,5/36=2,99/5=2) pseudo=read geom=check gue
 ss=(read,tcheck) scf=(maxcycle=1)
 ----------------------------------------------------------------------
 -----
 title
 -----
 Structure from the checkpoint file:  "Grambow2020_wb97xd3_007915_forward_mol1.chk"
 Charge =  0 Multiplicity = 1

                         Standard orientation:
 ---------------------------------------------------------------------
 Center     Atomic      Atomic             Coordinates (Angstroms)
 Number     Number       Type             X           Y           Z
 ---------------------------------------------------------------------
      1          6           0       -2.735981   -0.025150    0.148386
      2          8           0       -1.510350   -0.738927    0.040618
      3          6           0       -0.390795   -0.041843   -0.131991
      4          7           0       -0.294969    1.267806   -0.170034
      5          7           0        0.744952   -0.704009   -0.254177
      6          6           0        1.983862    0.316286    0.094443
      7          8           0        3.046960   -0.177616    0.172794
      8          1           0       -3.515148   -0.781080    0.188194
      9          1           0       -2.892016    0.615864   -0.721527
     10          1           0       -2.763714    0.568304    1.065127
     11          1           0       -1.059068    1.833380    0.155364
     12          1           0        0.741663   -1.704432   -0.122611
     13          1           0        0.903001    1.357969    0.032600
 ---------------------------------------------------------------------

 SCF Done:  E(RHF) =  -377.367619193     A.U. after    2 cycles

 The electronic state is 1-A.
 Alpha  occ. eigenvalues --  -21.12617 -21.04888 -15.75133 -15.74437 -11.52582
 Alpha  occ. eigenvalues --  -11.45023 -11.44124  -1.85884  -1.70111  -1.44733
 Alpha  occ. eigenvalues --   -1.27098  -1.05550  -0.85080  -0.82863  -0.71341
 Alpha  occ. eigenvalues --   -0.67728  -0.65727  -0.61679  -0.59395  -0.58236
 Alpha  occ. eigenvalues --   -0.52788  -0.46658  -0.44817  -0.41966  -0.37696
 Alpha  occ. eigenvalues --   -0.34007  -0.23910
 Alpha virt. eigenvalues --    0.02411   0.04638   0.05180   0.05768   0.06359
 Alpha virt. eigenvalues --    0.07413   0.08928   0.11145   0.12196   0.12735
 Alpha virt. eigenvalues --    0.12943   0.13560   0.14150   0.14482   0.16176

 Mulliken charges:
               1
     1  C   -3.024067
     2  O   -3.108644
     3  C    5.857123
     4  N   -2.783464
     5  N   -2.582188
     6  C    1.092432
     7  O   -2.307567
     8  H    1.396786
     9  H    1.284811
    10  H    1.288222
    11  H    0.638109
    12  H    0.655397
    13  H    1.593050
 Sum of Mulliken charges =  -0.00000

 Dipole moment (field-independent basis, Debye):
    X=             -5.2386    Y=             -0.6288    Z=              0.6015  Tot=              5.3104

 Test job not archived.
 1\1\GINC-SE364\SP\RHF\Aug-CC-pVDZ\C3H6N2O2\OHZDE\09-Apr-2025\0\\#t hf
 aug-cc-pvdz iop(5/13=1,5/36=2,99/5=2) pseudo=read geom=check guess=(re
 ad,tcheck) scf=(maxcycle=1)\\title\\0,1\C,0,-1.72822713,0.08015512,-1.
 09528608\O,0,-1.26454195,-0.04282146,0.24379396\C,0,0.04345193,-0.1750
 5733,0.44575381\N,0,0.97330793,-0.15940405,-0.48211142\N,0,0.47342293,
 -0.31134566,1.68666677\C,0,2.06492099,0.09148361,1.73460851\O,0,2.5430
 3476,0.16152504,2.80547581\H,0,-2.81277558,0.08105498,-1.03307667\H,0,
 -1.39711562,-0.76495301,-1.70204115\H,0,-1.39292719,1.01964155,-1.5406

 Normal termination of Gaussian 16 at Wed Apr  9 03:46:29 2025.
