 Gaussian 16, Revision C.01,

 ----------------------------------------------------------------------
 #t hf aug-cc-pvdz symm=none int=(grid=ultrafine) guess=(read,tcheck) s
 table=(opt,rrhf)
 ----------------------------------------------------------------------
 -----
 title
 -----
 Symbolic Z-matrix:
 Charge =  0 Multiplicity = 1

 SCF Done:  E(RHF) =  -286.755396831     A.U. after   15 cycles
 Normal termination of Gaussian 16 at Wed Apr  9 19:19:10 2025.
 Gaussian 16:  ES64L-G16RevC.01  3-Jul-2019

 ----------------------------------------------------------------------
 #t hf aug-cc-pvdz iop(5/13=1,5/36=2,99/5=2) pseudo=read geom=check gue
 ss=(read,tcheck) scf=(maxcycle=1)
 ----------------------------------------------------------------------
 -----
 title
 -----
 Structure from the checkpoint file:  "Grambow2020_wb97xd3_008587_reverse_mol1.chk"
 Charge =  0 Multiplicity = 1

                         Standard orientation:
 ---------------------------------------------------------------------
 Center     Atomic      Atomic             Coordinates (Angstroms)
 Number     Number       Type             X           Y           Z
 ---------------------------------------------------------------------
      1          6           0        1.580912   -1.127082   -0.601235
      2          6           0        0.865988   -0.152565    0.268368
      3          6           0       -0.158196   -0.428144    1.265088
      4          6           0       -0.923502    0.172517    0.195824
      5          6           0       -2.199295   -0.376713   -0.347138
      6          6           0       -0.171759    1.140020   -0.480595
      7          7           0        1.145251    1.225906    0.134945
      8          1           0        2.406140   -1.532439   -0.008780
      9          1           0        0.934373   -1.959634   -0.877665
     10          1           0        1.998080   -0.646701   -1.483600
     11          1           0       -0.418689   -1.467978    1.448286
     12          1           0       -2.660060    0.318533   -1.050851
     13          1           0       -2.893066   -0.579370    0.468960
     14          1           0       -2.011808   -1.320030   -0.865052
     15          1           0       -0.385539    1.586639   -1.440161
     16          1           0        1.048931    1.651444    1.062373
 ---------------------------------------------------------------------

 SCF Done:  E(RHF) =  -288.160423456     A.U. after    2 cycles

 The electronic state is 1-A.
 Alpha  occ. eigenvalues --  -15.74528 -11.52591 -11.46797 -11.42222 -11.41529
 Alpha  occ. eigenvalues --  -11.39706 -11.33760  -1.54268  -1.20185  -1.12447
 Alpha  occ. eigenvalues --   -1.04039  -0.95561  -0.79481  -0.74084  -0.66086
 Alpha  occ. eigenvalues --   -0.64902  -0.61003  -0.58232  -0.57742  -0.55179
 Alpha  occ. eigenvalues --   -0.51260  -0.49296  -0.43316  -0.42301  -0.36602
 Alpha  occ. eigenvalues --   -0.24434
 Alpha virt. eigenvalues --    0.03287   0.04874   0.05234   0.05552   0.05865
 Alpha virt. eigenvalues --    0.06230   0.07195   0.07475   0.08317   0.10237
 Alpha virt. eigenvalues --    0.10675   0.11568   0.12911   0.13501   0.14109

 Mulliken charges:
               1
     1  C   -4.468023
     2  C    3.349276
     3  C   -2.882940
     4  C    1.987545
     5  C   -3.943731
     6  C   -1.010545
     7  N   -3.431120
     8  H    1.209565
     9  H    1.216141
    10  H    1.291429
    11  H    1.239792
    12  H    1.240374
    13  H    1.196750
    14  H    1.132103
    15  H    1.343377
    16  H    0.530009
 Sum of Mulliken charges =  -0.00000

 Dipole moment (field-independent basis, Debye):
    X=             -0.3253    Y=             -1.1203    Z=             -2.5491  Tot=              2.8034

 Test job not archived.
 1\1\GINC-SE041\SP\RHF\Aug-CC-pVDZ\C6H9N1\OHZDE\09-Apr-2025\0\\#t hf au
 g-cc-pvdz iop(5/13=1,5/36=2,99/5=2) pseudo=read geom=check guess=(read
 ,tcheck) scf=(maxcycle=1)\\title\\0,1\C,0,1.83378558,-0.23829115,-0.69
 889432\C,0,0.95849013,0.12184909,0.45052596\C,0,0.07526645,-0.75157926
 ,1.20906824\C,0,-0.85921621,0.02852922,0.42933356\C,0,-2.00047044,-0.5
 3934369,-0.3447259\C,0,-0.38354361,1.32881766,0.22510958\N,0,0.9075322
 4,1.46524629,0.88487661\H,0,2.75819525,-0.6428997,-0.27690306\H,0,1.38
 23507,-1.01874489,-1.31099462\H,0,2.0856333,0.63282712,-1.29980111\H,0

 Normal termination of Gaussian 16 at Wed Apr  9 19:19:16 2025.
