 Gaussian 16, Revision C.01,

 ----------------------------------------------------------------------
 #t hf aug-cc-pvdz symm=none int=(grid=ultrafine) guess=(read,tcheck) s
 table=(opt,rrhf)
 ----------------------------------------------------------------------
 -----
 title
 -----
 Symbolic Z-matrix:
 Charge =  0 Multiplicity = 1

 SCF Done:  E(RHF) =  -359.634953722     A.U. after   14 cycles
 Normal termination of Gaussian 16 at Wed Apr  9 03:53:37 2025.
 Gaussian 16:  ES64L-G16RevC.01  3-Jul-2019

 ----------------------------------------------------------------------
 #t hf aug-cc-pvdz iop(5/13=1,5/36=2,99/5=2) pseudo=read geom=check gue
 ss=(read,tcheck) scf=(maxcycle=1)
 ----------------------------------------------------------------------
 -----
 title
 -----
 Structure from the checkpoint file:  "Grambow2020_wb97xd3_008364_reverse_mol2.chk"
 Charge =  0 Multiplicity = 1

                         Standard orientation:
 ---------------------------------------------------------------------
 Center     Atomic      Atomic             Coordinates (Angstroms)
 Number     Number       Type             X           Y           Z
 ---------------------------------------------------------------------
      1          8           0       -1.018825    1.745490   -0.123258
      2          6           0       -1.342981    0.424056    0.277237
      3          6           0       -1.227161   -0.641117   -0.827847
      4          7           0       -0.383568   -1.492071    0.069060
      5          6           0       -0.240373   -0.298369    0.997334
      6          6           0        2.104825   -0.256671   -0.270770
      7          8           0        2.840224    0.567829   -0.037573
      8          1           0       -1.832077    2.236107   -0.256028
      9          1           0       -2.343746    0.441988    0.738891
     10          1           0       -0.635397   -0.293429   -1.672941
     11          1           0       -2.125075   -1.154829   -1.170873
     12          1           0       -0.877182   -2.313842    0.405990
     13          1           0       -0.354685   -0.573114    2.044113
     14          1           0        0.516091   -1.772337   -0.341643
 ---------------------------------------------------------------------

 SCF Done:  E(RHF) =  -361.252518963     A.U. after    2 cycles

 The electronic state is 1-A.
 Alpha  occ. eigenvalues --  -21.13309 -21.05116 -15.82558 -11.48032 -11.47668
 Alpha  occ. eigenvalues --  -11.40951 -11.32195  -1.76443  -1.70013  -1.47987
 Alpha  occ. eigenvalues --   -1.07474  -0.96487  -0.78996  -0.75592  -0.69530
 Alpha  occ. eigenvalues --   -0.67254  -0.63964  -0.57360  -0.54987  -0.49354
 Alpha  occ. eigenvalues --   -0.48933  -0.47514  -0.46634  -0.44596  -0.39813
 Alpha  occ. eigenvalues --   -0.29761  -0.24399
 Alpha virt. eigenvalues --    0.03093   0.04565   0.05088   0.05463   0.05615
 Alpha virt. eigenvalues --    0.06474   0.07631   0.09964   0.10922   0.12545
 Alpha virt. eigenvalues --    0.12940   0.13540   0.14148   0.14555   0.14784

 Mulliken charges:
               1
     1  O   -2.894973
     2  C    0.794768
     3  C   -2.544515
     4  N   -1.623834
     5  C   -1.338103
     6  C    1.245720
     7  O   -1.558671
     8  H    0.729427
     9  H    1.560148
    10  H    1.531969
    11  H    1.285108
    12  H    0.596891
    13  H    1.212501
    14  H    1.003564
 Sum of Mulliken charges =  -0.00000

 Dipole moment (field-independent basis, Debye):
    X=             -1.6426    Y=             -2.3573    Z=             -1.0931  Tot=              3.0741

 Test job not archived.
 1\1\GINC-SE041\SP\RHF\Aug-CC-pVDZ\C4H7N1O2\OHZDE\09-Apr-2025\0\\#t hf
 aug-cc-pvdz iop(5/13=1,5/36=2,99/5=2) pseudo=read geom=check guess=(re
 ad,tcheck) scf=(maxcycle=1)\\title\\0,1\O,0,-0.78723167,-1.75227364,0.
 61837809\C,0,-0.79896347,-0.69357572,-0.32538215\C,0,-0.97561138,0.713
 64983,0.27272163\N,0,0.22234723,1.19506543,-0.48447426\C,0,0.5609272,-
 0.25423195,-0.7878265\C,0,2.26937429,0.27724709,1.1891712\O,0,2.945067
 86,-0.54498858,1.56647662\H,0,-1.64160057,-2.18767345,0.60453752\H,0,-
 1.56063367,-0.92341381,-1.08827765\H,0,-0.77105757,0.73410588,1.341830

 Normal termination of Gaussian 16 at Wed Apr  9 03:53:42 2025.
