 Gaussian 16, Revision C.01,

 ----------------------------------------------------------------------
 #t hf aug-cc-pvdz symm=none int=(grid=ultrafine) guess=(read,tcheck) s
 table=(opt,rrhf)
 ----------------------------------------------------------------------
 -----
 title
 -----
 Symbolic Z-matrix:
 Charge =  0 Multiplicity = 1

 SCF Done:  E(RHF) =  -323.923050784     A.U. after   14 cycles
 Normal termination of Gaussian 16 at Wed Apr  9 19:25:14 2025.
 Gaussian 16:  ES64L-G16RevC.01  3-Jul-2019

 ----------------------------------------------------------------------
 #t hf aug-cc-pvdz iop(5/13=1,5/36=2,99/5=2) pseudo=read geom=check gue
 ss=(read,tcheck) scf=(maxcycle=1)
 ----------------------------------------------------------------------
 -----
 title
 -----
 Structure from the checkpoint file:  "Grambow2020_wb97xd3_008932_forward_mol2.chk"
 Charge =  0 Multiplicity = 1

                         Standard orientation:
 ---------------------------------------------------------------------
 Center     Atomic      Atomic             Coordinates (Angstroms)
 Number     Number       Type             X           Y           Z
 ---------------------------------------------------------------------
      1          6           0        2.285919   -0.175547    0.491408
      2          6           0        1.113152   -0.232155   -0.465212
      3          6           0        0.053202   -1.343415   -0.252067
      4          7           0       -0.919424   -0.287293   -0.011204
      5          6           0       -2.318338   -0.315905    0.299342
      6          6           0       -0.039924    0.740914   -0.169848
      7          8           0       -0.166862    1.933531   -0.086096
      8          1           0        1.948442   -0.260469    1.526934
      9          1           0        2.810871    0.774835    0.388244
     10          1           0        2.996314   -0.981159    0.296648
     11          1           0        1.442372   -0.156061   -1.502968
     12          1           0       -0.168480   -1.963247   -1.125020
     13          1           0        0.233632   -1.984141    0.616521
     14          1           0       -2.653426    0.712764    0.428622
     15          1           0       -2.895233   -0.775665   -0.507743
     16          1           0       -2.507692   -0.867413    1.224221
 ---------------------------------------------------------------------

 SCF Done:  E(RHF) =  -325.445558614     A.U. after    2 cycles

 The electronic state is 1-A.
 Alpha  occ. eigenvalues --  -21.02244 -15.74144 -11.49671 -11.46870 -11.40632
 Alpha  occ. eigenvalues --  -11.40285 -11.37564  -1.70009  -1.48626  -1.19315
 Alpha  occ. eigenvalues --   -1.06324  -0.95499  -0.89443  -0.72100  -0.67800
 Alpha  occ. eigenvalues --   -0.66121  -0.61564  -0.59617  -0.56968  -0.55830
 Alpha  occ. eigenvalues --   -0.52076  -0.50618  -0.46056  -0.45385  -0.43647
 Alpha  occ. eigenvalues --   -0.29300  -0.27286
 Alpha virt. eigenvalues --    0.03270   0.04940   0.05144   0.05445   0.05635
 Alpha virt. eigenvalues --    0.06267   0.06859   0.07354   0.07620   0.11103
 Alpha virt. eigenvalues --    0.11491   0.12147   0.12456   0.13640   0.13944

 Mulliken charges:
               1
     1  C   -4.126962
     2  C   -2.945100
     3  C   -2.137178
     4  N   -2.510399
     5  C   -3.312617
     6  C    6.016108
     7  O   -3.512893
     8  H    1.269837
     9  H    1.223038
    10  H    1.241459
    11  H    1.353943
    12  H    1.546421
    13  H    1.686722
    14  H    1.435188
    15  H    1.392423
    16  H    1.380009
 Sum of Mulliken charges =   0.00000

 Dipole moment (field-independent basis, Debye):
    X=             -0.3433    Y=             -2.6049    Z=             -0.0053  Tot=              2.6274

 Test job not archived.
 1\1\GINC-SE028\SP\RHF\Aug-CC-pVDZ\C5H9N1O1\OHZDE\09-Apr-2025\0\\#t hf
 aug-cc-pvdz iop(5/13=1,5/36=2,99/5=2) pseudo=read geom=check guess=(re
 ad,tcheck) scf=(maxcycle=1)\\title\\0,1\C,0,2.21616157,-0.35951397,0.2
 0350986\C,0,1.03906567,0.49925781,-0.20960928\C,0,-0.08117944,-0.15961
 334,-1.05504561\N,0,-0.9919483,0.11276179,0.04755235\C,0,-2.38926639,-
 0.14739204,0.23204975\C,0,-0.05637557,0.69004337,0.85213212\O,0,-0.115
 6041,1.14491553,1.96345857\H,0,1.87769033,-1.31816739,0.603306\H,0,2.7
 9353676,0.14146541,0.98139083\H,0,2.87938682,-0.55669359,-0.64079808\H

 Normal termination of Gaussian 16 at Wed Apr  9 19:25:19 2025.
