 Gaussian 16, Revision C.01,

 ----------------------------------------------------------------------
 #t hf aug-cc-pvdz symm=none int=(grid=ultrafine) guess=(read,tcheck) s
 table=(opt,rrhf)
 ----------------------------------------------------------------------
 -----
 title
 -----
 Symbolic Z-matrix:
 Charge =  0 Multiplicity = 1

 SCF Done:  E(RHF) =  -263.730522587     A.U. after   16 cycles
 Normal termination of Gaussian 16 at Wed Apr  9 16:52:54 2025.
 Gaussian 16:  ES64L-G16RevC.01  3-Jul-2019

 ----------------------------------------------------------------------
 #t hf aug-cc-pvdz iop(5/13=1,5/36=2,99/5=2) pseudo=read geom=check gue
 ss=(read,tcheck) scf=(maxcycle=1)
 ----------------------------------------------------------------------
 -----
 title
 -----
 Structure from the checkpoint file:  "Grambow2020_b97d3_006863_reverse_mol2.chk"
 Charge =  0 Multiplicity = 1

                         Standard orientation:
 ---------------------------------------------------------------------
 Center     Atomic      Atomic             Coordinates (Angstroms)
 Number     Number       Type             X           Y           Z
 ---------------------------------------------------------------------
      1          6           0        1.986794    0.003174   -0.338970
      2          6           0       -0.175908    1.321493    0.171382
      3          6           0       -1.384258    0.742623   -0.165955
      4          7           0       -1.273404   -0.671251   -0.138607
      5          7           0       -0.139518   -1.161145    0.186097
      6          6           0        0.653332    0.096237    0.424637
      7          1           0        2.518232   -0.922526   -0.085881
      8          1           0        1.800595    0.024778   -1.419790
      9          1           0        2.603056    0.869532   -0.075964
     10          1           0       -2.348665    1.155495   -0.457658
     11          1           0       -2.027520   -1.337149   -0.351569
     12          1           0        0.864992    0.055480    1.511864
 ---------------------------------------------------------------------

 SCF Done:  E(RHF) =  -264.970411001     A.U. after    2 cycles

 The electronic state is 1-A.
 Alpha  occ. eigenvalues --  -15.90047 -15.81762 -11.43805 -11.40453 -11.38040
 Alpha  occ. eigenvalues --  -11.34481  -1.64040  -1.21586  -1.14773  -1.01679
 Alpha  occ. eigenvalues --   -0.83809  -0.78302  -0.72684  -0.65705  -0.60090
 Alpha  occ. eigenvalues --   -0.57133  -0.52968  -0.48802  -0.45832  -0.43741
 Alpha  occ. eigenvalues --   -0.32343  -0.30966
 Alpha virt. eigenvalues --    0.02954   0.04408   0.05628   0.06502   0.06709
 Alpha virt. eigenvalues --    0.06958   0.08409   0.10169   0.11194   0.11667
 Alpha virt. eigenvalues --    0.12627   0.14188   0.14984   0.15227   0.15462

 Mulliken charges:
               1
     1  C   -3.508760
     2  C   -1.573220
     3  C    0.683962
     4  N   -1.526232
     5  N   -1.531467
     6  C   -0.257386
     7  H    1.228463
     8  H    1.285381
     9  H    1.213442
    10  H    1.389252
    11  H    0.916379
    12  H    1.680185
 Sum of Mulliken charges =   0.00000

 Dipole moment (field-independent basis, Debye):
    X=             -1.7805    Y=             -4.1226    Z=             -0.5732  Tot=              4.5270

 Test job not archived.
 1\1\GINC-SE454\SP\RHF\Aug-CC-pVDZ\C4H6N2\OHZDE\09-Apr-2025\0\\#t hf au
 g-cc-pvdz iop(5/13=1,5/36=2,99/5=2) pseudo=read geom=check guess=(read
 ,tcheck) scf=(maxcycle=1)\\title\\0,1\C,0,-1.65606102,0.56265839,-0.01
 415723\C,0,0.12423739,-1.13908779,0.76705929\C,0,1.29503359,-1.2342435
 2,0.03961286\N,0,1.58130346,0.00422517,-0.58992861\N,0,0.76294951,0.96
 380001,-0.38833671\C,0,-0.23646327,0.29659764,0.51860127\H,0,-1.823495
 36,1.63685856,-0.16065354\H,0,-1.79937848,0.04453209,-0.97035455\H,0,-
 2.38085379,0.16815184,0.70595857\H,0,1.98765563,-2.05340184,-0.1471756

 Normal termination of Gaussian 16 at Wed Apr  9 16:52:58 2025.
