 Gaussian 16, Revision C.01,

 ----------------------------------------------------------------------
 #t hf aug-cc-pvdz symm=none int=(grid=ultrafine) guess=(read,tcheck) s
 table=(opt,rrhf)
 ----------------------------------------------------------------------
 -----
 title
 -----
 Symbolic Z-matrix:
 Charge =  0 Multiplicity = 1

 SCF Done:  E(RHF) =  -338.635660213     A.U. after   15 cycles
 Normal termination of Gaussian 16 at Wed Apr  9 18:17:12 2025.
 Gaussian 16:  ES64L-G16RevC.01  3-Jul-2019

 ----------------------------------------------------------------------
 #t hf aug-cc-pvdz iop(5/13=1,5/36=2,99/5=2) pseudo=read geom=check gue
 ss=(read,tcheck) scf=(maxcycle=1)
 ----------------------------------------------------------------------
 -----
 title
 -----
 Structure from the checkpoint file:  "Grambow2020_wb97xd3_006837_forward_mol1.chk"
 Charge =  0 Multiplicity = 1

                         Standard orientation:
 ---------------------------------------------------------------------
 Center     Atomic      Atomic             Coordinates (Angstroms)
 Number     Number       Type             X           Y           Z
 ---------------------------------------------------------------------
      1          7           0        2.437633   -0.359324   -0.137112
      2          6           0        1.108783   -0.035162    0.002480
      3          6           0        0.554207    1.200475   -0.097948
      4          7           0       -0.872067    1.031512    0.097352
      5          6           0       -1.100879   -0.414762    0.111481
      6          8           0       -2.344582   -0.531539   -0.188913
      7          6           0        0.083903   -1.063341    0.162227
      8          1           0        3.094269    0.398445   -0.067443
      9          1           0        2.734922   -1.194023    0.336455
     10          1           0        1.002604    2.177641   -0.143369
     11          1           0       -1.164602    1.408937    0.997683
     12          1           0       -1.985301    0.757771   -0.469752
     13          1           0        0.239720   -2.125040    0.066611
 ---------------------------------------------------------------------

 SCF Done:  E(RHF) =  -340.200237160     A.U. after    2 cycles

 The electronic state is 1-A.
 Alpha  occ. eigenvalues --  -21.02967 -15.79438 -15.77289 -11.49549 -11.47144
 Alpha  occ. eigenvalues --  -11.39830 -11.37459  -1.74419  -1.46976  -1.35176
 Alpha  occ. eigenvalues --   -1.13142  -1.01428  -0.82555  -0.80142  -0.71154
 Alpha  occ. eigenvalues --   -0.69900  -0.65733  -0.60006  -0.53687  -0.51761
 Alpha  occ. eigenvalues --   -0.49202  -0.47027  -0.43049  -0.35042  -0.29872
 Alpha  occ. eigenvalues --   -0.23331
 Alpha virt. eigenvalues --    0.03167   0.04668   0.05063   0.06273   0.07071
 Alpha virt. eigenvalues --    0.07393   0.10059   0.11322   0.11976   0.12503
 Alpha virt. eigenvalues --    0.13032   0.13586   0.14113   0.14796   0.15636

 Mulliken charges:
               1
     1  N   -3.697612
     2  C    4.197506
     3  C   -1.058838
     4  N   -2.965804
     5  C    4.650146
     6  O   -3.229583
     7  C   -3.060571
     8  H    0.692058
     9  H    0.663870
    10  H    1.283834
    11  H    0.635766
    12  H    0.476397
    13  H    1.412832
 Sum of Mulliken charges =   0.00000

 Dipole moment (field-independent basis, Debye):
    X=              2.2254    Y=              1.3895    Z=              1.1277  Tot=              2.8557

 Test job not archived.
 1\1\GINC-SE112\SP\RHF\Aug-CC-pVDZ\C4H6N2O1\OHZDE\09-Apr-2025\0\\#t hf
 aug-cc-pvdz iop(5/13=1,5/36=2,99/5=2) pseudo=read geom=check guess=(re
 ad,tcheck) scf=(maxcycle=1)\\title\\0,1\N,0,-2.07614563,0.64497467,-0.
 36385714\C,0,-0.79722787,0.19669502,-0.13185701\C,0,-0.26866808,-0.996
 35593,-0.50827649\N,0,1.11116409,-0.99664155,-0.06441623\C,0,1.3752180
 8,0.36414168,0.40760758\O,0,2.65397368,0.46918746,0.34111876\C,0,0.216
 62293,1.05729493,0.47190132\H,0,-2.75642385,-0.05016447,-0.61731672\H,
 0,-2.42277998,1.32923559,0.28498923\H,0,-0.7310377,-1.88369304,-0.9042

 Normal termination of Gaussian 16 at Wed Apr  9 18:17:16 2025.
