 Gaussian 16, Revision C.01,

 ----------------------------------------------------------------------
 #t hf aug-cc-pvdz symm=none int=(grid=ultrafine) guess=(read,tcheck) s
 table=(opt,rrhf)
 ----------------------------------------------------------------------
 -----
 title
 -----
 Symbolic Z-matrix:
 Charge =  0 Multiplicity = 1

 SCF Done:  E(RHF) =  -310.151280294     A.U. after   14 cycles

 1\1\GINC-SE168\Stability\RHF\Aug-CC-pVDZ\C6H14O1\OHZDE\09-Apr-2025\0\\
 #t hf aug-cc-pvdz symm=none int=(grid=ultrafine) guess=(read,tcheck) s
 table=(opt,rrhf)\\title\\0,1\C,0,2.51544412,-0.88654847,-1.16419688\O,
 0,2.23353741,-1.56260293,0.07122562\C,0,2.35988871,-0.87288107,1.15471
 376\C,0,-0.81329034,0.57873908,0.1221061\C,0,-1.55300155,1.8446278,-0.
 29906513\C,0,-1.19606919,-0.60077841,-0.76683678\C,0,-1.06930694,0.256
 95438,1.59084763\H,0,2.79473187,0.1432518,-0.94546805\H,0,1.61526731,-
 0.93195285,-1.77539794\H,0,3.32641144,-1.42166869,-1.65565451\H,0,0.26

 Normal termination of Gaussian 16 at Wed Apr  9 19:21:35 2025.
 Gaussian 16:  ES64L-G16RevC.01  3-Jul-2019

 ----------------------------------------------------------------------
 #t hf aug-cc-pvdz iop(5/13=1,5/36=2,99/5=2) pseudo=read geom=check gue
 ss=(read,tcheck) scf=(maxcycle=1)
 ----------------------------------------------------------------------
 -----
 title
 -----
 Structure from the checkpoint file:  "Grambow2020_wb97xd3_008658_reverse_mol2.chk"
 Charge =  0 Multiplicity = 1

                         Standard orientation:
 ---------------------------------------------------------------------
 Center     Atomic      Atomic             Coordinates (Angstroms)
 Number     Number       Type             X           Y           Z
 ---------------------------------------------------------------------
      1          6           0        2.380661   -1.090140   -0.357105
      2          8           0        2.370083    0.189871    0.294241
      3          6           0        2.078099    1.212880   -0.436392
      4          6           0       -1.323899   -0.040005   -0.121384
      5          6           0       -2.545837   -0.592181   -0.848709
      6          6           0       -1.037110   -0.834812    1.149063
      7          6           0       -1.496405    1.442420    0.193179
      8          1           0        2.120507   -0.952937   -1.405832
      9          1           0        1.655027   -1.722833    0.151915
     10          1           0        3.380210   -1.507857   -0.247714
     11          1           0       -0.460372   -0.136804   -0.790321
     12          1           0        2.137517    2.054650    0.291158
     13          1           0       -2.738115   -0.044130   -1.773618
     14          1           0       -3.438893   -0.510622   -0.221503
     15          1           0       -2.414727   -1.646350   -1.104259
     16          1           0       -0.139112   -0.468844    1.653348
     17          1           0       -0.897745   -1.897564    0.933652
     18          1           0       -1.869227   -0.749654    1.854387
     19          1           0       -0.618534    1.846212    0.703331
     20          1           0       -2.360470    1.601899    0.845668
     21          1           0       -1.649787    2.026898   -0.716056
 ---------------------------------------------------------------------

 SCF Done:  E(RHF) =  -311.685147240     A.U. after    2 cycles

 The electronic state is 1-A.
 Alpha  occ. eigenvalues --  -21.12295 -11.42263 -11.41275 -11.40207 -11.38176
 Alpha  occ. eigenvalues --  -11.37676 -11.33697  -1.82080  -1.24965  -1.04209
 Alpha  occ. eigenvalues --   -0.99500  -0.99305  -0.81620  -0.80030  -0.66545
 Alpha  occ. eigenvalues --   -0.63995  -0.62676  -0.58976  -0.58793  -0.54193
 Alpha  occ. eigenvalues --   -0.52770  -0.52612  -0.50384  -0.49851  -0.44276
 Alpha  occ. eigenvalues --   -0.43140  -0.42706  -0.42641  -0.32037
 Alpha virt. eigenvalues --    0.03803   0.04857   0.05619   0.05757   0.06019
 Alpha virt. eigenvalues --    0.06100   0.06119   0.06325   0.07295   0.07652
 Alpha virt. eigenvalues --    0.08610   0.09111   0.09251   0.10312   0.11013

 Mulliken charges:
               1
     1  C   -3.055459
     2  O   -2.036725
     3  C   -0.973089
     4  C   -1.413007
     5  C   -4.403103
     6  C   -4.177036
     7  C   -4.170686
     8  H    1.650392
     9  H    1.566402
    10  H    1.175155
    11  H    2.194770
    12  H    1.637247
    13  H    1.245937
    14  H    1.366084
    15  H    1.261012
    16  H    1.485950
    17  H    1.428361
    18  H    1.149255
    19  H    1.484081
    20  H    1.278297
    21  H    1.306161
 Sum of Mulliken charges =  -0.00000

 Dipole moment (field-independent basis, Debye):
    X=              0.7011    Y=             -1.7152    Z=              1.3324  Tot=              2.2823

 Test job not archived.
 1\1\GINC-SE168\SP\RHF\Aug-CC-pVDZ\C6H14O1\OHZDE\09-Apr-2025\0\\#t hf a
 ug-cc-pvdz iop(5/13=1,5/36=2,99/5=2) pseudo=read geom=check guess=(rea
 d,tcheck) scf=(maxcycle=1)\\title\\0,1\C,0,2.51544412,-0.88654847,-1.1
 6419688\O,0,2.23353741,-1.56260293,0.07122562\C,0,2.35988871,-0.872881
 07,1.15471376\C,0,-0.81329034,0.57873908,0.1221061\C,0,-1.55300155,1.8
 446278,-0.29906513\C,0,-1.19606919,-0.60077841,-0.76683678\C,0,-1.0693
 0694,0.25695438,1.59084763\H,0,2.79473187,0.1432518,-0.94546805\H,0,1.
 61526731,-0.93195285,-1.77539794\H,0,3.32641144,-1.42166869,-1.6556545

 Normal termination of Gaussian 16 at Wed Apr  9 19:21:43 2025.
