 Gaussian 16, Revision C.01,

 ----------------------------------------------------------------------
 #t hf aug-cc-pvdz symm=none int=(grid=ultrafine) guess=(read,tcheck) s
 table=(opt,rrhf)
 ----------------------------------------------------------------------
 -----
 title
 -----
 Symbolic Z-matrix:
 Charge =  0 Multiplicity = 1

 SCF Done:  E(RHF) =  -308.920386522     A.U. after   15 cycles

 1\1\GINC-SE097\Stability\RHF\Aug-CC-pVDZ\C6H12O1\OHZDE\09-Apr-2025\0\\
 #t hf aug-cc-pvdz symm=none int=(grid=ultrafine) guess=(read,tcheck) s
 table=(opt,rrhf)\\title\\0,1\C,0,1.87220429,-0.73962351,-0.47332729\C,
 0,0.49780394,-0.22935969,-0.31224667\O,0,0.72584082,0.12956751,1.92953
 359\C,0,0.03781277,1.11723729,-0.7318584\C,0,-1.08291711,1.11984562,0.
 29041157\C,0,-1.85199182,-0.14449437,-0.01971253\C,0,-0.67834851,-1.12
 474303,-0.17581161\H,0,2.61612512,0.02034361,-0.24556263\H,0,1.9690546
 5,-0.97767677,-1.54300854\H,0,2.05880114,-1.64079514,0.10566482\H,0,1.

 Normal termination of Gaussian 16 at Wed Apr  9 19:21:32 2025.
 Gaussian 16:  ES64L-G16RevC.01  3-Jul-2019

 ----------------------------------------------------------------------
 #t hf aug-cc-pvdz iop(5/13=1,5/36=2,99/5=2) pseudo=read geom=check gue
 ss=(read,tcheck) scf=(maxcycle=1)
 ----------------------------------------------------------------------
 -----
 title
 -----
 Structure from the checkpoint file:  "Grambow2020_wb97xd3_008665_reverse_mol1.chk"
 Charge =  0 Multiplicity = 1

                         Standard orientation:
 ---------------------------------------------------------------------
 Center     Atomic      Atomic             Coordinates (Angstroms)
 Number     Number       Type             X           Y           Z
 ---------------------------------------------------------------------
      1          6           0       -1.980062   -0.741271    0.068253
      2          6           0       -0.533520   -0.456405    0.109002
      3          8           0       -0.781368    1.709072   -0.566045
      4          6           0        0.254283   -0.239850    1.347332
      5          6           0        1.290821    0.591293    0.615302
      6          6           0        1.751234   -0.316230   -0.503014
      7          6           0        0.387256   -0.826228   -0.995109
      8          1           0       -2.532058   -0.140234    0.787210
      9          1           0       -2.077183   -1.791428    0.381310
     10          1           0       -2.404596   -0.630295   -0.926542
     11          1           0       -1.273283    2.339494   -0.031774
     12          1           0       -0.314523    0.289013    2.115386
     13          1           0        0.572515   -1.218536    1.774339
     14          1           0        0.183072    1.536279   -0.102887
     15          1           0        2.021709    1.123608    1.220089
     16          1           0        2.377422   -1.164524   -0.176177
     17          1           0        2.294747    0.200228   -1.295590
     18          1           0        0.311765   -1.915828   -1.134836
     19          1           0        0.071288   -0.368199   -1.932759
 ---------------------------------------------------------------------

 SCF Done:  E(RHF) =  -310.452270898     A.U. after    2 cycles

 The electronic state is 1-A.
 Alpha  occ. eigenvalues --  -21.02037 -11.54831 -11.45465 -11.42678 -11.41042
 Alpha  occ. eigenvalues --  -11.37009 -11.29562  -1.61048  -1.36382  -1.13190
 Alpha  occ. eigenvalues --   -1.05535  -0.95693  -0.79176  -0.77143  -0.67165
 Alpha  occ. eigenvalues --   -0.65931  -0.61948  -0.60015  -0.58400  -0.55594
 Alpha  occ. eigenvalues --   -0.50996  -0.49134  -0.46481  -0.42624  -0.41913
 Alpha  occ. eigenvalues --   -0.40682  -0.32401  -0.20027
 Alpha virt. eigenvalues --    0.03531   0.04603   0.04786   0.05252   0.05319
 Alpha virt. eigenvalues --    0.05611   0.06608   0.06756   0.07422   0.08550
 Alpha virt. eigenvalues --    0.09064   0.09313   0.10685   0.12077   0.12986

 Mulliken charges:
               1
     1  C   -5.453151
     2  C    4.788566
     3  O   -2.291717
     4  C   -3.767970
     5  C   -2.062340
     6  C   -3.268144
     7  C   -3.890988
     8  H    1.281292
     9  H    1.096585
    10  H    1.385614
    11  H    0.733875
    12  H    1.253593
    13  H    1.135019
    14  H    2.399656
    15  H    1.361083
    16  H    1.289400
    17  H    1.362218
    18  H    1.239788
    19  H    1.407619
 Sum of Mulliken charges =  -0.00000

 Dipole moment (field-independent basis, Debye):
    X=             -2.9937    Y=             -2.0220    Z=             -0.1598  Tot=              3.6161

 Test job not archived.
 1\1\GINC-SE097\SP\RHF\Aug-CC-pVDZ\C6H12O1\OHZDE\09-Apr-2025\0\\#t hf a
 ug-cc-pvdz iop(5/13=1,5/36=2,99/5=2) pseudo=read geom=check guess=(rea
 d,tcheck) scf=(maxcycle=1)\\title\\0,1\C,0,1.87220429,-0.73962351,-0.4
 7332729\C,0,0.49780394,-0.22935969,-0.31224667\O,0,0.72584082,0.129567
 51,1.92953359\C,0,0.03781277,1.11723729,-0.7318584\C,0,-1.08291711,1.1
 1984562,0.29041157\C,0,-1.85199182,-0.14449437,-0.01971253\C,0,-0.6783
 4851,-1.12474303,-0.17581161\H,0,2.61612512,0.02034361,-0.24556263\H,0
 ,1.96905465,-0.97767677,-1.54300854\H,0,2.05880114,-1.64079514,0.10566

 Normal termination of Gaussian 16 at Wed Apr  9 19:21:40 2025.
