 Gaussian 16, Revision C.01,

 ----------------------------------------------------------------------
 #t hf aug-cc-pvdz symm=none int=(grid=ultrafine) guess=(read,tcheck) s
 table=(opt,rrhf)
 ----------------------------------------------------------------------
 -----
 title
 -----
 Symbolic Z-matrix:
 Charge =  0 Multiplicity = 1

 SCF Done:  E(RHF) =  -305.666624976     A.U. after   17 cycles
 Normal termination of Gaussian 16 at Wed Apr  9 17:17:23 2025.
 Gaussian 16:  ES64L-G16RevC.01  3-Jul-2019

 ----------------------------------------------------------------------
 #t hf aug-cc-pvdz iop(5/13=1,5/36=2,99/5=2) pseudo=read geom=check gue
 ss=(read,tcheck) scf=(maxcycle=1)
 ----------------------------------------------------------------------
 -----
 title
 -----
 Structure from the checkpoint file:  "Grambow2020_b97d3_007091_forward_mol1.chk"
 Charge =  0 Multiplicity = 1

                         Standard orientation:
 ---------------------------------------------------------------------
 Center     Atomic      Atomic             Coordinates (Angstroms)
 Number     Number       Type             X           Y           Z
 ---------------------------------------------------------------------
      1          6           0        1.540455    1.444745    0.290720
      2          6           0       -0.988878    0.179284   -0.285749
      3          6           0       -2.425210    0.423241    0.019164
      4          8           0       -0.456826   -0.933290    0.266313
      5          6           0        0.858700   -1.172688    0.118252
      6          8           0        1.587211   -0.353418   -0.505534
      7          1           0        1.169935    2.129235   -0.468445
      8          1           0        1.001022    1.455686    1.236238
      9          1           0        2.619567    1.357233    0.360890
     10          1           0       -0.499965    0.557450   -1.176155
     11          1           0       -3.112702   -0.216532   -0.569772
     12          1           0       -2.679623    1.466322   -0.215334
     13          1           0       -2.648328    0.245484    1.081398
     14          1           0        1.196605   -1.948713    0.810630
 ---------------------------------------------------------------------

 SCF Done:  E(RHF) =  -307.082105393     A.U. after    2 cycles

 The electronic state is 1-A.
 Alpha  occ. eigenvalues --  -21.14043 -21.07607 -11.46159 -11.44366 -11.41676
 Alpha  occ. eigenvalues --  -11.36190  -1.85993  -1.67090  -1.10846  -1.01293
 Alpha  occ. eigenvalues --   -0.91115  -0.77355  -0.69635  -0.62033  -0.59922
 Alpha  occ. eigenvalues --   -0.58173  -0.56536  -0.53764  -0.52134  -0.51193
 Alpha  occ. eigenvalues --   -0.42242  -0.38246  -0.33335  -0.21091
 Alpha virt. eigenvalues --    0.03032   0.04891   0.05365   0.05684   0.06276
 Alpha virt. eigenvalues --    0.06634   0.06875   0.07263   0.09884   0.10918
 Alpha virt. eigenvalues --    0.11444   0.13015   0.13650   0.15102   0.15317

 Mulliken charges:
               1
     1  C   -3.989364
     2  C    0.075248
     3  C   -3.852309
     4  O   -3.130511
     5  C    2.189849
     6  O   -2.292674
     7  H    1.335873
     8  H    1.381773
     9  H    1.279055
    10  H    1.653748
    11  H    1.171372
    12  H    1.229195
    13  H    1.212834
    14  H    1.735911
 Sum of Mulliken charges =  -0.00000

 Dipole moment (field-independent basis, Debye):
    X=             -0.1092    Y=              0.7704    Z=              0.5192  Tot=              0.9354

 Test job not archived.
 1\1\GINC-SE454\SP\RHF\Aug-CC-pVDZ\C4H8O2\OHZDE\09-Apr-2025\0\\#t hf au
 g-cc-pvdz iop(5/13=1,5/36=2,99/5=2) pseudo=read geom=check guess=(read
 ,tcheck) scf=(maxcycle=1)\\title\\0,1\C,0,0.73810774,1.91841179,-0.318
 37851\C,0,-0.54073388,-0.66530034,-0.17615295\C,0,-1.8325575,-1.217405
 54,0.31568853\O,0,0.55993941,-1.07418247,0.49243168\C,0,1.75476958,-0.
 54568898,0.17162258\O,0,1.8383611,0.33892103,-0.7236533\H,0,0.0195896,
 2.032724,-1.1263432\H,0,0.31457766,1.87142656,0.6833838\H,0,1.65617857
 ,2.48763675,-0.41934449\H,0,-0.3895453,-0.33110123,-1.19611417\H,0,-2.

 Normal termination of Gaussian 16 at Wed Apr  9 17:17:27 2025.
