 Gaussian 16, Revision C.01,

 ----------------------------------------------------------------------
 #t hf aug-cc-pvdz symm=none int=(grid=ultrafine) guess=(read,tcheck) s
 table=(opt,rrhf)
 ----------------------------------------------------------------------
 -----
 title
 -----
 Symbolic Z-matrix:
 Charge =  0 Multiplicity = 1

 SCF Done:  E(RHF) =  -284.730123466     A.U. after   16 cycles
 Normal termination of Gaussian 16 at Wed Apr  9 17:54:53 2025.
 Gaussian 16:  ES64L-G16RevC.01  3-Jul-2019

 ----------------------------------------------------------------------
 #t hf aug-cc-pvdz iop(5/13=1,5/36=2,99/5=2) pseudo=read geom=check gue
 ss=(read,tcheck) scf=(maxcycle=1)
 ----------------------------------------------------------------------
 -----
 title
 -----
 Structure from the checkpoint file:  "Grambow2020_wb97xd3_006244_reverse_mol1.chk"
 Charge =  0 Multiplicity = 1

                         Standard orientation:
 ---------------------------------------------------------------------
 Center     Atomic      Atomic             Coordinates (Angstroms)
 Number     Number       Type             X           Y           Z
 ---------------------------------------------------------------------
      1          8           0        1.531242   -0.662828   -0.595436
      2          6           0        1.314783   -0.113346    0.503571
      3          7           0        0.365578    0.793453    0.736465
      4          6           0       -0.412624    1.074019   -0.464750
      5          6           0       -1.099865   -0.279597   -0.668464
      6          6           0       -1.531492   -0.671960    0.620315
      7          1           0        1.885695   -0.418105    1.391418
      8          1           0       -1.118807    1.881194   -0.263632
      9          1           0        0.208914    1.335346   -1.323575
     10          1           0       -1.762616   -0.554995   -1.497541
     11          1           0       -0.146468   -0.899722   -0.884141
     12          1           0       -1.889498   -1.682542    0.807766
     13          1           0       -1.611011    0.032585    1.433907
 ---------------------------------------------------------------------

 SCF Done:  E(RHF) =  -286.044917499     A.U. after    2 cycles

 The electronic state is 1-A.
 Alpha  occ. eigenvalues --  -20.99563 -15.68740 -11.52983 -11.43945 -11.41878
 Alpha  occ. eigenvalues --  -11.38713  -1.67681  -1.36803  -1.18024  -0.99651
 Alpha  occ. eigenvalues --   -0.88445  -0.75854  -0.71842  -0.65650  -0.62143
 Alpha  occ. eigenvalues --   -0.58044  -0.52157  -0.51028  -0.48190  -0.42479
 Alpha  occ. eigenvalues --   -0.34412  -0.27203  -0.25794
 Alpha virt. eigenvalues --    0.01539   0.03160   0.04265   0.05241   0.05867
 Alpha virt. eigenvalues --    0.06678   0.07100   0.07697   0.10890   0.11727
 Alpha virt. eigenvalues --    0.12525   0.12916   0.13768   0.14098   0.14543

 Mulliken charges:
               1
     1  O   -2.555105
     2  C    2.223107
     3  N   -1.970302
     4  C   -2.735070
     5  C   -2.756178
     6  C   -2.281500
     7  H    1.660064
     8  H    1.375017
     9  H    1.326206
    10  H    1.292129
    11  H    1.597592
    12  H    1.401242
    13  H    1.422797
 Sum of Mulliken charges =   0.00000

 Dipole moment (field-independent basis, Debye):
    X=             -3.9525    Y=             -1.4175    Z=             -0.2041  Tot=              4.2040

 Test job not archived.
 1\1\GINC-SE174\SP\RHF\Aug-CC-pVDZ\C4H7N1O1\OHZDE\09-Apr-2025\0\\#t hf
 aug-cc-pvdz iop(5/13=1,5/36=2,99/5=2) pseudo=read geom=check guess=(re
 ad,tcheck) scf=(maxcycle=1)\\title\\0,1\O,0,0.70314679,0.44870361,-2.0
 2682275\C,0,1.47745828,0.28929443,-1.0616117\N,0,1.18819766,0.56520853
 ,0.21028298\C,0,-0.16847215,1.08195004,0.35048953\C,0,-0.97608298,-0.1
 5496359,-0.05433795\C,0,-0.3461291,-1.23811869,0.60226955\H,0,2.462043
 41,-0.17236099,-1.21831902\H,0,-0.3417513,1.3803808,1.38566399\H,0,-0.
 37444161,1.92370159,-0.31374923\H,0,-2.06720504,-0.22003622,-0.1419192

 Normal termination of Gaussian 16 at Wed Apr  9 17:54:56 2025.
