 Gaussian 16, Revision C.01,

 ----------------------------------------------------------------------
 #t hf aug-cc-pvdz symm=none int=(grid=ultrafine) guess=(read,tcheck) s
 table=(opt,rrhf)
 ----------------------------------------------------------------------
 -----
 title
 -----
 Symbolic Z-matrix:
 Charge =  0 Multiplicity = 1

 SCF Done:  E(RHF) =  -269.887780620     A.U. after   15 cycles

 1\1\GINC-SE219\Stability\RHF\Aug-CC-pVDZ\C5H10O1\OHZDE\09-Apr-2025\0\\
 #t hf aug-cc-pvdz symm=none int=(grid=ultrafine) guess=(read,tcheck) s
 table=(opt,rrhf)\\title\\0,1\C,0,2.45999117,-0.29081014,-0.19085795\C,
 0,1.22087283,0.41044024,-0.71395405\C,0,-0.16090687,0.34571353,0.61713
 449\O,0,0.25172348,0.31626426,1.75933985\C,0,-1.34637767,0.0942504,-0.
 09508823\C,0,-2.67273753,-0.21267689,0.54908481\H,0,3.36686589,0.08760
 779,-0.68368301\H,0,2.55190368,-0.11552353,0.88847063\H,0,2.40694251,-
 1.37565853,-0.3602282\H,0,0.97667565,0.15951872,-1.76158309\H,0,1.2952

 Normal termination of Gaussian 16 at Wed Apr  9 16:12:02 2025.
 Gaussian 16:  ES64L-G16RevC.01  3-Jul-2019

 ----------------------------------------------------------------------
 #t hf aug-cc-pvdz iop(5/13=1,5/36=2,99/5=2) pseudo=read geom=check gue
 ss=(read,tcheck) scf=(maxcycle=1)
 ----------------------------------------------------------------------
 -----
 title
 -----
 Structure from the checkpoint file:  "Grambow2020_b97d3_006745_reverse_mol1.chk"
 Charge =  0 Multiplicity = 1

                         Standard orientation:
 ---------------------------------------------------------------------
 Center     Atomic      Atomic             Coordinates (Angstroms)
 Number     Number       Type             X           Y           Z
 ---------------------------------------------------------------------
      1          6           0        2.512198   -0.058906    0.404898
      2          6           0        1.389189   -0.747568   -0.347028
      3          6           0       -0.198038    0.328094   -0.252349
      4          8           0        0.015619    1.520511   -0.161485
      5          6           0       -1.249912   -0.584318   -0.060248
      6          6           0       -2.670154   -0.187539    0.246137
      7          1           0        3.494508   -0.373541    0.024673
      8          1           0        2.423294    1.027801    0.281256
      9          1           0        2.472954   -0.287556    1.479410
     10          1           0        1.321578   -1.832302   -0.149799
     11          1           0        1.469856   -0.633179   -1.434560
     12          1           0        0.199716   -0.680858    0.556517
     13          1           0       -1.074599   -1.610221   -0.389021
     14          1           0       -3.285912   -0.144920   -0.667849
     15          1           0       -3.135355   -0.925424    0.916076
     16          1           0       -2.710686    0.797536    0.726723
 ---------------------------------------------------------------------

 SCF Done:  E(RHF) =  -271.216517181     A.U. after    2 cycles

 The electronic state is 1-A.
 Alpha  occ. eigenvalues --  -21.02710 -11.51588 -11.43025 -11.42869 -11.38471
 Alpha  occ. eigenvalues --  -11.37499  -1.68690  -1.23671  -1.13689  -1.00595
 Alpha  occ. eigenvalues --   -0.88545  -0.72835  -0.66931  -0.64550  -0.58356
 Alpha  occ. eigenvalues --   -0.56996  -0.54909  -0.52900  -0.50457  -0.48894
 Alpha  occ. eigenvalues --   -0.48271  -0.43862  -0.30066  -0.25363
 Alpha virt. eigenvalues --    0.03135   0.04690   0.04911   0.05697   0.05786
 Alpha virt. eigenvalues --    0.06082   0.06612   0.07593   0.08182   0.08790
 Alpha virt. eigenvalues --    0.11561   0.12452   0.13033   0.13381   0.14329

 Mulliken charges:
               1
     1  C   -3.754768
     2  C   -3.884533
     3  C    3.436600
     4  O   -3.432931
     5  C   -1.389734
     6  C   -4.115048
     7  H    1.146867
     8  H    1.269441
     9  H    1.220641
    10  H    1.209037
    11  H    1.382869
    12  H    2.274645
    13  H    1.102127
    14  H    1.218354
    15  H    1.125560
    16  H    1.190873
 Sum of Mulliken charges =   0.00000

 Dipole moment (field-independent basis, Debye):
    X=              0.2007    Y=             -1.4853    Z=             -0.0757  Tot=              1.5007

 Test job not archived.
 1\1\GINC-SE219\SP\RHF\Aug-CC-pVDZ\C5H10O1\OHZDE\09-Apr-2025\0\\#t hf a
 ug-cc-pvdz iop(5/13=1,5/36=2,99/5=2) pseudo=read geom=check guess=(rea
 d,tcheck) scf=(maxcycle=1)\\title\\0,1\C,0,2.45999117,-0.29081014,-0.1
 9085795\C,0,1.22087283,0.41044024,-0.71395405\C,0,-0.16090687,0.345713
 53,0.61713449\O,0,0.25172348,0.31626426,1.75933985\C,0,-1.34637767,0.0
 942504,-0.09508823\C,0,-2.67273753,-0.21267689,0.54908481\H,0,3.366865
 89,0.08760779,-0.68368301\H,0,2.55190368,-0.11552353,0.88847063\H,0,2.
 40694251,-1.37565853,-0.3602282\H,0,0.97667565,0.15951872,-1.76158309\

 Normal termination of Gaussian 16 at Wed Apr  9 16:12:06 2025.
