 Gaussian 16, Revision C.01,

 ----------------------------------------------------------------------
 #t hf aug-cc-pvdz symm=none int=(grid=ultrafine) guess=(read,tcheck) s
 table=(opt,rrhf)
 ----------------------------------------------------------------------
 -----
 title
 -----
 Symbolic Z-matrix:
 Charge =  0 Multiplicity = 1

 SCF Done:  E(RHF) =  -302.905619379     A.U. after   15 cycles
 Normal termination of Gaussian 16 at Wed Apr  9 19:24:10 2025.
 Gaussian 16:  ES64L-G16RevC.01  3-Jul-2019

 ----------------------------------------------------------------------
 #t hf aug-cc-pvdz iop(5/13=1,5/36=2,99/5=2) pseudo=read geom=check gue
 ss=(read,tcheck) scf=(maxcycle=1)
 ----------------------------------------------------------------------
 -----
 title
 -----
 Structure from the checkpoint file:  "Grambow2020_wb97xd3_008878_reverse_mol2.chk"
 Charge =  0 Multiplicity = 1

                         Standard orientation:
 ---------------------------------------------------------------------
 Center     Atomic      Atomic             Coordinates (Angstroms)
 Number     Number       Type             X           Y           Z
 ---------------------------------------------------------------------
      1          6           0        2.294524   -0.489541    0.468128
      2          7           0        0.695477    1.265234   -0.153748
      3          6           0        1.137428   -0.096944   -0.442723
      4          6           0       -0.085540   -0.955291   -0.323320
      5          6           0       -1.114273   -0.155959   -0.007768
      6          7           0       -2.440496   -0.437287    0.275112
      7          6           0       -0.554098    1.203194    0.084421
      8          1           0        2.639825   -1.497692    0.232556
      9          1           0        3.126502    0.203647    0.343406
     10          1           0        1.975398   -0.469470    1.511396
     11          1           0        1.496704   -0.088776   -1.480319
     12          1           0       -0.102785   -2.026330   -0.469614
     13          1           0       -2.764372   -1.336774   -0.038049
     14          1           0       -3.090108    0.296827    0.047950
     15          1           0       -1.134275    2.090181    0.330694
 ---------------------------------------------------------------------

 SCF Done:  E(RHF) =  -304.356777096     A.U. after    2 cycles

 The electronic state is 1-A.
 Alpha  occ. eigenvalues --  -15.76669 -15.71942 -11.47207 -11.43673 -11.41817
 Alpha  occ. eigenvalues --  -11.38524 -11.35534  -1.47947  -1.33538  -1.12711
 Alpha  occ. eigenvalues --   -1.06991  -0.93946  -0.79669  -0.77591  -0.69597
 Alpha  occ. eigenvalues --   -0.65944  -0.61972  -0.57977  -0.53663  -0.51368
 Alpha  occ. eigenvalues --   -0.48640  -0.47983  -0.45088  -0.38739  -0.36395
 Alpha  occ. eigenvalues --   -0.28534
 Alpha virt. eigenvalues --    0.03371   0.05024   0.05189   0.05678   0.06239
 Alpha virt. eigenvalues --    0.06938   0.07285   0.08326   0.10126   0.11375
 Alpha virt. eigenvalues --    0.11673   0.12670   0.12776   0.13989   0.14647

 Mulliken charges:
               1
     1  C   -3.683005
     2  N   -3.054496
     3  C   -1.149701
     4  C   -1.441114
     5  C    4.059792
     6  N   -3.763123
     7  C   -0.503132
     8  H    1.165907
     9  H    1.215368
    10  H    1.316054
    11  H    1.499581
    12  H    1.482456
    13  H    0.704197
    14  H    0.638530
    15  H    1.512688
 Sum of Mulliken charges =   0.00000

 Dipole moment (field-independent basis, Debye):
    X=             -2.1677    Y=             -1.1914    Z=             -0.6198  Tot=              2.5500

 Test job not archived.
 1\1\GINC-SE045\SP\RHF\Aug-CC-pVDZ\C5H8N2\OHZDE\09-Apr-2025\0\\#t hf au
 g-cc-pvdz iop(5/13=1,5/36=2,99/5=2) pseudo=read geom=check guess=(read
 ,tcheck) scf=(maxcycle=1)\\title\\0,1\C,0,2.03634129,-0.52929469,0.720
 03498\N,0,0.86787959,0.69825387,-1.05499699\C,0,0.90352035,-0.5514996,
 -0.29921838\C,0,-0.46939825,-0.71631733,0.27922551\C,0,-1.20652321,0.3
 3038972,-0.11807337\N,0,-2.50852872,0.69919305,0.17654629\C,0,-0.31099
 74,1.16546502,-0.93677647\H,0,2.0771563,-1.47395613,1.26505356\H,0,2.9
 9220395,-0.37177001,0.22026982\H,0,1.87988868,0.27678236,1.43865501\H,

 Normal termination of Gaussian 16 at Wed Apr  9 19:24:15 2025.
