 Gaussian 16, Revision C.01,

 ----------------------------------------------------------------------
 #t hf aug-cc-pvdz symm=none int=(grid=ultrafine) guess=(read,tcheck) s
 table=(opt,rrhf)
 ----------------------------------------------------------------------
 -----
 title
 -----
 Symbolic Z-matrix:
 Charge =  0 Multiplicity = 1

 SCF Done:  E(RHF) =  -307.715152543     A.U. after   17 cycles

 1\1\GINC-SE114\Stability\RHF\Aug-CC-pVDZ\C6H10O1\OHZDE\09-Apr-2025\0\\
 #t hf aug-cc-pvdz symm=none int=(grid=ultrafine) guess=(read,tcheck) s
 table=(opt,rrhf)\\title\\0,1\C,0,-2.27508869,-0.42430633,0.14650199\C,
 0,-0.93351091,0.0197194,-0.29230728\O,0,-0.61963505,1.29259476,-0.0954
 6287\C,0,0.80521876,1.47709575,-0.28404964\C,0,1.4336242,0.07612036,-0
 .19198242\C,0,1.70152628,-0.4504265,1.13364346\C,0,0.21617605,-0.76112
 961,-0.60837402\H,0,-3.02865,0.33524253,-0.05517091\H,0,-2.22927414,-0
 .59740035,1.22910271\H,0,-2.55656004,-1.35970292,-0.33338265\H,0,-0.45

 Normal termination of Gaussian 16 at Wed Apr  9 18:20:35 2025.
 Gaussian 16:  ES64L-G16RevC.01  3-Jul-2019

 ----------------------------------------------------------------------
 #t hf aug-cc-pvdz iop(5/13=1,5/36=2,99/5=2) pseudo=read geom=check gue
 ss=(read,tcheck) scf=(maxcycle=1)
 ----------------------------------------------------------------------
 -----
 title
 -----
 Structure from the checkpoint file:  "Grambow2020_wb97xd3_006910_reverse_mol1.chk"
 Charge =  0 Multiplicity = 1

                         Standard orientation:
 ---------------------------------------------------------------------
 Center     Atomic      Atomic             Coordinates (Angstroms)
 Number     Number       Type             X           Y           Z
 ---------------------------------------------------------------------
      1          6           0        2.296627   -0.482153   -0.280919
      2          6           0        0.972953   -0.011947    0.184199
      3          8           0        0.534841    1.143487   -0.295912
      4          6           0       -0.874512    1.292801    0.006152
      5          6           0       -1.388659   -0.114593    0.353996
      6          6           0       -1.742269   -0.988595   -0.749357
      7          6           0       -0.069510   -0.742672    0.825071
      8          1           0        2.999857    0.343948   -0.372930
      9          1           0        2.157683   -0.939139   -1.268817
     10          1           0        2.702436   -1.239309    0.387300
     11          1           0        0.661262   -0.073045    1.609553
     12          1           0       -0.950383    1.980116    0.852787
     13          1           0       -1.349916    1.718013   -0.876579
     14          1           0       -2.139729   -0.075919    1.141619
     15          1           0       -1.120180   -1.010165   -1.636665
     16          1           0       -2.454249   -1.787843   -0.604983
     17          1           0        0.046705   -1.781597    1.101151
 ---------------------------------------------------------------------

 SCF Done:  E(RHF) =  -309.192614057     A.U. after    2 cycles

 The electronic state is 1-A.
 Alpha  occ. eigenvalues --  -21.11525 -11.55426 -11.47373 -11.45747 -11.43396
 Alpha  occ. eigenvalues --  -11.39717 -11.28409  -1.85506  -1.26994  -1.18783
 Alpha  occ. eigenvalues --   -1.04905  -0.95204  -0.80324  -0.78595  -0.71407
 Alpha  occ. eigenvalues --   -0.69281  -0.62675  -0.61983  -0.58087  -0.53532
 Alpha  occ. eigenvalues --   -0.51555  -0.50360  -0.47464  -0.46335  -0.41694
 Alpha  occ. eigenvalues --   -0.36284  -0.17643
 Alpha virt. eigenvalues --    0.02759   0.04448   0.04493   0.05033   0.05440
 Alpha virt. eigenvalues --    0.05776   0.06893   0.07146   0.07459   0.09445
 Alpha virt. eigenvalues --    0.10135   0.11262   0.12100   0.12572   0.12876

 Mulliken charges:
               1
     1  C   -4.059830
     2  C    4.080166
     3  O   -3.832719
     4  C   -2.159485
     5  C   -3.139375
     6  C   -2.762225
     7  C   -2.052870
     8  H    1.278618
     9  H    1.177792
    10  H    1.053463
    11  H    1.473857
    12  H    1.507861
    13  H    1.654664
    14  H    1.558273
    15  H    1.361255
    16  H    1.303586
    17  H    1.556971
 Sum of Mulliken charges =   0.00000

 Dipole moment (field-independent basis, Debye):
    X=              4.4372    Y=              1.8990    Z=              2.1132  Tot=              5.2688

 Test job not archived.
 1\1\GINC-SE114\SP\RHF\Aug-CC-pVDZ\C6H10O1\OHZDE\09-Apr-2025\0\\#t hf a
 ug-cc-pvdz iop(5/13=1,5/36=2,99/5=2) pseudo=read geom=check guess=(rea
 d,tcheck) scf=(maxcycle=1)\\title\\0,1\C,0,-2.27508869,-0.42430633,0.1
 4650199\C,0,-0.93351091,0.0197194,-0.29230728\O,0,-0.61963505,1.292594
 76,-0.09546287\C,0,0.80521876,1.47709575,-0.28404964\C,0,1.4336242,0.0
 7612036,-0.19198242\C,0,1.70152628,-0.4504265,1.13364346\C,0,0.2161760
 5,-0.76112961,-0.60837402\H,0,-3.02865,0.33524253,-0.05517091\H,0,-2.2
 2927414,-0.59740035,1.22910271\H,0,-2.55656004,-1.35970292,-0.33338265

 Normal termination of Gaussian 16 at Wed Apr  9 18:20:41 2025.
