 Gaussian 16, Revision C.01,

 ----------------------------------------------------------------------
 #t hf aug-cc-pvdz symm=none int=(grid=ultrafine) guess=(read,tcheck) s
 table=(opt,rrhf)
 ----------------------------------------------------------------------
 -----
 title
 -----
 Symbolic Z-matrix:
 Charge =  0 Multiplicity = 1

 SCF Done:  E(RHF) =  -271.849456672     A.U. after   15 cycles
 Normal termination of Gaussian 16 at Wed Apr  9 03:40:09 2025.
 Gaussian 16:  ES64L-G16RevC.01  3-Jul-2019

 ----------------------------------------------------------------------
 #t hf aug-cc-pvdz iop(5/13=1,5/36=2,99/5=2) pseudo=read geom=check gue
 ss=(read,tcheck) scf=(maxcycle=1)
 ----------------------------------------------------------------------
 -----
 title
 -----
 Structure from the checkpoint file:  "Grambow2020_wb97xd3_007418_forward_mol1.chk"
 Charge =  0 Multiplicity = 1

                         Standard orientation:
 ---------------------------------------------------------------------
 Center     Atomic      Atomic             Coordinates (Angstroms)
 Number     Number       Type             X           Y           Z
 ---------------------------------------------------------------------
      1          6           0        2.426547   -0.487506    0.271288
      2          6           0        1.154694    0.016817   -0.255259
      3          6           0        0.053226   -0.826591   -0.512912
      4          6           0       -1.225366   -0.033238   -0.469169
      5          6           0       -2.300931   -0.652817    0.425830
      6          6           0       -0.742501    1.305194    0.025478
      7          6           0        0.579434    1.330008    0.156155
      8          1           0        1.327506   -1.437509    1.453530
      9          1           0        2.797422   -1.421616   -0.135841
     10          1           0        3.184835    0.230920    0.569118
     11          1           0        1.918506    0.108509   -1.141402
     12          1           0        0.131572   -1.793241   -0.992769
     13          1           0        0.558132   -1.533231    1.160782
     14          1           0       -1.649148    0.084386   -1.477422
     15          1           0       -1.925078   -0.755603    1.445419
     16          1           0       -2.577928   -1.645028    0.065657
     17          1           0       -3.201035   -0.034357    0.444828
     18          1           0       -1.413516    2.123297    0.255726
     19          1           0        1.178115    2.162274    0.503912
 ---------------------------------------------------------------------

 SCF Done:  E(RHF) =  -273.262007959     A.U. after    2 cycles

 The electronic state is 1-A.
 Alpha  occ. eigenvalues --  -11.48112 -11.46018 -11.43255 -11.40611 -11.39163
 Alpha  occ. eigenvalues --  -11.38049 -11.34886  -1.37651  -1.16208  -1.06622
 Alpha  occ. eigenvalues --   -0.97838  -0.89602  -0.78154  -0.76018  -0.69768
 Alpha  occ. eigenvalues --   -0.65037  -0.60902  -0.58859  -0.56330  -0.52843
 Alpha  occ. eigenvalues --   -0.50959  -0.46916  -0.46528  -0.44325  -0.42922
 Alpha  occ. eigenvalues --   -0.33675  -0.23900
 Alpha virt. eigenvalues --    0.04029   0.04764   0.04858   0.05461   0.05704
 Alpha virt. eigenvalues --    0.05931   0.06262   0.07382   0.07620   0.07855
 Alpha virt. eigenvalues --    0.09312   0.09749   0.10540   0.11523   0.13050

 Mulliken charges:
               1
     1  C   -2.667852
     2  C    1.251751
     3  C   -2.460808
     4  C   -4.051837
     5  C   -3.953972
     6  C   -0.466691
     7  C   -1.128925
     8  H   -0.012666
     9  H    1.258296
    10  H    1.310787
    11  H    1.115504
    12  H    1.459353
    13  H    0.029825
    14  H    1.470501
    15  H    1.451394
    16  H    1.267056
    17  H    1.215063
    18  H    1.456863
    19  H    1.456360
 Sum of Mulliken charges =  -0.00000

 Dipole moment (field-independent basis, Debye):
    X=              0.4750    Y=              0.8394    Z=             -1.0582  Tot=              1.4318

 Test job not archived.
 1\1\GINC-SE219\SP\RHF\Aug-CC-pVDZ\C7H12\OHZDE\09-Apr-2025\0\\#t hf aug
 -cc-pvdz iop(5/13=1,5/36=2,99/5=2) pseudo=read geom=check guess=(read,
 tcheck) scf=(maxcycle=1)\\title\\0,1\C,0,-2.43117258,-0.17852686,0.024
 92306\C,0,-1.11102194,0.45160951,-0.07168869\C,0,-0.08365939,0.2061573
 5,0.86385055\C,0,1.25876495,0.47699885,0.23882037\C,0,2.26011029,-0.66
 627372,0.41764337\C,0,0.88693509,0.71852787,-1.20084651\C,0,-0.4297604
 6,0.69261386,-1.37647081\H,0,-1.44044227,-1.73365064,0.35376318\H,0,-2
 .87562774,-0.25212585,1.01128363\H,0,-3.12841224,-0.04831498,-0.797719

 Normal termination of Gaussian 16 at Wed Apr  9 03:40:17 2025.
