 Gaussian 16, Revision C.01,

 ----------------------------------------------------------------------
 #t hf aug-cc-pvdz symm=none int=(grid=ultrafine) guess=(read,tcheck) s
 table=(opt,rrhf)
 ----------------------------------------------------------------------
 -----
 title
 -----
 Symbolic Z-matrix:
 Charge =  0 Multiplicity = 1

 SCF Done:  E(RHF) =  -295.649932516     A.U. after   20 cycles
 Normal termination of Gaussian 16 at Wed Apr  9 16:18:41 2025.
 Gaussian 16:  ES64L-G16RevC.01  3-Jul-2019

 ----------------------------------------------------------------------
 #t hf aug-cc-pvdz iop(5/13=1,5/36=2,99/5=2) pseudo=read geom=check gue
 ss=(read,tcheck) scf=(maxcycle=1)
 ----------------------------------------------------------------------
 -----
 title
 -----
 Structure from the checkpoint file:  "Grambow2020_b97d3_006789_forward_mol1.chk"
 Charge =  0 Multiplicity = 1

                         Standard orientation:
 ---------------------------------------------------------------------
 Center     Atomic      Atomic             Coordinates (Angstroms)
 Number     Number       Type             X           Y           Z
 ---------------------------------------------------------------------
      1          7           0        0.127858    1.727996    0.174715
      2          6           0        0.023448    0.344724   -0.049173
      3          7           0       -1.058129   -0.303586   -0.122383
      4          7           0       -2.173820   -0.881247   -0.034196
      5          6           0        2.022737   -1.056586    0.327280
      6          7           0        1.260011   -0.288428   -0.298325
      7          1           0        0.990530    2.108345   -0.215482
      8          1           0       -0.683369    2.251695   -0.148925
      9          1           0       -2.643191   -0.555946    0.847539
     10          1           0        2.967481   -1.316064   -0.190451
 ---------------------------------------------------------------------

 SCF Done:  E(RHF) =  -296.970168808     A.U. after    2 cycles

 The electronic state is 1-A.
 Alpha  occ. eigenvalues --  -15.86418 -15.85111 -15.80430 -15.76485 -11.56141
 Alpha  occ. eigenvalues --  -11.37299  -1.58855  -1.43211  -1.30941  -1.15479
 Alpha  occ. eigenvalues --   -0.90088  -0.79524  -0.71372  -0.67963  -0.65266
 Alpha  occ. eigenvalues --   -0.59673  -0.57376  -0.48463  -0.45494  -0.43737
 Alpha  occ. eigenvalues --   -0.36308  -0.23023
 Alpha virt. eigenvalues --    0.02684   0.04311   0.05275   0.05923   0.06854
 Alpha virt. eigenvalues --    0.09991   0.11015   0.11181   0.12053   0.13351
 Alpha virt. eigenvalues --    0.13821   0.14897   0.15088   0.16940   0.18095

 Mulliken charges:
               1
     1  N   -2.602092
     2  C    4.406863
     3  N   -0.559379
     4  N   -1.162926
     5  C   -1.302520
     6  N   -2.161638
     7  H    0.682859
     8  H    0.579079
     9  H    0.616728
    10  H    1.503027
 Sum of Mulliken charges =  -0.00000

 Dipole moment (field-independent basis, Debye):
    X=             -2.9101    Y=              3.8388    Z=             -1.0170  Tot=              4.9233

 Test job not archived.
 1\1\GINC-SE162\SP\RHF\Aug-CC-pVDZ\C2H4N4\OHZDE\09-Apr-2025\0\\#t hf au
 g-cc-pvdz iop(5/13=1,5/36=2,99/5=2) pseudo=read geom=check guess=(read
 ,tcheck) scf=(maxcycle=1)\\title\\0,1\N,0,1.52243262,-0.0917513,-0.324
 75311\C,0,0.1711589,-0.06924462,0.05998395\N,0,-0.54518288,-1.0880361,
 0.27068279\N,0,-1.21316436,-2.15482526,0.31536448\C,0,-1.10698565,2.01
 807921,-0.2746285\N,0,-0.33147667,1.22672855,0.30463829\H,0,2.01112472
 ,0.75492253,-0.03244059\H,0,2.01668654,-0.92631601,-0.01441787\H,0,-1.
 03076707,-2.69365438,-0.56780054\H,0,-1.23049114,3.00612339,0.2116131\

 Normal termination of Gaussian 16 at Wed Apr  9 16:18:44 2025.
