 Gaussian 16, Revision C.01,

 ----------------------------------------------------------------------
 #t hf aug-cc-pvdz symm=none int=(grid=ultrafine) guess=(read,tcheck) s
 table=(opt,rrhf)
 ----------------------------------------------------------------------
 -----
 title
 -----
 Symbolic Z-matrix:
 Charge =  0 Multiplicity = 1

 SCF Done:  E(RHF) =  -191.805560761     A.U. after   16 cycles
 Normal termination of Gaussian 16 at Wed Apr  9 16:28:38 2025.
 Gaussian 16:  ES64L-G16RevC.01  3-Jul-2019

 ----------------------------------------------------------------------
 #t hf aug-cc-pvdz iop(5/13=1,5/36=2,99/5=2) pseudo=read geom=check gue
 ss=(read,tcheck) scf=(maxcycle=1)
 ----------------------------------------------------------------------
 -----
 title
 -----
 Structure from the checkpoint file:  "Grambow2020_b97d3_006807_forward_mol1.chk"
 Charge =  0 Multiplicity = 1

                         Standard orientation:
 ---------------------------------------------------------------------
 Center     Atomic      Atomic             Coordinates (Angstroms)
 Number     Number       Type             X           Y           Z
 ---------------------------------------------------------------------
      1          6           0        0.977327   -1.012369   -0.077682
      2          6           0        0.222813    0.176285    0.265801
      3          8           0        0.414751    1.385046   -0.106938
      4          6           0       -1.351631   -0.328472   -0.113274
      5          1           0        1.810704   -0.994634   -0.784228
      6          1           0        0.062027    0.026736    1.387100
      7          1           0        0.716476   -1.965717    0.382405
      8          1           0       -1.957523    0.475283    0.311266
      9          1           0       -1.422954   -0.334175   -1.202751
     10          1           0       -1.617788   -1.300524    0.312643
 ---------------------------------------------------------------------

 SCF Done:  E(RHF) =  -192.695151914     A.U. after    2 cycles

 The electronic state is 1-A.
 Alpha  occ. eigenvalues --  -20.93792 -11.51274 -11.44014 -11.40853  -1.60429
 Alpha  occ. eigenvalues --   -1.17014  -1.01127  -0.81879  -0.68154  -0.62975
 Alpha  occ. eigenvalues --   -0.59336  -0.52654  -0.51211  -0.41981  -0.23102
 Alpha  occ. eigenvalues --   -0.21971
 Alpha virt. eigenvalues --   -0.00442   0.02912   0.04846   0.05633   0.05865
 Alpha virt. eigenvalues --    0.06548   0.07260   0.11532   0.11862   0.12327
 Alpha virt. eigenvalues --    0.13728   0.15296   0.15475   0.16332   0.17553

 Mulliken charges:
               1
     1  C   -2.654560
     2  C    1.187377
     3  O   -2.913445
     4  C   -3.525425
     5  H    1.369292
     6  H    1.327097
     7  H    1.505021
     8  H    1.184846
     9  H    1.256454
    10  H    1.263342
 Sum of Mulliken charges =  -0.00000

 Dipole moment (field-independent basis, Debye):
    X=             -0.3244    Y=             -4.0374    Z=              0.2111  Tot=              4.0559

 Test job not archived.
 1\1\GINC-SE138\SP\RHF\Aug-CC-pVDZ\C3H6O1\OHZDE\09-Apr-2025\0\\#t hf au
 g-cc-pvdz iop(5/13=1,5/36=2,99/5=2) pseudo=read geom=check guess=(read
 ,tcheck) scf=(maxcycle=1)\\title\\0,1\C,0,-1.06244084,0.11421281,0.814
 43749\C,0,-0.41744895,0.40532062,-0.45024124\O,0,-0.31075982,1.5259665
 4,-1.05822801\C,0,1.10889852,-0.28872855,-0.19350716\H,0,-1.503717,0.8
 9307283,1.44108829\H,0,-0.77116364,-0.47114111,-1.09229304\H,0,-1.1199
 8777,-0.91713962,1.1631436\H,0,1.54799813,-0.2508512,-1.19306563\H,0,1
 .64192245,0.37529752,0.48989318\H,0,1.06901092,-1.31283385,0.18956852\

 Normal termination of Gaussian 16 at Wed Apr  9 16:28:41 2025.
