 Gaussian 16, Revision C.01,

 ----------------------------------------------------------------------
 #t hf aug-cc-pvdz symm=none int=(grid=ultrafine) guess=(read,tcheck) s
 table=(opt,rrhf)
 ----------------------------------------------------------------------
 -----
 title
 -----
 Symbolic Z-matrix:
 Charge =  0 Multiplicity = 1

 SCF Done:  E(RHF) =  -344.775481281     A.U. after   15 cycles

 1\1\GINC-SE127\Stability\RHF\Aug-CC-pVDZ\C5H10O2\OHZDE\09-Apr-2025\0\\
 #t hf aug-cc-pvdz symm=none int=(grid=ultrafine) guess=(read,tcheck) s
 table=(opt,rrhf)\\title\\0,1\C,0,-2.0760787,-0.39035165,0.50995941\C,0
 ,-0.91570417,0.56797299,0.460404\O,0,-0.75148127,1.33430166,1.60394433
 \C,0,0.44223876,-0.82781927,-1.39165855\C,0,1.90265405,-0.38015479,-1.
 19508068\C,0,1.48988735,0.52401417,-0.05503563\O,0,0.26726383,-0.21898
 391,0.24850785\H,0,-3.00185109,0.16647834,0.6507435\H,0,-2.12753932,-0
 .94421887,-0.42672429\H,0,-1.95043364,-1.09707767,1.33431938\H,0,-0.99

 Normal termination of Gaussian 16 at Wed Apr  9 03:34:06 2025.
 Gaussian 16:  ES64L-G16RevC.01  3-Jul-2019

 ----------------------------------------------------------------------
 #t hf aug-cc-pvdz iop(5/13=1,5/36=2,99/5=2) pseudo=read geom=check gue
 ss=(read,tcheck) scf=(maxcycle=1)
 ----------------------------------------------------------------------
 -----
 title
 -----
 Structure from the checkpoint file:  "Grambow2020_wb97xd3_007061_reverse_mol2.chk"
 Charge =  0 Multiplicity = 1

                         Standard orientation:
 ---------------------------------------------------------------------
 Center     Atomic      Atomic             Coordinates (Angstroms)
 Number     Number       Type             X           Y           Z
 ---------------------------------------------------------------------
      1          6           0       -1.844370    1.177103   -0.057973
      2          6           0       -1.060642   -0.050011    0.325792
      3          8           0       -1.694415   -1.250418    0.044245
      4          6           0        1.327633    1.179170    0.238410
      5          6           0        2.328333    0.028410    0.023448
      6          6           0        1.195821   -0.973681   -0.005396
      7          8           0        0.181321    0.005498   -0.393972
      8          1           0       -2.790950    1.187442    0.481299
      9          1           0       -1.272108    2.067078    0.201359
     10          1           0       -2.040888    1.181721   -1.133230
     11          1           0       -0.814627   -0.058278    1.390077
     12          1           0       -2.083615   -1.199988   -0.833235
     13          1           0        1.341818    1.846113   -0.635404
     14          1           0        2.894797    0.029110   -0.913713
     15          1           0        3.020563   -0.110341    0.854149
     16          1           0        0.941281   -1.370316    0.977815
     17          1           0        1.227826   -1.779126   -0.736991
 ---------------------------------------------------------------------

 SCF Done:  E(RHF) =  -346.368874232     A.U. after    2 cycles

 The electronic state is 1-A.
 Alpha  occ. eigenvalues --  -21.09221 -21.08069 -11.48600 -11.45620 -11.39057
 Alpha  occ. eigenvalues --  -11.38002 -11.35000  -1.85709  -1.70907  -1.17784
 Alpha  occ. eigenvalues --   -1.09341  -0.94865  -0.89108  -0.78465  -0.68213
 Alpha  occ. eigenvalues --   -0.66843  -0.63725  -0.63381  -0.56868  -0.53995
 Alpha  occ. eigenvalues --   -0.51969  -0.50540  -0.47656  -0.43469  -0.38889
 Alpha  occ. eigenvalues --   -0.38483  -0.33427  -0.27226
 Alpha virt. eigenvalues --    0.04091   0.04824   0.05250   0.05563   0.05630
 Alpha virt. eigenvalues --    0.06191   0.06661   0.06882   0.07595   0.08907
 Alpha virt. eigenvalues --    0.11269   0.12322   0.13257   0.14444   0.14573

 Mulliken charges:
               1
     1  C   -3.865320
     2  C    2.669945
     3  O   -3.068248
     4  C   -1.389765
     5  C   -2.953931
     6  C   -1.992056
     7  O   -2.731056
     8  H    1.095460
     9  H    1.380465
    10  H    1.209921
    11  H    2.056270
    12  H    0.630203
    13  H    1.276687
    14  H    1.296962
    15  H    1.343491
    16  H    1.669701
    17  H    1.371270
 Sum of Mulliken charges =  -0.00000

 Dipole moment (field-independent basis, Debye):
    X=             -1.4448    Y=             -1.9930    Z=             -1.8361  Tot=              3.0710

 Test job not archived.
 1\1\GINC-SE127\SP\RHF\Aug-CC-pVDZ\C5H10O2\OHZDE\09-Apr-2025\0\\#t hf a
 ug-cc-pvdz iop(5/13=1,5/36=2,99/5=2) pseudo=read geom=check guess=(rea
 d,tcheck) scf=(maxcycle=1)\\title\\0,1\C,0,-2.0760787,-0.39035165,0.50
 995941\C,0,-0.91570417,0.56797299,0.460404\O,0,-0.75148127,1.33430166,
 1.60394433\C,0,0.44223876,-0.82781927,-1.39165855\C,0,1.90265405,-0.38
 015479,-1.19508068\C,0,1.48988735,0.52401417,-0.05503563\O,0,0.2672638
 3,-0.21898391,0.24850785\H,0,-3.00185109,0.16647834,0.6507435\H,0,-2.1
 2753932,-0.94421887,-0.42672429\H,0,-1.95043364,-1.09707767,1.33431938

 Normal termination of Gaussian 16 at Wed Apr  9 03:34:12 2025.
