 Gaussian 16, Revision C.01,

 ----------------------------------------------------------------------
 #t hf aug-cc-pvdz symm=none int=(grid=ultrafine) guess=(read,tcheck) s
 table=(opt,rrhf)
 ----------------------------------------------------------------------
 -----
 title
 -----
 Symbolic Z-matrix:
 Charge =  0 Multiplicity = 1

 SCF Done:  E(RHF) =  -263.865139064     A.U. after   15 cycles
 Normal termination of Gaussian 16 at Wed Apr  9 16:52:57 2025.
 Gaussian 16:  ES64L-G16RevC.01  3-Jul-2019

 ----------------------------------------------------------------------
 #t hf aug-cc-pvdz iop(5/13=1,5/36=2,99/5=2) pseudo=read geom=check gue
 ss=(read,tcheck) scf=(maxcycle=1)
 ----------------------------------------------------------------------
 -----
 title
 -----
 Structure from the checkpoint file:  "Grambow2020_b97d3_006855_forward_mol2.chk"
 Charge =  0 Multiplicity = 1

                         Standard orientation:
 ---------------------------------------------------------------------
 Center     Atomic      Atomic             Coordinates (Angstroms)
 Number     Number       Type             X           Y           Z
 ---------------------------------------------------------------------
      1          6           0       -2.185300   -0.024537    0.003263
      2          6           0       -0.681528    0.001894   -0.005250
      3          6           0        0.174729   -1.090997   -0.004187
      4          7           0        1.443100   -0.590655    0.002065
      5          7           0        1.488913    0.757827    0.002615
      6          6           0        0.197476    1.119097   -0.003092
      7          1           0       -2.609569    0.536256   -0.842564
      8          1           0       -2.560933   -1.055324   -0.064125
      9          1           0       -2.595727    0.413672    0.925682
     10          1           0       -0.030376   -2.156733   -0.002561
     11          1           0        2.310886   -1.111921    0.009026
     12          1           0       -0.070626    2.171103   -0.002625
 ---------------------------------------------------------------------

 SCF Done:  E(RHF) =  -265.114710947     A.U. after    2 cycles

 The electronic state is 1-A.
 Alpha  occ. eigenvalues --  -15.80278 -15.74715 -11.44800 -11.42382 -11.39854
 Alpha  occ. eigenvalues --  -11.36511  -1.59092  -1.18521  -1.16426  -1.01048
 Alpha  occ. eigenvalues --   -0.83147  -0.78935  -0.71279  -0.60500  -0.58126
 Alpha  occ. eigenvalues --   -0.55863  -0.55116  -0.51777  -0.49027  -0.39759
 Alpha  occ. eigenvalues --   -0.33010  -0.31264
 Alpha virt. eigenvalues --    0.03319   0.04944   0.05421   0.06032   0.06710
 Alpha virt. eigenvalues --    0.07063   0.10022   0.10878   0.11950   0.12740
 Alpha virt. eigenvalues --    0.13283   0.13808   0.15008   0.15639   0.16768

 Mulliken charges:
               1
     1  C   -4.347770
     2  C    3.614477
     3  C   -1.344429
     4  N   -2.071678
     5  N   -2.224042
     6  C   -0.824219
     7  H    1.179606
     8  H    1.290907
     9  H    1.181805
    10  H    1.294304
    11  H    0.863910
    12  H    1.387129
 Sum of Mulliken charges =   0.00000

 Dipole moment (field-independent basis, Debye):
    X=             -0.3867    Y=             -2.0304    Z=              0.0214  Tot=              2.0670

 Test job not archived.
 1\1\GINC-SE100\SP\RHF\Aug-CC-pVDZ\C4H6N2\OHZDE\09-Apr-2025\0\\#t hf au
 g-cc-pvdz iop(5/13=1,5/36=2,99/5=2) pseudo=read geom=check guess=(read
 ,tcheck) scf=(maxcycle=1)\\title\\0,1\C,0,-1.73066758,-0.31579454,0.04
 388286\C,0,-0.26721304,0.03040395,0.02045051\C,0,0.7890188,-0.81902952
 ,-0.2802604\N,0,1.9283136,-0.07954423,-0.16062257\N,0,1.70228984,1.201
 97452,0.19592456\C,0,0.36744938,1.27015981,0.30506227\H,0,-2.31711737,
 0.33924282,-0.61711509\H,0,-1.89540397,-1.35056117,-0.2882063\H,0,-2.1
 5508285,-0.22522384,1.05531906\H,0,0.80276169,-1.86820856,-0.55756632\

 Normal termination of Gaussian 16 at Wed Apr  9 16:53:01 2025.
