 Gaussian 16, Revision C.01,

 ----------------------------------------------------------------------
 #t hf aug-cc-pvdz symm=none int=(grid=ultrafine) guess=(read,tcheck) s
 table=(opt,rrhf)
 ----------------------------------------------------------------------
 -----
 title
 -----
 Symbolic Z-matrix:
 Charge =  0 Multiplicity = 1

 SCF Done:  E(RHF) =  -322.549947649     A.U. after   15 cycles
 Normal termination of Gaussian 16 at Wed Apr  9 18:53:45 2025.
 Gaussian 16:  ES64L-G16RevC.01  3-Jul-2019

 ----------------------------------------------------------------------
 #t hf aug-cc-pvdz iop(5/13=1,5/36=2,99/5=2) pseudo=read geom=check gue
 ss=(read,tcheck) scf=(maxcycle=1)
 ----------------------------------------------------------------------
 -----
 title
 -----
 Structure from the checkpoint file:  "Grambow2020_wb97xd3_007755_forward_mol1.chk"
 Charge =  0 Multiplicity = 1

                         Standard orientation:
 ---------------------------------------------------------------------
 Center     Atomic      Atomic             Coordinates (Angstroms)
 Number     Number       Type             X           Y           Z
 ---------------------------------------------------------------------
      1          6           0        1.786034   -0.186572   -0.469733
      2          6           0        0.873249    0.467407    0.378402
      3          6           0        0.167151   -0.363301    1.251242
      4          6           0       -0.865654   -0.501026    0.299717
      5          7           0       -0.688209   -1.523805   -0.505620
      6          8           0       -1.345451    0.707184   -0.166631
      7          6           0       -0.114743    1.472050   -0.192991
      8          1           0        2.178901    0.348635   -1.328988
      9          1           0        2.464137   -0.918573   -0.038660
     10          1           0        0.591558   -1.115513   -0.839538
     11          1           0        0.628065   -1.266970    1.626043
     12          1           0       -1.258436   -1.481136   -1.341702
     13          1           0        0.115510    1.742984   -1.223542
     14          1           0       -0.214879    2.368388    0.418951
 ---------------------------------------------------------------------

 SCF Done:  E(RHF) =  -324.067823984     A.U. after    2 cycles

 The electronic state is 1-A.
 Alpha  occ. eigenvalues --  -21.08052 -15.74182 -11.50093 -11.48459 -11.44114
 Alpha  occ. eigenvalues --  -11.40284 -11.37881  -1.82800  -1.37764  -1.24810
 Alpha  occ. eigenvalues --   -1.04866  -0.99498  -0.79776  -0.78591  -0.69729
 Alpha  occ. eigenvalues --   -0.67138  -0.63383  -0.58919  -0.55213  -0.54031
 Alpha  occ. eigenvalues --   -0.50461  -0.47311  -0.38568  -0.35151  -0.33107
 Alpha  occ. eigenvalues --   -0.29803
 Alpha virt. eigenvalues --    0.03793   0.04905   0.05276   0.05763   0.06081
 Alpha virt. eigenvalues --    0.07279   0.07667   0.08121   0.08736   0.10543
 Alpha virt. eigenvalues --    0.11704   0.12680   0.13388   0.13888   0.14236

 Mulliken charges:
               1
     1  C   -3.493888
     2  C    0.456536
     3  C   -2.096084
     4  C    4.600472
     5  N   -2.991530
     6  O   -3.250205
     7  C   -1.799916
     8  H    1.348281
     9  H    1.159519
    10  H    1.072758
    11  H    1.491531
    12  H    0.636653
    13  H    1.415826
    14  H    1.450048
 Sum of Mulliken charges =   0.00000

 Dipole moment (field-independent basis, Debye):
    X=              0.2999    Y=              1.0130    Z=             -1.4493  Tot=              1.7935

 Test job not archived.
 1\1\GINC-SE224\SP\RHF\Aug-CC-pVDZ\C5H7N1O1\OHZDE\09-Apr-2025\0\\#t hf
 aug-cc-pvdz iop(5/13=1,5/36=2,99/5=2) pseudo=read geom=check guess=(re
 ad,tcheck) scf=(maxcycle=1)\\title\\0,1\C,0,-1.41857606,-0.51776548,-0
 .09613108\C,0,-0.54720426,0.52680268,-0.45638897\C,0,0.46586022,0.1783
 3114,-1.35236268\C,0,1.32651604,-0.12471894,-0.27603276\N,0,1.25117278
 ,-1.38035004,0.10323845\O,0,1.43450861,0.89957739,0.64408224\C,0,0.076
 51291,1.40500729,0.61676436\H,0,-2.06204466,-0.3885275,0.76894465\H,0,
 -1.83046612,-1.14595359,-0.8817512\H,0,-0.12534728,-1.32015311,0.23582

 Normal termination of Gaussian 16 at Wed Apr  9 18:53:50 2025.
