 Gaussian 16, Revision C.01,

 ----------------------------------------------------------------------
 #t hf aug-cc-pvdz symm=none int=(grid=ultrafine) guess=(read,tcheck) s
 table=(opt,rrhf)
 ----------------------------------------------------------------------
 -----
 title
 -----
 Symbolic Z-matrix:
 Charge =  0 Multiplicity = 1

 SCF Done:  E(RHF) =  -306.863019154     A.U. after   16 cycles

 1\1\GINC-SE208\Stability\RHF\Aug-CC-pVDZ\C4H10O2\OHZDE\09-Apr-2025\0\\
 #t hf aug-cc-pvdz symm=none int=(grid=ultrafine) guess=(read,tcheck) s
 table=(opt,rrhf)\\title\\0,1\C,0,2.36462763,-0.07283256,-0.1674676\O,0
 ,1.77341782,-0.70662894,-1.10853675\C,0,-0.39314636,-0.49342923,-1.148
 53026\C,0,-0.83291518,-0.11704585,0.11988591\C,0,-1.75207954,1.0791739
 9,0.32627771\O,0,-1.09420174,-1.08382977,1.09318942\H,0,2.80853609,-0.
 64543235,0.67512754\H,0,2.87294321,0.89028324,-0.38805462\H,0,1.349869
 18,0.52373074,0.64790094\H,0,-0.32222015,-1.53490909,-1.44709938\H,0,-

 Normal termination of Gaussian 16 at Wed Apr  9 03:07:45 2025.
 Gaussian 16:  ES64L-G16RevC.01  3-Jul-2019

 ----------------------------------------------------------------------
 #t hf aug-cc-pvdz iop(5/13=1,5/36=2,99/5=2) pseudo=read geom=check gue
 ss=(read,tcheck) scf=(maxcycle=1)
 ----------------------------------------------------------------------
 -----
 title
 -----
 Structure from the checkpoint file:  "Grambow2020_b97d3_006573_forward_mol1.chk"
 Charge =  0 Multiplicity = 1

                         Standard orientation:
 ---------------------------------------------------------------------
 Center     Atomic      Atomic             Coordinates (Angstroms)
 Number     Number       Type             X           Y           Z
 ---------------------------------------------------------------------
      1          6           0        2.206664   -0.168471   -0.737920
      2          8           0        2.004893    0.009110    0.512916
      3          6           0       -0.069281   -0.172013    1.150138
      4          6           0       -0.899250    0.036799    0.049460
      5          6           0       -2.005220   -0.943583   -0.316716
      6          8           0       -1.278777    1.330580   -0.314340
      7          1           0        2.474423    0.703835   -1.372176
      8          1           0        2.608747   -1.139914   -1.097451
      9          1           0        0.926820   -0.344992   -1.355405
     10          1           0        0.235684    0.640294    1.802830
     11          1           0        0.056443   -1.179325    1.535398
     12          1           0        0.100092   -0.331603   -0.959206
     13          1           0       -2.296816   -0.845821   -1.369533
     14          1           0       -2.890863   -0.719629    0.296474
     15          1           0       -1.700198   -1.977308   -0.118656
     16          1           0       -0.720742    1.960550    0.179348
 ---------------------------------------------------------------------

 SCF Done:  E(RHF) =  -308.324110746     A.U. after    2 cycles

 The electronic state is 1-A.
 Alpha  occ. eigenvalues --  -21.08858 -21.02194 -11.48322 -11.43116 -11.42783
 Alpha  occ. eigenvalues --  -11.38929  -1.73762  -1.65354  -1.17031  -1.01673
 Alpha  occ. eigenvalues --   -0.92188  -0.80352  -0.69394  -0.64948  -0.63940
 Alpha  occ. eigenvalues --   -0.61746  -0.56842  -0.53721  -0.50022  -0.48948
 Alpha  occ. eigenvalues --   -0.43560  -0.42835  -0.33802  -0.28253  -0.27422
 Alpha virt. eigenvalues --    0.03420   0.05092   0.05387   0.05474   0.05783
 Alpha virt. eigenvalues --    0.06230   0.06380   0.07340   0.08498   0.09774
 Alpha virt. eigenvalues --    0.11363   0.13496   0.13548   0.14008   0.14852

 Mulliken charges:
               1
     1  C   -1.274611
     2  O   -2.226171
     3  C   -3.289906
     4  C    2.297625
     5  C   -3.934116
     6  O   -3.508070
     7  H    1.189277
     8  H    1.146974
     9  H    0.628674
    10  H    1.433514
    11  H    1.480848
    12  H    1.525367
    13  H    1.261368
    14  H    1.225139
    15  H    1.232720
    16  H    0.811367
 Sum of Mulliken charges =   0.00000

 Dipole moment (field-independent basis, Debye):
    X=             -1.1212    Y=             -0.1366    Z=              0.5703  Tot=              1.2653

 Test job not archived.
 1\1\GINC-SE208\SP\RHF\Aug-CC-pVDZ\C4H10O2\OHZDE\09-Apr-2025\0\\#t hf a
 ug-cc-pvdz iop(5/13=1,5/36=2,99/5=2) pseudo=read geom=check guess=(rea
 d,tcheck) scf=(maxcycle=1)\\title\\0,1\C,0,2.36462763,-0.07283256,-0.1
 674676\O,0,1.77341782,-0.70662894,-1.10853675\C,0,-0.39314636,-0.49342
 923,-1.14853026\C,0,-0.83291518,-0.11704585,0.11988591\C,0,-1.75207954
 ,1.07917399,0.32627771\O,0,-1.09420174,-1.08382977,1.09318942\H,0,2.80
 853609,-0.64543235,0.67512754\H,0,2.87294321,0.89028324,-0.38805462\H,
 0,1.34986918,0.52373074,0.64790094\H,0,-0.32222015,-1.53490909,-1.4470

 Normal termination of Gaussian 16 at Wed Apr  9 03:07:50 2025.
