 Gaussian 16, Revision C.01,

 ----------------------------------------------------------------------
 #t hf aug-cc-pvdz symm=none int=(grid=ultrafine) guess=(read,tcheck) s
 table=(opt,rrhf)
 ----------------------------------------------------------------------
 -----
 title
 -----
 Symbolic Z-matrix:
 Charge =  0 Multiplicity = 1

 SCF Done:  E(RHF) =  -301.468420707     A.U. after   17 cycles
 Normal termination of Gaussian 16 at Wed Apr  9 19:23:05 2025.
 Gaussian 16:  ES64L-G16RevC.01  3-Jul-2019

 ----------------------------------------------------------------------
 #t hf aug-cc-pvdz iop(5/13=1,5/36=2,99/5=2) pseudo=read geom=check gue
 ss=(read,tcheck) scf=(maxcycle=1)
 ----------------------------------------------------------------------
 -----
 title
 -----
 Structure from the checkpoint file:  "Grambow2020_wb97xd3_008855_reverse_mol1.chk"
 Charge =  0 Multiplicity = 1

                         Standard orientation:
 ---------------------------------------------------------------------
 Center     Atomic      Atomic             Coordinates (Angstroms)
 Number     Number       Type             X           Y           Z
 ---------------------------------------------------------------------
      1          7           0       -2.333875   -0.243651   -0.150722
      2          6           0       -1.191240    0.147439   -0.114979
      3          6           0       -0.100272    1.130057   -0.154185
      4          6           0        0.795847    0.517049    0.858347
      5          6           0        0.292075   -0.916245    0.682590
      6          6           0        1.072080   -0.916287   -0.627770
      7          7           0        1.208238    0.572995   -0.556265
      8          1           0       -0.266380    2.175741   -0.376544
      9          1           0        1.292633    1.037031    1.665900
     10          1           0        0.374151   -1.711047    1.420340
     11          1           0       -1.401882   -0.956314    0.465197
     12          1           0        2.080497   -1.326309   -0.556608
     13          1           0        0.589502   -1.296592   -1.533396
 ---------------------------------------------------------------------

 SCF Done:  E(RHF) =  -302.908193055     A.U. after    2 cycles

 The electronic state is 1-A.
 Alpha  occ. eigenvalues --  -15.76169 -15.74458 -11.54716 -11.50582 -11.46387
 Alpha  occ. eigenvalues --  -11.44117 -11.38348  -1.59668  -1.37385  -1.10679
 Alpha  occ. eigenvalues --   -1.04015  -0.94490  -0.80513  -0.76154  -0.70283
 Alpha  occ. eigenvalues --   -0.65546  -0.61426  -0.58099  -0.55633  -0.50808
 Alpha  occ. eigenvalues --   -0.46682  -0.41412  -0.40503  -0.37335  -0.26228
 Alpha virt. eigenvalues --    0.03580   0.04752   0.05553   0.05761   0.06280
 Alpha virt. eigenvalues --    0.07113   0.08940   0.10051   0.10801   0.11548
 Alpha virt. eigenvalues --    0.12494   0.12878   0.13174   0.13913   0.14715

 Mulliken charges:
               1
     1  N   -2.926931
     2  C    3.304552
     3  C   -1.758686
     4  C    0.657704
     5  C   -3.355713
     6  C   -1.903925
     7  N   -1.647740
     8  H    1.515697
     9  H    1.149205
    10  H    1.257045
    11  H    0.909339
    12  H    1.372024
    13  H    1.427429
 Sum of Mulliken charges =   0.00000

 Dipole moment (field-independent basis, Debye):
    X=              1.4948    Y=              0.2069    Z=              0.9188  Tot=              1.7667

 Test job not archived.
 1\1\GINC-SE029\SP\RHF\Aug-CC-pVDZ\C5H6N2\OHZDE\09-Apr-2025\0\\#t hf au
 g-cc-pvdz iop(5/13=1,5/36=2,99/5=2) pseudo=read geom=check guess=(read
 ,tcheck) scf=(maxcycle=1)\\title\\0,1\N,0,1.84842433,-0.72698184,1.575
 92385\C,0,1.24519166,-0.26241694,0.63776985\C,0,1.07586262,0.37474365,
 -0.67472447\C,0,-0.1416832,-0.3465275,-1.12347749\C,0,-0.67072045,-0.6
 6897411,0.2747909\C,0,-1.05647012,0.80433381,0.3523219\N,0,-0.20141503
 ,1.09943947,-0.84074464\H,0,1.91208061,0.7342541,-1.25951711\H,0,-0.29
 502392,-0.790665,-2.09741141\H,0,-1.35836359,-1.47466395,0.52123244\H,

 Normal termination of Gaussian 16 at Wed Apr  9 19:23:09 2025.
