 Gaussian 16, Revision C.01,

 ----------------------------------------------------------------------
 #t hf aug-cc-pvdz symm=none int=(grid=ultrafine) guess=(read,tcheck) s
 table=(opt,rrhf)
 ----------------------------------------------------------------------
 -----
 title
 -----
 Symbolic Z-matrix:
 Charge =  0 Multiplicity = 1

 SCF Done:  E(RHF) =  -345.868295206     A.U. after   16 cycles

 1\1\GINC-SE145\Stability\RHF\Aug-CC-pVDZ\C5H12O2\OHZDE\09-Apr-2025\0\\
 #t hf aug-cc-pvdz symm=none int=(grid=ultrafine) guess=(read,tcheck) s
 table=(opt,rrhf)\\title\\0,1\C,0,2.10881976,-0.07969694,1.35001001\C,0
 ,0.64781606,0.32100544,1.20464462\C,0,0.24501289,0.72565,-0.19141982\O
 ,0,0.43771356,-0.61737276,-1.1753384\C,0,-1.11816041,0.9882298,-0.4585
 3643\C,0,-1.32621297,-1.09498727,-1.44853869\O,0,-2.02309829,0.8708985
 9,0.59809573\H,0,2.33940749,-0.9852215,0.78237052\H,0,2.77649091,0.709
 78489,0.996843\H,0,2.35604499,-0.28216738,2.39349077\H,0,-0.00966045,-

 Normal termination of Gaussian 16 at Wed Apr  9 19:06:23 2025.
 Gaussian 16:  ES64L-G16RevC.01  3-Jul-2019

 ----------------------------------------------------------------------
 #t hf aug-cc-pvdz iop(5/13=1,5/36=2,99/5=2) pseudo=read geom=check gue
 ss=(read,tcheck) scf=(maxcycle=1)
 ----------------------------------------------------------------------
 -----
 title
 -----
 Structure from the checkpoint file:  "Grambow2020_wb97xd3_008073_forward_mol1.chk"
 Charge =  0 Multiplicity = 1

                         Standard orientation:
 ---------------------------------------------------------------------
 Center     Atomic      Atomic             Coordinates (Angstroms)
 Number     Number       Type             X           Y           Z
 ---------------------------------------------------------------------
      1          6           0        2.635668    0.064381   -0.219986
      2          6           0        1.296442   -0.655911   -0.282265
      3          6           0        0.263244   -0.142797    0.689434
      4          8           0       -0.067069    1.446753    0.273306
      5          6           0       -1.052152   -0.656078    0.620030
      6          6           0       -1.742088    1.259262   -0.483891
      7          8           0       -1.321407   -1.629094   -0.344279
      8          1           0        2.547697    1.111079   -0.523374
      9          1           0        3.051454    0.047770    0.790282
     10          1           0        3.362095   -0.403958   -0.886266
     11          1           0        0.879376   -0.611525   -1.290358
     12          1           0        1.438308   -1.719457   -0.068357
     13          1           0        0.641345    0.036807    1.693552
     14          1           0        0.617518    2.071480   -0.052744
     15          1           0       -1.628295   -0.752681    1.537236
     16          1           0       -1.608043    2.274693   -0.857113
     17          1           0       -1.755488    0.539468   -1.294330
     18          1           0       -2.599047    1.210983    0.175668
     19          1           0       -2.245791   -1.559066   -0.596358
 ---------------------------------------------------------------------

 SCF Done:  E(RHF) =  -347.527961699     A.U. after    2 cycles

 The electronic state is 1-A.
 Alpha  occ. eigenvalues --  -21.05834 -21.05541 -11.46918 -11.44365 -11.40812
 Alpha  occ. eigenvalues --  -11.37230 -11.34450  -1.70899  -1.65973  -1.19828
 Alpha  occ. eigenvalues --   -1.03990  -1.00888  -0.88683  -0.77502  -0.66332
 Alpha  occ. eigenvalues --   -0.63713  -0.61093  -0.59762  -0.58227  -0.56867
 Alpha  occ. eigenvalues --   -0.52584  -0.49206  -0.47898  -0.45710  -0.42763
 Alpha  occ. eigenvalues --   -0.38981  -0.34673  -0.33698  -0.19303
 Alpha virt. eigenvalues --    0.03652   0.04700   0.05096   0.05383   0.05637
 Alpha virt. eigenvalues --    0.05705   0.06680   0.06704   0.07842   0.08450
 Alpha virt. eigenvalues --    0.08924   0.09537   0.12152   0.12468   0.13054

 Mulliken charges:
               1
     1  C   -3.883409
     2  C   -3.061979
     3  C   -0.450353
     4  O   -1.844189
     5  C    0.929972
     6  C   -3.706042
     7  O   -3.287151
     8  H    1.297177
     9  H    1.284984
    10  H    1.039847
    11  H    1.689093
    12  H    1.328173
    13  H    1.550329
    14  H    0.922632
    15  H    1.426880
    16  H    1.152504
    17  H    1.454735
    18  H    1.326732
    19  H    0.830065
 Sum of Mulliken charges =  -0.00000

 Dipole moment (field-independent basis, Debye):
    X=              0.2950    Y=              1.3922    Z=             -0.4157  Tot=              1.4826

 Test job not archived.
 1\1\GINC-SE145\SP\RHF\Aug-CC-pVDZ\C5H12O2\OHZDE\09-Apr-2025\0\\#t hf a
 ug-cc-pvdz iop(5/13=1,5/36=2,99/5=2) pseudo=read geom=check guess=(rea
 d,tcheck) scf=(maxcycle=1)\\title\\0,1\C,0,2.10881976,-0.07969694,1.35
 001001\C,0,0.64781606,0.32100544,1.20464462\C,0,0.24501289,0.72565,-0.
 19141982\O,0,0.43771356,-0.61737276,-1.1753384\C,0,-1.11816041,0.98822
 98,-0.45853643\C,0,-1.32621297,-1.09498727,-1.44853869\O,0,-2.02309829
 ,0.87089859,0.59809573\H,0,2.33940749,-0.9852215,0.78237052\H,0,2.7764
 9091,0.70978489,0.996843\H,0,2.35604499,-0.28216738,2.39349077\H,0,-0.

 Normal termination of Gaussian 16 at Wed Apr  9 19:06:30 2025.
