 Gaussian 16, Revision C.01,

 ----------------------------------------------------------------------
 #t hf aug-cc-pvdz symm=none int=(grid=ultrafine) guess=(read,tcheck) s
 table=(opt,rrhf)
 ----------------------------------------------------------------------
 -----
 title
 -----
 Symbolic Z-matrix:
 Charge =  0 Multiplicity = 1

 SCF Done:  E(RHF) =  -263.771533401     A.U. after   15 cycles
 Normal termination of Gaussian 16 at Wed Apr  9 16:52:55 2025.
 Gaussian 16:  ES64L-G16RevC.01  3-Jul-2019

 ----------------------------------------------------------------------
 #t hf aug-cc-pvdz iop(5/13=1,5/36=2,99/5=2) pseudo=read geom=check gue
 ss=(read,tcheck) scf=(maxcycle=1)
 ----------------------------------------------------------------------
 -----
 title
 -----
 Structure from the checkpoint file:  "Grambow2020_b97d3_006862_reverse_mol2.chk"
 Charge =  0 Multiplicity = 1

                         Standard orientation:
 ---------------------------------------------------------------------
 Center     Atomic      Atomic             Coordinates (Angstroms)
 Number     Number       Type             X           Y           Z
 ---------------------------------------------------------------------
      1          6           0       -2.547666    0.513128   -0.312600
      2          6           0       -0.344544   -0.611892    0.082040
      3          6           0       -1.529264   -0.242372    0.510994
      4          7           0        1.867748    1.087205    0.036625
      5          7           0        2.061895   -0.157340   -0.001003
      6          6           0        0.892542   -0.943853   -0.255473
      7          1           0       -3.481568   -0.063122   -0.397229
      8          1           0       -2.792922    1.468801    0.174555
      9          1           0       -2.168082    0.722105   -1.319127
     10          1           0       -1.817040   -0.498077    1.537378
     11          1           0        2.796773    1.494814    0.280153
     12          1           0        1.128933   -1.923632   -0.674850
 ---------------------------------------------------------------------

 SCF Done:  E(RHF) =  -265.002878554     A.U. after    2 cycles

 The electronic state is 1-A.
 Alpha  occ. eigenvalues --  -15.80294 -15.79327 -11.44488 -11.44375 -11.41124
 Alpha  occ. eigenvalues --  -11.38597  -1.52098  -1.22237  -1.11428  -0.97738
 Alpha  occ. eigenvalues --   -0.86869  -0.72585  -0.66178  -0.60782  -0.59228
 Alpha  occ. eigenvalues --   -0.57012  -0.54352  -0.52736  -0.49702  -0.36808
 Alpha  occ. eigenvalues --   -0.34703  -0.33248
 Alpha virt. eigenvalues --    0.03375   0.05351   0.05661   0.05810   0.06419
 Alpha virt. eigenvalues --    0.06839   0.09396   0.10235   0.11123   0.11471
 Alpha virt. eigenvalues --    0.12200   0.12762   0.14692   0.15189   0.15605

 Mulliken charges:
               1
     1  C   -4.299242
     2  C    2.727232
     3  C   -1.979729
     4  N   -1.191283
     5  N   -1.212880
     6  C   -1.003272
     7  H    1.200522
     8  H    1.187576
     9  H    1.328778
    10  H    1.229795
    11  H    0.740348
    12  H    1.272156
 Sum of Mulliken charges =  -0.00000

 Dipole moment (field-independent basis, Debye):
    X=             -1.1248    Y=              0.1489    Z=              0.3073  Tot=              1.1755

 Test job not archived.
 1\1\GINC-SE219\SP\RHF\Aug-CC-pVDZ\C4H6N2\OHZDE\09-Apr-2025\0\\#t hf au
 g-cc-pvdz iop(5/13=1,5/36=2,99/5=2) pseudo=read geom=check guess=(read
 ,tcheck) scf=(maxcycle=1)\\title\\0,1\C,0,-1.86565454,-1.00640836,0.00
 05623\C,0,-0.01116795,0.65917004,-0.24820746\C,0,-0.91004254,-0.134863
 5,-0.782664\N,0,2.48642697,-0.22303757,0.6275525\N,0,2.32969978,1.0043
 1596,0.38871918\C,0,0.96927681,1.41780552,0.2183709\H,0,-2.90878893,-0
 .74631773,-0.23528319\H,0,-1.72021549,-2.06316458,-0.26942919\H,0,-1.7
 0882409,-0.8974078,1.07962463\H,0,-0.98869754,-0.17522686,-1.87529785\

 Normal termination of Gaussian 16 at Wed Apr  9 16:52:59 2025.
