 Gaussian 16, Revision C.01,

 ----------------------------------------------------------------------
 #t hf aug-cc-pvdz symm=none int=(grid=ultrafine) guess=(read,tcheck) s
 table=(opt,rrhf)
 ----------------------------------------------------------------------
 -----
 title
 -----
 Symbolic Z-matrix:
 Charge =  0 Multiplicity = 1

 SCF Done:  E(RHF) =  -306.518066909     A.U. after   15 cycles
 Normal termination of Gaussian 16 at Wed Apr  9 19:14:05 2025.
 Gaussian 16:  ES64L-G16RevC.01  3-Jul-2019

 ----------------------------------------------------------------------
 #t hf aug-cc-pvdz iop(5/13=1,5/36=2,99/5=2) pseudo=read geom=check gue
 ss=(read,tcheck) scf=(maxcycle=1)
 ----------------------------------------------------------------------
 -----
 title
 -----
 Structure from the checkpoint file:  "Grambow2020_wb97xd3_008450_forward_mol1.chk"
 Charge =  0 Multiplicity = 1

                         Standard orientation:
 ---------------------------------------------------------------------
 Center     Atomic      Atomic             Coordinates (Angstroms)
 Number     Number       Type             X           Y           Z
 ---------------------------------------------------------------------
      1          6           0        1.120602   -0.953882   -0.566084
      2          6           0        1.138403    0.565144   -0.559762
      3          6           0       -0.158052    1.131668   -0.130175
      4          8           0       -1.431810    0.589077   -0.283850
      5          6           0       -1.540116   -0.751758   -0.027823
      6          6           0        0.512520   -0.963589    0.851610
      7          6           0        0.698495    0.509515    0.935311
      8          1           0        0.632075   -1.475014   -1.390774
      9          1           0        2.133245   -1.351619   -0.470453
     10          1           0        1.890444    1.203245   -1.011351
     11          1           0       -0.223685    2.212355   -0.136821
     12          1           0       -1.371984   -1.398495   -0.887777
     13          1           0       -2.496625   -0.957624    0.458543
     14          1           0       -0.733624   -1.243896    0.882279
     15          1           0        0.993529    1.075855    1.808692
 ---------------------------------------------------------------------

 SCF Done:  E(RHF) =  -307.978182668     A.U. after    2 cycles

 The electronic state is 1-A.
 Alpha  occ. eigenvalues --  -21.07661 -11.48150 -11.46085 -11.44059 -11.40860
 Alpha  occ. eigenvalues --  -11.40678 -11.36257  -1.80478  -1.38970  -1.10104
 Alpha  occ. eigenvalues --   -0.98322  -0.92086  -0.82416  -0.76635  -0.71110
 Alpha  occ. eigenvalues --   -0.65772  -0.63918  -0.57174  -0.56062  -0.50052
 Alpha  occ. eigenvalues --   -0.48174  -0.46957  -0.42823  -0.36133  -0.29726
 Alpha  occ. eigenvalues --   -0.27752
 Alpha virt. eigenvalues --    0.03677   0.04545   0.05214   0.05762   0.06012
 Alpha virt. eigenvalues --    0.06539   0.06882   0.07833   0.09310   0.11740
 Alpha virt. eigenvalues --    0.12415   0.12735   0.12888   0.13562   0.14507

 Mulliken charges:
               1
     1  C   -2.948096
     2  C   -0.794009
     3  C    1.105750
     4  O   -3.683678
     5  C   -2.258350
     6  C   -2.150792
     7  C   -0.533504
     8  H    1.296462
     9  H    1.241719
    10  H    1.272366
    11  H    1.507490
    12  H    1.276386
    13  H    1.201830
    14  H    2.233454
    15  H    1.232971
 Sum of Mulliken charges =   0.00000

 Dipole moment (field-independent basis, Debye):
    X=             -0.7505    Y=              1.5315    Z=             -1.4448  Tot=              2.2353

 Test job not archived.
 1\1\GINC-SE097\SP\RHF\Aug-CC-pVDZ\C6H8O1\OHZDE\09-Apr-2025\0\\#t hf au
 g-cc-pvdz iop(5/13=1,5/36=2,99/5=2) pseudo=read geom=check guess=(read
 ,tcheck) scf=(maxcycle=1)\\title\\0,1\C,0,0.75938744,1.20771753,0.1430
 6802\C,0,1.3542679,-0.18442736,0.01718018\C,0,0.318506,-1.23713349,0.0
 8996821\O,0,-0.89626999,-1.20879035,0.77114129\C,0,-1.60082619,-0.0382
 4083,0.67877161\C,0,-0.30587289,0.86032872,-0.91724139\C,0,0.382075,-0
 .43236763,-1.17664842\H,0,0.47180201,1.5742362,1.1296321\H,0,1.4175807
 9,1.95076198,-0.31240114\H,0,2.40461272,-0.44587678,0.08852171\H,0,0.6

 Normal termination of Gaussian 16 at Wed Apr  9 19:14:10 2025.
