 Gaussian 16, Revision C.01,

 ----------------------------------------------------------------------
 #t hf aug-cc-pvdz symm=none int=(grid=ultrafine) guess=(read,tcheck) s
 table=(opt,rrhf)
 ----------------------------------------------------------------------
 -----
 title
 -----
 Symbolic Z-matrix:
 Charge =  0 Multiplicity = 1

 SCF Done:  E(RHF) =  -380.668446488     A.U. after   14 cycles
 Normal termination of Gaussian 16 at Wed Apr  9 19:15:03 2025.
 Gaussian 16:  ES64L-G16RevC.01  3-Jul-2019

 ----------------------------------------------------------------------
 #t hf aug-cc-pvdz iop(5/13=1,5/36=2,99/5=2) pseudo=read geom=check gue
 ss=(read,tcheck) scf=(maxcycle=1)
 ----------------------------------------------------------------------
 -----
 title
 -----
 Structure from the checkpoint file:  "Grambow2020_wb97xd3_008486_reverse_mol1.chk"
 Charge =  0 Multiplicity = 1

                         Standard orientation:
 ---------------------------------------------------------------------
 Center     Atomic      Atomic             Coordinates (Angstroms)
 Number     Number       Type             X           Y           Z
 ---------------------------------------------------------------------
      1          6           0        2.347772   -0.041730   -0.389732
      2          8           0        1.163074    0.749892   -0.223706
      3          6           0        0.131541    0.168347    0.325963
      4          8           0        0.300093   -0.887414    1.075186
      5          6           0       -1.125954    1.008427    0.439021
      6          6           0       -1.977796    0.040904   -0.391479
      7          8           0       -0.977702   -0.891639   -0.767615
      8          1           0        2.124579   -0.900087   -1.022973
      9          1           0        3.064732    0.612940   -0.876824
     10          1           0        2.720699   -0.377371    0.575283
     11          1           0       -1.408998    1.130669    1.484425
     12          1           0       -0.988193    1.984251   -0.022681
     13          1           0       -2.795457   -0.427846    0.166082
     14          1           0       -2.402577    0.528741   -1.272342
     15          1           0       -0.451879   -1.373705    0.395468
 ---------------------------------------------------------------------

 SCF Done:  E(RHF) =  -382.373670810     A.U. after    2 cycles

 The electronic state is 1-A.
 Alpha  occ. eigenvalues --  -21.11855 -21.05737 -20.98704 -11.57464 -11.44648
 Alpha  occ. eigenvalues --  -11.43064 -11.38518  -1.89472  -1.74629  -1.62011
 Alpha  occ. eigenvalues --   -1.15620  -1.03564  -0.90541  -0.78541  -0.70830
 Alpha  occ. eigenvalues --   -0.67938  -0.66269  -0.61736  -0.61253  -0.57574
 Alpha  occ. eigenvalues --   -0.52567  -0.51188  -0.43642  -0.41805  -0.40211
 Alpha  occ. eigenvalues --   -0.34250  -0.27589  -0.24625
 Alpha virt. eigenvalues --    0.03676   0.04968   0.05261   0.05405   0.05915
 Alpha virt. eigenvalues --    0.07067   0.07149   0.07838   0.09885   0.11401
 Alpha virt. eigenvalues --    0.12593   0.13192   0.14191   0.14796   0.15147

 Mulliken charges:
               1
     1  C   -3.221915
     2  O   -3.831959
     3  C    8.294729
     4  O   -3.402216
     5  C   -4.015942
     6  C   -1.369270
     7  O   -2.385644
     8  H    1.270890
     9  H    1.286176
    10  H    1.305521
    11  H    1.332110
    12  H    1.408549
    13  H    1.320664
    14  H    1.332800
    15  H    0.675508
 Sum of Mulliken charges =   0.00000

 Dipole moment (field-independent basis, Debye):
    X=              1.5984    Y=              1.2501    Z=              0.0652  Tot=              2.0302

 Test job not archived.
 1\1\GINC-SE232\SP\RHF\Aug-CC-pVDZ\C4H8O3\OHZDE\09-Apr-2025\0\\#t hf au
 g-cc-pvdz iop(5/13=1,5/36=2,99/5=2) pseudo=read geom=check guess=(read
 ,tcheck) scf=(maxcycle=1)\\title\\0,1\C,0,-2.36411209,0.01028201,-0.39
 930189\O,0,-1.27993428,-0.40039512,0.44547166\C,0,-0.1396368,0.2163847
 2,0.29153956\O,0,-0.10786653,1.40361674,-0.25053651\C,0,1.00578852,-0.
 27370788,1.15619035\C,0,1.8996978,-0.62772343,-0.0384073\O,0,0.9979191
 5,-0.35353652,-1.09808649\H,0,-2.08845918,-0.14147316,-1.44264847\H,0,
 -3.1975095,-0.63210096,-0.12971615\H,0,-2.60748058,1.05615625,-0.22637

 Normal termination of Gaussian 16 at Wed Apr  9 19:15:08 2025.
