 Gaussian 16, Revision C.01,

 ----------------------------------------------------------------------
 #t hf aug-cc-pvdz symm=none int=(grid=ultrafine) guess=(read,tcheck) s
 table=(opt,rrhf)
 ----------------------------------------------------------------------
 -----
 title
 -----
 Symbolic Z-matrix:
 Charge =  0 Multiplicity = 1

 SCF Done:  E(RHF) =  -286.648355709     A.U. after   16 cycles
 Normal termination of Gaussian 16 at Wed Apr  9 18:42:48 2025.
 Gaussian 16:  ES64L-G16RevC.01  3-Jul-2019

 ----------------------------------------------------------------------
 #t hf aug-cc-pvdz iop(5/13=1,5/36=2,99/5=2) pseudo=read geom=check gue
 ss=(read,tcheck) scf=(maxcycle=1)
 ----------------------------------------------------------------------
 -----
 title
 -----
 Structure from the checkpoint file:  "Grambow2020_wb97xd3_007553_reverse_mol1.chk"
 Charge =  0 Multiplicity = 1

                         Standard orientation:
 ---------------------------------------------------------------------
 Center     Atomic      Atomic             Coordinates (Angstroms)
 Number     Number       Type             X           Y           Z
 ---------------------------------------------------------------------
      1          6           0        1.995411    0.812759   -0.395707
      2          6           0        0.872258   -0.108224   -0.100397
      3          6           0       -0.702605    1.435167    0.324391
      4          6           0       -1.749045    0.646629    0.065224
      5          6           0       -2.223514   -0.466740   -0.308172
      6          6           0        0.378228   -1.277557   -0.489351
      7          7           0        0.669614   -1.084898    0.974280
      8          1           0        1.889210    1.239787   -1.393144
      9          1           0        2.933533    0.249042   -0.364727
     10          1           0        2.067420    1.625457    0.327785
     11          1           0       -0.429829    2.214035   -0.380214
     12          1           0       -0.382164    1.571813    1.351783
     13          1           0       -3.200302   -0.903688   -0.415649
     14          1           0       -1.228807   -1.112600   -0.542137
     15          1           0        0.658742   -2.047119   -1.189223
     16          1           0        1.580503   -1.494645    1.209636
 ---------------------------------------------------------------------

 SCF Done:  E(RHF) =  -288.086653390     A.U. after    2 cycles

 The electronic state is 1-A.
 Alpha  occ. eigenvalues --  -15.73533 -11.47966 -11.43007 -11.42005 -11.41129
 Alpha  occ. eigenvalues --  -11.40149 -11.38704  -1.44006  -1.18900  -1.10131
 Alpha  occ. eigenvalues --   -0.99420  -0.91876  -0.77278  -0.72349  -0.66602
 Alpha  occ. eigenvalues --   -0.62592  -0.61142  -0.58983  -0.58084  -0.56702
 Alpha  occ. eigenvalues --   -0.48872  -0.43074  -0.41418  -0.35328  -0.35294
 Alpha  occ. eigenvalues --   -0.25804
 Alpha virt. eigenvalues --    0.03233   0.05033   0.05483   0.05657   0.05794
 Alpha virt. eigenvalues --    0.06003   0.06970   0.07197   0.08943   0.09730
 Alpha virt. eigenvalues --    0.09856   0.11938   0.12762   0.13162   0.14071

 Mulliken charges:
               1
     1  C   -5.036715
     2  C    3.596584
     3  C   -3.924896
     4  C    2.601025
     5  C   -3.990705
     6  C   -2.182114
     7  N   -2.018054
     8  H    1.228625
     9  H    0.872857
    10  H    1.222230
    11  H    1.262813
    12  H    1.200697
    13  H    1.129376
    14  H    2.271575
    15  H    1.132442
    16  H    0.634260
 Sum of Mulliken charges =   0.00000

 Dipole moment (field-independent basis, Debye):
    X=              2.0282    Y=              0.3172    Z=             -1.0934  Tot=              2.3259

 Test job not archived.
 1\1\GINC-SE226\SP\RHF\Aug-CC-pVDZ\C6H9N1\OHZDE\09-Apr-2025\0\\#t hf au
 g-cc-pvdz iop(5/13=1,5/36=2,99/5=2) pseudo=read geom=check guess=(read
 ,tcheck) scf=(maxcycle=1)\\title\\0,1\C,0,-1.12706675,1.62990317,0.121
 2198\C,0,-0.58695678,0.29680563,0.47902144\C,0,0.8520158,0.06657029,-1
 .22949972\C,0,1.65149839,-0.81626647,-0.62499538\C,0,1.96456373,-1.502
 56899,0.39240973\C,0,-0.26333811,-0.42353406,1.54629465\N,0,-1.2201165
 6,-1.02367566,0.55198877\H,0,-0.41517034,2.41413874,0.37946486\H,0,-2.
 04653954,1.80400006,0.68961245\H,0,-1.36722009,1.7097784,-0.93946414\H

 Normal termination of Gaussian 16 at Wed Apr  9 18:42:53 2025.
