 Gaussian 16, Revision C.01,

 ----------------------------------------------------------------------
 #t hf aug-cc-pvdz symm=none int=(grid=ultrafine) guess=(read,tcheck) s
 table=(opt,rrhf)
 ----------------------------------------------------------------------
 -----
 title
 -----
 Symbolic Z-matrix:
 Charge =  0 Multiplicity = 1

 SCF Done:  E(RHF) =  -247.788877359     A.U. after   14 cycles
 Normal termination of Gaussian 16 at Wed Apr  9 17:46:45 2025.
 Gaussian 16:  ES64L-G16RevC.01  3-Jul-2019

 ----------------------------------------------------------------------
 #t hf aug-cc-pvdz iop(5/13=1,5/36=2,99/5=2) pseudo=read geom=check gue
 ss=(read,tcheck) scf=(maxcycle=1)
 ----------------------------------------------------------------------
 -----
 title
 -----
 Structure from the checkpoint file:  "Grambow2020_wb97xd3_006162_reverse_mol2.chk"
 Charge =  0 Multiplicity = 1

                         Standard orientation:
 ---------------------------------------------------------------------
 Center     Atomic      Atomic             Coordinates (Angstroms)
 Number     Number       Type             X           Y           Z
 ---------------------------------------------------------------------
      1          6           0       -2.476411    0.553654   -0.152406
      2          6           0       -1.562679   -0.274613    0.328798
      3          6           0       -0.314550   -0.689802   -0.391793
      4          6           0        0.933720   -0.354990    0.393648
      5          6           0        1.680432    0.864019    0.192074
      6          7           0        2.228175   -0.109541   -0.362019
      7          1           0       -2.379079    0.993267   -1.139894
      8          1           0        1.836924    1.927439    0.311129
      9          1           0       -3.358836    0.817211    0.417782
     10          1           0       -1.701529   -0.693468    1.323581
     11          1           0       -0.267566   -0.207815   -1.370980
     12          1           0       -0.336650   -1.771628   -0.565540
     13          1           0        1.046434   -0.887834    1.336126
 ---------------------------------------------------------------------

 SCF Done:  E(RHF) =  -248.975485048     A.U. after    2 cycles

 The electronic state is 1-A.
 Alpha  occ. eigenvalues --  -15.76131 -11.48854 -11.43634 -11.42029 -11.39288
 Alpha  occ. eigenvalues --  -11.37064  -1.47103  -1.21302  -1.03490  -0.86044
 Alpha  occ. eigenvalues --   -0.82980  -0.79230  -0.67232  -0.63862  -0.58928
 Alpha  occ. eigenvalues --   -0.57049  -0.52449  -0.50137  -0.46191  -0.39703
 Alpha  occ. eigenvalues --   -0.35699  -0.33915
 Alpha virt. eigenvalues --    0.03683   0.04909   0.05423   0.05874   0.06347
 Alpha virt. eigenvalues --    0.06571   0.07517   0.09469   0.10604   0.11888
 Alpha virt. eigenvalues --    0.12179   0.13161   0.13509   0.14199   0.15029

 Mulliken charges:
               1
     1  C   -3.312128
     2  C   -0.227950
     3  C   -3.745987
     4  C   -0.101382
     5  C    0.116080
     6  N   -1.802676
     7  H    1.405008
     8  H    0.912782
     9  H    1.354924
    10  H    1.374822
    11  H    1.373945
    12  H    1.252515
    13  H    1.400049
 Sum of Mulliken charges =  -0.00000

 Dipole moment (field-independent basis, Debye):
    X=             -0.7445    Y=              0.9535    Z=              0.8149  Tot=              1.4586

 Test job not archived.
 1\1\GINC-SE220\SP\RHF\Aug-CC-pVDZ\C5H7N1\OHZDE\09-Apr-2025\0\\#t hf au
 g-cc-pvdz iop(5/13=1,5/36=2,99/5=2) pseudo=read geom=check guess=(read
 ,tcheck) scf=(maxcycle=1)\\title\\0,1\C,0,2.04900187,-0.35423707,-0.56
 895936\C,0,0.78444559,-0.72658693,-0.69037699\C,0,-0.24606883,-0.63608
 704,0.39558264\C,0,-1.43496886,0.20264277,-0.0170231\C,0,-1.54298216,1
 .60933144,0.28916788\N,0,-2.23510684,0.91496211,1.05967073\H,0,2.43486
 031,0.04670066,0.36282781\H,0,-1.29615188,2.65027545,0.13093904\H,0,2.
 74748611,-0.44317538,-1.39203925\H,0,0.44062232,-1.1248603,-1.64299248

 Normal termination of Gaussian 16 at Wed Apr  9 17:46:48 2025.
