 Gaussian 16, Revision C.01,

 ----------------------------------------------------------------------
 #t hf aug-cc-pvdz symm=none int=(grid=ultrafine) guess=(read,tcheck) s
 table=(opt,rrhf)
 ----------------------------------------------------------------------
 -----
 title
 -----
 Symbolic Z-matrix:
 Charge =  0 Multiplicity = 1

 SCF Done:  E(RHF) =  -194.968727575     A.U. after   14 cycles
 Normal termination of Gaussian 16 at Wed Apr  9 03:07:52 2025.
 Gaussian 16:  ES64L-G16RevC.01  3-Jul-2019

 ----------------------------------------------------------------------
 #t hf aug-cc-pvdz iop(5/13=1,5/36=2,99/5=2) pseudo=read geom=check gue
 ss=(read,tcheck) scf=(maxcycle=1)
 ----------------------------------------------------------------------
 -----
 title
 -----
 Structure from the checkpoint file:  "Grambow2020_b97d3_006580_reverse_mol1.chk"
 Charge =  0 Multiplicity = 1

                         Standard orientation:
 ---------------------------------------------------------------------
 Center     Atomic      Atomic             Coordinates (Angstroms)
 Number     Number       Type             X           Y           Z
 ---------------------------------------------------------------------
      1          6           0        2.018596    0.449118    0.093416
      2          6           0        0.280743   -0.881636   -0.692054
      3          6           0       -0.496330   -1.227503    0.549411
      4          6           0       -0.978965   -0.129090   -0.370039
      5          6           0       -1.107020    1.300865    0.126868
      6          1           0        1.813766    0.299620    1.152955
      7          1           0        1.764275    1.447858   -0.265950
      8          1           0        3.032634    0.139646   -0.184267
      9          1           0        1.411262   -0.450874   -0.732608
     10          1           0       -0.973025   -2.212203    0.562626
     11          1           0       -0.143894   -0.907012    1.531982
     12          1           0       -1.769993   -0.396831   -1.082639
     13          1           0       -2.116933    1.477028    0.526109
     14          1           0       -0.388615    1.508823    0.930100
     15          1           0       -0.931616    2.023414   -0.683918
 ---------------------------------------------------------------------

 SCF Done:  E(RHF) =  -195.985039157     A.U. after    2 cycles

 The electronic state is 1-A.
 Alpha  occ. eigenvalues --  -11.42100 -11.41020 -11.39930 -11.38581 -11.36308
 Alpha  occ. eigenvalues --   -1.30563  -1.05100  -1.02929  -0.83343  -0.77127
 Alpha  occ. eigenvalues --   -0.64580  -0.61819  -0.57818  -0.57448  -0.55779
 Alpha  occ. eigenvalues --   -0.53379  -0.47755  -0.41186  -0.38414  -0.27828
 Alpha virt. eigenvalues --    0.03546   0.05113   0.05607   0.05854   0.05895
 Alpha virt. eigenvalues --    0.06287   0.06326   0.07210   0.07836   0.09157
 Alpha virt. eigenvalues --    0.10560   0.11936   0.13097   0.14806   0.14928

 Mulliken charges:
               1
     1  C   -4.823083
     2  C   -1.560074
     3  C   -2.607688
     4  C   -0.364771
     5  C   -4.645384
     6  H    1.510912
     7  H    1.292806
     8  H    0.876832
     9  H    2.816084
    10  H    1.153425
    11  H    1.449117
    12  H    1.144775
    13  H    1.073140
    14  H    1.442056
    15  H    1.241851
 Sum of Mulliken charges =   0.00000

 Dipole moment (field-independent basis, Debye):
    X=              0.3473    Y=              1.3553    Z=              1.2533  Tot=              1.8784

 Test job not archived.
 1\1\GINC-SE059\SP\RHF\Aug-CC-pVDZ\C5H10\OHZDE\09-Apr-2025\0\\#t hf aug
 -cc-pvdz iop(5/13=1,5/36=2,99/5=2) pseudo=read geom=check guess=(read,
 tcheck) scf=(maxcycle=1)\\title\\0,1\C,0,1.61857392,-1.11026324,0.0684
 2935\C,0,0.59915516,0.83231689,0.83990392\C,0,0.11318539,1.50582053,-0
 .41505764\C,0,-0.84507974,0.71289657,0.44391568\C,0,-1.55956459,-0.507
 55465,-0.11114952\H,0,1.55206012,-0.86701224,-0.99144535\H,0,0.9365579
 5,-1.90333515,0.38018933\H,0,2.65094676,-1.28084465,0.39440619\H,0,1.4
 2488042,-0.05039407,0.90527827\H,0,0.11523253,2.59989369,-0.40831728\H

 Normal termination of Gaussian 16 at Wed Apr  9 03:07:56 2025.
