 Gaussian 16, Revision C.01,

 ----------------------------------------------------------------------
 #t hf aug-cc-pvdz symm=none int=(grid=ultrafine) guess=(read,tcheck) s
 table=(opt,rrhf)
 ----------------------------------------------------------------------
 -----
 title
 -----
 Symbolic Z-matrix:
 Charge =  0 Multiplicity = 1

 SCF Done:  E(RHF) =  -269.894720065     A.U. after   16 cycles

 1\1\GINC-SE114\Stability\RHF\Aug-CC-pVDZ\C5H10O1\OHZDE\09-Apr-2025\0\\
 #t hf aug-cc-pvdz symm=none int=(grid=ultrafine) guess=(read,tcheck) s
 table=(opt,rrhf)\\title\\0,1\C,0,2.2679351,0.64040012,-0.7912697\C,0,0
 .79671264,0.37902347,-0.55332191\C,0,0.34903179,-0.66867797,0.28568338
 \O,0,-0.66250844,0.45749303,1.5761141\C,0,-1.0758103,-0.62000978,0.742
 05811\C,0,-2.19758525,-0.34115599,-0.25630324\H,0,2.86954828,0.3611143
 4,0.08433637\H,0,2.45556078,1.70140603,-1.00776477\H,0,2.63943327,0.06
 1354,-1.65254186\H,0,0.1568896,0.97503601,0.50182837\H,0,0.1344605,0.6

 Normal termination of Gaussian 16 at Wed Apr  9 15:42:00 2025.
 Gaussian 16:  ES64L-G16RevC.01  3-Jul-2019

 ----------------------------------------------------------------------
 #t hf aug-cc-pvdz iop(5/13=1,5/36=2,99/5=2) pseudo=read geom=check gue
 ss=(read,tcheck) scf=(maxcycle=1)
 ----------------------------------------------------------------------
 -----
 title
 -----
 Structure from the checkpoint file:  "Grambow2020_b97d3_006621_forward_mol1.chk"
 Charge =  0 Multiplicity = 1

                         Standard orientation:
 ---------------------------------------------------------------------
 Center     Atomic      Atomic             Coordinates (Angstroms)
 Number     Number       Type             X           Y           Z
 ---------------------------------------------------------------------
      1          6           0       -2.596996    0.198138   -0.082043
      2          6           0       -1.098736    0.396444   -0.155008
      3          6           0       -0.214566   -0.243435    0.745451
      4          8           0        0.852188   -1.233393   -0.610538
      5          6           0        1.235119   -0.278625    0.373973
      6          6           0        1.938245    0.986197   -0.114599
      7          1           0       -2.849196   -0.801581    0.296880
      8          1           0       -3.064252    0.314695   -1.069916
      9          1           0       -3.062942    0.938798    0.588339
     10          1           0       -0.330799   -0.454557   -0.906019
     11          1           0       -0.772000    1.379834   -0.514075
     12          1           0       -0.562974   -1.010711    1.438675
     13          1           0        1.850826   -0.751217    1.158663
     14          1           0        1.362043    1.521352   -0.879403
     15          1           0        2.902423    0.705305   -0.559194
     16          1           0        2.130972    1.672921    0.723707
 ---------------------------------------------------------------------

 SCF Done:  E(RHF) =  -271.222189763     A.U. after    2 cycles

 The electronic state is 1-A.
 Alpha  occ. eigenvalues --  -20.97674 -11.51314 -11.43993 -11.41338 -11.38539
 Alpha  occ. eigenvalues --  -11.37204  -1.64910  -1.22355  -1.10032  -1.01746
 Alpha  occ. eigenvalues --   -0.89259  -0.78377  -0.68417  -0.62604  -0.59667
 Alpha  occ. eigenvalues --   -0.57224  -0.54599  -0.52344  -0.50789  -0.48376
 Alpha  occ. eigenvalues --   -0.47784  -0.40220  -0.27752  -0.22592
 Alpha virt. eigenvalues --    0.03396   0.04907   0.05265   0.05369   0.05613
 Alpha virt. eigenvalues --    0.05950   0.06344   0.07302   0.08599   0.09011
 Alpha virt. eigenvalues --    0.09574   0.11908   0.12682   0.13313   0.13821

 Mulliken charges:
               1
     1  C   -4.312236
     2  C   -2.203712
     3  C   -0.105282
     4  O   -2.327389
     5  C   -0.584804
     6  C   -3.951822
     7  H    1.254692
     8  H    1.108175
     9  H    1.198914
    10  H    1.689662
    11  H    1.544242
    12  H    1.446136
    13  H    1.516679
    14  H    1.302290
    15  H    1.144646
    16  H    1.279808
 Sum of Mulliken charges =   0.00000

 Dipole moment (field-independent basis, Debye):
    X=             -0.7168    Y=              0.6096    Z=              1.1860  Tot=              1.5139

 Test job not archived.
 1\1\GINC-SE114\SP\RHF\Aug-CC-pVDZ\C5H10O1\OHZDE\09-Apr-2025\0\\#t hf a
 ug-cc-pvdz iop(5/13=1,5/36=2,99/5=2) pseudo=read geom=check guess=(rea
 d,tcheck) scf=(maxcycle=1)\\title\\0,1\C,0,2.2679351,0.64040012,-0.791
 2697\C,0,0.79671264,0.37902347,-0.55332191\C,0,0.34903179,-0.66867797,
 0.28568338\O,0,-0.66250844,0.45749303,1.5761141\C,0,-1.0758103,-0.6200
 0978,0.74205811\C,0,-2.19758525,-0.34115599,-0.25630324\H,0,2.86954828
 ,0.36111434,0.08433637\H,0,2.45556078,1.70140603,-1.00776477\H,0,2.639
 43327,0.061354,-1.65254186\H,0,0.1568896,0.97503601,0.50182837\H,0,0.1

 Normal termination of Gaussian 16 at Wed Apr  9 15:42:05 2025.
