 Gaussian 16, Revision C.01,

 ----------------------------------------------------------------------
 #t hf aug-cc-pvdz symm=none int=(grid=ultrafine) guess=(read,tcheck) s
 table=(opt,rrhf)
 ----------------------------------------------------------------------
 -----
 title
 -----
 Symbolic Z-matrix:
 Charge =  0 Multiplicity = 1

 SCF Done:  E(RHF) =  -286.732479144     A.U. after   16 cycles
 Normal termination of Gaussian 16 at Wed Apr  9 04:05:57 2025.
 Gaussian 16:  ES64L-G16RevC.01  3-Jul-2019

 ----------------------------------------------------------------------
 #t hf aug-cc-pvdz iop(5/13=1,5/36=2,99/5=2) pseudo=read geom=check gue
 ss=(read,tcheck) scf=(maxcycle=1)
 ----------------------------------------------------------------------
 -----
 title
 -----
 Structure from the checkpoint file:  "Grambow2020_wb97xd3_009266_reverse_mol2.chk"
 Charge =  0 Multiplicity = 1

                         Standard orientation:
 ---------------------------------------------------------------------
 Center     Atomic      Atomic             Coordinates (Angstroms)
 Number     Number       Type             X           Y           Z
 ---------------------------------------------------------------------
      1          6           0        2.012013   -0.111171   -0.350433
      2          6           0        0.578434   -0.176999    0.077783
      3          6           0       -0.019473    1.046434    0.878267
      4          6           0       -0.941826    1.250799   -0.326462
      5          7           0       -0.570220   -0.054746   -0.925133
      6          6           0       -1.164770   -1.135691   -0.096341
      7          6           0       -0.043136   -1.239458    0.895505
      8          1           0        2.224180    0.826776   -0.867785
      9          1           0        2.243498   -0.933665   -1.027928
     10          1           0        2.658316   -0.191030    0.525250
     11          1           0        0.731791    1.804319    1.089535
     12          1           0       -2.009068    1.375039   -0.133569
     13          1           0       -0.608021    2.060649   -0.975039
     14          1           0       -1.056860   -2.089826   -0.638385
     15          1           0       -2.208142   -1.049909    0.217243
     16          1           0       -0.511607    0.777385    1.816699
 ---------------------------------------------------------------------

 SCF Done:  E(RHF) =  -288.122432805     A.U. after    2 cycles

 The electronic state is 1-A.
 Alpha  occ. eigenvalues --  -15.70332 -11.48776 -11.43925 -11.42891 -11.39670
 Alpha  occ. eigenvalues --  -11.39433 -11.37017  -1.54400  -1.13679  -1.12902
 Alpha  occ. eigenvalues --   -1.02682  -0.91663  -0.84212  -0.70260  -0.67391
 Alpha  occ. eigenvalues --   -0.64047  -0.60761  -0.57267  -0.56514  -0.55296
 Alpha  occ. eigenvalues --   -0.50378  -0.47246  -0.42395  -0.39412  -0.36002
 Alpha  occ. eigenvalues --   -0.28203
 Alpha virt. eigenvalues --    0.03871   0.04935   0.05484   0.05628   0.05696
 Alpha virt. eigenvalues --    0.06164   0.06551   0.07295   0.08564   0.09333
 Alpha virt. eigenvalues --    0.10242   0.11309   0.11797   0.12625   0.13321

 Mulliken charges:
               1
     1  C   -4.933157
     2  C    3.436453
     3  C   -2.563468
     4  C   -2.541606
     5  N   -1.951432
     6  C   -2.239973
     7  C   -1.205131
     8  H    1.232605
     9  H    1.195019
    10  H    1.178862
    11  H    1.410065
    12  H    1.454851
    13  H    1.374380
    14  H    1.444380
    15  H    1.393052
    16  H    1.315099
 Sum of Mulliken charges =   0.00000

 Dipole moment (field-independent basis, Debye):
    X=             -0.3526    Y=              1.9246    Z=             -0.7575  Tot=              2.0981

 Test job not archived.
 1\1\GINC-SE247\SP\RHF\Aug-CC-pVDZ\C6H9N1\OHZDE\09-Apr-2025\0\\#t hf au
 g-cc-pvdz iop(5/13=1,5/36=2,99/5=2) pseudo=read geom=check guess=(read
 ,tcheck) scf=(maxcycle=1)\\title\\0,1\C,0,1.97240701,0.04238243,-0.002
 88843\C,0,0.5069683,-0.25632097,0.07530555\C,0,-0.37589633,0.5893497,1
 .07552919\C,0,-1.09178977,1.12120199,-0.16885944\N,0,-0.45441082,0.116
 29712,-1.05478203\C,0,-1.03899686,-1.21532311,-0.74839201\C,0,-0.10445
 62,-1.56865,0.3716009\H,0,2.14792218,1.11076765,-0.14487471\H,0,2.4239
 5696,-0.49107659,-0.83991038\H,0,2.46028109,-0.2811695,0.91808957\H,0,

 Normal termination of Gaussian 16 at Wed Apr  9 04:06:03 2025.
