 Gaussian 16, Revision C.01,

 ----------------------------------------------------------------------
 #t hf aug-cc-pvdz symm=none int=(grid=ultrafine) guess=(read,tcheck) s
 table=(opt,rrhf)
 ----------------------------------------------------------------------
 -----
 title
 -----
 Symbolic Z-matrix:
 Charge =  0 Multiplicity = 1

 SCF Done:  E(RHF) =  -305.776916184     A.U. after   15 cycles
 Normal termination of Gaussian 16 at Wed Apr  9 03:05:53 2025.
 Gaussian 16:  ES64L-G16RevC.01  3-Jul-2019

 ----------------------------------------------------------------------
 #t hf aug-cc-pvdz iop(5/13=1,5/36=2,99/5=2) pseudo=read geom=check gue
 ss=(read,tcheck) scf=(maxcycle=1)
 ----------------------------------------------------------------------
 -----
 title
 -----
 Structure from the checkpoint file:  "Grambow2020_b97d3_006509_forward_mol1.chk"
 Charge =  0 Multiplicity = 1

                         Standard orientation:
 ---------------------------------------------------------------------
 Center     Atomic      Atomic             Coordinates (Angstroms)
 Number     Number       Type             X           Y           Z
 ---------------------------------------------------------------------
      1          6           0       -0.698188    1.499555   -0.220891
      2          6           0       -0.410605    0.014395    0.038703
      3          6           0       -1.634334   -0.869094   -0.223201
      4          8           0        0.191822   -0.246451    1.289751
      5          6           0        0.824763   -0.522213   -0.610444
      6          8           0        1.963319   -0.005213   -0.251835
      7          1           0       -1.430530    1.846524    0.520844
      8          1           0        0.215880    2.098199   -0.105790
      9          1           0       -1.104549    1.671192   -1.228654
     10          1           0       -1.388948   -1.921601   -0.027254
     11          1           0       -1.997538   -0.766143   -1.256114
     12          1           0       -2.438806   -0.576293    0.463018
     13          1           0        1.539506    0.312430    0.711433
     14          1           0        0.874037   -1.386851   -1.285818
 ---------------------------------------------------------------------

 SCF Done:  E(RHF) =  -307.186223897     A.U. after    2 cycles

 The electronic state is 1-A.
 Alpha  occ. eigenvalues --  -21.12978 -20.97124 -11.55697 -11.45207 -11.40015
 Alpha  occ. eigenvalues --  -11.37222  -1.82382  -1.60513  -1.17001  -1.02212
 Alpha  occ. eigenvalues --   -0.97372  -0.80990  -0.70003  -0.62961  -0.59858
 Alpha  occ. eigenvalues --   -0.58243  -0.57678  -0.54240  -0.49499  -0.48553
 Alpha  occ. eigenvalues --   -0.44357  -0.37736  -0.26038  -0.24427
 Alpha virt. eigenvalues --    0.03191   0.04854   0.05128   0.05329   0.06100
 Alpha virt. eigenvalues --    0.06991   0.07072   0.08139   0.08423   0.10691
 Alpha virt. eigenvalues --    0.12212   0.13100   0.14364   0.14536   0.15416

 Mulliken charges:
               1
     1  C   -3.986321
     2  C    2.612556
     3  C   -3.715759
     4  O   -2.783943
     5  C    1.251695
     6  O   -2.984112
     7  H    1.145942
     8  H    1.214246
     9  H    1.239262
    10  H    1.259329
    11  H    1.185341
    12  H    1.134141
    13  H    0.897242
    14  H    1.530381
 Sum of Mulliken charges =  -0.00000

 Dipole moment (field-independent basis, Debye):
    X=              0.6114    Y=             -0.0842    Z=             -2.0602  Tot=              2.1506

 Test job not archived.
 1\1\GINC-SE090\SP\RHF\Aug-CC-pVDZ\C4H8O2\OHZDE\09-Apr-2025\0\\#t hf au
 g-cc-pvdz iop(5/13=1,5/36=2,99/5=2) pseudo=read geom=check guess=(read
 ,tcheck) scf=(maxcycle=1)\\title\\0,1\C,0,-0.82921164,1.17754977,-0.18
 628068\C,0,0.16527132,0.01014823,-0.12327054\C,0,1.19039889,0.17991369
 ,1.0023185\O,0,0.7649125,-0.30440358,-1.3632577\C,0,-0.44651084,-1.354
 08603,-0.13117779\O,0,-1.13227633,-1.69748262,-1.18189336\H,0,-0.28108
 998,2.08598261,-0.47122826\H,0,-1.60047892,0.99033752,-0.94604429\H,0,
 -1.32476846,1.35013688,0.78057604\H,0,1.8819984,-0.67326471,1.01487669

 Normal termination of Gaussian 16 at Wed Apr  9 03:05:57 2025.
