 Gaussian 16, Revision C.01,

 ----------------------------------------------------------------------
 #t hf aug-cc-pvdz symm=none int=(grid=ultrafine) guess=(read,tcheck) s
 table=(opt,rrhf)
 ----------------------------------------------------------------------
 -----
 title
 -----
 Symbolic Z-matrix:
 Charge =  0 Multiplicity = 1

 SCF Done:  E(RHF) =  -322.526176862     A.U. after   16 cycles
 Normal termination of Gaussian 16 at Wed Apr  9 03:26:51 2025.
 Gaussian 16:  ES64L-G16RevC.01  3-Jul-2019

 ----------------------------------------------------------------------
 #t hf aug-cc-pvdz iop(5/13=1,5/36=2,99/5=2) pseudo=read geom=check gue
 ss=(read,tcheck) scf=(maxcycle=1)
 ----------------------------------------------------------------------
 -----
 title
 -----
 Structure from the checkpoint file:  "Grambow2020_wb97xd3_006641_forward_mol1.chk"
 Charge =  0 Multiplicity = 1

                         Standard orientation:
 ---------------------------------------------------------------------
 Center     Atomic      Atomic             Coordinates (Angstroms)
 Number     Number       Type             X           Y           Z
 ---------------------------------------------------------------------
      1          8           0       -2.515281    0.052751    0.276011
      2          6           0       -1.413766   -0.577442    0.159870
      3          6           0       -0.528329    0.245862   -0.560515
      4          6           0        0.615106    1.013319   -0.005797
      5          6           0        1.457178    0.225201    0.986926
      6          6           0        1.546293   -0.850529   -0.114804
      7          7           0        0.797774    0.013000   -1.089718
      8          1           0       -1.339798   -1.593323    0.548198
      9          1           0       -1.915703    0.835002   -0.460000
     10          1           0        0.686858    2.080064   -0.182335
     11          1           0        0.997617   -0.028438    1.941759
     12          1           0        2.420971    0.695794    1.178267
     13          1           0        1.070498   -1.814480    0.074793
     14          1           0        2.558493   -1.026091   -0.474818
 ---------------------------------------------------------------------

 SCF Done:  E(RHF) =  -324.042896653     A.U. after    2 cycles

 The electronic state is 1-A.
 Alpha  occ. eigenvalues --  -21.09789 -15.72550 -11.52387 -11.49944 -11.43800
 Alpha  occ. eigenvalues --  -11.39420 -11.37262  -1.78312  -1.52908  -1.11207
 Alpha  occ. eigenvalues --   -1.01723  -0.97721  -0.84099  -0.78790  -0.70118
 Alpha  occ. eigenvalues --   -0.68286  -0.60779  -0.56443  -0.53887  -0.52711
 Alpha  occ. eigenvalues --   -0.48727  -0.45232  -0.40541  -0.39457  -0.33345
 Alpha  occ. eigenvalues --   -0.26787
 Alpha virt. eigenvalues --    0.03567   0.04908   0.05494   0.05724   0.06200
 Alpha virt. eigenvalues --    0.06657   0.07259   0.08213   0.10349   0.10576
 Alpha virt. eigenvalues --    0.12330   0.12630   0.13406   0.13657   0.14275

 Mulliken charges:
               1
     1  O   -2.871560
     2  C    1.252543
     3  C    0.322222
     4  C   -0.170082
     5  C   -3.009049
     6  C   -2.616006
     7  N   -1.849913
     8  H    1.333593
     9  H    1.067767
    10  H    1.294270
    11  H    1.292882
    12  H    1.094460
    13  H    1.543045
    14  H    1.315828
 Sum of Mulliken charges =   0.00000

 Dipole moment (field-independent basis, Debye):
    X=             -0.0416    Y=             -1.0911    Z=              2.2650  Tot=              2.5144

 Test job not archived.
 1\1\GINC-SE120\SP\RHF\Aug-CC-pVDZ\C5H7N1O1\OHZDE\09-Apr-2025\0\\#t hf
 aug-cc-pvdz iop(5/13=1,5/36=2,99/5=2) pseudo=read geom=check guess=(re
 ad,tcheck) scf=(maxcycle=1)\\title\\0,1\O,0,1.98600063,1.97239424,-0.1
 3058733\C,0,1.04458534,1.3642502,0.47593178\C,0,0.09700363,0.97888482,
 -0.49069322\C,0,-0.11685863,-0.39054106,-1.02274798\C,0,-0.11888187,-1
 .47036857,0.04948597\C,0,-1.180681,-0.6055146,0.75910293\N,0,-1.213514
 42,0.37689342,-0.37677528\H,0,1.07585406,1.28733414,1.56285002\H,0,1.2
 0983271,1.81864813,-1.07241971\H,0,-0.08311714,-0.56683726,-2.09140992

 Normal termination of Gaussian 16 at Wed Apr  9 03:26:56 2025.
