 Gaussian 16, Revision C.01,

 ----------------------------------------------------------------------
 #t hf aug-cc-pvdz symm=none int=(grid=ultrafine) guess=(read,tcheck) s
 table=(opt,rrhf)
 ----------------------------------------------------------------------
 -----
 title
 -----
 Symbolic Z-matrix:
 Charge =  0 Multiplicity = 1

 SCF Done:  E(RHF) =  -283.404446795     A.U. after   21 cycles
 Normal termination of Gaussian 16 at Wed Apr  9 03:09:15 2025.
 Gaussian 16:  ES64L-G16RevC.01  3-Jul-2019

 ----------------------------------------------------------------------
 #t hf aug-cc-pvdz iop(5/13=1,5/36=2,99/5=2) pseudo=read geom=check gue
 ss=(read,tcheck) scf=(maxcycle=1)
 ----------------------------------------------------------------------
 -----
 title
 -----
 Structure from the checkpoint file:  "Grambow2020_b97d3_006656_reverse_mol2.chk"
 Charge =  0 Multiplicity = 1

                         Standard orientation:
 ---------------------------------------------------------------------
 Center     Atomic      Atomic             Coordinates (Angstroms)
 Number     Number       Type             X           Y           Z
 ---------------------------------------------------------------------
      1          7           0        2.528458    0.539125   -0.301539
      2          6           0        1.657908   -0.046999    0.345561
      3          6           0        0.361679   -0.759298   -0.314954
      4          6           0       -0.863764   -0.411583    0.438683
      5          6           0       -1.447470    0.934807    0.286613
      6          8           0       -2.032675   -0.060689   -0.415544
      7          1           0        0.597211   -1.830849   -0.280989
      8          1           0        0.292654   -0.424422   -1.352985
      9          1           0       -1.134815   -0.982283    1.328086
     10          1           0        1.656765   -0.186212    1.445720
     11          1           0       -1.099729    1.833848   -0.240127
 ---------------------------------------------------------------------

 SCF Done:  E(RHF) =  -284.670467222     A.U. after    2 cycles

 The electronic state is 1-A.
 Alpha  occ. eigenvalues --  -21.19387 -15.69864 -11.56861 -11.52766 -11.43206
 Alpha  occ. eigenvalues --  -11.38526  -1.88583  -1.27587  -1.14068  -0.97799
 Alpha  occ. eigenvalues --   -0.91500  -0.77081  -0.71704  -0.68080  -0.59072
 Alpha  occ. eigenvalues --   -0.56310  -0.52192  -0.48537  -0.44463  -0.42517
 Alpha  occ. eigenvalues --   -0.37567  -0.19933
 Alpha virt. eigenvalues --   -0.02845   0.02985   0.04401   0.05659   0.06024
 Alpha virt. eigenvalues --    0.06826   0.08426   0.08885   0.10185   0.11604
 Alpha virt. eigenvalues --    0.12819   0.13666   0.13938   0.14408   0.15836

 Mulliken charges:
               1
     1  N   -2.548461
     2  C    1.029318
     3  C   -3.392986
     4  C    1.300375
     5  C   -1.288033
     6  O   -2.107238
     7  H    1.409646
     8  H    1.217515
     9  H    1.562875
    10  H    1.481824
    11  H    1.335167
 Sum of Mulliken charges =  -0.00000

 Dipole moment (field-independent basis, Debye):
    X=             -6.7457    Y=             -1.7374    Z=              0.3391  Tot=              6.9741

 Test job not archived.
 1\1\GINC-SE149\SP\RHF\Aug-CC-pVDZ\C4H5N1O1\OHZDE\09-Apr-2025\0\\#t hf
 aug-cc-pvdz iop(5/13=1,5/36=2,99/5=2) pseudo=read geom=check guess=(re
 ad,tcheck) scf=(maxcycle=1)\\title\\0,1\N,0,2.32181217,1.02497746,-0.6
 7430406\C,0,1.52289987,0.64470699,0.18434058\C,0,0.56225034,-0.6491457
 3,0.02015178\C,0,-0.81766383,-0.33071711,0.45029831\C,0,-1.67392937,0.
 49463671,-0.42274558\O,0,-1.87953509,-0.84054597,-0.46167053\H,0,1.038
 94041,-1.41849853,0.64121035\H,0,0.58681462,-0.94875731,-1.03058388\H,
 0,-1.08658609,-0.39665055,1.50554159\H,0,1.37405777,1.11290828,1.17850

 Normal termination of Gaussian 16 at Wed Apr  9 03:09:18 2025.
