 Gaussian 16, Revision C.01,

 ----------------------------------------------------------------------
 #t hf aug-cc-pvdz symm=none int=(grid=ultrafine) guess=(read,tcheck) s
 table=(opt,rrhf)
 ----------------------------------------------------------------------
 -----
 title
 -----
 Symbolic Z-matrix:
 Charge =  0 Multiplicity = 1

 SCF Done:  E(RHF) =  -346.056749872     A.U. after   13 cycles

 1\1\GINC-SE097\Stability\RHF\Aug-CC-pVDZ\C5H12O2\OHZDE\09-Apr-2025\0\\
 #t hf aug-cc-pvdz symm=none int=(grid=ultrafine) guess=(read,tcheck) s
 table=(opt,rrhf)\\title\\0,1\C,0,2.37611457,-0.26325405,1.10847603\C,0
 ,1.1791962,0.57392038,0.68131357\C,0,0.33336733,-0.1146294,-0.38959374
 \O,0,-0.16629354,-1.36554418,0.04316906\C,0,-1.91583624,1.02836856,0.0
 6687896\C,0,-0.79979267,0.77430179,-0.90544949\O,0,-2.0537285,0.472636
 78,1.1266549\H,0,2.05313643,-1.23135978,1.49210153\H,0,3.04881045,-0.4
 4738264,0.26712188\H,0,2.94790064,0.24011614,1.88959769\H,0,0.54779458

 Normal termination of Gaussian 16 at Wed Apr  9 19:06:13 2025.
 Gaussian 16:  ES64L-G16RevC.01  3-Jul-2019

 ----------------------------------------------------------------------
 #t hf aug-cc-pvdz iop(5/13=1,5/36=2,99/5=2) pseudo=read geom=check gue
 ss=(read,tcheck) scf=(maxcycle=1)
 ----------------------------------------------------------------------
 -----
 title
 -----
 Structure from the checkpoint file:  "Grambow2020_wb97xd3_008082_reverse_mol2.chk"
 Charge =  0 Multiplicity = 1

                         Standard orientation:
 ---------------------------------------------------------------------
 Center     Atomic      Atomic             Coordinates (Angstroms)
 Number     Number       Type             X           Y           Z
 ---------------------------------------------------------------------
      1          6           0        2.706242   -0.166205   -0.254287
      2          6           0        1.342564   -0.695350    0.165631
      3          6           0        0.373007    0.421421    0.551832
      4          8           0        0.157475    1.335070   -0.506716
      5          6           0       -1.843048   -0.775604    0.072287
      6          6           0       -0.956471   -0.113229    1.087553
      7          8           0       -1.658521   -0.772934   -1.118057
      8          1           0        2.612052    0.517533   -1.098291
      9          1           0        3.186138    0.378855    0.562358
     10          1           0        3.369745   -0.981243   -0.547456
     11          1           0        0.903073   -1.285167   -0.644237
     12          1           0        1.452828   -1.369544    1.021643
     13          1           0        0.836669    1.014379    1.346639
     14          1           0       -0.295139    0.847727   -1.204944
     15          1           0       -2.740395   -1.278580    0.486501
     16          1           0       -1.549772    0.707684    1.508898
     17          1           0       -2.699708    2.979622    0.031293
     18          1           0       -0.800912   -0.817109    1.912041
     19          1           0       -1.999973    2.762560   -0.114358
 ---------------------------------------------------------------------

 SCF Done:  E(RHF) =  -347.683561805     A.U. after    2 cycles

 The electronic state is 1-A.
 Alpha  occ. eigenvalues --  -21.07431 -21.05485 -11.50224 -11.45890 -11.42318
 Alpha  occ. eigenvalues --  -11.38981 -11.35343  -1.73900  -1.70255  -1.21854
 Alpha  occ. eigenvalues --   -1.12066  -0.95801  -0.85761  -0.79755  -0.68794
 Alpha  occ. eigenvalues --   -0.63847  -0.62318  -0.60465  -0.59790  -0.57409
 Alpha  occ. eigenvalues --   -0.53242  -0.51580  -0.49288  -0.47466  -0.46222
 Alpha  occ. eigenvalues --   -0.43181  -0.39588  -0.31413  -0.29335
 Alpha virt. eigenvalues --    0.03749   0.04668   0.04872   0.05036   0.05544
 Alpha virt. eigenvalues --    0.06173   0.06813   0.07558   0.08610   0.08875
 Alpha virt. eigenvalues --    0.09036   0.10017   0.11504   0.12473   0.12889

 Mulliken charges:
               1
     1  C   -4.012290
     2  C   -2.841268
     3  C    1.121660
     4  O   -3.055731
     5  C    1.053656
     6  C   -3.188277
     7  O   -2.684014
     8  H    1.354568
     9  H    1.284042
    10  H    1.082161
    11  H    1.580402
    12  H    1.385433
    13  H    1.806670
    14  H    0.786111
    15  H    1.538762
    16  H    1.433572
    17  H    0.244456
    18  H    1.471095
    19  H   -0.361007
 Sum of Mulliken charges =  -0.00000

 Dipole moment (field-independent basis, Debye):
    X=             -0.0774    Y=             -0.6342    Z=              1.0914  Tot=              1.2647

 Test job not archived.
 1\1\GINC-SE097\SP\RHF\Aug-CC-pVDZ\C5H12O2\OHZDE\09-Apr-2025\0\\#t hf a
 ug-cc-pvdz iop(5/13=1,5/36=2,99/5=2) pseudo=read geom=check guess=(rea
 d,tcheck) scf=(maxcycle=1)\\title\\0,1\C,0,2.37611457,-0.26325405,1.10
 847603\C,0,1.1791962,0.57392038,0.68131357\C,0,0.33336733,-0.1146294,-
 0.38959374\O,0,-0.16629354,-1.36554418,0.04316906\C,0,-1.91583624,1.02
 836856,0.06687896\C,0,-0.79979267,0.77430179,-0.90544949\O,0,-2.053728
 5,0.47263678,1.1266549\H,0,2.05313643,-1.23135978,1.49210153\H,0,3.048
 81045,-0.44738264,0.26712188\H,0,2.94790064,0.24011614,1.88959769\H,0,

 Normal termination of Gaussian 16 at Wed Apr  9 19:06:20 2025.
