 Gaussian 16, Revision C.01,

 ----------------------------------------------------------------------
 #t hf aug-cc-pvdz symm=none int=(grid=ultrafine) guess=(read,tcheck) s
 table=(opt,rrhf)
 ----------------------------------------------------------------------
 -----
 title
 -----
 Symbolic Z-matrix:
 Charge =  0 Multiplicity = 1

 SCF Done:  E(RHF) =  -232.837340046     A.U. after   15 cycles
 Normal termination of Gaussian 16 at Wed Apr  9 03:07:57 2025.
 Gaussian 16:  ES64L-G16RevC.01  3-Jul-2019

 ----------------------------------------------------------------------
 #t hf aug-cc-pvdz iop(5/13=1,5/36=2,99/5=2) pseudo=read geom=check gue
 ss=(read,tcheck) scf=(maxcycle=1)
 ----------------------------------------------------------------------
 -----
 title
 -----
 Structure from the checkpoint file:  "Grambow2020_b97d3_006588_forward_mol1.chk"
 Charge =  0 Multiplicity = 1

                         Standard orientation:
 ---------------------------------------------------------------------
 Center     Atomic      Atomic             Coordinates (Angstroms)
 Number     Number       Type             X           Y           Z
 ---------------------------------------------------------------------
      1          6           0        2.006210   -1.387864   -0.027586
      2          6           0        0.755866    1.738652    0.004408
      3          6           0       -0.248784    0.850114    0.005494
      4          6           0       -0.849004   -0.017742    1.092546
      5          6           0       -0.928742   -1.122678   -0.004512
      6          6           0       -0.874293    0.002700   -1.082784
      7          1           0        2.236333   -0.779280    0.886920
      8          1           0        2.280120   -0.652668   -0.829380
      9          1           0        1.167915    2.132473   -0.926387
     10          1           0        1.185880    2.112954    0.935266
     11          1           0       -1.855495    0.327257    1.376864
     12          1           0       -0.256442   -0.201101    1.996979
     13          1           0       -1.776575   -1.819764   -0.000056
     14          1           0        0.039973   -1.687806   -0.025105
     15          1           0       -1.886576    0.353807   -1.337058
     16          1           0       -0.302647   -0.164964   -2.003433
 ---------------------------------------------------------------------

 SCF Done:  E(RHF) =  -233.990315479     A.U. after    2 cycles

 The electronic state is 1-A.
 Alpha  occ. eigenvalues --  -11.45751 -11.41848 -11.41122 -11.40553 -11.38625
 Alpha  occ. eigenvalues --  -11.35735  -1.34389  -1.05692  -0.96450  -0.93724
 Alpha  occ. eigenvalues --   -0.86629  -0.74582  -0.65382  -0.62641  -0.60258
 Alpha  occ. eigenvalues --   -0.54977  -0.53007  -0.50333  -0.44932  -0.43518
 Alpha  occ. eigenvalues --   -0.42075  -0.35421  -0.33359
 Alpha virt. eigenvalues --    0.03651   0.03849   0.05203   0.05352   0.05790
 Alpha virt. eigenvalues --    0.06157   0.06185   0.06780   0.08302   0.08401
 Alpha virt. eigenvalues --    0.09300   0.11610   0.12323   0.13144   0.13231

 Mulliken charges:
               1
     1  C   -3.477907
     2  C   -4.061516
     3  C    2.610950
     4  C   -3.085903
     5  C   -2.972482
     6  C   -3.097220
     7  H    1.491924
     8  H    1.546295
     9  H    1.419836
    10  H    1.422283
    11  H    1.156573
    12  H    1.314558
    13  H    1.163998
    14  H    2.080276
    15  H    1.160812
    16  H    1.327523
 Sum of Mulliken charges =   0.00000

 Dipole moment (field-independent basis, Debye):
    X=             -0.1246    Y=              1.0713    Z=              0.1138  Tot=              1.0845

 Test job not archived.
 1\1\GINC-SE368\SP\RHF\Aug-CC-pVDZ\C6H10\OHZDE\09-Apr-2025\0\\#t hf aug
 -cc-pvdz iop(5/13=1,5/36=2,99/5=2) pseudo=read geom=check guess=(read,
 tcheck) scf=(maxcycle=1)\\title\\0,1\C,0,-0.75826662,0.6625142,2.17204
 152\C,0,-1.61496283,-0.13201083,-0.9861686\C,0,-0.28272188,-0.20195274
 ,-0.84809023\C,0,0.63064426,-1.23752763,-0.22481941\C,0,1.43387386,-0.
 01926138,0.3242048\C,0,0.80420985,0.85185368,-0.80574747\H,0,-1.373447
 47,-0.26857101,2.05251753\H,0,-1.3531579,1.37562039,1.54275771\H,0,-2.
 10806359,0.78923153,-1.30147915\H,0,-2.25245307,-0.99931509,-0.8047826

 Normal termination of Gaussian 16 at Wed Apr  9 03:08:01 2025.
