 Gaussian 16, Revision C.01,

 ----------------------------------------------------------------------
 #t hf aug-cc-pvdz symm=none int=(grid=ultrafine) guess=(read,tcheck) s
 table=(opt,rrhf)
 ----------------------------------------------------------------------
 -----
 title
 -----
 Symbolic Z-matrix:
 Charge =  0 Multiplicity = 1

 SCF Done:  E(RHF) =  -283.469297658     A.U. after   21 cycles
 Normal termination of Gaussian 16 at Wed Apr  9 17:52:38 2025.
 Gaussian 16:  ES64L-G16RevC.01  3-Jul-2019

 ----------------------------------------------------------------------
 #t hf aug-cc-pvdz iop(5/13=1,5/36=2,99/5=2) pseudo=read geom=check gue
 ss=(read,tcheck) scf=(maxcycle=1)
 ----------------------------------------------------------------------
 -----
 title
 -----
 Structure from the checkpoint file:  "Grambow2020_wb97xd3_006227_forward_mol1.chk"
 Charge =  0 Multiplicity = 1

                         Standard orientation:
 ---------------------------------------------------------------------
 Center     Atomic      Atomic             Coordinates (Angstroms)
 Number     Number       Type             X           Y           Z
 ---------------------------------------------------------------------
      1          8           0        1.527244    0.536865   -0.670848
      2          6           0        0.471639    0.082680   -0.081648
      3          6           0       -0.769072    1.017677    0.332164
      4          6           0       -1.640597   -0.130541   -0.057188
      5          6           0       -0.665008   -0.892345   -0.566446
      6          7           0        0.946529   -0.649793    0.993816
      7          1           0       -0.783486    1.848613   -0.368890
      8          1           0       -0.792200    1.369507    1.363961
      9          1           0       -2.699718   -0.301948    0.086243
     10          1           0       -0.616490   -1.880127   -1.006377
     11          1           0        1.666464   -1.247238    0.573847
 ---------------------------------------------------------------------

 SCF Done:  E(RHF) =  -284.734413863     A.U. after    2 cycles

 The electronic state is 1-A.
 Alpha  occ. eigenvalues --  -20.98856 -15.88606 -11.52667 -11.46546 -11.43331
 Alpha  occ. eigenvalues --  -11.39417  -1.67895  -1.37320  -1.24385  -0.97655
 Alpha  occ. eigenvalues --   -0.88907  -0.77122  -0.70799  -0.64150  -0.60619
 Alpha  occ. eigenvalues --   -0.53762  -0.52665  -0.48619  -0.43651  -0.36683
 Alpha  occ. eigenvalues --   -0.26332  -0.24985
 Alpha virt. eigenvalues --    0.01136   0.03464   0.04640   0.05251   0.06117
 Alpha virt. eigenvalues --    0.07066   0.09595   0.10827   0.11230   0.12119
 Alpha virt. eigenvalues --    0.12753   0.13608   0.14362   0.15098   0.15626

 Mulliken charges:
               1
     1  O   -3.491211
     2  C    5.610682
     3  C   -3.759477
     4  C   -0.052453
     5  C   -1.505909
     6  N   -2.115718
     7  H    1.302787
     8  H    1.265043
     9  H    1.100723
    10  H    1.094296
    11  H    0.551238
 Sum of Mulliken charges =  -0.00000

 Dipole moment (field-independent basis, Debye):
    X=             -1.8567    Y=             -1.1458    Z=              0.3961  Tot=              2.2175

 Test job not archived.
 1\1\GINC-SE362\SP\RHF\Aug-CC-pVDZ\C4H5N1O1\OHZDE\09-Apr-2025\0\\#t hf
 aug-cc-pvdz iop(5/13=1,5/36=2,99/5=2) pseudo=read geom=check guess=(re
 ad,tcheck) scf=(maxcycle=1)\\title\\0,1\O,0,-0.34688931,1.83836618,-0.
 83698351\C,0,-0.09253749,0.77750444,-0.14588392\C,0,-1.0395016,-0.5216
 9912,-0.15826431\C,0,0.21958677,-1.32195177,-0.09622785\C,0,1.05941009
 ,-0.29053971,-0.24572354\N,0,0.14053691,1.23345647,1.14114539\H,0,-1.5
 3452971,-0.54013007,-1.12612097\H,0,-1.75900488,-0.60895681,0.65636723
 \H,0,0.38506478,-2.37795874,0.07452274\H,0,2.13565846,-0.1774485,-0.26

 Normal termination of Gaussian 16 at Wed Apr  9 17:52:41 2025.
