 Gaussian 16, Revision C.01,

 ----------------------------------------------------------------------
 #t hf aug-cc-pvdz symm=none int=(grid=ultrafine) guess=(read,tcheck) s
 table=(opt,rrhf)
 ----------------------------------------------------------------------
 -----
 title
 -----
 Symbolic Z-matrix:
 Charge =  0 Multiplicity = 1

 SCF Done:  E(RHF) =  -306.596735780     A.U. after   15 cycles
 Normal termination of Gaussian 16 at Wed Apr  9 03:51:40 2025.
 Gaussian 16:  ES64L-G16RevC.01  3-Jul-2019

 ----------------------------------------------------------------------
 #t hf aug-cc-pvdz iop(5/13=1,5/36=2,99/5=2) pseudo=read geom=check gue
 ss=(read,tcheck) scf=(maxcycle=1)
 ----------------------------------------------------------------------
 -----
 title
 -----
 Structure from the checkpoint file:  "Grambow2020_wb97xd3_008210_reverse_mol2.chk"
 Charge =  0 Multiplicity = 1

                         Standard orientation:
 ---------------------------------------------------------------------
 Center     Atomic      Atomic             Coordinates (Angstroms)
 Number     Number       Type             X           Y           Z
 ---------------------------------------------------------------------
      1          6           0       -1.468784   -0.170418   -0.612532
      2          8           0       -0.889719   -1.391989   -0.117891
      3          6           0        0.060071   -0.662676    0.663783
      4          6           0        1.439377   -0.730902    0.060495
      5          6           0        2.248527    0.081736   -0.527557
      6          6           0        0.017434    1.908757    0.032272
      7          6           0       -0.711685    0.651525    0.438141
      8          1           0       -1.155909    0.029600   -1.643056
      9          1           0       -2.558237   -0.186904   -0.554153
     10          1           0        0.101818   -1.038069    1.688822
     11          1           0        1.958135   -1.701668    0.053102
     12          1           0        0.708174    1.725711   -0.798328
     13          1           0        0.590157    2.320951    0.864530
     14          1           0       -0.687691    2.674407   -0.298359
     15          1           0       -1.348337    0.843749    1.302962
 ---------------------------------------------------------------------

 SCF Done:  E(RHF) =  -308.024526922     A.U. after    2 cycles

 The electronic state is 1-A.
 Alpha  occ. eigenvalues --  -21.04790 -11.49929 -11.46197 -11.43259 -11.41447
 Alpha  occ. eigenvalues --  -11.40243 -11.37923  -1.78896  -1.22466  -1.14680
 Alpha  occ. eigenvalues --   -0.99173  -0.98584  -0.81631  -0.72454  -0.68804
 Alpha  occ. eigenvalues --   -0.62060  -0.60101  -0.57718  -0.56619  -0.52428
 Alpha  occ. eigenvalues --   -0.49208  -0.43341  -0.42966  -0.38377  -0.35317
 Alpha  occ. eigenvalues --   -0.30249
 Alpha virt. eigenvalues --    0.03358   0.04836   0.05169   0.05480   0.05861
 Alpha virt. eigenvalues --    0.06103   0.06990   0.07553   0.08364   0.09769
 Alpha virt. eigenvalues --    0.11364   0.12266   0.12902   0.13307   0.14234

 Mulliken charges:
               1
     1  C   -1.563138
     2  O   -2.786843
     3  C    0.777208
     4  C    2.095545
     5  C   -3.134628
     6  C   -4.491118
     7  C   -1.653444
     8  H    1.553764
     9  H    1.426072
    10  H    1.521855
    11  H    1.431345
    12  H    1.335320
    13  H    1.252239
    14  H    1.137162
    15  H    1.098661
 Sum of Mulliken charges =  -0.00000

 Dipole moment (field-independent basis, Debye):
    X=             -2.2078    Y=             -0.2634    Z=              1.3425  Tot=              2.5973

 Test job not archived.
 1\1\GINC-SE021\SP\RHF\Aug-CC-pVDZ\C6H8O1\OHZDE\09-Apr-2025\0\\#t hf au
 g-cc-pvdz iop(5/13=1,5/36=2,99/5=2) pseudo=read geom=check guess=(read
 ,tcheck) scf=(maxcycle=1)\\title\\0,1\C,0,-1.3030981,-0.54400706,-0.72
 219043\O,0,-0.70908892,-1.7160214,-0.13418077\C,0,0.15100992,-0.911934
 27,0.67741389\C,0,1.57125786,-0.94247946,0.17436099\C,0,2.38473415,-0.
 11922183,-0.39256888\C,0,0.04384931,1.62605595,-0.07092648\C,0,-0.6580
 3836,0.35505152,0.34002108\H,0,-0.9267663,-0.37342349,-1.7366628\H,0,-
 2.39225831,-0.60769606,-0.73838543\H,0,0.13593791,-1.24161149,1.718784

 Normal termination of Gaussian 16 at Wed Apr  9 03:51:45 2025.
