 Gaussian 16, Revision C.01,

 ----------------------------------------------------------------------
 #t hf aug-cc-pvdz symm=none int=(grid=ultrafine) guess=(read,tcheck) s
 table=(opt,rrhf)
 ----------------------------------------------------------------------
 -----
 title
 -----
 Symbolic Z-matrix:
 Charge =  0 Multiplicity = 1

 SCF Done:  E(RHF) =  -286.613806773     A.U. after   16 cycles
 Normal termination of Gaussian 16 at Wed Apr  9 18:46:50 2025.
 Gaussian 16:  ES64L-G16RevC.01  3-Jul-2019

 ----------------------------------------------------------------------
 #t hf aug-cc-pvdz iop(5/13=1,5/36=2,99/5=2) pseudo=read geom=check gue
 ss=(read,tcheck) scf=(maxcycle=1)
 ----------------------------------------------------------------------
 -----
 title
 -----
 Structure from the checkpoint file:  "Grambow2020_wb97xd3_007644_forward_mol1.chk"
 Charge =  0 Multiplicity = 1

                         Standard orientation:
 ---------------------------------------------------------------------
 Center     Atomic      Atomic             Coordinates (Angstroms)
 Number     Number       Type             X           Y           Z
 ---------------------------------------------------------------------
      1          6           0        1.774625   -0.844644    0.254167
      2          6           0        0.771839   -0.043692   -0.344306
      3          6           0        0.519700    1.349247   -0.696494
      4          6           0       -0.025615    1.028764    0.679397
      5          6           0       -1.114033    0.132856    0.814266
      6          7           0       -1.718531   -0.405193   -0.343102
      7          6           0       -0.431455   -1.057011   -0.347702
      8          1           0        1.981550   -1.772392   -0.277190
      9          1           0        0.435323   -1.467394    0.694249
     10          1           0        2.639316   -0.403585    0.743202
     11          1           0        1.365139    2.025559   -0.690637
     12          1           0       -0.192813    1.567438   -1.487980
     13          1           0        0.506989    1.376759    1.550978
     14          1           0       -1.477322   -0.203013    1.775864
     15          1           0       -1.850072    0.270840   -1.091575
     16          1           0       -0.348762   -1.950977   -0.971171
 ---------------------------------------------------------------------

 SCF Done:  E(RHF) =  -288.047721402     A.U. after    2 cycles

 The electronic state is 1-A.
 Alpha  occ. eigenvalues --  -15.74804 -11.52563 -11.47667 -11.44715 -11.41723
 Alpha  occ. eigenvalues --  -11.39078 -11.35336  -1.53121  -1.27823  -1.09352
 Alpha  occ. eigenvalues --   -1.00042  -0.90932  -0.81825  -0.78070  -0.70527
 Alpha  occ. eigenvalues --   -0.67659  -0.62115  -0.56731  -0.55268  -0.54035
 Alpha  occ. eigenvalues --   -0.51601  -0.46704  -0.43373  -0.35451  -0.30361
 Alpha  occ. eigenvalues --   -0.25448
 Alpha virt. eigenvalues --    0.03902   0.04896   0.05219   0.05462   0.05842
 Alpha virt. eigenvalues --    0.06381   0.06762   0.07200   0.08155   0.09500
 Alpha virt. eigenvalues --    0.11143   0.12649   0.12919   0.13547   0.13886

 Mulliken charges:
               1
     1  C   -3.047346
     2  C    1.174594
     3  C   -3.141285
     4  C   -0.260378
     5  C   -1.345732
     6  N   -2.737138
     7  C   -0.945883
     8  H    0.965090
     9  H    1.331858
    10  H    1.147942
    11  H    1.225171
    12  H    1.185967
    13  H    1.607784
    14  H    1.465624
    15  H    0.456795
    16  H    0.916937
 Sum of Mulliken charges =   0.00000

 Dipole moment (field-independent basis, Debye):
    X=             -0.5253    Y=              2.0783    Z=             -0.6684  Tot=              2.2454

 Test job not archived.
 1\1\GINC-SE174\SP\RHF\Aug-CC-pVDZ\C6H9N1\OHZDE\09-Apr-2025\0\\#t hf au
 g-cc-pvdz iop(5/13=1,5/36=2,99/5=2) pseudo=read geom=check guess=(read
 ,tcheck) scf=(maxcycle=1)\\title\\0,1\C,0,1.37115286,-0.68075641,0.969
 18357\C,0,0.58765584,-0.31941256,-0.15368667\C,0,0.64715751,0.55377258
 ,-1.32069061\C,0,-0.02283898,1.24945911,-0.15438101\C,0,-1.27830288,0.
 7899423,0.31268327\N,0,-1.92035424,-0.2759257,-0.35523365\C,0,-0.79716
 598,-0.9413791,0.25882877\H,0,1.40913953,-1.7519789,1.16131491\H,0,-0.
 08877551,-0.70642034,1.46230576\H,0,2.28188483,-0.14516974,1.22431769\

 Normal termination of Gaussian 16 at Wed Apr  9 18:46:55 2025.
