 Gaussian 16, Revision C.01,

 ----------------------------------------------------------------------
 #t hf aug-cc-pvdz symm=none int=(grid=ultrafine) guess=(read,tcheck) s
 table=(opt,rrhf)
 ----------------------------------------------------------------------
 -----
 title
 -----
 Symbolic Z-matrix:
 Charge =  0 Multiplicity = 1

 SCF Done:  E(RHF) =  -302.614084683     A.U. after   16 cycles
 Normal termination of Gaussian 16 at Wed Apr  9 19:30:18 2025.
 Gaussian 16:  ES64L-G16RevC.01  3-Jul-2019

 ----------------------------------------------------------------------
 #t hf aug-cc-pvdz iop(5/13=1,5/36=2,99/5=2) pseudo=read geom=check gue
 ss=(read,tcheck) scf=(maxcycle=1)
 ----------------------------------------------------------------------
 -----
 title
 -----
 Structure from the checkpoint file:  "Grambow2020_wb97xd3_009071_forward_mol1.chk"
 Charge =  0 Multiplicity = 1

                         Standard orientation:
 ---------------------------------------------------------------------
 Center     Atomic      Atomic             Coordinates (Angstroms)
 Number     Number       Type             X           Y           Z
 ---------------------------------------------------------------------
      1          6           0       -2.292137   -0.360588    0.178678
      2          7           0       -0.913463    0.006686   -0.067573
      3          6           0       -0.392508    1.326009    0.272310
      4          6           0        0.889018    1.205612   -0.294094
      5          6           0        1.121433   -0.138107   -0.576861
      6          6           0        1.895415   -0.824840    0.397836
      7          7           0       -0.111223   -0.815369   -0.584333
      8          1           0       -2.563689    0.014244    1.162674
      9          1           0       -2.386694   -1.442080    0.119754
     10          1           0       -2.924734    0.121428   -0.565757
     11          1           0        0.358883    0.434902    1.443812
     12          1           0        1.674545    1.929716   -0.131327
     13          1           0        0.997250   -0.390038    1.458993
     14          1           0        2.787736   -0.346620    0.788500
     15          1           0        1.902176   -1.909297    0.419480
 ---------------------------------------------------------------------

 SCF Done:  E(RHF) =  -304.123443926     A.U. after    2 cycles

 The electronic state is 1-A.
 Alpha  occ. eigenvalues --  -15.85149 -15.81472 -11.46814 -11.42859 -11.41775
 Alpha  occ. eigenvalues --  -11.39302 -11.36076  -1.67898  -1.28775  -1.15733
 Alpha  occ. eigenvalues --   -1.08656  -0.95096  -0.81923  -0.75915  -0.72235
 Alpha  occ. eigenvalues --   -0.68085  -0.61982  -0.61174  -0.58787  -0.54950
 Alpha  occ. eigenvalues --   -0.50548  -0.47158  -0.44578  -0.38574  -0.33878
 Alpha  occ. eigenvalues --   -0.30165
 Alpha virt. eigenvalues --    0.03403   0.04585   0.05451   0.06040   0.06203
 Alpha virt. eigenvalues --    0.06781   0.07531   0.07843   0.08636   0.09648
 Alpha virt. eigenvalues --    0.10422   0.11551   0.12770   0.13259   0.13924

 Mulliken charges:
               1
     1  C   -3.279905
     2  N   -0.867177
     3  C   -1.768327
     4  C    0.721832
     5  C   -0.114976
     6  C   -2.551680
     7  N   -1.466633
     8  H    1.480709
     9  H    1.409194
    10  H    1.425697
    11  H    0.390428
    12  H    1.463028
    13  H    0.601310
    14  H    1.201119
    15  H    1.355385
 Sum of Mulliken charges =   0.00000

 Dipole moment (field-independent basis, Debye):
    X=              0.1927    Y=             -3.0414    Z=              0.1869  Tot=              3.0532

 Test job not archived.
 1\1\GINC-SE145\SP\RHF\Aug-CC-pVDZ\C5H8N2\OHZDE\09-Apr-2025\0\\#t hf au
 g-cc-pvdz iop(5/13=1,5/36=2,99/5=2) pseudo=read geom=check guess=(read
 ,tcheck) scf=(maxcycle=1)\\title\\0,1\C,0,2.23065984,-0.61490225,-0.07
 946031\N,0,0.92968881,-0.07757301,0.25968831\C,0,0.59779593,1.32846157
 ,0.05858819\C,0,-0.66854691,1.34192295,0.66999103\C,0,-1.0868629,0.025
 30125,0.84627152\C,0,-1.98449513,-0.45076702,-0.1478602\N,0,0.03234087
 ,-0.81978884,0.73957102\H,0,2.52250367,-0.19426278,-1.03882356\H,0,2.1
 6694003,-1.69955796,-0.11819875\H,0,2.95097351,-0.29911667,0.6742832\H

 Normal termination of Gaussian 16 at Wed Apr  9 19:30:22 2025.
