 Gaussian 16, Revision C.01,

 ----------------------------------------------------------------------
 #t hf aug-cc-pvdz symm=none int=(grid=ultrafine) guess=(read,tcheck) s
 table=(opt,rrhf)
 ----------------------------------------------------------------------
 -----
 title
 -----
 Symbolic Z-matrix:
 Charge =  0 Multiplicity = 1

 SCF Done:  E(RHF) =  -307.713488212     A.U. after   15 cycles

 1\1\GINC-SE174\Stability\RHF\Aug-CC-pVDZ\C6H10O1\OHZDE\09-Apr-2025\0\\
 #t hf aug-cc-pvdz symm=none int=(grid=ultrafine) guess=(read,tcheck) s
 table=(opt,rrhf)\\title\\0,1\C,0,1.70725212,-0.43574371,-0.26327593\C,
 0,0.62685506,0.18813262,0.5818666\C,0,0.05645858,1.60610539,-0.6315473
 \C,0,-1.02330491,0.83063026,-0.16510931\O,0,-1.51319327,-0.17053774,-0
 .94857254\C,0,-1.2994702,-1.30779637,-0.03106805\C,0,-0.46908844,-0.67
 147098,1.02634858\H,0,2.15572068,-1.23465065,0.33501847\H,0,2.47177223
 ,0.2820021,-0.56060568\H,0,1.28870518,-0.89415301,-1.16050076\H,0,0.98

 Normal termination of Gaussian 16 at Wed Apr  9 19:16:16 2025.
 Gaussian 16:  ES64L-G16RevC.01  3-Jul-2019

 ----------------------------------------------------------------------
 #t hf aug-cc-pvdz iop(5/13=1,5/36=2,99/5=2) pseudo=read geom=check gue
 ss=(read,tcheck) scf=(maxcycle=1)
 ----------------------------------------------------------------------
 -----
 title
 -----
 Structure from the checkpoint file:  "Grambow2020_wb97xd3_008510_forward_mol1.chk"
 Charge =  0 Multiplicity = 1

                         Standard orientation:
 ---------------------------------------------------------------------
 Center     Atomic      Atomic             Coordinates (Angstroms)
 Number     Number       Type             X           Y           Z
 ---------------------------------------------------------------------
      1          6           0        1.688604   -0.915634   -0.547662
      2          6           0        0.880427   -0.319009    0.575563
      3          6           0        0.798830    1.530328   -0.042229
      4          6           0       -0.472254    1.013190    0.276725
      5          8           0       -1.270518    0.541948   -0.721697
      6          6           0       -1.435684   -0.847480   -0.249404
      7          6           0       -0.433794   -0.898409    0.848865
      8          1           0        1.853915   -1.967378   -0.294998
      9          1           0        2.644356   -0.410902   -0.688512
     10          1           0        1.135415   -0.887738   -1.487629
     11          1           0        1.437261   -0.137905    1.487792
     12          1           0        1.248308    2.264506    0.611687
     13          1           0        1.131648    1.482545   -1.066899
     14          1           0       -0.941910    1.361462    1.195180
     15          1           0       -1.265164   -1.474327   -1.131146
     16          1           0       -2.454777   -1.016795    0.106125
     17          1           0       -0.781685   -0.926958    1.870835
 ---------------------------------------------------------------------

 SCF Done:  E(RHF) =  -309.214093416     A.U. after    2 cycles

 The electronic state is 1-A.
 Alpha  occ. eigenvalues --  -21.05582 -11.52149 -11.48026 -11.43583 -11.39203
 Alpha  occ. eigenvalues --  -11.38363 -11.33766  -1.79409  -1.27566  -1.11014
 Alpha  occ. eigenvalues --   -1.04782  -0.92464  -0.84451  -0.76006  -0.71114
 Alpha  occ. eigenvalues --   -0.63388  -0.62698  -0.58780  -0.56844  -0.56446
 Alpha  occ. eigenvalues --   -0.52428  -0.50446  -0.46494  -0.42674  -0.38371
 Alpha  occ. eigenvalues --   -0.32371  -0.20766
 Alpha virt. eigenvalues --    0.03971   0.04748   0.04949   0.05145   0.05558
 Alpha virt. eigenvalues --    0.06255   0.06361   0.06772   0.07990   0.09014
 Alpha virt. eigenvalues --    0.11776   0.12085   0.12990   0.13107   0.14031

 Mulliken charges:
               1
     1  C   -4.124294
     2  C   -0.993323
     3  C   -3.402657
     4  C    1.915867
     5  O   -3.483358
     6  C   -1.956971
     7  C   -1.585863
     8  H    1.201838
     9  H    1.211320
    10  H    1.361798
    11  H    1.622513
    12  H    1.217049
    13  H    1.310643
    14  H    1.662878
    15  H    1.389094
    16  H    1.450687
    17  H    1.202779
 Sum of Mulliken charges =   0.00000

 Dipole moment (field-independent basis, Debye):
    X=              0.5489    Y=              1.2398    Z=              0.2805  Tot=              1.3846

 Test job not archived.
 1\1\GINC-SE174\SP\RHF\Aug-CC-pVDZ\C6H10O1\OHZDE\09-Apr-2025\0\\#t hf a
 ug-cc-pvdz iop(5/13=1,5/36=2,99/5=2) pseudo=read geom=check guess=(rea
 d,tcheck) scf=(maxcycle=1)\\title\\0,1\C,0,1.70725212,-0.43574371,-0.2
 6327593\C,0,0.62685506,0.18813262,0.5818666\C,0,0.05645858,1.60610539,
 -0.6315473\C,0,-1.02330491,0.83063026,-0.16510931\O,0,-1.51319327,-0.1
 7053774,-0.94857254\C,0,-1.2994702,-1.30779637,-0.03106805\C,0,-0.4690
 8844,-0.67147098,1.02634858\H,0,2.15572068,-1.23465065,0.33501847\H,0,
 2.47177223,0.2820021,-0.56060568\H,0,1.28870518,-0.89415301,-1.1605007

 Normal termination of Gaussian 16 at Wed Apr  9 19:16:22 2025.
