 Gaussian 16, Revision C.01,

 ----------------------------------------------------------------------
 #t hf aug-cc-pvdz symm=none int=(grid=ultrafine) guess=(read,tcheck) s
 table=(opt,rrhf)
 ----------------------------------------------------------------------
 -----
 title
 -----
 Symbolic Z-matrix:
 Charge =  0 Multiplicity = 1

 SCF Done:  E(RHF) =  -322.482613834     A.U. after   16 cycles
 Normal termination of Gaussian 16 at Wed Apr  9 18:50:50 2025.
 Gaussian 16:  ES64L-G16RevC.01  3-Jul-2019

 ----------------------------------------------------------------------
 #t hf aug-cc-pvdz iop(5/13=1,5/36=2,99/5=2) pseudo=read geom=check gue
 ss=(read,tcheck) scf=(maxcycle=1)
 ----------------------------------------------------------------------
 -----
 title
 -----
 Structure from the checkpoint file:  "Grambow2020_wb97xd3_007719_forward_mol1.chk"
 Charge =  0 Multiplicity = 1

                         Standard orientation:
 ---------------------------------------------------------------------
 Center     Atomic      Atomic             Coordinates (Angstroms)
 Number     Number       Type             X           Y           Z
 ---------------------------------------------------------------------
      1          6           0       -2.337074    0.384226   -0.180197
      2          7           0       -1.543397   -0.641872   -0.074926
      3          6           0       -0.252589   -0.387097   -0.006628
      4          8           0        0.712728   -1.310153   -0.116026
      5          6           0        1.620878   -0.258832    0.344891
      6          6           0        1.627068    0.939379   -0.531769
      7          6           0        0.491426    0.732407    0.460540
      8          1           0       -2.064600    1.284573   -0.723951
      9          1           0       -3.388151    0.243722    0.055826
     10          1           0       -1.684393    1.534212    1.214360
     11          1           0        2.372815   -0.568562    1.054620
     12          1           0        1.451990    0.832169   -1.598249
     13          1           0        2.363298    1.690538   -0.267926
     14          1           0       -0.847267    1.497189    1.196992
 ---------------------------------------------------------------------

 SCF Done:  E(RHF) =  -323.989498268     A.U. after    2 cycles

 The electronic state is 1-A.
 Alpha  occ. eigenvalues --  -21.09869 -15.76225 -11.51813 -11.48653 -11.47705
 Alpha  occ. eigenvalues --  -11.43212 -11.36240  -1.85571  -1.42776  -1.26875
 Alpha  occ. eigenvalues --   -1.02470  -0.92746  -0.85945  -0.74945  -0.69776
 Alpha  occ. eigenvalues --   -0.68257  -0.64451  -0.59958  -0.54498  -0.53140
 Alpha  occ. eigenvalues --   -0.52110  -0.46914  -0.39371  -0.37123  -0.32532
 Alpha  occ. eigenvalues --   -0.27905
 Alpha virt. eigenvalues --    0.03513   0.04769   0.05146   0.05944   0.06221
 Alpha virt. eigenvalues --    0.07124   0.07314   0.08452   0.10134   0.10944
 Alpha virt. eigenvalues --    0.11285   0.11600   0.12693   0.13537   0.14251

 Mulliken charges:
               1
     1  C   -2.060426
     2  N   -3.204595
     3  C    6.073629
     4  O   -3.384404
     5  C    0.907181
     6  C   -2.825647
     7  C   -2.431897
     8  H    1.479158
     9  H    1.425106
    10  H    0.560527
    11  H    1.363524
    12  H    1.184202
    13  H    1.237813
    14  H   -0.324170
 Sum of Mulliken charges =   0.00000

 Dipole moment (field-independent basis, Debye):
    X=             -0.0924    Y=             -0.0016    Z=             -1.6956  Tot=              1.6981

 Test job not archived.
 1\1\GINC-SE045\SP\RHF\Aug-CC-pVDZ\C5H7N1O1\OHZDE\09-Apr-2025\0\\#t hf
 aug-cc-pvdz iop(5/13=1,5/36=2,99/5=2) pseudo=read geom=check guess=(re
 ad,tcheck) scf=(maxcycle=1)\\title\\0,1\C,0,2.11996049,0.59595053,0.54
 522313\N,0,1.57282574,-0.58243524,0.46819677\C,0,0.29690238,-0.6223604
 2,0.14233371\O,0,-0.47748741,-1.71262228,0.22886147\C,0,-1.45891615,-0
 .94416848,-0.5384287\C,0,-1.86677169,0.31927146,0.1261431\C,0,-0.53843
 5,0.2468933,-0.61377581\H,0,1.57883319,1.47389883,0.88716174\H,0,3.204
 1233,0.65895068,0.51635208\H,0,1.55086743,1.40507154,-1.10241313\H,0,-

 Normal termination of Gaussian 16 at Wed Apr  9 18:50:54 2025.
