 Gaussian 16, Revision C.01,

 ----------------------------------------------------------------------
 #t hf aug-cc-pvdz symm=none int=(grid=ultrafine) guess=(read,tcheck) s
 table=(opt,rrhf)
 ----------------------------------------------------------------------
 -----
 title
 -----
 Symbolic Z-matrix:
 Charge =  0 Multiplicity = 1

 SCF Done:  E(RHF) =  -344.913288286     A.U. after   12 cycles

 1\1\GINC-SE112\Stability\RHF\Aug-CC-pVDZ\C5H10O2\OHZDE\09-Apr-2025\0\\
 #t hf aug-cc-pvdz symm=none int=(grid=ultrafine) guess=(read,tcheck) s
 table=(opt,rrhf)\\title\\0,1\O,0,-0.05342211,-1.18232975,1.15396026\C,
 0,1.12382292,-1.24464459,0.35431528\C,0,0.93144662,-0.23404353,-0.7931
 4236\C,0,-0.50336257,0.28896421,-0.59066797\C,0,-1.10694199,-0.8100612
 7,0.28171214\O,0,0.23911116,1.69112268,1.28776671\C,0,-0.5367496,1.645
 73437,0.10885344\H,0,0.10747243,0.86571992,1.76706754\H,0,1.24882345,-
 2.26374267,-0.02915995\H,0,1.9701299,-1.0092039,0.9992401\H,0,1.038337

 Normal termination of Gaussian 16 at Wed Apr  9 18:41:43 2025.
 Gaussian 16:  ES64L-G16RevC.01  3-Jul-2019

 ----------------------------------------------------------------------
 #t hf aug-cc-pvdz iop(5/13=1,5/36=2,99/5=2) pseudo=read geom=check gue
 ss=(read,tcheck) scf=(maxcycle=1)
 ----------------------------------------------------------------------
 -----
 title
 -----
 Structure from the checkpoint file:  "Grambow2020_wb97xd3_007543_reverse_mol2.chk"
 Charge =  0 Multiplicity = 1

                         Standard orientation:
 ---------------------------------------------------------------------
 Center     Atomic      Atomic             Coordinates (Angstroms)
 Number     Number       Type             X           Y           Z
 ---------------------------------------------------------------------
      1          8           0        1.090358    0.789419   -0.683779
      2          6           0        1.506723   -0.564731   -0.534987
      3          6           0        0.569371   -1.202057    0.509124
      4          6           0       -0.311466   -0.029947    0.981877
      5          6           0        0.531625    1.172386    0.561395
      6          8           0       -1.618742   -0.132159   -1.098127
      7          6           0       -1.681581   -0.020716    0.308105
      8          1           0       -0.891417    0.416517   -1.411658
      9          1           0        2.550321   -0.589169   -0.201003
     10          1           0        1.444012   -1.035842   -1.515659
     11          1           0        1.139570   -1.623349    1.337144
     12          1           0       -0.035032   -1.996549    0.072973
     13          1           0       -0.462491   -0.044723    2.063696
     14          1           0        1.326542    1.377643    1.291647
     15          1           0       -0.042427    2.087854    0.406795
     16          1           0       -2.219776    0.892502    0.600293
     17          1           0       -2.270269   -0.872573    0.657930
 ---------------------------------------------------------------------

 SCF Done:  E(RHF) =  -346.504999253     A.U. after    2 cycles

 The electronic state is 1-A.
 Alpha  occ. eigenvalues --  -21.05370 -21.04573 -11.49848 -11.43230 -11.43161
 Alpha  occ. eigenvalues --  -11.39756 -11.36110  -1.77774  -1.69881  -1.21715
 Alpha  occ. eigenvalues --   -1.08625  -0.96694  -0.85825  -0.81125  -0.69892
 Alpha  occ. eigenvalues --   -0.68736  -0.64514  -0.60121  -0.56324  -0.54346
 Alpha  occ. eigenvalues --   -0.49964  -0.49703  -0.45583  -0.45003  -0.39385
 Alpha  occ. eigenvalues --   -0.38138  -0.31381  -0.28827
 Alpha virt. eigenvalues --    0.03844   0.04651   0.04992   0.05212   0.05443
 Alpha virt. eigenvalues --    0.05694   0.06599   0.07588   0.07773   0.09446
 Alpha virt. eigenvalues --    0.12032   0.12281   0.13209   0.13789   0.14247

 Mulliken charges:
               1
     1  O   -2.686119
     2  C   -1.170581
     3  C   -3.041434
     4  C   -2.202904
     5  C   -1.484948
     6  O   -2.711129
     7  C   -0.777740
     8  H    1.001949
     9  H    1.357895
    10  H    1.464738
    11  H    1.263129
    12  H    1.528553
    13  H    1.685394
    14  H    1.466050
    15  H    1.512691
    16  H    1.374365
    17  H    1.420092
 Sum of Mulliken charges =   0.00000

 Dipole moment (field-independent basis, Debye):
    X=              0.5123    Y=             -0.1797    Z=              1.0250  Tot=              1.1599

 Test job not archived.
 1\1\GINC-SE112\SP\RHF\Aug-CC-pVDZ\C5H10O2\OHZDE\09-Apr-2025\0\\#t hf a
 ug-cc-pvdz iop(5/13=1,5/36=2,99/5=2) pseudo=read geom=check guess=(rea
 d,tcheck) scf=(maxcycle=1)\\title\\0,1\O,0,-0.05342211,-1.18232975,1.1
 5396026\C,0,1.12382292,-1.24464459,0.35431528\C,0,0.93144662,-0.234043
 53,-0.79314236\C,0,-0.50336257,0.28896421,-0.59066797\C,0,-1.10694199,
 -0.81006127,0.28171214\O,0,0.23911116,1.69112268,1.28776671\C,0,-0.536
 7496,1.64573437,0.10885344\H,0,0.10747243,0.86571992,1.76706754\H,0,1.
 24882345,-2.26374267,-0.02915995\H,0,1.9701299,-1.0092039,0.9992401\H,

 Normal termination of Gaussian 16 at Wed Apr  9 18:41:49 2025.
