 Gaussian 16, Revision C.01,

 ----------------------------------------------------------------------
 #t hf aug-cc-pvdz symm=none int=(grid=ultrafine) guess=(read,tcheck) s
 table=(opt,rrhf)
 ----------------------------------------------------------------------
 -----
 title
 -----
 Symbolic Z-matrix:
 Charge =  0 Multiplicity = 1

 SCF Done:  E(RHF) =  -354.602358556     A.U. after   16 cycles
 Normal termination of Gaussian 16 at Wed Apr  9 03:40:13 2025.
 Gaussian 16:  ES64L-G16RevC.01  3-Jul-2019

 ----------------------------------------------------------------------
 #t hf aug-cc-pvdz iop(5/13=1,5/36=2,99/5=2) pseudo=read geom=check gue
 ss=(read,tcheck) scf=(maxcycle=1)
 ----------------------------------------------------------------------
 -----
 title
 -----
 Structure from the checkpoint file:  "Grambow2020_wb97xd3_007473_forward_mol1.chk"
 Charge =  0 Multiplicity = 1

                         Standard orientation:
 ---------------------------------------------------------------------
 Center     Atomic      Atomic             Coordinates (Angstroms)
 Number     Number       Type             X           Y           Z
 ---------------------------------------------------------------------
      1          7           0        2.239722   -0.580489   -0.413670
      2          6           0        1.001565   -0.300098   -0.085845
      3          6           0       -1.587329   -1.546494    0.011258
      4          7           0       -1.578200   -0.254724   -0.096995
      5          6           0       -0.396851    0.610456   -0.015929
      6          8           0       -0.502490    1.757231   -0.422281
      7          7           0        0.546312    0.201652    1.041358
      8          1           0        3.008479   -0.486141    0.234656
      9          1           0        2.435266   -0.973468   -1.316156
     10          1           0       -2.637820   -1.862587   -0.113098
     11          1           0       -2.382298    0.330362   -0.312051
     12          1           0        1.037146    0.785729    1.713142
 ---------------------------------------------------------------------

 SCF Done:  E(RHF) =  -356.183555251     A.U. after    2 cycles

 The electronic state is 1-A.
 Alpha  occ. eigenvalues --  -21.00012 -15.82671 -15.78726 -15.78537 -11.55474
 Alpha  occ. eigenvalues --  -11.47291 -11.37842  -1.71270  -1.50178  -1.39425
 Alpha  occ. eigenvalues --   -1.33942  -0.93627  -0.89075  -0.83183  -0.74191
 Alpha  occ. eigenvalues --   -0.69079  -0.64734  -0.61218  -0.59770  -0.49403
 Alpha  occ. eigenvalues --   -0.48440  -0.41692  -0.39697  -0.34186  -0.28863
 Alpha  occ. eigenvalues --   -0.26907
 Alpha virt. eigenvalues --    0.02651   0.04610   0.05145   0.05805   0.07273
 Alpha virt. eigenvalues --    0.09989   0.10534   0.11619   0.12014   0.12280
 Alpha virt. eigenvalues --    0.13311   0.14077   0.14664   0.16024   0.16436

 Mulliken charges:
               1
     1  N   -3.075978
     2  C    1.939639
     3  C   -1.628458
     4  N   -2.178901
     5  C    6.897298
     6  O   -3.752805
     7  N   -2.533393
     8  H    0.572409
     9  H    0.809351
    10  H    1.510447
    11  H    0.663896
    12  H    0.776494
 Sum of Mulliken charges =   0.00000

 Dipole moment (field-independent basis, Debye):
    X=              3.2249    Y=              0.1896    Z=              0.6844  Tot=              3.3022

 Test job not archived.
 1\1\GINC-SE049\SP\RHF\Aug-CC-pVDZ\C3H5N3O1\OHZDE\09-Apr-2025\0\\#t hf
 aug-cc-pvdz iop(5/13=1,5/36=2,99/5=2) pseudo=read geom=check guess=(re
 ad,tcheck) scf=(maxcycle=1)\\title\\0,1\N,0,2.07972632,-0.74851319,0.3
 3050702\C,0,0.83643105,-0.39160642,0.11613334\C,0,-0.70034083,1.944050
 12,-0.5534519\N,0,-1.33250102,1.00543188,0.07887695\C,0,-0.80948754,-0
 .32822962,0.39271987\O,0,-1.40049156,-0.98778937,1.23359395\N,0,-0.035
 73848,-0.91985092,-0.71445225\H,0,2.53580444,-1.47631006,-0.20101753\H
 ,0,2.6328647,-0.23868994,0.99478904\H,0,-1.38690814,2.80751688,-0.5977

 Normal termination of Gaussian 16 at Wed Apr  9 03:40:17 2025.
