 Gaussian 16, Revision C.01,

 ----------------------------------------------------------------------
 #t hf aug-cc-pvdz symm=none int=(grid=ultrafine) guess=(read,tcheck) s
 table=(opt,rrhf)
 ----------------------------------------------------------------------
 -----
 title
 -----
 Symbolic Z-matrix:
 Charge =  0 Multiplicity = 1

 SCF Done:  E(RHF) =  -339.352065596     A.U. after   16 cycles
 Normal termination of Gaussian 16 at Wed Apr  9 16:28:39 2025.
 Gaussian 16:  ES64L-G16RevC.01  3-Jul-2019

 ----------------------------------------------------------------------
 #t hf aug-cc-pvdz iop(5/13=1,5/36=2,99/5=2) pseudo=read geom=check gue
 ss=(read,tcheck) scf=(maxcycle=1)
 ----------------------------------------------------------------------
 -----
 title
 -----
 Structure from the checkpoint file:  "Grambow2020_b97d3_006811_forward_mol2.chk"
 Charge =  0 Multiplicity = 1

                         Standard orientation:
 ---------------------------------------------------------------------
 Center     Atomic      Atomic             Coordinates (Angstroms)
 Number     Number       Type             X           Y           Z
 ---------------------------------------------------------------------
      1          8           0        1.504205   -1.215829    0.216707
      2          6           0        1.327689   -0.077746   -0.164978
      3          6           0       -0.000558    0.679963    0.000944
      4          8           0       -0.004145    1.902465   -0.004915
      5          6           0       -1.324191   -0.083488    0.175107
      6          8           0       -1.503283   -1.215061   -0.224339
      7          1           0        2.132126    0.565740   -0.594043
      8          1           0       -2.123992    0.549275    0.627981
 ---------------------------------------------------------------------

 SCF Done:  E(RHF) =  -340.740444355     A.U. after    2 cycles

 The electronic state is 1-A.
 Alpha  occ. eigenvalues --  -21.13424 -21.11813 -21.11779 -11.54794 -11.52044
 Alpha  occ. eigenvalues --  -11.50068  -1.78560  -1.73645  -1.73421  -1.06226
 Alpha  occ. eigenvalues --   -0.95755  -0.79432  -0.66460  -0.62765  -0.58756
 Alpha  occ. eigenvalues --   -0.55901  -0.53722  -0.48281  -0.43279  -0.39749
 Alpha  occ. eigenvalues --   -0.36756  -0.28911
 Alpha virt. eigenvalues --    0.03088   0.05548   0.07310   0.08887   0.09030
 Alpha virt. eigenvalues --    0.10494   0.10665   0.11403   0.12171   0.12766
 Alpha virt. eigenvalues --    0.13984   0.14151   0.15493   0.15852   0.18851

 Mulliken charges:
               1
     1  O   -2.545110
     2  C    0.924350
     3  C    3.091715
     4  O   -3.099780
     5  C    0.932605
     6  O   -2.535051
     7  H    1.618664
     8  H    1.612608
 Sum of Mulliken charges =   0.00000

 Dipole moment (field-independent basis, Debye):
    X=              0.0062    Y=              0.3643    Z=              0.0171  Tot=              0.3648

 Test job not archived.
 1\1\GINC-SE162\SP\RHF\Aug-CC-pVDZ\C3H2O3\OHZDE\09-Apr-2025\0\\#t hf au
 g-cc-pvdz iop(5/13=1,5/36=2,99/5=2) pseudo=read geom=check guess=(read
 ,tcheck) scf=(maxcycle=1)\\title\\0,1\O,0,-1.42931222,-0.44831827,1.37
 632698\C,0,-0.98155986,0.51007126,0.78212039\C,0,0.04133158,0.40148403
 ,-0.36146851\O,0,0.13399338,1.30673941,-1.17785306\C,0,0.94824108,-0.8
 3393046,-0.48976261\O,0,1.24830644,-1.5456692,0.44590705\H,0,-1.329067
 28,1.55839017,0.94197704\H,0,1.36806687,-0.94876694,-1.51724728\\Versi
 on=ES64L-G16RevC.01\State=1-A\HF=-340.7404444\RMSD=1.614e-01\Dipole=0.

 Normal termination of Gaussian 16 at Wed Apr  9 16:28:42 2025.
