 Gaussian 16, Revision C.01,

 ----------------------------------------------------------------------
 #t hf aug-cc-pvdz symm=none int=(grid=ultrafine) guess=(read,tcheck) s
 table=(opt,rrhf)
 ----------------------------------------------------------------------
 -----
 title
 -----
 Symbolic Z-matrix:
 Charge =  0 Multiplicity = 1

 SCF Done:  E(RHF) =  -308.904612744     A.U. after   15 cycles

 1\1\GINC-SE104\Stability\RHF\Aug-CC-pVDZ\C6H12O1\OHZDE\09-Apr-2025\0\\
 #t hf aug-cc-pvdz symm=none int=(grid=ultrafine) guess=(read,tcheck) s
 table=(opt,rrhf)\\title\\0,1\C,0,1.97175334,-0.4739254,-0.73807596\C,0
 ,1.01454178,0.15331884,0.13705133\O,0,1.25721431,0.25540004,1.45896441
 \C,0,0.0918582,1.22533474,-0.36775084\C,0,-1.29136956,1.08606741,0.251
 90734\C,0,-1.751917,-0.33705106,-0.06468303\C,0,-0.60705475,-1.2785165
 1,0.24719693\H,0,2.77754641,-1.03386857,-0.27776488\H,0,2.15387504,-0.
 01348487,-1.69848936\H,0,0.72401985,-1.09713515,-0.4729491\H,0,2.06573

 Normal termination of Gaussian 16 at Wed Apr  9 19:21:31 2025.
 Gaussian 16:  ES64L-G16RevC.01  3-Jul-2019

 ----------------------------------------------------------------------
 #t hf aug-cc-pvdz iop(5/13=1,5/36=2,99/5=2) pseudo=read geom=check gue
 ss=(read,tcheck) scf=(maxcycle=1)
 ----------------------------------------------------------------------
 -----
 title
 -----
 Structure from the checkpoint file:  "Grambow2020_wb97xd3_008666_reverse_mol1.chk"
 Charge =  0 Multiplicity = 1

                         Standard orientation:
 ---------------------------------------------------------------------
 Center     Atomic      Atomic             Coordinates (Angstroms)
 Number     Number       Type             X           Y           Z
 ---------------------------------------------------------------------
      1          6           0       -1.893976    0.411700   -0.883082
      2          6           0       -0.896763   -0.172897   -0.023228
      3          8           0       -1.150646   -0.372179    1.285434
      4          6           0        0.130660   -1.124219   -0.566163
      5          6           0        1.484268   -0.892796    0.090250
      6          6           0        1.814448    0.582614   -0.137227
      7          6           0        0.581300    1.394546    0.201079
      8          1           0       -2.756260    0.867366   -0.410261
      9          1           0       -2.016166   -0.008186   -1.871178
     10          1           0       -0.714777    1.131820   -0.556832
     11          1           0       -2.003819    0.018369    1.493977
     12          1           0       -0.258952   -2.129827   -0.390491
     13          1           0        0.204830   -0.973226   -1.645023
     14          1           0        1.413708   -1.106271    1.160266
     15          1           0        2.242658   -1.558741   -0.326758
     16          1           0        2.075715    0.725997   -1.191120
     17          1           0        2.695185    0.877911    0.442120
     18          1           0        0.536458    2.346636   -0.344478
     19          1           0        0.466960    1.591899    1.266529
 ---------------------------------------------------------------------

 SCF Done:  E(RHF) =  -310.449352369     A.U. after    2 cycles

 The electronic state is 1-A.
 Alpha  occ. eigenvalues --  -21.11759 -11.53959 -11.42987 -11.41798 -11.36658
 Alpha  occ. eigenvalues --  -11.34714 -11.32842  -1.78783  -1.29112  -1.12456
 Alpha  occ. eigenvalues --   -1.06012  -0.92883  -0.82285  -0.79776  -0.69706
 Alpha  occ. eigenvalues --   -0.64912  -0.61879  -0.59735  -0.58247  -0.56270
 Alpha  occ. eigenvalues --   -0.50479  -0.48371  -0.46526  -0.45248  -0.43745
 Alpha  occ. eigenvalues --   -0.43127  -0.35842  -0.22989
 Alpha virt. eigenvalues --    0.04018   0.05001   0.05266   0.05387   0.05686
 Alpha virt. eigenvalues --    0.05846   0.06161   0.06824   0.07139   0.08491
 Alpha virt. eigenvalues --    0.08794   0.09898   0.12240   0.13187   0.13529

 Mulliken charges:
               1
     1  C   -3.987845
     2  C    4.260092
     3  O   -3.791583
     4  C   -3.701034
     5  C   -2.848977
     6  C   -2.781809
     7  C   -3.985123
     8  H    1.125482
     9  H    1.245971
    10  H    3.685440
    11  H    0.661500
    12  H    1.347075
    13  H    1.465590
    14  H    1.465006
    15  H    1.250115
    16  H    1.393620
    17  H    1.301045
    18  H    0.568329
    19  H    1.327106
 Sum of Mulliken charges =  -0.00000

 Dipole moment (field-independent basis, Debye):
    X=              0.1681    Y=             -1.3672    Z=              1.0377  Tot=              1.7246

 Test job not archived.
 1\1\GINC-SE104\SP\RHF\Aug-CC-pVDZ\C6H12O1\OHZDE\09-Apr-2025\0\\#t hf a
 ug-cc-pvdz iop(5/13=1,5/36=2,99/5=2) pseudo=read geom=check guess=(rea
 d,tcheck) scf=(maxcycle=1)\\title\\0,1\C,0,1.97175334,-0.4739254,-0.73
 807596\C,0,1.01454178,0.15331884,0.13705133\O,0,1.25721431,0.25540004,
 1.45896441\C,0,0.0918582,1.22533474,-0.36775084\C,0,-1.29136956,1.0860
 6741,0.25190734\C,0,-1.751917,-0.33705106,-0.06468303\C,0,-0.60705475,
 -1.27851651,0.24719693\H,0,2.77754641,-1.03386857,-0.27776488\H,0,2.15
 387504,-0.01348487,-1.69848936\H,0,0.72401985,-1.09713515,-0.4729491\H

 Normal termination of Gaussian 16 at Wed Apr  9 19:21:38 2025.
