 Gaussian 16, Revision C.01,

 ----------------------------------------------------------------------
 #t hf aug-cc-pvdz symm=none int=(grid=ultrafine) guess=(read,tcheck) s
 table=(opt,rrhf)
 ----------------------------------------------------------------------
 -----
 title
 -----
 Symbolic Z-matrix:
 Charge =  0 Multiplicity = 1

 SCF Done:  E(RHF) =  -305.641299379     A.U. after   15 cycles
 Normal termination of Gaussian 16 at Wed Apr  9 17:51:29 2025.
 Gaussian 16:  ES64L-G16RevC.01  3-Jul-2019

 ----------------------------------------------------------------------
 #t hf aug-cc-pvdz iop(5/13=1,5/36=2,99/5=2) pseudo=read geom=check gue
 ss=(read,tcheck) scf=(maxcycle=1)
 ----------------------------------------------------------------------
 -----
 title
 -----
 Structure from the checkpoint file:  "Grambow2020_wb97xd3_006215_reverse_mol1.chk"
 Charge =  0 Multiplicity = 1

                         Standard orientation:
 ---------------------------------------------------------------------
 Center     Atomic      Atomic             Coordinates (Angstroms)
 Number     Number       Type             X           Y           Z
 ---------------------------------------------------------------------
      1          6           0        1.737478    0.163978    0.303078
      2          8           0        1.107079   -0.442553   -0.608215
      3          6           0       -0.172008   -0.970974   -0.418611
      4          6           0       -0.893642   -0.780273    0.869610
      5          6           0       -1.255543    0.203034   -0.234374
      6          8           0       -0.788218    1.409394   -0.298748
      7          1           0        1.521704   -0.027042    1.343373
      8          1           0        1.007673    1.928148    1.090195
      9          1           0        2.652727    0.648029   -0.009770
     10          1           0       -0.317879   -1.817023   -1.071730
     11          1           0       -0.385707   -0.390149    1.741921
     12          1           0       -1.610677   -1.558467    1.100154
     13          1           0       -2.210694   -0.022390   -0.723148
     14          1           0        0.294255    1.809579    0.666494
 ---------------------------------------------------------------------

 SCF Done:  E(RHF) =  -307.059468321     A.U. after    2 cycles

 The electronic state is 1-A.
 Alpha  occ. eigenvalues --  -21.19257 -20.93818 -11.56127 -11.44586 -11.42456
 Alpha  occ. eigenvalues --  -11.37696  -1.90592  -1.61278  -1.22850  -1.04094
 Alpha  occ. eigenvalues --   -0.85201  -0.82730  -0.76042  -0.69655  -0.65609
 Alpha  occ. eigenvalues --   -0.62557  -0.55434  -0.54364  -0.51383  -0.45191
 Alpha  occ. eigenvalues --   -0.40532  -0.38775  -0.23261  -0.21070
 Alpha virt. eigenvalues --    0.02436   0.04461   0.04514   0.05230   0.06305
 Alpha virt. eigenvalues --    0.06678   0.07546   0.08459   0.10600   0.11477
 Alpha virt. eigenvalues --    0.11631   0.12319   0.13151   0.13784   0.14240

 Mulliken charges:
               1
     1  C   -1.465095
     2  O   -3.584605
     3  C    0.910683
     4  C   -3.054821
     5  C    1.952862
     6  O   -3.116696
     7  H    1.655448
     8  H    0.025090
     9  H    1.553983
    10  H    1.365820
    11  H    1.337268
    12  H    1.185974
    13  H    1.378121
    14  H   -0.144033
 Sum of Mulliken charges =  -0.00000

 Dipole moment (field-independent basis, Debye):
    X=              2.4334    Y=             -3.6726    Z=              0.0040  Tot=              4.4056

 Test job not archived.
 1\1\GINC-SE229\SP\RHF\Aug-CC-pVDZ\C4H8O2\OHZDE\09-Apr-2025\0\\#t hf au
 g-cc-pvdz iop(5/13=1,5/36=2,99/5=2) pseudo=read geom=check guess=(read
 ,tcheck) scf=(maxcycle=1)\\title\\0,1\C,0,1.26109055,-0.27861912,-1.07
 089844\O,0,0.06766859,-0.63907443,-1.27474183\C,0,-0.85421722,-0.81838
 843,-0.24071298\C,0,-0.48576138,-0.52086416,1.17079458\C,0,-1.23066679
 ,0.58831127,0.44175902\O,0,-0.64753404,1.62832707,-0.06436713\H,0,1.73
 949555,-0.46796178,-0.12193099\H,0,1.67400121,1.56512728,-0.23749023\H
 ,0,1.83047714,-0.03766168,-1.95836562\H,0,-1.58844626,-1.55389336,-0.5

 Normal termination of Gaussian 16 at Wed Apr  9 17:51:33 2025.
