 Gaussian 16, Revision C.01,

 ----------------------------------------------------------------------
 #t hf aug-cc-pvdz symm=none int=(grid=ultrafine) guess=(read,tcheck) s
 table=(opt,rrhf)
 ----------------------------------------------------------------------
 -----
 title
 -----
 Symbolic Z-matrix:
 Charge =  0 Multiplicity = 1

 SCF Done:  E(RHF) =  -344.681831647     A.U. after   15 cycles

 1\1\GINC-SE165\Stability\RHF\Aug-CC-pVDZ\C5H10O2\OHZDE\09-Apr-2025\0\\
 #t hf aug-cc-pvdz symm=none int=(grid=ultrafine) guess=(read,tcheck) s
 table=(opt,rrhf)\\title\\0,1\C,0,2.02448894,-0.01985966,-0.77616295\C,
 0,0.83949686,0.37695726,0.07594074\O,0,0.0641891,1.3363638,-0.6185541\
 C,0,-1.24350061,1.3694888,-0.05433976\C,0,-1.46553077,-0.01644478,0.59
 218002\C,0,-0.18139727,-0.69947394,0.38186916\O,0,0.05038258,-1.931002
 93,-0.0053462\H,0,2.62074936,0.86401955,-0.9966217\H,0,1.7013947,-0.43
 905799,-1.73263804\H,0,2.66903312,-0.73080549,-0.25386017\H,0,1.199129

 Normal termination of Gaussian 16 at Wed Apr  9 03:39:44 2025.
 Gaussian 16:  ES64L-G16RevC.01  3-Jul-2019

 ----------------------------------------------------------------------
 #t hf aug-cc-pvdz iop(5/13=1,5/36=2,99/5=2) pseudo=read geom=check gue
 ss=(read,tcheck) scf=(maxcycle=1)
 ----------------------------------------------------------------------
 -----
 title
 -----
 Structure from the checkpoint file:  "Grambow2020_wb97xd3_007406_forward_mol1.chk"
 Charge =  0 Multiplicity = 1

                         Standard orientation:
 ---------------------------------------------------------------------
 Center     Atomic      Atomic             Coordinates (Angstroms)
 Number     Number       Type             X           Y           Z
 ---------------------------------------------------------------------
      1          6           0       -2.041020   -0.631838   -0.032632
      2          6           0       -0.613014   -0.506980    0.450026
      3          8           0        0.209087   -1.392971   -0.286897
      4          6           0        1.564254   -0.968888   -0.172161
      5          6           0        1.514188    0.545551    0.131258
      6          6           0        0.074870    0.824838    0.231853
      7          8           0       -0.612537    1.828218   -0.259087
      8          1           0       -2.376039   -1.659492    0.097982
      9          1           0       -2.120591   -0.398428   -1.097597
     10          1           0       -2.712411    0.009746    0.542942
     11          1           0       -0.567647   -0.748871    1.524846
     12          1           0        2.064054   -1.193967   -1.113533
     13          1           0        2.060525   -1.522766    0.632204
     14          1           0        2.072308    0.778657    1.030902
     15          1           0        1.894469    1.332286   -0.570477
     16          1           0        1.419403    2.826424    0.162183
     17          1           0       -1.502139    1.518339   -0.491641
 ---------------------------------------------------------------------

 SCF Done:  E(RHF) =  -346.269518721     A.U. after    2 cycles

 The electronic state is 1-A.
 Alpha  occ. eigenvalues --  -21.18364 -21.08286 -11.58578 -11.50138 -11.47424
 Alpha  occ. eigenvalues --  -11.43268 -11.40357  -1.85609  -1.79379  -1.20991
 Alpha  occ. eigenvalues --   -1.18946  -1.02200  -0.90029  -0.82866  -0.75520
 Alpha  occ. eigenvalues --   -0.70068  -0.66107  -0.64933  -0.57884  -0.57478
 Alpha  occ. eigenvalues --   -0.56106  -0.53870  -0.51456  -0.47833  -0.46403
 Alpha  occ. eigenvalues --   -0.40492  -0.33548  -0.22570
 Alpha virt. eigenvalues --    0.02552   0.03928   0.04121   0.04536   0.04644
 Alpha virt. eigenvalues --    0.05381   0.06201   0.06692   0.07848   0.08065
 Alpha virt. eigenvalues --    0.10221   0.11243   0.11421   0.11925   0.12371

 Mulliken charges:
               1
     1  C   -3.455185
     2  C   -0.363620
     3  O   -3.226127
     4  C   -1.526730
     5  C   -2.619548
     6  C    3.830246
     7  O   -3.356180
     8  H    1.089560
     9  H    1.222188
    10  H    1.119346
    11  H    1.799233
    12  H    1.365793
    13  H    1.333891
    14  H    1.477177
    15  H    1.247042
    16  H   -0.783829
    17  H    0.846743
 Sum of Mulliken charges =  -0.00000

 Dipole moment (field-independent basis, Debye):
    X=             -4.6823    Y=             -5.9501    Z=             -0.4385  Tot=              7.5842

 Test job not archived.
 1\1\GINC-SE165\SP\RHF\Aug-CC-pVDZ\C5H10O2\OHZDE\09-Apr-2025\0\\#t hf a
 ug-cc-pvdz iop(5/13=1,5/36=2,99/5=2) pseudo=read geom=check guess=(rea
 d,tcheck) scf=(maxcycle=1)\\title\\0,1\C,0,2.02448894,-0.01985966,-0.7
 7616295\C,0,0.83949686,0.37695726,0.07594074\O,0,0.0641891,1.3363638,-
 0.6185541\C,0,-1.24350061,1.3694888,-0.05433976\C,0,-1.46553077,-0.016
 44478,0.59218002\C,0,-0.18139727,-0.69947394,0.38186916\O,0,0.05038258
 ,-1.93100293,-0.0053462\H,0,2.62074936,0.86401955,-0.9966217\H,0,1.701
 3947,-0.43905799,-1.73263804\H,0,2.66903312,-0.73080549,-0.25386017\H,

 Normal termination of Gaussian 16 at Wed Apr  9 03:39:50 2025.
