 Gaussian 16, Revision C.01,

 ----------------------------------------------------------------------
 #t hf aug-cc-pvdz symm=none int=(grid=ultrafine) guess=(read,tcheck) s
 table=(opt,rrhf)
 ----------------------------------------------------------------------
 -----
 title
 -----
 Symbolic Z-matrix:
 Charge =  0 Multiplicity = 1

 SCF Done:  E(RHF) =  -343.647747979     A.U. after   14 cycles
 Normal termination of Gaussian 16 at Wed Apr  9 18:31:28 2025.
 Gaussian 16:  ES64L-G16RevC.01  3-Jul-2019

 ----------------------------------------------------------------------
 #t hf aug-cc-pvdz iop(5/13=1,5/36=2,99/5=2) pseudo=read geom=check gue
 ss=(read,tcheck) scf=(maxcycle=1)
 ----------------------------------------------------------------------
 -----
 title
 -----
 Structure from the checkpoint file:  "Grambow2020_wb97xd3_007221_reverse_mol2.chk"
 Charge =  0 Multiplicity = 1

                         Standard orientation:
 ---------------------------------------------------------------------
 Center     Atomic      Atomic             Coordinates (Angstroms)
 Number     Number       Type             X           Y           Z
 ---------------------------------------------------------------------
      1          8           0        2.538464   -0.025903    0.009370
      2          6           0        1.852446   -1.113117   -0.063990
      3          6           0       -1.318311    0.041496   -1.082949
      4          6           0       -1.816554   -0.958837   -0.009094
      5          6           0       -1.234496   -0.056449    1.108101
      6          6           0       -0.517197    0.713794    0.015605
      7          8           0        0.370861    1.528960    0.017037
      8          1           0        1.912482    0.735606    0.034027
      9          1           0       -0.741435   -0.342262   -1.922338
     10          1           0        2.623311   -1.915668   -0.085944
     11          1           0       -2.100971    0.708316   -1.453511
     12          1           0       -2.889986   -1.131744    0.025757
     13          1           0       -1.287972   -1.907164   -0.072314
     14          1           0       -0.599842   -0.508556    1.867693
     15          1           0       -1.985516    0.575686    1.589344
 ---------------------------------------------------------------------

 SCF Done:  E(RHF) =  -345.202571641     A.U. after    2 cycles

 The electronic state is 1-A.
 Alpha  occ. eigenvalues --  -21.12755 -21.06208 -11.52778 -11.45464 -11.41097
 Alpha  occ. eigenvalues --  -11.40588 -11.36798  -1.78105  -1.72254  -1.31568
 Alpha  occ. eigenvalues --   -0.99288  -0.91142  -0.86658  -0.75203  -0.67481
 Alpha  occ. eigenvalues --   -0.62923  -0.58843  -0.58059  -0.56249  -0.56163
 Alpha  occ. eigenvalues --   -0.51145  -0.45606  -0.45126  -0.44347  -0.40498
 Alpha  occ. eigenvalues --   -0.32421  -0.28999
 Alpha virt. eigenvalues --    0.03899   0.04985   0.05367   0.05505   0.06073
 Alpha virt. eigenvalues --    0.06335   0.06788   0.08179   0.10817   0.10874
 Alpha virt. eigenvalues --    0.12178   0.12207   0.13380   0.13420   0.14401

 Mulliken charges:
               1
     1  O   -2.559448
     2  C   -0.669235
     3  C   -3.207553
     4  C   -2.687400
     5  C   -3.227870
     6  C    4.411099
     7  O   -3.536812
     8  H    1.599527
     9  H    1.429981
    10  H    1.589540
    11  H    1.340243
    12  H    1.270046
    13  H    1.439897
    14  H    1.469852
    15  H    1.338133
 Sum of Mulliken charges =   0.00000

 Dipole moment (field-independent basis, Debye):
    X=             -0.0797    Y=              0.1788    Z=              0.0867  Tot=              0.2141

 Test job not archived.
 1\1\GINC-SE174\SP\RHF\Aug-CC-pVDZ\C5H8O2\OHZDE\09-Apr-2025\0\\#t hf au
 g-cc-pvdz iop(5/13=1,5/36=2,99/5=2) pseudo=read geom=check guess=(read
 ,tcheck) scf=(maxcycle=1)\\title\\0,1\O,0,2.53811434,-1.18635273,-0.68
 231353\C,0,2.21620471,0.05318812,-0.81628833\C,0,-0.6479675,0.3318101,
 1.2193925\C,0,-1.1871199,1.15172867,0.01975611\C,0,-1.24546503,-0.1361
 074,-0.84006583\C,0,-0.44126832,-0.81723384,0.2511141\O,0,0.15798952,-
 1.86120853,0.31555363\H,0,1.76303102,-1.67055325,-0.31197185\H,0,0.244
 92794,0.68601589,1.73115938\H,0,3.13313637,0.52458851,-1.23560058\H,0,

 Normal termination of Gaussian 16 at Wed Apr  9 18:31:33 2025.
