 Gaussian 16, Revision C.01,

 ----------------------------------------------------------------------
 #t hf aug-cc-pvdz symm=none int=(grid=ultrafine) guess=(read,tcheck) s
 table=(opt,rrhf)
 ----------------------------------------------------------------------
 -----
 title
 -----
 Symbolic Z-matrix:
 Charge =  0 Multiplicity = 1

 SCF Done:  E(RHF) =  -323.793234498     A.U. after   16 cycles
 Normal termination of Gaussian 16 at Wed Apr  9 19:25:17 2025.
 Gaussian 16:  ES64L-G16RevC.01  3-Jul-2019

 ----------------------------------------------------------------------
 #t hf aug-cc-pvdz iop(5/13=1,5/36=2,99/5=2) pseudo=read geom=check gue
 ss=(read,tcheck) scf=(maxcycle=1)
 ----------------------------------------------------------------------
 -----
 title
 -----
 Structure from the checkpoint file:  "Grambow2020_wb97xd3_008936_reverse_mol1.chk"
 Charge =  0 Multiplicity = 1

                         Standard orientation:
 ---------------------------------------------------------------------
 Center     Atomic      Atomic             Coordinates (Angstroms)
 Number     Number       Type             X           Y           Z
 ---------------------------------------------------------------------
      1          6           0        2.392032   -0.223906    0.356817
      2          6           0        1.253258   -0.140977   -0.584920
      3          6           0       -0.351369   -1.549599   -0.076837
      4          7           0       -0.928627   -0.256074    0.011331
      5          6           0       -2.317608    0.049758    0.209312
      6          6           0        0.085344    0.642486   -0.166604
      7          8           0        0.046232    1.851134   -0.050495
      8          1           0        2.141506   -0.377281    1.413070
      9          1           0        2.814806    0.787649    0.286373
     10          1           0        3.168511   -0.918476    0.039117
     11          1           0        0.608029   -1.361251   -0.807691
     12          1           0       -0.932062   -2.263308   -0.667796
     13          1           0       -0.010268   -1.989018    0.862169
     14          1           0       -2.418970    1.133985    0.173478
     15          1           0       -2.933934   -0.391598   -0.579651
     16          1           0       -2.677032   -0.303826    1.178962
 ---------------------------------------------------------------------

 SCF Done:  E(RHF) =  -325.316731307     A.U. after    2 cycles

 The electronic state is 1-A.
 Alpha  occ. eigenvalues --  -21.01386 -15.75165 -11.50103 -11.45104 -11.42812
 Alpha  occ. eigenvalues --  -11.40778 -11.38908  -1.69931  -1.47437  -1.18453
 Alpha  occ. eigenvalues --   -1.07767  -0.99287  -0.89319  -0.70827  -0.69136
 Alpha  occ. eigenvalues --   -0.66303  -0.64259  -0.59035  -0.58288  -0.56841
 Alpha  occ. eigenvalues --   -0.54041  -0.52873  -0.47932  -0.45956  -0.33710
 Alpha  occ. eigenvalues --   -0.28690  -0.26888
 Alpha virt. eigenvalues --    0.03064   0.04742   0.04994   0.05115   0.05912
 Alpha virt. eigenvalues --    0.06535   0.06815   0.07561   0.08356   0.10101
 Alpha virt. eigenvalues --    0.10233   0.11867   0.12788   0.13085   0.13344

 Mulliken charges:
               1
     1  C   -3.713715
     2  C   -2.870650
     3  C   -3.039732
     4  N   -3.065854
     5  C   -3.493237
     6  C    6.515614
     7  O   -3.555903
     8  H    1.410557
     9  H    1.222745
    10  H    1.275494
    11  H    2.261042
    12  H    1.334420
    13  H    1.502070
    14  H    1.403656
    15  H    1.418594
    16  H    1.394898
 Sum of Mulliken charges =   0.00000

 Dipole moment (field-independent basis, Debye):
    X=             -1.3337    Y=             -3.0864    Z=              1.3686  Tot=              3.6301

 Test job not archived.
 1\1\GINC-SE219\SP\RHF\Aug-CC-pVDZ\C5H9N1O1\OHZDE\09-Apr-2025\0\\#t hf
 aug-cc-pvdz iop(5/13=1,5/36=2,99/5=2) pseudo=read geom=check guess=(re
 ad,tcheck) scf=(maxcycle=1)\\title\\0,1\C,0,2.37596187,-0.19443325,0.3
 1536189\C,0,1.25836495,0.73347654,0.03161427\C,0,-0.26931895,-0.172968
 58,-1.25746692\N,0,-0.92672565,0.14215035,-0.03979602\C,0,-2.33637543,
 0.05464374,0.21948535\C,0,0.03449773,0.58127213,0.82647858\O,0,-0.0814
 5139,0.84096466,2.00756052\H,0,2.10873259,-1.24558672,0.47543052\H,0,2
 .73765709,0.18007459,1.28276267\H,0,3.20127284,-0.1087309,-0.39018615\

 Normal termination of Gaussian 16 at Wed Apr  9 19:25:23 2025.
