 Gaussian 16, Revision C.01,

 ----------------------------------------------------------------------
 #t hf aug-cc-pvdz symm=none int=(grid=ultrafine) guess=(read,tcheck) s
 table=(opt,rrhf)
 ----------------------------------------------------------------------
 -----
 title
 -----
 Symbolic Z-matrix:
 Charge =  0 Multiplicity = 1

 SCF Done:  E(RHF) =  -317.654656939     A.U. after   16 cycles
 Normal termination of Gaussian 16 at Wed Apr  9 19:26:53 2025.
 Gaussian 16:  ES64L-G16RevC.01  3-Jul-2019

 ----------------------------------------------------------------------
 #t hf aug-cc-pvdz iop(5/13=1,5/36=2,99/5=2) pseudo=read geom=check gue
 ss=(read,tcheck) scf=(maxcycle=1)
 ----------------------------------------------------------------------
 -----
 title
 -----
 Structure from the checkpoint file:  "Grambow2020_wb97xd3_008982_reverse_mol2.chk"
 Charge =  0 Multiplicity = 1

                         Standard orientation:
 ---------------------------------------------------------------------
 Center     Atomic      Atomic             Coordinates (Angstroms)
 Number     Number       Type             X           Y           Z
 ---------------------------------------------------------------------
      1          7           0        2.195933    0.010287    0.028551
      2          6           0        0.808690    0.095971   -0.003641
      3          6           0        0.093898   -1.244305    0.225346
      4          7           0       -1.319717   -1.145356   -0.284602
      5          6           0       -1.564443    0.030199   -0.058442
      6          7           0       -1.332862    1.206660    0.195786
      7          6           0        0.107559    1.236281   -0.094811
      8          1           0        2.589398   -0.738829   -0.518658
      9          1           0        2.681215    0.878257   -0.130439
     10          1           0        0.563985   -2.035156   -0.359987
     11          1           0        0.154054   -1.529030    1.282137
     12          1           0        0.533652    2.214745   -0.261908
 ---------------------------------------------------------------------

 SCF Done:  E(RHF) =  -319.122173842     A.U. after    2 cycles

 The electronic state is 1-A.
 Alpha  occ. eigenvalues --  -15.77400 -15.74982 -15.74714 -11.51082 -11.48214
 Alpha  occ. eigenvalues --  -11.44908 -11.40772  -1.53595  -1.36547  -1.32349
 Alpha  occ. eigenvalues --   -1.09580  -0.98033  -0.83885  -0.70325  -0.69985
 Alpha  occ. eigenvalues --   -0.66351  -0.62690  -0.60253  -0.54392  -0.53269
 Alpha  occ. eigenvalues --   -0.50511  -0.48093  -0.38620  -0.36391  -0.26912
 Alpha virt. eigenvalues --    0.03136   0.05105   0.05138   0.06233   0.07415
 Alpha virt. eigenvalues --    0.07688   0.09918   0.11118   0.11662   0.12227
 Alpha virt. eigenvalues --    0.12251   0.13170   0.13780   0.14567   0.14799

 Mulliken charges:
               1
     1  N   -3.561431
     2  C    3.608117
     3  C   -2.463857
     4  N   -2.405664
     5  C    3.547726
     6  N   -2.859231
     7  C   -1.026474
     8  H    0.544148
     9  H    0.655623
    10  H    1.310263
    11  H    1.200715
    12  H    1.450065
 Sum of Mulliken charges =  -0.00000

 Dipole moment (field-independent basis, Debye):
    X=              3.0114    Y=             -0.3734    Z=             -0.4737  Tot=              3.0712

 Test job not archived.
 1\1\GINC-SE231\SP\RHF\Aug-CC-pVDZ\C4H5N3\OHZDE\09-Apr-2025\0\\#t hf au
 g-cc-pvdz iop(5/13=1,5/36=2,99/5=2) pseudo=read geom=check guess=(read
 ,tcheck) scf=(maxcycle=1)\\title\\0,1\N,0,-1.71368513,0.15014157,0.314
 35804\C,0,-0.37739937,-0.12096547,0.04294979\C,0,0.56664258,1.06190654
 ,0.30619699\N,0,1.85673817,0.84151115,-0.43893804\C,0,1.94228596,-0.37
 660948,-0.39613291\N,0,1.56669987,-1.5337741,-0.24704348\C,0,0.1130126
 4,-1.32284652,-0.29643295\H,0,-2.05904654,1.01602655,-0.06825954\H,0,-
 2.34846801,-0.61129352,0.13711211\H,0,0.14751152,1.98466609,-0.0961541

 Normal termination of Gaussian 16 at Wed Apr  9 19:26:57 2025.
