 Gaussian 16, Revision C.01,

 ----------------------------------------------------------------------
 #t hf aug-cc-pvdz symm=none int=(grid=ultrafine) guess=(read,tcheck) s
 table=(opt,rrhf)
 ----------------------------------------------------------------------
 -----
 title
 -----
 Symbolic Z-matrix:
 Charge =  0 Multiplicity = 1

 SCF Done:  E(RHF) =  -305.746956345     A.U. after   15 cycles
 Normal termination of Gaussian 16 at Wed Apr  9 03:15:32 2025.
 Gaussian 16:  ES64L-G16RevC.01  3-Jul-2019

 ----------------------------------------------------------------------
 #t hf aug-cc-pvdz iop(5/13=1,5/36=2,99/5=2) pseudo=read geom=check gue
 ss=(read,tcheck) scf=(maxcycle=1)
 ----------------------------------------------------------------------
 -----
 title
 -----
 Structure from the checkpoint file:  "Grambow2020_b97d3_006969_reverse_mol2.chk"
 Charge =  0 Multiplicity = 1

                         Standard orientation:
 ---------------------------------------------------------------------
 Center     Atomic      Atomic             Coordinates (Angstroms)
 Number     Number       Type             X           Y           Z
 ---------------------------------------------------------------------
      1          8           0       -0.950853   -1.348156    0.373981
      2          6           0       -1.518946   -0.276610   -0.309492
      3          6           0       -0.959469    1.202090    0.135610
      4          6           0        0.365052    1.119849   -0.445736
      5          6           0        1.364597    0.450007    0.448467
      6          8           0        1.731070   -0.755781   -0.283796
      7          1           0       -0.022766   -1.461081    0.051145
      8          1           0       -1.436172   -0.346309   -1.403563
      9          1           0       -2.577894   -0.234055   -0.028140
     10          1           0       -1.639903    1.905863   -0.365521
     11          1           0       -1.077106    1.239241    1.234688
     12          1           0        1.748616   -0.454843   -1.221948
     13          1           0        1.026976    0.086367    1.435015
     14          1           0        2.229106    1.124288    0.603748
 ---------------------------------------------------------------------

 SCF Done:  E(RHF) =  -307.131745114     A.U. after    2 cycles

 The electronic state is 1-A.
 Alpha  occ. eigenvalues --  -21.08702 -21.06584 -11.45112 -11.44813 -11.41661
 Alpha  occ. eigenvalues --  -11.38681  -1.73370  -1.70556  -1.20563  -1.02152
 Alpha  occ. eigenvalues --   -0.90161  -0.77895  -0.68899  -0.65410  -0.59402
 Alpha  occ. eigenvalues --   -0.58625  -0.55904  -0.53488  -0.51514  -0.44387
 Alpha  occ. eigenvalues --   -0.39658  -0.34939  -0.33044  -0.30918
 Alpha virt. eigenvalues --    0.03794   0.05202   0.05352   0.05547   0.05795
 Alpha virt. eigenvalues --    0.06560   0.07133   0.07805   0.08319   0.10586
 Alpha virt. eigenvalues --    0.12935   0.13713   0.14095   0.14438   0.15326

 Mulliken charges:
               1
     1  O   -2.760219
     2  C   -0.458455
     3  C   -2.684739
     4  C   -1.099710
     5  C   -1.093281
     6  O   -2.196959
     7  H    1.132905
     8  H    1.399100
     9  H    1.226937
    10  H    1.409172
    11  H    1.325460
    12  H    0.849423
    13  H    1.588608
    14  H    1.361758
 Sum of Mulliken charges =  -0.00000

 Dipole moment (field-independent basis, Debye):
    X=             -0.5033    Y=              0.0044    Z=              0.8949  Tot=              1.0268

 Test job not archived.
 1\1\GINC-SE174\SP\RHF\Aug-CC-pVDZ\C4H8O2\OHZDE\09-Apr-2025\0\\#t hf au
 g-cc-pvdz iop(5/13=1,5/36=2,99/5=2) pseudo=read geom=check guess=(read
 ,tcheck) scf=(maxcycle=1)\\title\\0,1\O,0,1.31731922,1.03602262,0.5380
 7221\C,0,1.4822913,-0.25264977,0.03788866\C,0,0.21530034,-1.26403446,0
 .30155364\C,0,-0.72928368,-0.67988652,-0.62883091\C,0,-1.49923548,0.46
 856659,-0.0495153\O,0,-1.07413912,1.60968885,-0.85049639\H,0,0.6595182
 1,1.50509604,-0.03253024\H,0,1.71935862,-0.29170863,-1.03494605\H,0,2.
 29433268,-0.72211331,0.60580862\H,0,0.59871199,-2.25250911,0.00943476\

 Normal termination of Gaussian 16 at Wed Apr  9 03:15:36 2025.
