 Gaussian 16, Revision C.01,

 ----------------------------------------------------------------------
 #t hf aug-cc-pvdz symm=none int=(grid=ultrafine) guess=(read,tcheck) s
 table=(opt,rrhf)
 ----------------------------------------------------------------------
 -----
 title
 -----
 Symbolic Z-matrix:
 Charge =  0 Multiplicity = 1

 SCF Done:  E(RHF) =  -264.960891189     A.U. after   13 cycles
 Normal termination of Gaussian 16 at Wed Apr  9 03:08:53 2025.
 Gaussian 16:  ES64L-G16RevC.01  3-Jul-2019

 ----------------------------------------------------------------------
 #t hf aug-cc-pvdz iop(5/13=1,5/36=2,99/5=2) pseudo=read geom=check gue
 ss=(read,tcheck) scf=(maxcycle=1)
 ----------------------------------------------------------------------
 -----
 title
 -----
 Structure from the checkpoint file:  "Grambow2020_b97d3_006629_reverse_mol2.chk"
 Charge =  0 Multiplicity = 1

                         Standard orientation:
 ---------------------------------------------------------------------
 Center     Atomic      Atomic             Coordinates (Angstroms)
 Number     Number       Type             X           Y           Z
 ---------------------------------------------------------------------
      1          6           0       -2.556047   -0.257403   -0.213525
      2          6           0       -1.625604   -1.086510    0.284527
      3          6           0        1.547737   -0.047419    0.495630
      4          7           0        1.984538   -1.079865   -0.396848
      5          6           0        0.757257    0.963133    0.157856
      6          7           0        0.033084    1.910892   -0.184965
      7          1           0       -3.260826    0.269318    0.432553
      8          1           0       -2.669152   -0.100188   -1.287918
      9          1           0       -0.970640    1.638926   -0.184712
     10          1           0       -1.519342   -1.251199    1.357189
     11          1           0       -0.925716   -1.628444   -0.351843
     12          1           0        1.819640   -0.177210    1.543028
     13          1           0        1.654934   -0.891891   -1.345269
     14          1           0        3.007693   -1.107298   -0.437268
 ---------------------------------------------------------------------

 SCF Done:  E(RHF) =  -266.225484937     A.U. after    2 cycles

 The electronic state is 1-A.
 Alpha  occ. eigenvalues --  -15.76550 -15.76079 -11.46501 -11.41809 -11.41694
 Alpha  occ. eigenvalues --  -11.37659  -1.37816  -1.30569  -1.13547  -1.01553
 Alpha  occ. eigenvalues --   -0.82817  -0.75562  -0.68438  -0.64371  -0.61483
 Alpha  occ. eigenvalues --   -0.58074  -0.56206  -0.53420  -0.49779  -0.44177
 Alpha  occ. eigenvalues --   -0.42072  -0.36343  -0.28554
 Alpha virt. eigenvalues --    0.03486   0.04996   0.05354   0.05953   0.06164
 Alpha virt. eigenvalues --    0.07227   0.07308   0.07717   0.10525   0.11498
 Alpha virt. eigenvalues --    0.12419   0.12523   0.14158   0.14349   0.14557

 Mulliken charges:
               1
     1  C   -2.980351
     2  C   -2.809890
     3  C    0.140815
     4  N   -2.688990
     5  C    1.948707
     6  N   -2.940830
     7  H    1.374180
     8  H    1.382772
     9  H    0.897003
    10  H    1.400574
    11  H    1.503635
    12  H    1.549418
    13  H    0.670941
    14  H    0.552015
 Sum of Mulliken charges =   0.00000

 Dipole moment (field-independent basis, Debye):
    X=              0.2789    Y=             -1.1708    Z=             -0.1316  Tot=              1.2107

 Test job not archived.
 1\1\GINC-SE129\SP\RHF\Aug-CC-pVDZ\C4H8N2\OHZDE\09-Apr-2025\0\\#t hf au
 g-cc-pvdz iop(5/13=1,5/36=2,99/5=2) pseudo=read geom=check guess=(read
 ,tcheck) scf=(maxcycle=1)\\title\\0,1\C,0,-2.27380236,-0.19837226,-0.0
 2822414\C,0,-1.25473417,-0.90240234,0.48853557\C,0,1.83403028,0.380222
 48,0.39483744\N,0,2.29997272,-0.7038467,-0.41814957\C,0,0.94898527,1.2
 9083812,0.0105958\N,0,0.13458814,2.14344831,-0.37671891\H,0,-2.9805371
 7,0.33928852,0.60660819\H,0,-2.45880087,-0.16071465,-1.10348507\H,0,-0
 .84308839,1.80087358,-0.28607026\H,0,-1.07605603,-0.94814766,1.5632443

 Normal termination of Gaussian 16 at Wed Apr  9 03:08:57 2025.
