 Gaussian 16, Revision C.01,

 ----------------------------------------------------------------------
 #t hf aug-cc-pvdz symm=none int=(grid=ultrafine) guess=(read,tcheck) s
 table=(opt,rrhf)
 ----------------------------------------------------------------------
 -----
 title
 -----
 Symbolic Z-matrix:
 Charge =  0 Multiplicity = 1

 SCF Done:  E(RHF) =  -381.901358678     A.U. after   13 cycles

 1\1\GINC-SE026\Stability\RHF\Aug-CC-pVDZ\C4H10O3\OHZDE\09-Apr-2025\0\\
 #t hf aug-cc-pvdz symm=none int=(grid=ultrafine) guess=(read,tcheck) s
 table=(opt,rrhf)\\title\\0,1\C,0,2.29921335,-0.09469483,0.42537623\O,0
 ,0.9549729,0.33494274,0.4063923\C,0,0.30785597,0.08257657,-0.82779094\
 C,0,-1.05886547,0.70163064,-0.76026737\O,0,-1.08964256,1.93053512,-0.1
 9303675\C,0,-2.14858038,0.13367835,-1.26046347\O,0,-0.87623498,-1.6468
 6294,1.63740343\H,0,2.70894604,0.16770918,1.39882098\H,0,2.87910023,0.
 40443003,-0.35897594\H,0,2.36541974,-1.17899145,0.28577493\H,0,0.88403

 Normal termination of Gaussian 16 at Wed Apr  9 19:25:15 2025.
 Gaussian 16:  ES64L-G16RevC.01  3-Jul-2019

 ----------------------------------------------------------------------
 #t hf aug-cc-pvdz iop(5/13=1,5/36=2,99/5=2) pseudo=read geom=check gue
 ss=(read,tcheck) scf=(maxcycle=1)
 ----------------------------------------------------------------------
 -----
 title
 -----
 Structure from the checkpoint file:  "Grambow2020_wb97xd3_008922_reverse_mol2.chk"
 Charge =  0 Multiplicity = 1

                         Standard orientation:
 ---------------------------------------------------------------------
 Center     Atomic      Atomic             Coordinates (Angstroms)
 Number     Number       Type             X           Y           Z
 ---------------------------------------------------------------------
      1          6           0        2.443792   -0.598763    0.174656
      2          8           0        1.121902   -0.390342   -0.273783
      3          6           0        0.155570   -0.553677    0.748559
      4          6           0       -1.201345   -0.437415    0.115329
      5          8           0       -1.322767   -1.079080   -1.070600
      6          6           0       -2.225381    0.188231    0.681158
      7          8           0        0.396565    2.484732   -0.337815
      8          1           0        3.099926   -0.477426   -0.685052
      9          1           0        2.562502   -1.608968    0.582082
     10          1           0        2.716117    0.132528    0.943177
     11          1           0        0.269097   -1.549873    1.199297
     12          1           0        0.278193    0.203618    1.528762
     13          1           0       -0.547738    2.323447   -0.269966
     14          1           0       -0.435939   -1.235096   -1.414488
     15          1           0       -2.102516    0.675405    1.637895
     16          1           0       -3.199912    0.193967    0.212699
     17          1           0        0.758846    1.629656   -0.595042
 ---------------------------------------------------------------------

 SCF Done:  E(RHF) =  -383.613562524     A.U. after    2 cycles

 The electronic state is 1-A.
 Alpha  occ. eigenvalues --  -21.09942 -21.07787 -21.07304 -11.48083 -11.43499
 Alpha  occ. eigenvalues --  -11.42489 -11.37348  -1.81176  -1.74042  -1.64081
 Alpha  occ. eigenvalues --   -1.15865  -1.04350  -0.94562  -0.79052  -0.69886
 Alpha  occ. eigenvalues --   -0.68466  -0.62877  -0.61855  -0.60508  -0.59610
 Alpha  occ. eigenvalues --   -0.54542  -0.51542  -0.48028  -0.45670  -0.42175
 Alpha  occ. eigenvalues --   -0.41282  -0.33898  -0.32914  -0.28919
 Alpha virt. eigenvalues --    0.03317   0.04773   0.05022   0.05546   0.05685
 Alpha virt. eigenvalues --    0.06232   0.06670   0.07952   0.08616   0.10052
 Alpha virt. eigenvalues --    0.11457   0.11826   0.13621   0.14235   0.14540

 Mulliken charges:
               1
     1  C   -2.862563
     2  O   -2.619431
     3  C   -2.544123
     4  C    4.353290
     5  O   -3.905593
     6  C   -3.520656
     7  O   -2.327365
     8  H    1.352075
     9  H    1.362274
    10  H    1.410561
    11  H    1.376144
    12  H    1.644927
    13  H    0.997114
    14  H    1.053663
    15  H    1.442607
    16  H    1.481966
    17  H    1.305111
 Sum of Mulliken charges =  -0.00000

 Dipole moment (field-independent basis, Debye):
    X=              1.4534    Y=             -1.8832    Z=              0.1978  Tot=              2.3871

 Test job not archived.
 1\1\GINC-SE026\SP\RHF\Aug-CC-pVDZ\C4H10O3\OHZDE\09-Apr-2025\0\\#t hf a
 ug-cc-pvdz iop(5/13=1,5/36=2,99/5=2) pseudo=read geom=check guess=(rea
 d,tcheck) scf=(maxcycle=1)\\title\\0,1\C,0,2.29921335,-0.09469483,0.42
 537623\O,0,0.9549729,0.33494274,0.4063923\C,0,0.30785597,0.08257657,-0
 .82779094\C,0,-1.05886547,0.70163064,-0.76026737\O,0,-1.08964256,1.930
 53512,-0.19303675\C,0,-2.14858038,0.13367835,-1.26046347\O,0,-0.876234
 98,-1.64686294,1.63740343\H,0,2.70894604,0.16770918,1.39882098\H,0,2.8
 7910023,0.40443003,-0.35897594\H,0,2.36541974,-1.17899145,0.28577493\H

 Normal termination of Gaussian 16 at Wed Apr  9 19:25:21 2025.
