 Gaussian 16, Revision C.01,

 ----------------------------------------------------------------------
 #t hf aug-cc-pvdz symm=none int=(grid=ultrafine) guess=(read,tcheck) s
 table=(opt,rrhf)
 ----------------------------------------------------------------------
 -----
 title
 -----
 Symbolic Z-matrix:
 Charge =  0 Multiplicity = 1

 SCF Done:  E(RHF) =  -344.877729484     A.U. after   13 cycles

 1\1\GINC-SE173\Stability\RHF\Aug-CC-pVDZ\C5H10O2\OHZDE\09-Apr-2025\0\\
 #t hf aug-cc-pvdz symm=none int=(grid=ultrafine) guess=(read,tcheck) s
 table=(opt,rrhf)\\title\\0,1\O,0,2.66719429,-0.11804998,1.13214487\C,0
 ,2.161738,-0.5734864,-0.1061215\C,0,0.64516476,-0.59906687,-0.02302376
 \C,0,0.03814611,0.76197573,0.12880769\C,0,-3.03096825,-0.21463914,-0.8
 6529017\O,0,-4.08912125,0.34276642,-0.87968882\C,0,-0.75441724,1.13241
 84,1.12212608\H,0,3.62076192,-0.05072401,1.07524804\H,0,2.52862405,-1.
 58272956,-0.3319996\H,0,2.47456654,0.08834823,-0.92543123\H,0,0.345671

 Normal termination of Gaussian 16 at Wed Apr  9 18:41:42 2025.
 Gaussian 16:  ES64L-G16RevC.01  3-Jul-2019

 ----------------------------------------------------------------------
 #t hf aug-cc-pvdz iop(5/13=1,5/36=2,99/5=2) pseudo=read geom=check gue
 ss=(read,tcheck) scf=(maxcycle=1)
 ----------------------------------------------------------------------
 -----
 title
 -----
 Structure from the checkpoint file:  "Grambow2020_wb97xd3_007540_reverse_mol2.chk"
 Charge =  0 Multiplicity = 1

                         Standard orientation:
 ---------------------------------------------------------------------
 Center     Atomic      Atomic             Coordinates (Angstroms)
 Number     Number       Type             X           Y           Z
 ---------------------------------------------------------------------
      1          8           0       -3.093263    0.336417   -0.252596
      2          6           0       -2.377182   -0.800269    0.184880
      3          6           0       -0.920053   -0.627733   -0.208259
      4          6           0       -0.247383    0.508871    0.498571
      5          6           0        2.870023   -0.608233   -0.130180
      6          8           0        3.950052   -0.124218    0.042634
      7          6           0        0.345260    1.529928   -0.099995
      8          1           0       -4.004192    0.261565    0.033178
      9          1           0       -2.770968   -1.713870   -0.278222
     10          1           0       -2.453253   -0.916989    1.274717
     11          1           0       -0.858193   -0.487483   -1.290605
     12          1           0       -0.401456   -1.564203    0.030093
     13          1           0       -0.257947    0.467478    1.586448
     14          1           0        2.378532   -0.612596   -1.121626
     15          1           0        2.300682   -1.082837    0.691600
     16          1           0        0.826924    2.318140    0.465395
     17          1           0        0.361569    1.617825   -1.181386
 ---------------------------------------------------------------------

 SCF Done:  E(RHF) =  -346.459148940     A.U. after    2 cycles

 The electronic state is 1-A.
 Alpha  occ. eigenvalues --  -21.07311 -21.07121 -11.47295 -11.45547 -11.42317
 Alpha  occ. eigenvalues --  -11.39344 -11.36790  -1.71852  -1.70909  -1.22632
 Alpha  occ. eigenvalues --   -1.05904  -0.89408  -0.89212  -0.79323  -0.67304
 Alpha  occ. eigenvalues --   -0.66212  -0.64266  -0.63469  -0.54900  -0.53148
 Alpha  occ. eigenvalues --   -0.51690  -0.50497  -0.46727  -0.45034  -0.41462
 Alpha  occ. eigenvalues --   -0.35148  -0.32402  -0.30104
 Alpha virt. eigenvalues --    0.03496   0.04784   0.05048   0.05319   0.05451
 Alpha virt. eigenvalues --    0.05956   0.06045   0.06749   0.07795   0.08783
 Alpha virt. eigenvalues --    0.11718   0.12213   0.12495   0.13669   0.13909

 Mulliken charges:
               1
     1  O   -2.583782
     2  C   -1.318750
     3  C   -3.323723
     4  C   -0.338020
     5  C   -0.703846
     6  O   -2.181450
     7  C   -3.225323
     8  H    0.810596
     9  H    1.249970
    10  H    1.414726
    11  H    1.515160
    12  H    1.401827
    13  H    1.516665
    14  H    1.407689
    15  H    1.427153
    16  H    1.449140
    17  H    1.481968
 Sum of Mulliken charges =  -0.00000

 Dipole moment (field-independent basis, Debye):
    X=             -1.9811    Y=             -0.8614    Z=              0.2375  Tot=              2.1733

 Test job not archived.
 1\1\GINC-SE173\SP\RHF\Aug-CC-pVDZ\C5H10O2\OHZDE\09-Apr-2025\0\\#t hf a
 ug-cc-pvdz iop(5/13=1,5/36=2,99/5=2) pseudo=read geom=check guess=(rea
 d,tcheck) scf=(maxcycle=1)\\title\\0,1\O,0,2.66719429,-0.11804998,1.13
 214487\C,0,2.161738,-0.5734864,-0.1061215\C,0,0.64516476,-0.59906687,-
 0.02302376\C,0,0.03814611,0.76197573,0.12880769\C,0,-3.03096825,-0.214
 63914,-0.86529017\O,0,-4.08912125,0.34276642,-0.87968882\C,0,-0.754417
 24,1.1324184,1.12212608\H,0,3.62076192,-0.05072401,1.07524804\H,0,2.52
 862405,-1.58272956,-0.3319996\H,0,2.47456654,0.08834823,-0.92543123\H,

 Normal termination of Gaussian 16 at Wed Apr  9 18:41:48 2025.
