 Gaussian 16, Revision C.01,

 ----------------------------------------------------------------------
 #t hf aug-cc-pvdz symm=none int=(grid=ultrafine) guess=(read,tcheck) s
 table=(opt,rrhf)
 ----------------------------------------------------------------------
 -----
 title
 -----
 Symbolic Z-matrix:
 Charge =  0 Multiplicity = 1

 SCF Done:  E(RHF) =  -268.766531129     A.U. after   15 cycles
 Normal termination of Gaussian 16 at Wed Apr  9 17:15:20 2025.
 Gaussian 16:  ES64L-G16RevC.01  3-Jul-2019

 ----------------------------------------------------------------------
 #t hf aug-cc-pvdz iop(5/13=1,5/36=2,99/5=2) pseudo=read geom=check gue
 ss=(read,tcheck) scf=(maxcycle=1)
 ----------------------------------------------------------------------
 -----
 title
 -----
 Structure from the checkpoint file:  "Grambow2020_b97d3_007078_reverse_mol2.chk"
 Charge =  0 Multiplicity = 1

                         Standard orientation:
 ---------------------------------------------------------------------
 Center     Atomic      Atomic             Coordinates (Angstroms)
 Number     Number       Type             X           Y           Z
 ---------------------------------------------------------------------
      1          6           0        2.182231   -0.079342    0.141219
      2          6           0        0.718926   -0.087912   -0.301407
      3          6           0       -0.099358   -1.308349   -0.074943
      4          6           0       -1.431319   -0.730586    0.139740
      5          8           0       -1.490437    0.692030   -0.094999
      6          6           0       -0.146892    1.141671    0.080881
      7          1           0        2.715701    0.791202   -0.265140
      8          1           0        2.689451   -0.994344   -0.187149
      9          1           0        2.239521   -0.031479    1.237487
     10          1           0        0.674341   -0.177437   -1.420381
     11          1           0       -1.510752   -0.958695    1.240407
     12          1           0       -2.289950   -1.218930   -0.339269
     13          1           0        0.051601    1.419066    1.135498
     14          1           0        0.012060    2.021482   -0.554404
 ---------------------------------------------------------------------

 SCF Done:  E(RHF) =  -270.019401069     A.U. after    2 cycles

 The electronic state is 1-A.
 Alpha  occ. eigenvalues --  -21.04942 -11.46441 -11.43195 -11.41733 -11.40074
 Alpha  occ. eigenvalues --  -11.37132  -1.76208  -1.23643  -1.08665  -0.99591
 Alpha  occ. eigenvalues --   -0.86547  -0.73700  -0.67414  -0.62997  -0.60577
 Alpha  occ. eigenvalues --   -0.56769  -0.55214  -0.50510  -0.49783  -0.43991
 Alpha  occ. eigenvalues --   -0.39135  -0.32880  -0.30318
 Alpha virt. eigenvalues --    0.03461   0.05147   0.05377   0.05672   0.06159
 Alpha virt. eigenvalues --    0.06355   0.06549   0.06900   0.08920   0.09985
 Alpha virt. eigenvalues --    0.12209   0.13204   0.13795   0.14428   0.14793

 Mulliken charges:
               1
     1  C   -3.618561
     2  C   -0.705906
     3  C   -1.054585
     4  C   -1.262794
     5  O   -2.954061
     6  C   -1.343687
     7  H    1.209943
     8  H    1.255105
     9  H    1.232155
    10  H    1.565145
    11  H    1.361011
    12  H    1.479030
    13  H    1.470567
    14  H    1.366637
 Sum of Mulliken charges =  -0.00000

 Dipole moment (field-independent basis, Debye):
    X=              0.1999    Y=              1.6965    Z=             -0.1244  Tot=              1.7128

 Test job not archived.
 1\1\GINC-SE029\SP\RHF\Aug-CC-pVDZ\C5H8O1\OHZDE\09-Apr-2025\0\\#t hf au
 g-cc-pvdz iop(5/13=1,5/36=2,99/5=2) pseudo=read geom=check guess=(read
 ,tcheck) scf=(maxcycle=1)\\title\\0,1\C,0,-1.75832453,0.52295017,-0.42
 149962\C,0,-0.29724998,0.07435712,-0.4572799\C,0,0.77726631,1.09709238
 ,-0.358452\C,0,1.82981669,0.34776159,0.33772339\O,0,1.52618417,-1.0522
 9073,0.51119909\C,0,0.10168234,-1.12201165,0.4467185\H,0,-2.43309478,-
 0.29620544,-0.70651339\H,0,-1.91810497,1.3696907,-1.09960481\H,0,-2.02
 4557,0.84423011,0.59500209\H,0,-0.02710002,-0.21309617,-1.50918119\H,0

 Normal termination of Gaussian 16 at Wed Apr  9 17:15:24 2025.
