 Gaussian 16, Revision C.01,

 ----------------------------------------------------------------------
 #t hf aug-cc-pvdz symm=none int=(grid=ultrafine) guess=(read,tcheck) s
 table=(opt,rrhf)
 ----------------------------------------------------------------------
 -----
 title
 -----
 Symbolic Z-matrix:
 Charge =  0 Multiplicity = 1

 SCF Done:  E(RHF) =  -375.642707463     A.U. after   15 cycles
 Normal termination of Gaussian 16 at Wed Apr  9 03:46:25 2025.
 Gaussian 16:  ES64L-G16RevC.01  3-Jul-2019

 ----------------------------------------------------------------------
 #t hf aug-cc-pvdz iop(5/13=1,5/36=2,99/5=2) pseudo=read geom=check gue
 ss=(read,tcheck) scf=(maxcycle=1)
 ----------------------------------------------------------------------
 -----
 title
 -----
 Structure from the checkpoint file:  "Grambow2020_wb97xd3_007916_forward_mol1.chk"
 Charge =  0 Multiplicity = 1

                         Standard orientation:
 ---------------------------------------------------------------------
 Center     Atomic      Atomic             Coordinates (Angstroms)
 Number     Number       Type             X           Y           Z
 ---------------------------------------------------------------------
      1          6           0       -0.638423    1.775595   -0.174154
      2          8           0       -0.219698    0.669073    0.596769
      3          6           0        1.250280   -0.374889   -0.029557
      4          7           0        2.327639    0.153414   -0.154027
      5          7           0        0.451080   -1.369170    0.044779
      6          6           0       -1.044399   -0.656105    0.372704
      7          8           0       -1.837260   -0.682056   -0.538272
      8          1           0       -1.292106    2.416514    0.420730
      9          1           0       -1.169552    1.441575   -1.067871
     10          1           0        0.246685    2.350555   -0.458882
     11          1           0        2.482776    1.101038   -0.451189
     12          1           0        0.587781   -2.169832   -0.554060
     13          1           0       -1.255702   -0.993305    1.394083
 ---------------------------------------------------------------------

 SCF Done:  E(RHF) =  -377.333437436     A.U. after    2 cycles

 The electronic state is 1-A.
 Alpha  occ. eigenvalues --  -21.05858 -21.00145 -15.79364 -15.78485 -11.57966
 Alpha  occ. eigenvalues --  -11.51534 -11.40441  -1.79982  -1.64977  -1.45083
 Alpha  occ. eigenvalues --   -1.32778  -1.01147  -0.88579  -0.82137  -0.75580
 Alpha  occ. eigenvalues --   -0.67168  -0.66284  -0.60566  -0.59718  -0.54874
 Alpha  occ. eigenvalues --   -0.53098  -0.49618  -0.42606  -0.38444  -0.32653
 Alpha  occ. eigenvalues --   -0.28321  -0.26526
 Alpha virt. eigenvalues --    0.03266   0.04651   0.05592   0.05927   0.06757
 Alpha virt. eigenvalues --    0.07353   0.09948   0.10457   0.11413   0.11914
 Alpha virt. eigenvalues --    0.12095   0.13681   0.14508   0.15353   0.15536

 Mulliken charges:
               1
     1  C   -2.754715
     2  O   -2.267812
     3  C    4.441745
     4  N   -3.135754
     5  N   -2.681489
     6  C    2.669682
     7  O   -3.071937
     8  H    1.246521
     9  H    1.249366
    10  H    1.299030
    11  H    0.724904
    12  H    0.700545
    13  H    1.579914
 Sum of Mulliken charges =  -0.00000

 Dipole moment (field-independent basis, Debye):
    X=              1.6983    Y=              1.2664    Z=             -0.1379  Tot=              2.1230

 Test job not archived.
 1\1\GINC-SE367\SP\RHF\Aug-CC-pVDZ\C3H6N2O2\OHZDE\09-Apr-2025\0\\#t hf
 aug-cc-pvdz iop(5/13=1,5/36=2,99/5=2) pseudo=read geom=check guess=(re
 ad,tcheck) scf=(maxcycle=1)\\title\\0,1\C,0,-0.85512017,-0.56413101,-1
 .06024084\O,0,-0.69561863,-0.32282037,0.32192156\C,0,0.30566246,1.2064
 8823,0.87112647\N,0,-0.08920514,2.30290671,0.5592857\N,0,1.0253032,0.3
 7959344,1.52778718\C,0,0.46843294,-1.13004047,1.01460666\O,0,1.2295566
 2,-1.74543771,0.30668181\H,0,-1.64887681,-1.2964965,-1.22010782\H,0,0.
 07576856,-0.93393813,-1.49508314\H,0,-1.14533558,0.37357701,-1.5414298

 Normal termination of Gaussian 16 at Wed Apr  9 03:46:29 2025.
