 Gaussian 16, Revision C.01,

 ----------------------------------------------------------------------
 #t hf aug-cc-pvdz symm=none int=(grid=ultrafine) guess=(read,tcheck) s
 table=(opt,rrhf)
 ----------------------------------------------------------------------
 -----
 title
 -----
 Symbolic Z-matrix:
 Charge =  0 Multiplicity = 1

 SCF Done:  E(RHF) =  -344.687212637     A.U. after   13 cycles

 1\1\GINC-SE452\Stability\RHF\Aug-CC-pVDZ\C5H10O2\OHZDE\09-Apr-2025\0\\
 #t hf aug-cc-pvdz symm=none int=(grid=ultrafine) guess=(read,tcheck) s
 table=(opt,rrhf)\\title\\0,1\C,0,1.5151622,1.40644571,-0.64227421\O,0,
 1.33221719,0.50538391,0.29047435\C,0,0.52238671,-0.49858967,0.20626825
 \C,0,0.15694006,-1.40417113,1.34223829\O,0,-1.18168088,-1.48208591,0.8
 1776764\C,0,-0.91747676,-0.55376122,-0.25928474\C,0,-1.75039556,0.7065
 4525,-0.14666156\H,0,1.84957039,-0.24029837,-1.78870821\H,0,0.72002177
 ,1.6076071,-1.34548713\H,0,2.2777359,2.13024778,-0.40582863\H,0,1.5191

 Normal termination of Gaussian 16 at Wed Apr  9 03:27:30 2025.
 Gaussian 16:  ES64L-G16RevC.01  3-Jul-2019

 ----------------------------------------------------------------------
 #t hf aug-cc-pvdz iop(5/13=1,5/36=2,99/5=2) pseudo=read geom=check gue
 ss=(read,tcheck) scf=(maxcycle=1)
 ----------------------------------------------------------------------
 -----
 title
 -----
 Structure from the checkpoint file:  "Grambow2020_wb97xd3_006660_forward_mol1.chk"
 Charge =  0 Multiplicity = 1

                         Standard orientation:
 ---------------------------------------------------------------------
 Center     Atomic      Atomic             Coordinates (Angstroms)
 Number     Number       Type             X           Y           Z
 ---------------------------------------------------------------------
      1          6           0       -2.321111    0.244168   -0.069110
      2          8           0       -1.348719   -0.576850   -0.378601
      3          6           0       -0.184173   -0.595585    0.182076
      4          6           0        0.991406   -1.384687   -0.307201
      5          8           0        1.853129   -0.302102    0.090906
      6          6           0        0.757795    0.543188    0.512049
      7          6           0        0.660535    1.809112   -0.314260
      8          1           0       -1.963595   -0.468216    1.802413
      9          1           0       -2.083338    1.205384    0.363037
     10          1           0       -3.235197    0.060986   -0.609670
     11          1           0       -1.234824   -0.769588    1.857975
     12          1           0        1.024690   -1.571501   -1.387037
     13          1           0        1.226319   -2.307224    0.230714
     14          1           0        0.853306    0.786045    1.575558
     15          1           0       -0.122387    2.471038    0.059596
     16          1           0        1.610624    2.341098   -0.248299
     17          1           0        0.462413    1.586411   -1.364054
 ---------------------------------------------------------------------

 SCF Done:  E(RHF) =  -346.318113451     A.U. after    2 cycles

 The electronic state is 1-A.
 Alpha  occ. eigenvalues --  -21.18140 -21.04405 -11.48936 -11.47007 -11.42031
 Alpha  occ. eigenvalues --  -11.41672 -11.38350  -1.88911  -1.77114  -1.14217
 Alpha  occ. eigenvalues --   -1.08660  -0.95655  -0.92582  -0.76718  -0.72537
 Alpha  occ. eigenvalues --   -0.67661  -0.66343  -0.62912  -0.59157  -0.58173
 Alpha  occ. eigenvalues --   -0.52911  -0.52230  -0.48148  -0.46709  -0.40739
 Alpha  occ. eigenvalues --   -0.37624  -0.30795  -0.26779
 Alpha virt. eigenvalues --    0.03983   0.04756   0.05005   0.05510   0.05846
 Alpha virt. eigenvalues --    0.06360   0.06573   0.07307   0.08277   0.10040
 Alpha virt. eigenvalues --    0.10644   0.11204   0.12577   0.13043   0.13558

 Mulliken charges:
               1
     1  C   -2.146270
     2  O   -3.643873
     3  C    3.229874
     4  C   -1.967273
     5  O   -2.899890
     6  C   -0.067109
     7  C   -3.670324
     8  H    0.133734
     9  H    1.552873
    10  H    1.358363
    11  H   -0.351459
    12  H    1.452434
    13  H    1.501978
    14  H    1.719807
    15  H    1.381216
    16  H    1.139409
    17  H    1.276508
 Sum of Mulliken charges =  -0.00000

 Dipole moment (field-independent basis, Debye):
    X=              0.1302    Y=              0.5893    Z=             -0.9253  Tot=              1.1047

 Test job not archived.
 1\1\GINC-SE452\SP\RHF\Aug-CC-pVDZ\C5H10O2\OHZDE\09-Apr-2025\0\\#t hf a
 ug-cc-pvdz iop(5/13=1,5/36=2,99/5=2) pseudo=read geom=check guess=(rea
 d,tcheck) scf=(maxcycle=1)\\title\\0,1\C,0,1.5151622,1.40644571,-0.642
 27421\O,0,1.33221719,0.50538391,0.29047435\C,0,0.52238671,-0.49858967,
 0.20626825\C,0,0.15694006,-1.40417113,1.34223829\O,0,-1.18168088,-1.48
 208591,0.81776764\C,0,-0.91747676,-0.55376122,-0.25928474\C,0,-1.75039
 556,0.70654525,-0.14666156\H,0,1.84957039,-0.24029837,-1.78870821\H,0,
 0.72002177,1.6076071,-1.34548713\H,0,2.2777359,2.13024778,-0.40582863\

 Normal termination of Gaussian 16 at Wed Apr  9 03:27:35 2025.
