 Gaussian 16, Revision C.01,

 ----------------------------------------------------------------------
 #t hf aug-cc-pvdz symm=none int=(grid=ultrafine) guess=(read,tcheck) s
 table=(opt,rrhf)
 ----------------------------------------------------------------------
 -----
 title
 -----
 Symbolic Z-matrix:
 Charge =  0 Multiplicity = 1

 SCF Done:  E(RHF) =  -358.382502477     A.U. after   16 cycles
 Normal termination of Gaussian 16 at Wed Apr  9 18:13:58 2025.
 Gaussian 16:  ES64L-G16RevC.01  3-Jul-2019

 ----------------------------------------------------------------------
 #t hf aug-cc-pvdz iop(5/13=1,5/36=2,99/5=2) pseudo=read geom=check gue
 ss=(read,tcheck) scf=(maxcycle=1)
 ----------------------------------------------------------------------
 -----
 title
 -----
 Structure from the checkpoint file:  "Grambow2020_wb97xd3_006784_forward_mol1.chk"
 Charge =  0 Multiplicity = 1

                         Standard orientation:
 ---------------------------------------------------------------------
 Center     Atomic      Atomic             Coordinates (Angstroms)
 Number     Number       Type             X           Y           Z
 ---------------------------------------------------------------------
      1          8           0        3.043188   -0.389284    0.081755
      2          6           0        2.059983    0.269650   -0.108338
      3          6           0        0.678830   -0.259412    0.054664
      4          6           0       -0.380598    0.613248    0.546663
      5          7           0       -0.370314    0.375400   -0.774417
      6          6           0       -1.925067   -0.500801    0.080255
      7          8           0       -2.983566   -0.011320   -0.076048
      8          1           0        2.113513    1.327196   -0.436124
      9          1           0        0.625496   -1.328253    0.278700
     10          1           0       -0.536294    1.515597    1.126532
     11          1           0       -1.250222   -0.242499    1.176068
     12          1           0       -1.436153   -1.431124   -0.209376
 ---------------------------------------------------------------------

 SCF Done:  E(RHF) =  -359.974205511     A.U. after    2 cycles

 The electronic state is 1-A.
 Alpha  occ. eigenvalues --  -21.09392 -21.08117 -15.75976 -11.57883 -11.56211
 Alpha  occ. eigenvalues --  -11.50871 -11.45636  -1.76169  -1.73035  -1.52323
 Alpha  occ. eigenvalues --   -1.05774  -0.97748  -0.90958  -0.84566  -0.70136
 Alpha  occ. eigenvalues --   -0.69240  -0.63124  -0.58851  -0.57060  -0.53133
 Alpha  occ. eigenvalues --   -0.48955  -0.48245  -0.39201  -0.36594  -0.31982
 Alpha  occ. eigenvalues --   -0.30146
 Alpha virt. eigenvalues --    0.03180   0.04553   0.05255   0.05595   0.06434
 Alpha virt. eigenvalues --    0.08750   0.09313   0.10672   0.11317   0.12046
 Alpha virt. eigenvalues --    0.12513   0.12981   0.13452   0.13593   0.14923

 Mulliken charges:
               1
     1  O   -2.857242
     2  C    1.168556
     3  C   -0.196159
     4  C   -0.630756
     5  N   -1.740848
     6  C    1.496577
     7  O   -2.919942
     8  H    1.374150
     9  H    1.246210
    10  H    0.820550
    11  H    1.127391
    12  H    1.111515
 Sum of Mulliken charges =  -0.00000

 Dipole moment (field-independent basis, Debye):
    X=             -1.1275    Y=             -0.2333    Z=              1.6713  Tot=              2.0295

 Test job not archived.
 1\1\GINC-SE028\SP\RHF\Aug-CC-pVDZ\C4H5N1O2\OHZDE\09-Apr-2025\0\\#t hf
 aug-cc-pvdz iop(5/13=1,5/36=2,99/5=2) pseudo=read geom=check guess=(re
 ad,tcheck) scf=(maxcycle=1)\\title\\0,1\O,0,3.08365618,0.0411153,0.036
 92458\C,0,2.03984541,-0.01992615,-0.54938078\C,0,0.72383512,-0.1296500
 2,0.13628553\C,0,-0.45088663,0.51601928,-0.43740932\N,0,-0.35412161,-0
 .8109784,-0.61528965\C,0,-1.83275922,-0.37944128,0.62682834\O,0,-2.933
 04425,-0.46463678,0.21871572\H,0,1.9843826,-0.01275976,-1.65644187\H,0
 ,0.78543077,-0.23888011,1.22243986\H,0,-0.73630317,1.32433614,-1.10064

 Normal termination of Gaussian 16 at Wed Apr  9 18:14:02 2025.
