 Gaussian 16, Revision C.01,

 ----------------------------------------------------------------------
 #t hf aug-cc-pvdz symm=none int=(grid=ultrafine) guess=(read,tcheck) s
 table=(opt,rrhf)
 ----------------------------------------------------------------------
 -----
 title
 -----
 Symbolic Z-matrix:
 Charge =  0 Multiplicity = 1

 SCF Done:  E(RHF) =  -308.985578219     A.U. after   15 cycles

 1\1\GINC-SE229\Stability\RHF\Aug-CC-pVDZ\C6H12O1\OHZDE\09-Apr-2025\0\\
 #t hf aug-cc-pvdz symm=none int=(grid=ultrafine) guess=(read,tcheck) s
 table=(opt,rrhf)\\title\\0,1\C,0,-1.0997598,-1.90316366,-0.35344594\C,
 0,-0.19280849,-0.67483423,-0.33018683\C,0,-0.64659511,0.29470151,0.771
 57033\C,0,-0.34812266,1.75803252,0.53024906\O,0,1.08057132,2.01196696,
 0.50921006\C,0,1.69401523,2.53335883,-0.49255435\C,0,1.26543903,-1.104
 28298,-0.16977975\H,0,-2.1396191,-1.63218017,-0.54991411\H,0,-0.786080
 88,-2.6103351,-1.12372427\H,0,-1.06614122,-2.42509582,0.60746632\H,0,-

 Normal termination of Gaussian 16 at Wed Apr  9 03:29:18 2025.
 Gaussian 16:  ES64L-G16RevC.01  3-Jul-2019

 ----------------------------------------------------------------------
 #t hf aug-cc-pvdz iop(5/13=1,5/36=2,99/5=2) pseudo=read geom=check gue
 ss=(read,tcheck) scf=(maxcycle=1)
 ----------------------------------------------------------------------
 -----
 title
 -----
 Structure from the checkpoint file:  "Grambow2020_wb97xd3_006732_reverse_mol2.chk"
 Charge =  0 Multiplicity = 1

                         Standard orientation:
 ---------------------------------------------------------------------
 Center     Atomic      Atomic             Coordinates (Angstroms)
 Number     Number       Type             X           Y           Z
 ---------------------------------------------------------------------
      1          6           0       -2.570129   -0.316832    0.343572
      2          6           0       -1.102911    0.102473    0.285692
      3          6           0       -0.272433   -0.980972   -0.418754
      4          6           0        1.178109   -1.080002   -0.000687
      5          8           0        1.917721    0.114946   -0.362853
      6          6           0        2.541409    0.848727    0.488191
      7          6           0       -0.975625    1.469268   -0.386850
      8          1           0       -2.700231   -1.252013    0.892980
      9          1           0       -3.179356    0.446448    0.831487
     10          1           0       -2.969032   -0.463120   -0.664581
     11          1           0       -0.737150    0.191015    1.316870
     12          1           0       -0.331303   -0.850292   -1.503861
     13          1           0       -0.705707   -1.964128   -0.206579
     14          1           0        1.674400   -1.902601   -0.517573
     15          1           0        1.283169   -1.213543    1.081400
     16          1           0        2.399210    0.372785    1.499582
     17          1           0       -1.357209    1.421919   -1.410978
     18          1           0       -1.563143    2.216671    0.150206
     19          1           0        0.054058    1.821321   -0.433110
 ---------------------------------------------------------------------

 SCF Done:  E(RHF) =  -310.486535919     A.U. after    2 cycles

 The electronic state is 1-A.
 Alpha  occ. eigenvalues --  -21.11615 -11.47662 -11.42713 -11.41366 -11.39772
 Alpha  occ. eigenvalues --  -11.38406 -11.35173  -1.81786  -1.27620  -1.10478
 Alpha  occ. eigenvalues --   -1.00137  -0.93370  -0.83732  -0.81521  -0.65821
 Alpha  occ. eigenvalues --   -0.65461  -0.62691  -0.59178  -0.58266  -0.53781
 Alpha  occ. eigenvalues --   -0.53418  -0.51094  -0.46994  -0.45246  -0.44277
 Alpha  occ. eigenvalues --   -0.43217  -0.40164  -0.32295
 Alpha virt. eigenvalues --    0.03923   0.04618   0.04909   0.05149   0.05632
 Alpha virt. eigenvalues --    0.05784   0.06355   0.06742   0.07533   0.08025
 Alpha virt. eigenvalues --    0.09063   0.09317   0.10782   0.12226   0.12886

 Mulliken charges:
               1
     1  C   -4.155406
     2  C   -1.525230
     3  C   -2.714077
     4  C   -1.567888
     5  O   -2.024516
     6  C   -1.307426
     7  C   -3.797483
     8  H    1.250906
     9  H    1.248074
    10  H    1.338622
    11  H    1.889827
    12  H    1.484754
    13  H    1.448461
    14  H    1.187384
    15  H    1.745444
    16  H    1.506113
    17  H    1.260803
    18  H    1.242279
    19  H    1.489357
 Sum of Mulliken charges =  -0.00000

 Dipole moment (field-independent basis, Debye):
    X=             -2.2280    Y=             -2.8753    Z=              0.0072  Tot=              3.6375

 Test job not archived.
 1\1\GINC-SE229\SP\RHF\Aug-CC-pVDZ\C6H12O1\OHZDE\09-Apr-2025\0\\#t hf a
 ug-cc-pvdz iop(5/13=1,5/36=2,99/5=2) pseudo=read geom=check guess=(rea
 d,tcheck) scf=(maxcycle=1)\\title\\0,1\C,0,-1.0997598,-1.90316366,-0.3
 5344594\C,0,-0.19280849,-0.67483423,-0.33018683\C,0,-0.64659511,0.2947
 0151,0.77157033\C,0,-0.34812266,1.75803252,0.53024906\O,0,1.08057132,2
 .01196696,0.50921006\C,0,1.69401523,2.53335883,-0.49255435\C,0,1.26543
 903,-1.10428298,-0.16977975\H,0,-2.1396191,-1.63218017,-0.54991411\H,0
 ,-0.78608088,-2.6103351,-1.12372427\H,0,-1.06614122,-2.42509582,0.6074

 Normal termination of Gaussian 16 at Wed Apr  9 03:29:26 2025.
