 Gaussian 16, Revision C.01,

 ----------------------------------------------------------------------
 #t hf aug-cc-pvdz symm=none int=(grid=ultrafine) guess=(read,tcheck) s
 table=(opt,rrhf)
 ----------------------------------------------------------------------
 -----
 title
 -----
 Symbolic Z-matrix:
 Charge =  0 Multiplicity = 1

 SCF Done:  E(RHF) =  -306.568657492     A.U. after   16 cycles
 Normal termination of Gaussian 16 at Wed Apr  9 04:05:49 2025.
 Gaussian 16:  ES64L-G16RevC.01  3-Jul-2019

 ----------------------------------------------------------------------
 #t hf aug-cc-pvdz iop(5/13=1,5/36=2,99/5=2) pseudo=read geom=check gue
 ss=(read,tcheck) scf=(maxcycle=1)
 ----------------------------------------------------------------------
 -----
 title
 -----
 Structure from the checkpoint file:  "Grambow2020_wb97xd3_009281_forward_mol1.chk"
 Charge =  0 Multiplicity = 1

                         Standard orientation:
 ---------------------------------------------------------------------
 Center     Atomic      Atomic             Coordinates (Angstroms)
 Number     Number       Type             X           Y           Z
 ---------------------------------------------------------------------
      1          6           0       -1.782653   -1.069669   -0.133308
      2          6           0       -0.967021    0.059419    0.494455
      3          6           0       -1.236551    1.408666   -0.172307
      4          6           0        0.480276   -0.261010    0.484003
      5          8           0        1.081875   -0.413006   -1.078949
      6          6           0        1.646035   -0.185928    1.137685
      7          6           0        1.867983    0.197194   -0.226101
      8          1           0       -1.545043   -1.164907   -1.193513
      9          1           0       -2.848221   -0.857957   -0.033015
     10          1           0       -1.576324   -2.024797    0.350659
     11          1           0       -1.207019    0.133259    1.559602
     12          1           0       -0.966881    1.376490   -1.228818
     13          1           0       -2.297629    1.649405   -0.098372
     14          1           0       -0.670432    2.206882    0.309610
     15          1           0        2.408137    1.093644   -0.541121
 ---------------------------------------------------------------------

 SCF Done:  E(RHF) =  -308.013320950     A.U. after    2 cycles

 The electronic state is 1-A.
 Alpha  occ. eigenvalues --  -21.09174 -11.54109 -11.50865 -11.44928 -11.40174
 Alpha  occ. eigenvalues --  -11.38520 -11.37939  -1.80540  -1.28261  -1.18464
 Alpha  occ. eigenvalues --   -1.02365  -0.93933  -0.85256  -0.71528  -0.65043
 Alpha  occ. eigenvalues --   -0.62140  -0.59356  -0.57671  -0.55501  -0.53069
 Alpha  occ. eigenvalues --   -0.51175  -0.47460  -0.47045  -0.41277  -0.35211
 Alpha  occ. eigenvalues --   -0.28516
 Alpha virt. eigenvalues --    0.03481   0.04875   0.05269   0.05626   0.05937
 Alpha virt. eigenvalues --    0.06146   0.06443   0.07856   0.09593   0.10273
 Alpha virt. eigenvalues --    0.10914   0.12084   0.12870   0.13406   0.14483

 Mulliken charges:
               1
     1  C   -3.724639
     2  C   -2.997445
     3  C   -4.071497
     4  C    3.887193
     5  O   -2.395374
     6  C   -2.278315
     7  C    0.976422
     8  H    1.410470
     9  H    1.221649
    10  H    1.256228
    11  H    1.461607
    12  H    1.378351
    13  H    1.197909
    14  H    1.219052
    15  H    1.458389
 Sum of Mulliken charges =  -0.00000

 Dipole moment (field-independent basis, Debye):
    X=             -2.4061    Y=              0.7510    Z=             -2.9329  Tot=              3.8672

 Test job not archived.
 1\1\GINC-SE453\SP\RHF\Aug-CC-pVDZ\C6H8O1\OHZDE\09-Apr-2025\0\\#t hf au
 g-cc-pvdz iop(5/13=1,5/36=2,99/5=2) pseudo=read geom=check guess=(read
 ,tcheck) scf=(maxcycle=1)\\title\\0,1\C,0,-1.24763024,0.67723464,-1.15
 105627\C,0,-0.22523668,-0.26308961,-0.51490878\C,0,-0.7456183,-0.89716
 623,0.77537493\C,0,1.06458814,0.43067257,-0.28578014\O,0,0.91183946,1.
 7043205,0.80156958\C,0,2.40000567,0.338474,-0.29530301\C,0,2.00105123,
 0.98522371,0.92063554\H,0,-1.50407033,1.48160153,-0.46055243\H,0,-2.15
 663223,0.12601875,-1.39639608\H,0,-0.86003486,1.12355008,-2.0673733\H,

 Normal termination of Gaussian 16 at Wed Apr  9 04:05:53 2025.
