 Gaussian 16, Revision C.01,

 ----------------------------------------------------------------------
 #t hf aug-cc-pvdz symm=none int=(grid=ultrafine) guess=(read,tcheck) s
 table=(opt,rrhf)
 ----------------------------------------------------------------------
 -----
 title
 -----
 Symbolic Z-matrix:
 Charge =  0 Multiplicity = 1

 SCF Done:  E(RHF) =  -324.962713421     A.U. after   17 cycles
 Normal termination of Gaussian 16 at Wed Apr  9 19:08:16 2025.
 Gaussian 16:  ES64L-G16RevC.01  3-Jul-2019

 ----------------------------------------------------------------------
 #t hf aug-cc-pvdz iop(5/13=1,5/36=2,99/5=2) pseudo=read geom=check gue
 ss=(read,tcheck) scf=(maxcycle=1)
 ----------------------------------------------------------------------
 -----
 title
 -----
 Structure from the checkpoint file:  "Grambow2020_wb97xd3_008125_forward_mol1.chk"
 Charge =  0 Multiplicity = 1

                         Standard orientation:
 ---------------------------------------------------------------------
 Center     Atomic      Atomic             Coordinates (Angstroms)
 Number     Number       Type             X           Y           Z
 ---------------------------------------------------------------------
      1          6           0        3.060373    0.086223   -0.099756
      2          7           0        0.974561   -0.074832   -0.941799
      3          6           0        0.275370   -0.086162    0.153840
      4          8           0        0.458188   -0.160144    1.350721
      5          6           0       -1.172639    0.046424   -0.485995
      6          6           0       -1.946266   -1.198077   -0.073726
      7          6           0       -1.764922    1.342320    0.051022
      8          1           0        3.540604    0.675020   -0.873501
      9          1           0        3.670884   -0.745281    0.251507
     10          1           0        2.683020    0.674193    0.726919
     11          1           0        2.214272   -0.512972   -0.651379
     12          1           0       -1.114546    0.096345   -1.574593
     13          1           0       -1.970672   -1.286970    1.012952
     14          1           0       -1.493576   -2.101302   -0.485036
     15          1           0       -2.971643   -1.132252   -0.443917
     16          1           0       -2.786154    1.459408   -0.318099
     17          1           0       -1.785557    1.325935    1.141328
     18          1           0       -1.185554    2.208481   -0.271674
 ---------------------------------------------------------------------

 SCF Done:  E(RHF) =  -326.511776761     A.U. after    2 cycles

 The electronic state is 1-A.
 Alpha  occ. eigenvalues --  -21.02733 -15.80724 -11.50189 -11.43411 -11.41308
 Alpha  occ. eigenvalues --  -11.38871 -11.36901  -1.70360  -1.34838  -1.20557
 Alpha  occ. eigenvalues --   -1.06050  -1.01360  -0.86990  -0.73468  -0.66011
 Alpha  occ. eigenvalues --   -0.61828  -0.60672  -0.58432  -0.57832  -0.56881
 Alpha  occ. eigenvalues --   -0.54569  -0.51545  -0.50204  -0.46895  -0.45293
 Alpha  occ. eigenvalues --   -0.43447  -0.32264  -0.27920
 Alpha virt. eigenvalues --    0.03193   0.04784   0.05415   0.05677   0.05802
 Alpha virt. eigenvalues --    0.05957   0.06714   0.07145   0.07393   0.08238
 Alpha virt. eigenvalues --    0.08948   0.10829   0.11912   0.12827   0.13938

 Mulliken charges:
               1
     1  C   -4.774180
     2  N   -3.019721
     3  C    7.240843
     4  O   -3.438808
     5  C   -3.135459
     6  C   -3.916993
     7  C   -3.797669
     8  H    1.153122
     9  H    1.108742
    10  H    1.394206
    11  H    1.668825
    12  H    1.867840
    13  H    1.386597
    14  H    1.231465
    15  H    1.210431
    16  H    1.241744
    17  H    1.360017
    18  H    1.218998
 Sum of Mulliken charges =   0.00000

 Dipole moment (field-independent basis, Debye):
    X=              0.7341    Y=              0.1535    Z=             -0.6370  Tot=              0.9840

 Test job not archived.
 1\1\GINC-SE114\SP\RHF\Aug-CC-pVDZ\C5H11N1O1\OHZDE\09-Apr-2025\0\\#t hf
  aug-cc-pvdz iop(5/13=1,5/36=2,99/5=2) pseudo=read geom=check guess=(r
 ead,tcheck) scf=(maxcycle=1)\\title\\0,1\C,0,3.08385149,0.55534344,-0.
 23557035\N,0,0.97117583,0.1963439,-0.93792773\C,0,0.39235829,-0.097862
 97,0.1880541\O,0,0.700896,-0.32786046,1.33841214\C,0,-1.11537004,-0.10
 024423,-0.31239333\C,0,-1.65492622,-1.5014315,-0.06179556\C,0,-1.83450
 065,0.98409587,0.47854958\H,0,3.39460954,1.32702472,-0.93121619\H,0,3.
 84063765,-0.21234358,-0.07606859\H,0,2.70801338,0.93879119,0.70422119\

 Normal termination of Gaussian 16 at Wed Apr  9 19:08:22 2025.
