 Gaussian 16, Revision C.01,

 ----------------------------------------------------------------------
 #t hf aug-cc-pvdz symm=none int=(grid=ultrafine) guess=(read,tcheck) s
 table=(opt,rrhf)
 ----------------------------------------------------------------------
 -----
 title
 -----
 Symbolic Z-matrix:
 Charge =  0 Multiplicity = 1

 SCF Done:  E(RHF) =  -322.639130821     A.U. after   13 cycles
 Normal termination of Gaussian 16 at Wed Apr  9 19:10:55 2025.
 Gaussian 16:  ES64L-G16RevC.01  3-Jul-2019

 ----------------------------------------------------------------------
 #t hf aug-cc-pvdz iop(5/13=1,5/36=2,99/5=2) pseudo=read geom=check gue
 ss=(read,tcheck) scf=(maxcycle=1)
 ----------------------------------------------------------------------
 -----
 title
 -----
 Structure from the checkpoint file:  "Grambow2020_wb97xd3_008248_reverse_mol2.chk"
 Charge =  0 Multiplicity = 1

                         Standard orientation:
 ---------------------------------------------------------------------
 Center     Atomic      Atomic             Coordinates (Angstroms)
 Number     Number       Type             X           Y           Z
 ---------------------------------------------------------------------
      1          6           0        2.118223    0.432568   -0.296236
      2          6           0        0.752699   -0.106067   -0.103649
      3          7           0        0.006462   -0.295254    1.127305
      4          6           0        0.037130   -1.387527    0.096635
      5          6           0       -1.260132   -0.939737   -0.570645
      6          6           0       -0.645472    0.358542   -0.061610
      7          8           0       -1.074500    1.643398   -0.056109
      8          1           0        2.405328    0.410960   -1.348253
      9          1           0        2.840340   -0.153117    0.274227
     10          1           0        2.160400    1.464518    0.054369
     11          1           0       -1.801842    1.726835    0.565853
     12          1           0        0.443628   -2.358510    0.335813
     13          1           0       -2.171504   -1.260436   -0.058734
     14          1           0       -1.340265   -1.057331   -1.652504
 ---------------------------------------------------------------------

 SCF Done:  E(RHF) =  -324.125936585     A.U. after    2 cycles

 The electronic state is 1-A.
 Alpha  occ. eigenvalues --  -21.09939 -15.72408 -11.54128 -11.49334 -11.46261
 Alpha  occ. eigenvalues --  -11.40941 -11.38970  -1.76690  -1.57814  -1.11091
 Alpha  occ. eigenvalues --   -1.06602  -0.93291  -0.85024  -0.73938  -0.69939
 Alpha  occ. eigenvalues --   -0.60789  -0.59625  -0.57235  -0.56120  -0.54785
 Alpha  occ. eigenvalues --   -0.50506  -0.44371  -0.38031  -0.36442  -0.34446
 Alpha  occ. eigenvalues --   -0.32405
 Alpha virt. eigenvalues --    0.03763   0.05348   0.05602   0.05948   0.06003
 Alpha virt. eigenvalues --    0.06416   0.07078   0.09701   0.10949   0.11949
 Alpha virt. eigenvalues --    0.12275   0.12683   0.13333   0.14585   0.14730

 Mulliken charges:
               1
     1  C   -4.567114
     2  C    2.979958
     3  N   -1.659113
     4  C   -1.302011
     5  C   -3.372729
     6  C    4.491027
     7  O   -3.787036
     8  H    1.195517
     9  H    0.949189
    10  H    0.974119
    11  H    0.519379
    12  H    1.141777
    13  H    1.224543
    14  H    1.212495
 Sum of Mulliken charges =  -0.00000

 Dipole moment (field-independent basis, Debye):
    X=              0.0532    Y=             -0.3038    Z=             -0.7439  Tot=              0.8053

 Test job not archived.
 1\1\GINC-SE035\SP\RHF\Aug-CC-pVDZ\C5H7N1O1\OHZDE\09-Apr-2025\0\\#t hf
 aug-cc-pvdz iop(5/13=1,5/36=2,99/5=2) pseudo=read geom=check guess=(re
 ad,tcheck) scf=(maxcycle=1)\\title\\0,1\C,0,-2.01077395,0.19643276,0.1
 462608\C,0,-0.53488454,0.09277573,0.19990892\N,0,0.29086772,-0.9435198
 6,0.79331654\C,0,0.61948171,0.5024718,1.03290371\C,0,1.61637097,0.5768
 1423,-0.1200713\C,0,0.58605301,-0.44090388,-0.59456931\O,0,0.50003732,
 -1.22212627,-1.69785587\H,0,-2.32316074,1.12053694,-0.34167643\H,0,-2.
 42878065,0.17563784,1.15360664\H,0,-2.41958678,-0.64668708,-0.41199146

 Normal termination of Gaussian 16 at Wed Apr  9 19:10:59 2025.
