 Gaussian 16, Revision C.01,

 ----------------------------------------------------------------------
 #t hf aug-cc-pvdz symm=none int=(grid=ultrafine) guess=(read,tcheck) s
 table=(opt,rrhf)
 ----------------------------------------------------------------------
 -----
 title
 -----
 Symbolic Z-matrix:
 Charge =  0 Multiplicity = 1

 SCF Done:  E(RHF) =  -306.684798176     A.U. after   15 cycles
 Normal termination of Gaussian 16 at Wed Apr  9 04:04:48 2025.
 Gaussian 16:  ES64L-G16RevC.01  3-Jul-2019

 ----------------------------------------------------------------------
 #t hf aug-cc-pvdz iop(5/13=1,5/36=2,99/5=2) pseudo=read geom=check gue
 ss=(read,tcheck) scf=(maxcycle=1)
 ----------------------------------------------------------------------
 -----
 title
 -----
 Structure from the checkpoint file:  "Grambow2020_wb97xd3_009206_reverse_mol2.chk"
 Charge =  0 Multiplicity = 1

                         Standard orientation:
 ---------------------------------------------------------------------
 Center     Atomic      Atomic             Coordinates (Angstroms)
 Number     Number       Type             X           Y           Z
 ---------------------------------------------------------------------
      1          6           0       -3.849199    0.024377   -0.037123
      2          6           0       -2.397356   -0.090444    0.005814
      3          6           0       -1.200178   -0.178651    0.041614
      4          6           0        0.219919   -0.314874    0.085327
      5          6           0        1.066566    0.705577   -0.021038
      6          6           0        2.559341    0.579886    0.015422
      7          8           0        3.039291   -0.743230    0.026395
      8          1           0       -4.154820    0.826954   -0.710335
      9          1           0       -4.301193   -0.903906   -0.389915
     10          1           0       -4.251283    0.242141    0.953983
     11          1           0        2.784201   -1.165595   -0.796755
     12          1           0        0.610564   -1.317768    0.228756
     13          1           0        0.679065    1.713304   -0.142021
     14          1           0        2.984780    1.148251   -0.823512
     15          1           0        2.939797    1.047226    0.928537
 ---------------------------------------------------------------------

 SCF Done:  E(RHF) =  -308.120376924     A.U. after    2 cycles

 The electronic state is 1-A.
 Alpha  occ. eigenvalues --  -21.07509 -11.46183 -11.44560 -11.44110 -11.40711
 Alpha  occ. eigenvalues --  -11.38495 -11.38202  -1.72100  -1.23259  -1.14528
 Alpha  occ. eigenvalues --   -1.03251  -0.94794  -0.80836  -0.69826  -0.65550
 Alpha  occ. eigenvalues --   -0.60867  -0.59150  -0.58412  -0.57836  -0.53274
 Alpha  occ. eigenvalues --   -0.52076  -0.43422  -0.41221  -0.35768  -0.32264
 Alpha  occ. eigenvalues --   -0.30036
 Alpha virt. eigenvalues --    0.03042   0.04700   0.05944   0.05970   0.06170
 Alpha virt. eigenvalues --    0.06673   0.06797   0.07335   0.09570   0.09917
 Alpha virt. eigenvalues --    0.10833   0.12546   0.13053   0.13471   0.14475

 Mulliken charges:
               1
     1  C   -5.100805
     2  C    2.146906
     3  C    2.048916
     4  C   -0.605119
     5  C   -3.140956
     6  C   -0.945493
     7  O   -2.703869
     8  H    0.826006
     9  H    0.835428
    10  H    0.884416
    11  H    0.742694
    12  H    1.469340
    13  H    1.426494
    14  H    1.034873
    15  H    1.081170
 Sum of Mulliken charges =   0.00000

 Dipole moment (field-independent basis, Debye):
    X=             -0.4902    Y=              0.4932    Z=             -0.4667  Tot=              0.8375

 Test job not archived.
 1\1\GINC-SE331\SP\RHF\Aug-CC-pVDZ\C6H8O1\OHZDE\09-Apr-2025\0\\#t hf au
 g-cc-pvdz iop(5/13=1,5/36=2,99/5=2) pseudo=read geom=check guess=(read
 ,tcheck) scf=(maxcycle=1)\\title\\0,1\C,0,3.04543893,-0.96847176,-1.83
 793889\C,0,1.89564929,-0.60155364,-1.02170955\C,0,0.94401258,-0.300268
 01,-0.35394238\C,0,-0.16809647,0.0603018,0.46480435\C,0,-1.40040703,0.
 24902624,0.00086503\C,0,-2.57731437,0.63467081,0.84447169\O,0,-2.26850
 692,0.93685232,2.18403515\H,0,2.97497865,-0.52053614,-2.83047974\H,0,3
 .97316372,-0.62588644,-1.37703571\H,0,3.10651009,-2.05155221,-1.958727

 Normal termination of Gaussian 16 at Wed Apr  9 04:04:52 2025.
