 Gaussian 16, Revision C.01,

 ----------------------------------------------------------------------
 #t hf aug-cc-pvdz symm=none int=(grid=ultrafine) guess=(read,tcheck) s
 table=(opt,rrhf)
 ----------------------------------------------------------------------
 -----
 title
 -----
 Symbolic Z-matrix:
 Charge =  0 Multiplicity = 1

 SCF Done:  E(RHF) =  -262.502759212     A.U. after   18 cycles
 Normal termination of Gaussian 16 at Wed Apr  9 17:02:26 2025.
 Gaussian 16:  ES64L-G16RevC.01  3-Jul-2019

 ----------------------------------------------------------------------
 #t hf aug-cc-pvdz iop(5/13=1,5/36=2,99/5=2) pseudo=read geom=check gue
 ss=(read,tcheck) scf=(maxcycle=1)
 ----------------------------------------------------------------------
 -----
 title
 -----
 Structure from the checkpoint file:  "Grambow2020_b97d3_006908_forward_mol1.chk"
 Charge =  0 Multiplicity = 1

                         Standard orientation:
 ---------------------------------------------------------------------
 Center     Atomic      Atomic             Coordinates (Angstroms)
 Number     Number       Type             X           Y           Z
 ---------------------------------------------------------------------
      1          6           0       -1.149339    0.814630    0.183777
      2          6           0       -1.194986   -0.560971   -0.189757
      3          7           0       -0.094278   -1.312273    0.035688
      4          7           0        1.093224   -0.856692    0.229149
      5          6           0        1.218274    0.518060   -0.160393
      6          6           0        0.077242    1.354484   -0.162503
      7          1           0       -1.984119    1.365142    0.615518
      8          1           0       -2.063134   -1.092887   -0.576747
      9          1           0        2.145090    0.780357   -0.680064
     10          1           0        1.202393    1.372920    0.760685
 ---------------------------------------------------------------------

 SCF Done:  E(RHF) =  -263.712112443     A.U. after    2 cycles

 The electronic state is 1-A.
 Alpha  occ. eigenvalues --  -15.81116 -15.79674 -11.47147 -11.46746 -11.44101
 Alpha  occ. eigenvalues --  -11.40160  -1.57898  -1.23285  -1.20914  -0.95731
 Alpha  occ. eigenvalues --   -0.88101  -0.73186  -0.68191  -0.64485  -0.63270
 Alpha  occ. eigenvalues --   -0.57590  -0.47165  -0.45619  -0.41348  -0.35357
 Alpha  occ. eigenvalues --   -0.30525
 Alpha virt. eigenvalues --    0.02683   0.05215   0.05336   0.05717   0.06551
 Alpha virt. eigenvalues --    0.09591   0.09904   0.11028   0.11186   0.11697
 Alpha virt. eigenvalues --    0.13302   0.14038   0.14627   0.14645   0.15517

 Mulliken charges:
               1
     1  C    0.099956
     2  C   -0.462236
     3  N   -1.291238
     4  N   -1.829583
     5  C   -1.098511
     6  C   -0.749334
     7  H    1.393769
     8  H    1.351334
     9  H    1.381220
    10  H    1.204622
 Sum of Mulliken charges =  -0.00000

 Dipole moment (field-independent basis, Debye):
    X=             -0.7817    Y=              0.3577    Z=              0.0665  Tot=              0.8622

 Test job not archived.
 1\1\GINC-SE229\SP\RHF\Aug-CC-pVDZ\C4H4N2\OHZDE\09-Apr-2025\0\\#t hf au
 g-cc-pvdz iop(5/13=1,5/36=2,99/5=2) pseudo=read geom=check guess=(read
 ,tcheck) scf=(maxcycle=1)\\title\\0,1\C,0,0.79018106,0.91041083,-0.123
 2543\C,0,1.33257493,-0.4042985,-0.01725074\N,0,0.52534109,-1.44549691,
 -0.31910988\N,0,-0.75996986,-1.40607125,-0.3586383\C,0,-1.28826476,-0.
 23980221,0.28792516\C,0,-0.49732933,0.92923874,0.38450217\H,0,1.339155
 54,1.77709181,-0.48905765\H,0,2.36658854,-0.65561068,0.21520352\H,0,-2
 .18298536,-0.40081254,0.89734833\H,0,-1.66349885,0.70100272,-0.4560553

 Normal termination of Gaussian 16 at Wed Apr  9 17:02:30 2025.
