 Gaussian 16, Revision C.01,

 ----------------------------------------------------------------------
 #t hf aug-cc-pvdz symm=none int=(grid=ultrafine) guess=(read,tcheck) s
 table=(opt,rrhf)
 ----------------------------------------------------------------------
 -----
 title
 -----
 Symbolic Z-matrix:
 Charge =  0 Multiplicity = 1

 SCF Done:  E(RHF) =  -344.818195728     A.U. after   15 cycles

 1\1\GINC-SE340\Stability\RHF\Aug-CC-pVDZ\C5H10O2\OHZDE\09-Apr-2025\0\\
 #t hf aug-cc-pvdz symm=none int=(grid=ultrafine) guess=(read,tcheck) s
 table=(opt,rrhf)\\title\\0,1\O,0,1.78143548,0.12930453,1.35341033\C,0,
 2.02511401,-0.1298083,-0.02003101\C,0,0.81414377,-0.81685293,-0.619262
 35\C,0,-0.43274249,0.0546238,-0.76653979\C,0,-3.45891999,0.72910358,0.
 36657329\O,0,-2.27551901,1.2208978,0.27290774\C,0,-1.07454827,0.449982
 69,0.54790947\H,0,2.55619722,0.54178855,1.7370435\H,0,2.90076065,-0.77
 987292,-0.13486993\H,0,2.22835826,0.80496998,-0.56030276\H,0,0.5864371

 Normal termination of Gaussian 16 at Wed Apr  9 18:41:37 2025.
 Gaussian 16:  ES64L-G16RevC.01  3-Jul-2019

 ----------------------------------------------------------------------
 #t hf aug-cc-pvdz iop(5/13=1,5/36=2,99/5=2) pseudo=read geom=check gue
 ss=(read,tcheck) scf=(maxcycle=1)
 ----------------------------------------------------------------------
 -----
 title
 -----
 Structure from the checkpoint file:  "Grambow2020_wb97xd3_007545_reverse_mol2.chk"
 Charge =  0 Multiplicity = 1

                         Standard orientation:
 ---------------------------------------------------------------------
 Center     Atomic      Atomic             Coordinates (Angstroms)
 Number     Number       Type             X           Y           Z
 ---------------------------------------------------------------------
      1          8           0       -2.000314   -1.213181    0.192162
      2          6           0       -2.289514    0.108789   -0.234006
      3          6           0       -1.249653    1.053640    0.334767
      4          6           0        0.153775    0.922548   -0.256073
      5          6           0        3.251019   -0.110044    0.231219
      6          8           0        2.198704   -0.346366   -0.467249
      7          6           0        0.861075   -0.369150    0.100638
      8          1           0       -2.671331   -1.806205   -0.147885
      9          1           0       -3.282544    0.413114    0.117853
     10          1           0       -2.288917    0.170862   -1.330892
     11          1           0       -1.216237    0.918539    1.420493
     12          1           0       -1.600327    2.073979    0.158682
     13          1           0        0.112276    1.016811   -1.345259
     14          1           0        2.910577    0.035351    1.297168
     15          1           0        0.766000    1.753594    0.106832
     16          1           0        0.365874   -1.241016   -0.319098
     17          1           0        0.957295   -0.493351    1.183530
 ---------------------------------------------------------------------

 SCF Done:  E(RHF) =  -346.399587943     A.U. after    2 cycles

 The electronic state is 1-A.
 Alpha  occ. eigenvalues --  -21.10854 -21.08022 -11.46249 -11.45167 -11.41261
 Alpha  occ. eigenvalues --  -11.40524 -11.37064  -1.80947  -1.72478  -1.22689
 Alpha  occ. eigenvalues --   -1.06546  -0.93644  -0.84010  -0.82437  -0.68871
 Alpha  occ. eigenvalues --   -0.67087  -0.62993  -0.61529  -0.57310  -0.55122
 Alpha  occ. eigenvalues --   -0.52200  -0.48161  -0.47225  -0.43016  -0.41923
 Alpha  occ. eigenvalues --   -0.40675  -0.33687  -0.30993
 Alpha virt. eigenvalues --    0.03411   0.04686   0.04898   0.05036   0.05625
 Alpha virt. eigenvalues --    0.06475   0.06680   0.06888   0.07182   0.08944
 Alpha virt. eigenvalues --    0.11194   0.12310   0.12989   0.13203   0.13554

 Mulliken charges:
               1
     1  O   -2.608696
     2  C   -1.131326
     3  C   -2.504340
     4  C   -2.827962
     5  C   -1.286698
     6  O   -2.237752
     7  C   -1.217518
     8  H    0.849255
     9  H    1.315739
    10  H    1.452323
    11  H    1.413207
    12  H    1.254943
    13  H    1.465079
    14  H    1.494372
    15  H    1.420610
    16  H    1.479447
    17  H    1.669316
 Sum of Mulliken charges =  -0.00000

 Dipole moment (field-independent basis, Debye):
    X=             -4.8717    Y=              0.0008    Z=              0.1232  Tot=              4.8732

 Test job not archived.
 1\1\GINC-SE340\SP\RHF\Aug-CC-pVDZ\C5H10O2\OHZDE\09-Apr-2025\0\\#t hf a
 ug-cc-pvdz iop(5/13=1,5/36=2,99/5=2) pseudo=read geom=check guess=(rea
 d,tcheck) scf=(maxcycle=1)\\title\\0,1\O,0,1.78143548,0.12930453,1.353
 41033\C,0,2.02511401,-0.1298083,-0.02003101\C,0,0.81414377,-0.81685293
 ,-0.61926235\C,0,-0.43274249,0.0546238,-0.76653979\C,0,-3.45891999,0.7
 2910358,0.36657329\O,0,-2.27551901,1.2208978,0.27290774\C,0,-1.0745482
 7,0.44998269,0.54790947\H,0,2.55619722,0.54178855,1.7370435\H,0,2.9007
 6065,-0.77987292,-0.13486993\H,0,2.22835826,0.80496998,-0.56030276\H,0

 Normal termination of Gaussian 16 at Wed Apr  9 18:41:42 2025.
