 Gaussian 16, Revision C.01,

 ----------------------------------------------------------------------
 #t hf aug-cc-pvdz symm=none int=(grid=ultrafine) guess=(read,tcheck) s
 table=(opt,rrhf)
 ----------------------------------------------------------------------
 -----
 title
 -----
 Symbolic Z-matrix:
 Charge =  0 Multiplicity = 1

 SCF Done:  E(RHF) =  -307.649992031     A.U. after   15 cycles

 1\1\GINC-SE105\Stability\RHF\Aug-CC-pVDZ\C6H10O1\OHZDE\09-Apr-2025\0\\
 #t hf aug-cc-pvdz symm=none int=(grid=ultrafine) guess=(read,tcheck) s
 table=(opt,rrhf)\\title\\0,1\C,0,2.11668534,-0.53167448,-0.17668612\C,
 0,1.4059878,0.35403398,0.7792018\C,0,-0.20511777,1.22325901,-0.2424928
 2\C,0,-1.66273649,1.1822652,-0.58185223\C,0,-2.0859109,0.01498073,-0.1
 3231579\C,0,-0.88725033,-0.48324355,0.57698441\O,0,-0.50981039,-1.7706
 6253,0.33328523\H,0,2.36609234,-0.04176065,-1.12227353\H,0,3.06610341,
 -0.70796078,0.35123925\H,0,1.68897625,-1.52353924,-0.37126827\H,0,1.09

 Normal termination of Gaussian 16 at Wed Apr  9 03:45:47 2025.
 Gaussian 16:  ES64L-G16RevC.01  3-Jul-2019

 ----------------------------------------------------------------------
 #t hf aug-cc-pvdz iop(5/13=1,5/36=2,99/5=2) pseudo=read geom=check gue
 ss=(read,tcheck) scf=(maxcycle=1)
 ----------------------------------------------------------------------
 -----
 title
 -----
 Structure from the checkpoint file:  "Grambow2020_wb97xd3_007821_forward_mol1.chk"
 Charge =  0 Multiplicity = 1

                         Standard orientation:
 ---------------------------------------------------------------------
 Center     Atomic      Atomic             Coordinates (Angstroms)
 Number     Number       Type             X           Y           Z
 ---------------------------------------------------------------------
      1          6           0       -2.308313   -0.194791   -0.467600
      2          6           0       -1.519535   -0.654176    0.702906
      3          6           0        0.352839   -1.279727   -0.002767
      4          6           0        1.788503   -0.942594   -0.261047
      5          6           0        1.874173    0.360682   -0.066505
      6          6           0        0.521525    0.675242    0.442923
      7          8           0       -0.117933    1.746023   -0.108275
      8          1           0       -2.330272   -0.916665   -1.289044
      9          1           0       -3.324797   -0.159002   -0.047294
     10          1           0       -2.106225    0.810478   -0.858993
     11          1           0       -1.449326    0.166556    1.425304
     12          1           0       -0.171369   -1.477951   -0.934551
     13          1           0        0.237155   -2.125294    0.667015
     14          1           0        2.563185   -1.661647   -0.507217
     15          1           0        2.692105    1.064458   -0.167614
     16          1           0        0.439905    0.721155    1.523020
     17          1           0        0.137948    1.821915   -1.031888
 ---------------------------------------------------------------------

 SCF Done:  E(RHF) =  -309.143957423     A.U. after    2 cycles

 The electronic state is 1-A.
 Alpha  occ. eigenvalues --  -21.10758 -11.50243 -11.44778 -11.41383 -11.38883
 Alpha  occ. eigenvalues --  -11.38021 -11.34489  -1.76425  -1.28665  -1.11419
 Alpha  occ. eigenvalues --   -0.98008  -0.92320  -0.79138  -0.77892  -0.70236
 Alpha  occ. eigenvalues --   -0.62336  -0.59699  -0.57669  -0.56442  -0.54735
 Alpha  occ. eigenvalues --   -0.49113  -0.48180  -0.46314  -0.40760  -0.35404
 Alpha  occ. eigenvalues --   -0.33931  -0.26114
 Alpha virt. eigenvalues --    0.03580   0.04833   0.05133   0.05379   0.05933
 Alpha virt. eigenvalues --    0.06436   0.06875   0.07181   0.08689   0.09010
 Alpha virt. eigenvalues --    0.10408   0.11789   0.12087   0.13184   0.13871

 Mulliken charges:
               1
     1  C   -3.792337
     2  C   -2.306521
     3  C   -2.291826
     4  C   -0.871671
     5  C   -1.672250
     6  C    1.609450
     7  O   -3.304544
     8  H    1.317923
     9  H    1.226915
    10  H    1.504212
    11  H    1.243199
    12  H    1.522378
    13  H    1.128835
    14  H    1.276127
    15  H    1.155785
    16  H    1.510008
    17  H    0.744318
 Sum of Mulliken charges =  -0.00000

 Dipole moment (field-independent basis, Debye):
    X=              2.0543    Y=              1.8362    Z=             -1.1429  Tot=              2.9830

 Test job not archived.
 1\1\GINC-SE105\SP\RHF\Aug-CC-pVDZ\C6H10O1\OHZDE\09-Apr-2025\0\\#t hf a
 ug-cc-pvdz iop(5/13=1,5/36=2,99/5=2) pseudo=read geom=check guess=(rea
 d,tcheck) scf=(maxcycle=1)\\title\\0,1\C,0,2.11668534,-0.53167448,-0.1
 7668612\C,0,1.4059878,0.35403398,0.7792018\C,0,-0.20511777,1.22325901,
 -0.24249282\C,0,-1.66273649,1.1822652,-0.58185223\C,0,-2.0859109,0.014
 98073,-0.13231579\C,0,-0.88725033,-0.48324355,0.57698441\O,0,-0.509810
 39,-1.77066253,0.33328523\H,0,2.36609234,-0.04176065,-1.12227353\H,0,3
 .06610341,-0.70796078,0.35123925\H,0,1.68897625,-1.52353924,-0.3712682

 Normal termination of Gaussian 16 at Wed Apr  9 03:45:53 2025.
