 Gaussian 16, Revision C.01,

 ----------------------------------------------------------------------
 #t hf aug-cc-pvdz symm=none int=(grid=ultrafine) guess=(read,tcheck) s
 table=(opt,rrhf)
 ----------------------------------------------------------------------
 -----
 title
 -----
 Symbolic Z-matrix:
 Charge =  0 Multiplicity = 1

 SCF Done:  E(RHF) =  -307.691304411     A.U. after   17 cycles

 1\1\GINC-SE454\Stability\RHF\Aug-CC-pVDZ\C6H10O1\OHZDE\09-Apr-2025\0\\
 #t hf aug-cc-pvdz symm=none int=(grid=ultrafine) guess=(read,tcheck) s
 table=(opt,rrhf)\\title\\0,1\C,0,2.12163494,0.10377336,0.29870372\C,0,
 0.66395882,-0.09101568,0.11323515\C,0,-0.11090077,-1.12420604,0.554200
 84\C,0,-1.43523279,-0.87423808,0.31250664\C,0,-1.62875697,0.51458032,-
 0.19162757\C,0,-0.20071166,0.86141306,-0.70042537\O,0,0.16041372,2.214
 41829,-0.59038073\H,0,2.37193166,1.16009057,0.41042324\H,0,2.66682717,
 -0.25333548,-0.58331484\H,0,2.4881062,-0.45190001,1.16164694\H,0,0.032

 Normal termination of Gaussian 16 at Wed Apr  9 18:51:57 2025.
 Gaussian 16:  ES64L-G16RevC.01  3-Jul-2019

 ----------------------------------------------------------------------
 #t hf aug-cc-pvdz iop(5/13=1,5/36=2,99/5=2) pseudo=read geom=check gue
 ss=(read,tcheck) scf=(maxcycle=1)
 ----------------------------------------------------------------------
 -----
 title
 -----
 Structure from the checkpoint file:  "Grambow2020_wb97xd3_007729_reverse_mol1.chk"
 Charge =  0 Multiplicity = 1

                         Standard orientation:
 ---------------------------------------------------------------------
 Center     Atomic      Atomic             Coordinates (Angstroms)
 Number     Number       Type             X           Y           Z
 ---------------------------------------------------------------------
      1          6           0        1.619436    1.465669   -0.073379
      2          6           0        0.354531    0.697786    0.013406
      3          6           0       -0.918709    1.145941   -0.187483
      4          6           0       -1.808422    0.105512   -0.161521
      5          6           0       -1.094207   -1.200806   -0.099473
      6          6           0        0.302366   -0.765702    0.428497
      7          8           0        1.381604   -1.539847   -0.028767
      8          1           0        2.434251    0.850052   -0.458122
      9          1           0        1.927832    1.801695    0.923966
     10          1           0        1.502780    2.350248   -0.699204
     11          1           0       -1.519961    2.146016    0.148608
     12          1           0       -2.881134    0.250057   -0.102449
     13          1           0       -2.389196    2.169019    0.927973
     14          1           0       -1.614697   -1.927958    0.526555
     15          1           0       -0.982043   -1.654714   -1.090131
     16          1           0        0.325482   -0.867561    1.520565
     17          1           0        1.413887   -1.488480   -0.987906
 ---------------------------------------------------------------------

 SCF Done:  E(RHF) =  -309.171075857     A.U. after    2 cycles

 The electronic state is 1-A.
 Alpha  occ. eigenvalues --  -21.09658 -11.51654 -11.49132 -11.45756 -11.42908
 Alpha  occ. eigenvalues --  -11.41108 -11.37925  -1.74974  -1.36504  -1.14070
 Alpha  occ. eigenvalues --   -1.04413  -0.98328  -0.84160  -0.76423  -0.70854
 Alpha  occ. eigenvalues --   -0.66335  -0.62364  -0.59602  -0.58665  -0.53954
 Alpha  occ. eigenvalues --   -0.52296  -0.50780  -0.49612  -0.43702  -0.38811
 Alpha  occ. eigenvalues --   -0.33453  -0.24041
 Alpha virt. eigenvalues --    0.01921   0.03484   0.04537   0.05061   0.05448
 Alpha virt. eigenvalues --    0.05577   0.05849   0.06753   0.07683   0.09016
 Alpha virt. eigenvalues --    0.09569   0.10442   0.11183   0.12522   0.12929

 Mulliken charges:
               1
     1  C   -4.635572
     2  C    3.080143
     3  C   -1.310649
     4  C   -1.267649
     5  C   -4.257561
     6  C    0.723335
     7  O   -3.273548
     8  H    1.276379
     9  H    1.200368
    10  H    1.381945
    11  H    1.104244
    12  H    1.512883
    13  H   -0.337176
    14  H    1.238999
    15  H    1.411203
    16  H    1.526935
    17  H    0.625722
 Sum of Mulliken charges =  -0.00000

 Dipole moment (field-independent basis, Debye):
    X=              3.2443    Y=             -4.0607    Z=             -2.0636  Tot=              5.5923

 Test job not archived.
 1\1\GINC-SE454\SP\RHF\Aug-CC-pVDZ\C6H10O1\OHZDE\09-Apr-2025\0\\#t hf a
 ug-cc-pvdz iop(5/13=1,5/36=2,99/5=2) pseudo=read geom=check guess=(rea
 d,tcheck) scf=(maxcycle=1)\\title\\0,1\C,0,2.12163494,0.10377336,0.298
 70372\C,0,0.66395882,-0.09101568,0.11323515\C,0,-0.11090077,-1.1242060
 4,0.55420084\C,0,-1.43523279,-0.87423808,0.31250664\C,0,-1.62875697,0.
 51458032,-0.19162757\C,0,-0.20071166,0.86141306,-0.70042537\O,0,0.1604
 1372,2.21441829,-0.59038073\H,0,2.37193166,1.16009057,0.41042324\H,0,2
 .66682717,-0.25333548,-0.58331484\H,0,2.4881062,-0.45190001,1.16164694

 Normal termination of Gaussian 16 at Wed Apr  9 18:52:02 2025.
