 Gaussian 16, Revision C.01,

 ----------------------------------------------------------------------
 #t hf aug-cc-pvdz symm=none int=(grid=ultrafine) guess=(read,tcheck) s
 table=(opt,rrhf)
 ----------------------------------------------------------------------
 -----
 title
 -----
 Symbolic Z-matrix:
 Charge =  0 Multiplicity = 1

 SCF Done:  E(RHF) =  -287.885151979     A.U. after   16 cycles

 1\1\GINC-SE108\Stability\RHF\Aug-CC-pVDZ\C6H11N1\OHZDE\09-Apr-2025\0\\
 #t hf aug-cc-pvdz symm=none int=(grid=ultrafine) guess=(read,tcheck) s
 table=(opt,rrhf)\\title\\0,1\C,0,2.0030683,0.08051837,-0.34204452\C,0,
 0.836507,-0.53272089,0.39225542\C,0,-0.62498827,0.02819502,0.09199359\
 C,0,-1.67835251,-1.05543884,-0.05160119\C,0,-0.75072795,1.13127262,-0.
 94198771\C,0,-0.2693726,0.39343702,1.42789084\N,0,-0.06544763,0.760496
 02,2.57364496\H,0,1.93688869,-0.03777921,-1.42906211\H,0,2.93159399,-0
 .3925208,-0.01866042\H,0,2.10658941,1.14816835,-0.13241\H,0,0.84923828

 Normal termination of Gaussian 16 at Wed Apr  9 18:41:56 2025.
 Gaussian 16:  ES64L-G16RevC.01  3-Jul-2019

 ----------------------------------------------------------------------
 #t hf aug-cc-pvdz iop(5/13=1,5/36=2,99/5=2) pseudo=read geom=check gue
 ss=(read,tcheck) scf=(maxcycle=1)
 ----------------------------------------------------------------------
 -----
 title
 -----
 Structure from the checkpoint file:  "Grambow2020_wb97xd3_007531_forward_mol1.chk"
 Charge =  0 Multiplicity = 1

                         Standard orientation:
 ---------------------------------------------------------------------
 Center     Atomic      Atomic             Coordinates (Angstroms)
 Number     Number       Type             X           Y           Z
 ---------------------------------------------------------------------
      1          6           0       -1.896074   -1.024669   -0.228814
      2          6           0       -0.788633   -0.135802   -0.738339
      3          6           0        0.606599   -0.149311    0.032307
      4          6           0        1.813514   -0.169259   -0.888246
      5          6           0        0.739300   -1.084081    1.219869
      6          6           0       -0.009894    1.123707    0.241703
      7          7           0       -0.447671    2.235848    0.487799
      8          1           0       -1.637948   -2.089009   -0.251871
      9          1           0       -2.787330   -0.892057   -0.844102
     10          1           0       -2.184126   -0.777527    0.796118
     11          1           0       -1.131779    1.422945   -0.324674
     12          1           0       -0.618176   -0.156670   -1.811864
     13          1           0        1.693197    0.530654   -1.715671
     14          1           0        2.722783    0.095505   -0.345536
     15          1           0        1.937644   -1.173028   -1.300883
     16          1           0        1.637292   -0.841066    1.790202
     17          1           0       -0.114483   -1.019326    1.892312
     18          1           0        0.827749   -2.114858    0.870503
 ---------------------------------------------------------------------

 SCF Done:  E(RHF) =  -289.335244329     A.U. after    2 cycles

 The electronic state is 1-A.
 Alpha  occ. eigenvalues --  -15.74039 -11.50613 -11.47880 -11.41021 -11.40463
 Alpha  occ. eigenvalues --  -11.39484 -11.36293  -1.42939  -1.25664  -1.10367
 Alpha  occ. eigenvalues --   -1.03199  -0.98862  -0.81862  -0.70735  -0.65459
 Alpha  occ. eigenvalues --   -0.63012  -0.61540  -0.56763  -0.56371  -0.54883
 Alpha  occ. eigenvalues --   -0.54345  -0.52275  -0.49686  -0.46953  -0.42137
 Alpha  occ. eigenvalues --   -0.39994  -0.25128
 Alpha virt. eigenvalues --    0.03181   0.04952   0.05187   0.05382   0.05632
 Alpha virt. eigenvalues --    0.05809   0.06529   0.06759   0.08295   0.08633
 Alpha virt. eigenvalues --    0.08970   0.10413   0.11700   0.12116   0.13211

 Mulliken charges:
               1
     1  C   -4.123867
     2  C   -1.945240
     3  C    0.865215
     4  C   -4.469414
     5  C   -4.488018
     6  C    2.998768
     7  N   -2.555885
     8  H    1.349442
     9  H    1.064368
    10  H    1.464287
    11  H    0.986387
    12  H    1.349345
    13  H    1.289344
    14  H    1.198235
    15  H    1.281900
    16  H    1.096534
    17  H    1.352060
    18  H    1.286542
 Sum of Mulliken charges =   0.00000

 Dipole moment (field-independent basis, Debye):
    X=              1.1108    Y=             -2.6981    Z=             -0.5297  Tot=              2.9655

 Test job not archived.
 1\1\GINC-SE108\SP\RHF\Aug-CC-pVDZ\C6H11N1\OHZDE\09-Apr-2025\0\\#t hf a
 ug-cc-pvdz iop(5/13=1,5/36=2,99/5=2) pseudo=read geom=check guess=(rea
 d,tcheck) scf=(maxcycle=1)\\title\\0,1\C,0,2.0030683,0.08051837,-0.342
 04452\C,0,0.836507,-0.53272089,0.39225542\C,0,-0.62498827,0.02819502,0
 .09199359\C,0,-1.67835251,-1.05543884,-0.05160119\C,0,-0.75072795,1.13
 127262,-0.94198771\C,0,-0.2693726,0.39343702,1.42789084\N,0,-0.0654476
 3,0.76049602,2.57364496\H,0,1.93688869,-0.03777921,-1.42906211\H,0,2.9
 3159399,-0.3925208,-0.01866042\H,0,2.10658941,1.14816835,-0.13241\H,0,

 Normal termination of Gaussian 16 at Wed Apr  9 18:42:03 2025.
