 Gaussian 16, Revision C.01,

 ----------------------------------------------------------------------
 #t hf aug-cc-pvdz symm=none int=(grid=ultrafine) guess=(read,tcheck) s
 table=(opt,rrhf)
 ----------------------------------------------------------------------
 -----
 title
 -----
 Symbolic Z-matrix:
 Charge =  0 Multiplicity = 1

 SCF Done:  E(RHF) =  -307.776410087     A.U. after   16 cycles

 1\1\GINC-SE173\Stability\RHF\Aug-CC-pVDZ\C6H10O1\OHZDE\09-Apr-2025\0\\
 #t hf aug-cc-pvdz symm=none int=(grid=ultrafine) guess=(read,tcheck) s
 table=(opt,rrhf)\\title\\0,1\C,0,2.24507667,0.04436692,-0.03438042\C,0
 ,0.77443495,-0.19987268,-0.16467149\C,0,0.02506283,-1.18400457,0.45442
 624\C,0,-1.36721868,-0.92425834,0.32202146\C,0,-1.45376439,-0.02745082
 ,-0.91806413\C,0,-0.1690603,0.68967736,-0.72054935\O,0,-1.01507417,1.5
 1865071,0.94412249\H,0,2.45307136,0.93415914,0.56769847\H,0,2.71969656
 ,0.19119881,-1.00659174\H,0,2.73577934,-0.8016311,0.44834591\H,0,0.443

 Normal termination of Gaussian 16 at Wed Apr  9 18:52:59 2025.
 Gaussian 16:  ES64L-G16RevC.01  3-Jul-2019

 ----------------------------------------------------------------------
 #t hf aug-cc-pvdz iop(5/13=1,5/36=2,99/5=2) pseudo=read geom=check gue
 ss=(read,tcheck) scf=(maxcycle=1)
 ----------------------------------------------------------------------
 -----
 title
 -----
 Structure from the checkpoint file:  "Grambow2020_wb97xd3_007735_forward_mol1.chk"
 Charge =  0 Multiplicity = 1

                         Standard orientation:
 ---------------------------------------------------------------------
 Center     Atomic      Atomic             Coordinates (Angstroms)
 Number     Number       Type             X           Y           Z
 ---------------------------------------------------------------------
      1          6           0       -2.366408    0.141085    0.056770
      2          6           0       -0.915260   -0.208799    0.162439
      3          6           0       -0.226231   -1.172795   -0.551218
      4          6           0        1.178899   -1.017399   -0.393393
      5          6           0        1.314402   -0.255351    0.929667
      6          6           0        0.079458    0.558835    0.804122
      7          8           0        0.987621    1.492692   -0.769797
      8          1           0       -2.513178    1.097688   -0.453975
      9          1           0       -2.837059    0.220995    1.038667
     10          1           0       -2.906967   -0.619629   -0.507708
     11          1           0       -0.690289   -1.868371   -1.242525
     12          1           0        1.233320    0.196043   -0.962973
     13          1           0        1.867706   -1.808436   -0.665829
     14          1           0        1.213703   -0.944186    1.777117
     15          1           0        2.219770    0.336100    1.041186
     16          1           0       -0.111945    1.442785    1.398120
     17          1           0        0.234821    1.732022   -1.314032
 ---------------------------------------------------------------------

 SCF Done:  E(RHF) =  -309.293956358     A.U. after    2 cycles

 The electronic state is 1-A.
 Alpha  occ. eigenvalues --  -21.00128 -11.50040 -11.46943 -11.42293 -11.40281
 Alpha  occ. eigenvalues --  -11.38464 -11.35512  -1.58905  -1.36091  -1.11692
 Alpha  occ. eigenvalues --   -1.03448  -0.96588  -0.81236  -0.76498  -0.68681
 Alpha  occ. eigenvalues --   -0.66184  -0.58058  -0.57396  -0.52757  -0.51580
 Alpha  occ. eigenvalues --   -0.48352  -0.47817  -0.45542  -0.44457  -0.40023
 Alpha  occ. eigenvalues --   -0.28330  -0.22890
 Alpha virt. eigenvalues --    0.03658   0.04480   0.05041   0.05184   0.05787
 Alpha virt. eigenvalues --    0.06383   0.06534   0.07694   0.07968   0.08788
 Alpha virt. eigenvalues --    0.10037   0.11565   0.12569   0.13035   0.13878

 Mulliken charges:
               1
     1  C   -4.553332
     2  C    5.418660
     3  C   -1.896914
     4  C   -3.712489
     5  C   -3.875147
     6  C   -3.280175
     7  O   -1.951424
     8  H    1.160592
     9  H    1.197431
    10  H    1.241946
    11  H    1.611742
    12  H    2.334843
    13  H    1.232831
    14  H    1.347715
    15  H    1.289820
    16  H    1.570437
    17  H    0.863464
 Sum of Mulliken charges =  -0.00000

 Dipole moment (field-independent basis, Debye):
    X=             -0.7317    Y=             -0.2872    Z=              0.5878  Tot=              0.9815

 Test job not archived.
 1\1\GINC-SE173\SP\RHF\Aug-CC-pVDZ\C6H10O1\OHZDE\09-Apr-2025\0\\#t hf a
 ug-cc-pvdz iop(5/13=1,5/36=2,99/5=2) pseudo=read geom=check guess=(rea
 d,tcheck) scf=(maxcycle=1)\\title\\0,1\C,0,2.24507667,0.04436692,-0.03
 438042\C,0,0.77443495,-0.19987268,-0.16467149\C,0,0.02506283,-1.184004
 57,0.45442624\C,0,-1.36721868,-0.92425834,0.32202146\C,0,-1.45376439,-
 0.02745082,-0.91806413\C,0,-0.1690603,0.68967736,-0.72054935\O,0,-1.01
 507417,1.51865071,0.94412249\H,0,2.45307136,0.93415914,0.56769847\H,0,
 2.71969656,0.19119881,-1.00659174\H,0,2.73577934,-0.8016311,0.44834591

 Normal termination of Gaussian 16 at Wed Apr  9 18:53:05 2025.
