 Gaussian 16, Revision C.01,

 ----------------------------------------------------------------------
 #t hf aug-cc-pvdz symm=none int=(grid=ultrafine) guess=(read,tcheck) s
 table=(opt,rrhf)
 ----------------------------------------------------------------------
 -----
 title
 -----
 Symbolic Z-matrix:
 Charge =  0 Multiplicity = 1

 SCF Done:  E(RHF) =  -302.675090901     A.U. after   18 cycles
 Normal termination of Gaussian 16 at Wed Apr  9 18:27:52 2025.
 Gaussian 16:  ES64L-G16RevC.01  3-Jul-2019

 ----------------------------------------------------------------------
 #t hf aug-cc-pvdz iop(5/13=1,5/36=2,99/5=2) pseudo=read geom=check gue
 ss=(read,tcheck) scf=(maxcycle=1)
 ----------------------------------------------------------------------
 -----
 title
 -----
 Structure from the checkpoint file:  "Grambow2020_wb97xd3_007161_reverse_mol1.chk"
 Charge =  0 Multiplicity = 1

                         Standard orientation:
 ---------------------------------------------------------------------
 Center     Atomic      Atomic             Coordinates (Angstroms)
 Number     Number       Type             X           Y           Z
 ---------------------------------------------------------------------
      1          6           0       -1.630026    1.251358    0.434052
      2          6           0       -1.240675   -0.200479    0.537994
      3          6           0       -1.532501   -1.167794   -0.525263
      4          7           0       -0.163301   -0.700024   -0.311182
      5          6           0        2.192950   -0.556605    0.703773
      6          6           0        1.847041    0.395687   -0.187792
      7          7           0        1.219249    1.016420   -0.965775
      8          1           0       -1.626337    1.570788   -0.608051
      9          1           0       -0.925644    1.882366    0.977651
     10          1           0       -2.627838    1.402906    0.850909
     11          1           0       -1.194391   -0.588701    1.553310
     12          1           0       -1.711862   -2.214353   -0.298798
     13          1           0       -1.986555   -0.820202   -1.449332
     14          1           0        2.108833   -0.359892    1.763692
     15          1           0        2.751424   -1.420686    0.372739
 ---------------------------------------------------------------------

 SCF Done:  E(RHF) =  -304.121511934     A.U. after    2 cycles

 The electronic state is 1-A.
 Alpha  occ. eigenvalues --  -15.78012 -15.76675 -11.48019 -11.44250 -11.41772
 Alpha  occ. eigenvalues --  -11.40706 -11.37837  -1.44925  -1.31397  -1.08002
 Alpha  occ. eigenvalues --   -1.06650  -0.89679  -0.83206  -0.69717  -0.68052
 Alpha  occ. eigenvalues --   -0.63255  -0.61726  -0.57564  -0.55538  -0.51679
 Alpha  occ. eigenvalues --   -0.49533  -0.47716  -0.43612  -0.41447  -0.33958
 Alpha  occ. eigenvalues --   -0.27521
 Alpha virt. eigenvalues --    0.03142   0.03754   0.05168   0.05453   0.05630
 Alpha virt. eigenvalues --    0.06161   0.06788   0.07472   0.07638   0.09685
 Alpha virt. eigenvalues --    0.10851   0.12003   0.12195   0.12530   0.13547

 Mulliken charges:
               1
     1  C   -4.427294
     2  C   -0.074887
     3  C   -2.077419
     4  N   -1.531493
     5  C   -2.280173
     6  C    1.440352
     7  N   -2.185383
     8  H    1.348116
     9  H    1.311387
    10  H    1.182629
    11  H    1.515596
    12  H    1.433683
    13  H    1.504861
    14  H    1.441557
    15  H    1.398470
 Sum of Mulliken charges =  -0.00000

 Dipole moment (field-independent basis, Debye):
    X=             -1.4478    Y=             -1.6707    Z=              1.7492  Tot=              2.8191

 Test job not archived.
 1\1\GINC-SE116\SP\RHF\Aug-CC-pVDZ\C5H8N2\OHZDE\09-Apr-2025\0\\#t hf au
 g-cc-pvdz iop(5/13=1,5/36=2,99/5=2) pseudo=read geom=check guess=(read
 ,tcheck) scf=(maxcycle=1)\\title\\0,1\C,0,-1.55120604,-1.02425424,-0.0
 5709418\C,0,-0.89935003,0.3034017,-0.34456686\C,0,-0.9518271,1.4229934
 1,0.60155022\N,0,0.29225984,0.67774465,0.41128649\C,0,2.52774933,-0.03
 327521,-0.6373601\C,0,2.05054372,-0.79333175,0.37060463\N,0,1.35427058
 ,-1.18855448,1.23297949\H,0,-1.55853767,-1.21823386,1.01544717\H,0,-1.
 00572055,-1.83715263,-0.53820467\H,0,-2.57833101,-1.02591588,-0.427739

 Normal termination of Gaussian 16 at Wed Apr  9 18:27:56 2025.
