 Gaussian 16, Revision C.01,

 ----------------------------------------------------------------------
 #t hf aug-cc-pvdz symm=none int=(grid=ultrafine) guess=(read,tcheck) s
 table=(opt,rrhf)
 ----------------------------------------------------------------------
 -----
 title
 -----
 Symbolic Z-matrix:
 Charge =  0 Multiplicity = 1

 SCF Done:  E(RHF) =  -304.494979577     A.U. after   17 cycles
 Normal termination of Gaussian 16 at Wed Apr  9 03:14:52 2025.
 Gaussian 16:  ES64L-G16RevC.01  3-Jul-2019

 ----------------------------------------------------------------------
 #t hf aug-cc-pvdz iop(5/13=1,5/36=2,99/5=2) pseudo=read geom=check gue
 ss=(read,tcheck) scf=(maxcycle=1)
 ----------------------------------------------------------------------
 -----
 title
 -----
 Structure from the checkpoint file:  "Grambow2020_b97d3_006930_reverse_mol1.chk"
 Charge =  0 Multiplicity = 1

                         Standard orientation:
 ---------------------------------------------------------------------
 Center     Atomic      Atomic             Coordinates (Angstroms)
 Number     Number       Type             X           Y           Z
 ---------------------------------------------------------------------
      1          8           0       -1.710218   -0.716183   -0.288900
      2          6           0       -0.484447   -0.152300    0.075331
      3          6           0       -0.428552    1.287394    0.524642
      4          6           0        0.136531    0.940980   -0.803696
      5          8           0        1.784087   -0.078558   -0.096820
      6          6           0        0.749533   -0.996983    0.331078
      7          1           0       -2.207155   -0.886959    0.534827
      8          1           0       -1.411837    1.762293    0.442385
      9          1           0        0.212719    1.701097    1.306113
     10          1           0        1.318869    0.486880   -1.046774
     11          1           0        0.933499   -1.275647    1.379409
     12          1           0        0.724560   -1.904284   -0.294335
 ---------------------------------------------------------------------

 SCF Done:  E(RHF) =  -305.860114960     A.U. after    2 cycles

 The electronic state is 1-A.
 Alpha  occ. eigenvalues --  -21.10244 -21.04882 -11.48276 -11.45814 -11.43496
 Alpha  occ. eigenvalues --  -11.40315  -1.76074  -1.68298  -1.27014  -1.01277
 Alpha  occ. eigenvalues --   -0.88018  -0.75386  -0.68734  -0.67625  -0.59785
 Alpha  occ. eigenvalues --   -0.59115  -0.53800  -0.48585  -0.43982  -0.37938
 Alpha  occ. eigenvalues --   -0.35043  -0.30803  -0.29653
 Alpha virt. eigenvalues --    0.03593   0.04877   0.05437   0.05800   0.06473
 Alpha virt. eigenvalues --    0.07611   0.07924   0.09399   0.10682   0.12882
 Alpha virt. eigenvalues --    0.13546   0.14174   0.14599   0.15320   0.15497

 Mulliken charges:
               1
     1  O   -3.325645
     2  C    3.440272
     3  C   -2.652341
     4  C   -1.333064
     5  O   -2.221453
     6  C   -1.465001
     7  H    0.566576
     8  H    1.327026
     9  H    1.328782
    10  H    1.622033
    11  H    1.437435
    12  H    1.275381
 Sum of Mulliken charges =   0.00000

 Dipole moment (field-independent basis, Debye):
    X=             -0.3513    Y=             -0.7459    Z=              2.2219  Tot=              2.3700

 Test job not archived.
 1\1\GINC-SE120\SP\RHF\Aug-CC-pVDZ\C4H6O2\OHZDE\09-Apr-2025\0\\#t hf au
 g-cc-pvdz iop(5/13=1,5/36=2,99/5=2) pseudo=read geom=check guess=(read
 ,tcheck) scf=(maxcycle=1)\\title\\0,1\O,0,0.06025132,-1.45699081,-1.18
 654552\C,0,-0.00095904,-0.39326723,-0.28217467\C,0,-1.26903042,-0.1487
 8567,0.49881704\C,0,-0.91229054,0.80375196,-0.58248322\O,0,0.68751863,
 1.66991918,0.3890812\C,0,1.23987367,0.34794832,0.17884088\H,0,0.148023
 67,-2.27764704,-0.66361553\H,0,-2.05852811,-0.8428008,0.19193035\H,0,-
 1.34057056,0.19304702,1.53376142\H,0,-0.11304247,1.81189578,-0.4926808

 Normal termination of Gaussian 16 at Wed Apr  9 03:14:56 2025.
