 Gaussian 16, Revision C.01,

 ----------------------------------------------------------------------
 #t hf aug-cc-pvdz symm=none int=(grid=ultrafine) guess=(read,tcheck) s
 table=(opt,rrhf)
 ----------------------------------------------------------------------
 -----
 title
 -----
 Symbolic Z-matrix:
 Charge =  0 Multiplicity = 1

 SCF Done:  E(RHF) =  -287.987736806     A.U. after   13 cycles

 1\1\GINC-SE041\Stability\RHF\Aug-CC-pVDZ\C6H11N1\OHZDE\09-Apr-2025\0\\
 #t hf aug-cc-pvdz symm=none int=(grid=ultrafine) guess=(read,tcheck) s
 table=(opt,rrhf)\\title\\0,1\C,0,3.13543179,-0.81144992,-0.41016086\C,
 0,1.8792559,-1.08144773,-0.72261151\C,0,-1.18967102,0.68248667,0.49356
 82\C,0,-1.67450489,-0.73195764,0.69678484\C,0,-1.77301016,1.39321618,-
 0.70260798\C,0,0.02955905,1.15139945,1.11610401\N,0,-0.9802605,1.51728
 337,1.75093588\H,0,3.60431093,-1.23389458,0.47130656\H,0,1.10741792,1.
 23715915,1.16920373\H,0,3.74826183,-0.16199875,-1.02489514\H,0,1.26760

 Normal termination of Gaussian 16 at Wed Apr  9 18:41:48 2025.
 Gaussian 16:  ES64L-G16RevC.01  3-Jul-2019

 ----------------------------------------------------------------------
 #t hf aug-cc-pvdz iop(5/13=1,5/36=2,99/5=2) pseudo=read geom=check gue
 ss=(read,tcheck) scf=(maxcycle=1)
 ----------------------------------------------------------------------
 -----
 title
 -----
 Structure from the checkpoint file:  "Grambow2020_wb97xd3_007530_reverse_mol2.chk"
 Charge =  0 Multiplicity = 1

                         Standard orientation:
 ---------------------------------------------------------------------
 Center     Atomic      Atomic             Coordinates (Angstroms)
 Number     Number       Type             X           Y           Z
 ---------------------------------------------------------------------
      1          6           0       -3.437116    0.263405    0.121525
      2          6           0       -2.474057   -0.641639    0.077789
      3          6           0        1.216364   -0.023832   -0.011536
      4          6           0        1.157132   -1.058607   -1.108234
      5          6           0        1.761571   -0.517914    1.305616
      6          6           0        0.427306    1.187048   -0.083011
      7          7           0        1.609139    1.388060   -0.428671
      8          1           0       -3.835456    0.712238   -0.781341
      9          1           0       -0.499662    1.735296    0.027035
     10          1           0       -3.870658    0.588818    1.060351
     11          1           0       -2.042627   -0.968627   -0.861569
     12          1           0       -2.075142   -1.092988    0.979342
     13          1           0        0.759273   -0.635642   -2.030829
     14          1           0        2.156130   -1.451431   -1.316965
     15          1           0        0.526614   -1.902721   -0.815659
     16          1           0        2.757654   -0.948712    1.171630
     17          1           0        1.834975    0.292465    2.030794
     18          1           0        1.117730   -1.295887    1.725011
 ---------------------------------------------------------------------

 SCF Done:  E(RHF) =  -289.410852240     A.U. after    2 cycles

 The electronic state is 1-A.
 Alpha  occ. eigenvalues --  -15.74843 -11.47108 -11.42415 -11.41653 -11.38484
 Alpha  occ. eigenvalues --  -11.38006 -11.36430  -1.46893  -1.14656  -1.12974
 Alpha  occ. eigenvalues --   -1.01623  -0.83163  -0.82377  -0.79613  -0.65286
 Alpha  occ. eigenvalues --   -0.63091  -0.60597  -0.59354  -0.56933  -0.54649
 Alpha  occ. eigenvalues --   -0.53707  -0.50129  -0.49462  -0.45565  -0.37227
 Alpha  occ. eigenvalues --   -0.37069  -0.33597
 Alpha virt. eigenvalues --    0.03460   0.04872   0.05377   0.05747   0.05923
 Alpha virt. eigenvalues --    0.06128   0.06250   0.06704   0.07566   0.07694
 Alpha virt. eigenvalues --    0.09566   0.10827   0.11545   0.12191   0.12704

 Mulliken charges:
               1
     1  C   -2.935334
     2  C   -3.009353
     3  C    2.733865
     4  C   -4.893184
     5  C   -4.903191
     6  C    0.410938
     7  N   -2.085433
     8  H    1.344337
     9  H    1.231068
    10  H    1.366172
    11  H    1.657116
    12  H    1.494076
    13  H    1.407102
    14  H    1.114083
    15  H    1.267755
    16  H    1.181091
    17  H    1.350892
    18  H    1.267999
 Sum of Mulliken charges =   0.00000

 Dipole moment (field-independent basis, Debye):
    X=             -1.6327    Y=             -0.6176    Z=              0.5374  Tot=              1.8264

 Test job not archived.
 1\1\GINC-SE041\SP\RHF\Aug-CC-pVDZ\C6H11N1\OHZDE\09-Apr-2025\0\\#t hf a
 ug-cc-pvdz iop(5/13=1,5/36=2,99/5=2) pseudo=read geom=check guess=(rea
 d,tcheck) scf=(maxcycle=1)\\title\\0,1\C,0,3.13543179,-0.81144992,-0.4
 1016086\C,0,1.8792559,-1.08144773,-0.72261151\C,0,-1.18967102,0.682486
 67,0.4935682\C,0,-1.67450489,-0.73195764,0.69678484\C,0,-1.77301016,1.
 39321618,-0.70260798\C,0,0.02955905,1.15139945,1.11610401\N,0,-0.98026
 05,1.51728337,1.75093588\H,0,3.60431093,-1.23389458,0.47130656\H,0,1.1
 0741792,1.23715915,1.16920373\H,0,3.74826183,-0.16199875,-1.02489514\H

 Normal termination of Gaussian 16 at Wed Apr  9 18:41:54 2025.
