 Gaussian 16, Revision C.01,

 ----------------------------------------------------------------------
 #t hf aug-cc-pvdz symm=none int=(grid=ultrafine) guess=(read,tcheck) s
 table=(opt,rrhf)
 ----------------------------------------------------------------------
 -----
 title
 -----
 Symbolic Z-matrix:
 Charge =  0 Multiplicity = 1

 SCF Done:  E(RHF) =  -284.818285742     A.U. after   16 cycles
 Normal termination of Gaussian 16 at Wed Apr  9 03:21:03 2025.
 Gaussian 16:  ES64L-G16RevC.01  3-Jul-2019

 ----------------------------------------------------------------------
 #t hf aug-cc-pvdz iop(5/13=1,5/36=2,99/5=2) pseudo=read geom=check gue
 ss=(read,tcheck) scf=(maxcycle=1)
 ----------------------------------------------------------------------
 -----
 title
 -----
 Structure from the checkpoint file:  "Grambow2020_wb97xd3_006087_reverse_mol2.chk"
 Charge =  0 Multiplicity = 1

                         Standard orientation:
 ---------------------------------------------------------------------
 Center     Atomic      Atomic             Coordinates (Angstroms)
 Number     Number       Type             X           Y           Z
 ---------------------------------------------------------------------
      1          6           0       -2.245644   -0.581741    0.392757
      2          6           0       -1.172243   -0.204620   -0.613121
      3          7           0       -0.407678    0.972673   -0.172833
      4          6           0        0.786609    1.024737    0.305512
      5          6           0        1.569141   -0.175136    0.473560
      6          8           0        2.273442   -0.684160   -0.374845
      7          1           0       -1.801536   -0.849959    1.352590
      8          1           0       -2.817319   -1.436722    0.029898
      9          1           0       -2.943096    0.242271    0.557637
     10          1           0       -1.613928    0.032044   -1.583646
     11          1           0       -0.907676    1.848972   -0.262841
     12          1           0       -0.460634   -1.014917   -0.765040
     13          1           0        1.583223   -0.536553    1.527746
 ---------------------------------------------------------------------

 SCF Done:  E(RHF) =  -286.125334161     A.U. after    2 cycles

 The electronic state is 1-A.
 Alpha  occ. eigenvalues --  -21.04439 -15.81664 -11.46983 -11.45499 -11.40204
 Alpha  occ. eigenvalues --  -11.38881  -1.69463  -1.45798  -1.15695  -1.00386
 Alpha  occ. eigenvalues --   -0.92202  -0.78787  -0.68824  -0.65488  -0.61216
 Alpha  occ. eigenvalues --   -0.59098  -0.54311  -0.52439  -0.51326  -0.46608
 Alpha  occ. eigenvalues --   -0.42796  -0.32175  -0.27671
 Alpha virt. eigenvalues --    0.02688   0.04752   0.04922   0.05472   0.06021
 Alpha virt. eigenvalues --    0.07019   0.07718   0.09144   0.11153   0.11520
 Alpha virt. eigenvalues --    0.11996   0.12949   0.13391   0.13975   0.14523

 Mulliken charges:
               1
     1  C   -3.243387
     2  C   -2.721523
     3  N   -2.231834
     4  C   -0.108269
     5  C    1.823237
     6  O   -2.628530
     7  H    1.312416
     8  H    1.181177
     9  H    1.256031
    10  H    1.323389
    11  H    0.729704
    12  H    1.710941
    13  H    1.596648
 Sum of Mulliken charges =  -0.00000

 Dipole moment (field-independent basis, Debye):
    X=             -4.2681    Y=             -0.7158    Z=             -0.6394  Tot=              4.3747

 Test job not archived.
 1\1\GINC-SE462\SP\RHF\Aug-CC-pVDZ\C4H7N1O1\OHZDE\09-Apr-2025\0\\#t hf
 aug-cc-pvdz iop(5/13=1,5/36=2,99/5=2) pseudo=read geom=check guess=(re
 ad,tcheck) scf=(maxcycle=1)\\title\\0,1\C,0,-1.06182146,-0.72057794,1.
 1261885\C,0,-0.04395963,-0.88075662,0.01061615\N,0,-0.29973245,0.05669
 27,-1.09401018\C,0,0.33806321,1.13199105,-1.40190407\C,0,1.47263746,1.
 56727132,-0.62501128\O,0,2.62268829,1.21638802,-0.79589141\H,0,-1.0097
 3616,0.27967295,1.55889689\H,0,-0.8694588,-1.44577592,1.91774109\H,0,-
 2.07879443,-0.88281969,0.7627808\H,0,-0.07294011,-1.89218285,-0.400711

 Normal termination of Gaussian 16 at Wed Apr  9 03:21:07 2025.
