 Gaussian 16, Revision C.01,

 ----------------------------------------------------------------------
 #t hf aug-cc-pvdz symm=none int=(grid=ultrafine) guess=(read,tcheck) s
 table=(opt,rrhf)
 ----------------------------------------------------------------------
 -----
 title
 -----
 Symbolic Z-matrix:
 Charge =  0 Multiplicity = 1

 SCF Done:  E(RHF) =  -360.704444009     A.U. after   15 cycles
 Normal termination of Gaussian 16 at Wed Apr  9 18:47:44 2025.
 Gaussian 16:  ES64L-G16RevC.01  3-Jul-2019

 ----------------------------------------------------------------------
 #t hf aug-cc-pvdz iop(5/13=1,5/36=2,99/5=2) pseudo=read geom=check gue
 ss=(read,tcheck) scf=(maxcycle=1)
 ----------------------------------------------------------------------
 -----
 title
 -----
 Structure from the checkpoint file:  "Grambow2020_wb97xd3_007664_reverse_mol2.chk"
 Charge =  0 Multiplicity = 1

                         Standard orientation:
 ---------------------------------------------------------------------
 Center     Atomic      Atomic             Coordinates (Angstroms)
 Number     Number       Type             X           Y           Z
 ---------------------------------------------------------------------
      1          6           0        2.113917    0.200904   -1.015164
      2          8           0        2.121710   -0.524796    0.059472
      3          6           0        1.576291   -0.295713    1.207148
      4          6           0       -1.232559   -0.332507   -0.297040
      5          7           0       -1.710297    0.721055    0.213231
      6          8           0       -0.869713    1.813810    0.005408
      7          6           0       -1.968488   -1.619690   -0.167751
      8          1           0        1.655954    1.180317   -0.989798
      9          1           0        2.676700   -0.202860   -1.838640
     10          1           0       -0.289345   -0.300460   -0.852319
     11          1           0        1.058068    0.639158    1.373252
     12          1           0        1.716281   -1.071121    1.940351
     13          1           0       -1.352493    2.538389    0.407690
     14          1           0       -1.348204   -2.355684    0.349008
     15          1           0       -2.202463   -2.028159   -1.153528
     16          1           0       -2.893359   -1.477043    0.389166
 ---------------------------------------------------------------------

 SCF Done:  E(RHF) =  -362.378515314     A.U. after    2 cycles

 The electronic state is 1-A.
 Alpha  occ. eigenvalues --  -21.19645 -21.09437 -15.76957 -11.43363 -11.41157
 Alpha  occ. eigenvalues --  -11.40087 -11.37757  -1.87550  -1.79005  -1.27809
 Alpha  occ. eigenvalues --   -1.04990  -1.03237  -0.84474  -0.79613  -0.70059
 Alpha  occ. eigenvalues --   -0.66842  -0.64632  -0.59385  -0.58843  -0.57459
 Alpha  occ. eigenvalues --   -0.55079  -0.52114  -0.50516  -0.49658  -0.42478
 Alpha  occ. eigenvalues --   -0.35770  -0.29910  -0.26769
 Alpha virt. eigenvalues --    0.03946   0.05102   0.05413   0.05487   0.06318
 Alpha virt. eigenvalues --    0.06897   0.07149   0.07496   0.08893   0.10706
 Alpha virt. eigenvalues --    0.12476   0.12717   0.13874   0.14128   0.14504

 Mulliken charges:
               1
     1  C   -1.724954
     2  O   -2.878779
     3  C   -1.791876
     4  C    0.444819
     5  N   -0.624622
     6  O   -2.503065
     7  C   -3.881961
     8  H    1.550641
     9  H    1.430039
    10  H    2.239541
    11  H    1.767783
    12  H    1.412286
    13  H    0.917330
    14  H    1.226309
    15  H    1.159622
    16  H    1.256886
 Sum of Mulliken charges =  -0.00000

 Dipole moment (field-independent basis, Debye):
    X=              0.3845    Y=             -0.0641    Z=             -0.1305  Tot=              0.4111

 Test job not archived.
 1\1\GINC-SE116\SP\RHF\Aug-CC-pVDZ\C4H9N1O2\OHZDE\09-Apr-2025\0\\#t hf
 aug-cc-pvdz iop(5/13=1,5/36=2,99/5=2) pseudo=read geom=check guess=(re
 ad,tcheck) scf=(maxcycle=1)\\title\\0,1\C,0,2.37436019,0.26367142,0.17
 895943\O,0,1.82289965,-0.2197365,1.24842204\C,0,0.80998244,0.21898655,
 1.91823122\C,0,-0.93326035,-0.26254122,-0.70527966\N,0,-1.53176204,0.8
 5113753,-0.71615011\O,0,-0.62945167,1.91402002,-0.71465451\C,0,-1.7181
 5262,-1.52690603,-0.68352061\H,0,2.02065186,1.20430473,-0.22069599\H,0
 ,3.2367551,-0.27696796,-0.17010622\H,0,0.16061984,-0.30366394,-0.73265

 Normal termination of Gaussian 16 at Wed Apr  9 18:47:49 2025.
