 Gaussian 16, Revision C.01,

 ----------------------------------------------------------------------
 #t hf aug-cc-pvdz symm=none int=(grid=ultrafine) guess=(read,tcheck) s
 table=(opt,rrhf)
 ----------------------------------------------------------------------
 -----
 title
 -----
 Symbolic Z-matrix:
 Charge =  0 Multiplicity = 1

 SCF Done:  E(RHF) =  -359.526812463     A.U. after   17 cycles
 Normal termination of Gaussian 16 at Wed Apr  9 03:46:32 2025.
 Gaussian 16:  ES64L-G16RevC.01  3-Jul-2019

 ----------------------------------------------------------------------
 #t hf aug-cc-pvdz iop(5/13=1,5/36=2,99/5=2) pseudo=read geom=check gue
 ss=(read,tcheck) scf=(maxcycle=1)
 ----------------------------------------------------------------------
 -----
 title
 -----
 Structure from the checkpoint file:  "Grambow2020_wb97xd3_007904_forward_mol1.chk"
 Charge =  0 Multiplicity = 1

                         Standard orientation:
 ---------------------------------------------------------------------
 Center     Atomic      Atomic             Coordinates (Angstroms)
 Number     Number       Type             X           Y           Z
 ---------------------------------------------------------------------
      1          6           0        0.433499    1.568579    0.364980
      2          6           0        0.276706    0.154022   -0.049879
      3          7           0        1.166355   -0.722196   -0.208212
      4          8           0        2.452748   -0.241493   -0.056199
      5          6           0       -1.235875   -0.300815   -0.507999
      6          6           0       -1.389795   -1.284189    0.566451
      7          8           0       -2.086240    0.645541   -0.259523
      8          1           0        1.331733    1.686573    0.968685
      9          1           0        0.516589    2.202762   -0.520817
     10          1           0       -0.460243    1.879252    0.901913
     11          1           0        2.995245   -1.020973   -0.196668
     12          1           0       -1.098603   -0.697148   -1.530822
     13          1           0       -2.332838   -1.244034    1.102578
     14          1           0       -0.555641   -1.809028    1.017069
 ---------------------------------------------------------------------

 SCF Done:  E(RHF) =  -361.127554862     A.U. after    2 cycles

 The electronic state is 1-A.
 Alpha  occ. eigenvalues --  -21.11196 -20.95096 -15.78482 -11.52954 -11.47440
 Alpha  occ. eigenvalues --  -11.43873 -11.37492  -1.81293  -1.63389  -1.30290
 Alpha  occ. eigenvalues --   -1.10633  -1.06677  -0.88738  -0.74576  -0.69956
 Alpha  occ. eigenvalues --   -0.65471  -0.64169  -0.61271  -0.57674  -0.53603
 Alpha  occ. eigenvalues --   -0.50910  -0.49525  -0.42727  -0.36429  -0.30795
 Alpha  occ. eigenvalues --   -0.24919  -0.23347
 Alpha virt. eigenvalues --    0.00850   0.03489   0.05163   0.05348   0.05970
 Alpha virt. eigenvalues --    0.06398   0.07049   0.07930   0.10077   0.11468
 Alpha virt. eigenvalues --    0.12466   0.13173   0.14033   0.14318   0.14712

 Mulliken charges:
               1
     1  C   -4.509241
     2  C    3.123408
     3  N   -0.999927
     4  O   -2.472890
     5  C    1.714197
     6  C   -2.708037
     7  O   -3.081726
     8  H    1.353304
     9  H    1.278982
    10  H    1.254780
    11  H    0.859498
    12  H    1.366987
    13  H    1.376121
    14  H    1.444543
 Sum of Mulliken charges =  -0.00000

 Dipole moment (field-independent basis, Debye):
    X=              1.9739    Y=             -1.8325    Z=              1.2189  Tot=              2.9564

 Test job not archived.
 1\1\GINC-SE292\SP\RHF\Aug-CC-pVDZ\C4H7N1O2\OHZDE\09-Apr-2025\0\\#t hf
 aug-cc-pvdz iop(5/13=1,5/36=2,99/5=2) pseudo=read geom=check guess=(re
 ad,tcheck) scf=(maxcycle=1)\\title\\0,1\C,0,-0.97385143,-1.24033909,0.
 20500213\C,0,-0.29518817,0.0569029,-0.02790051\N,0,-0.69169349,1.21530
 453,0.26397267\O,0,-1.9711877,1.24982175,0.78425526\C,0,1.08885099,-0.
 00101686,-0.91431736\C,0,1.9395182,0.49583317,0.16950179\O,0,1.4422202
 7,-1.23129659,-1.11923489\H,0,-1.64312815,-1.16690336,1.06050386\H,0,-
 1.55685611,-1.51218943,-0.67813461\H,0,-0.21992638,-2.01218506,0.34443

 Normal termination of Gaussian 16 at Wed Apr  9 03:46:36 2025.
