 Gaussian 16, Revision C.01,

 ----------------------------------------------------------------------
 #t hf aug-cc-pvdz symm=none int=(grid=ultrafine) guess=(read,tcheck) s
 table=(opt,rrhf)
 ----------------------------------------------------------------------
 -----
 title
 -----
 Symbolic Z-matrix:
 Charge =  0 Multiplicity = 1

 SCF Done:  E(RHF) =  -308.913161132     A.U. after   16 cycles

 1\1\GINC-SE105\Stability\RHF\Aug-CC-pVDZ\C6H12O1\OHZDE\09-Apr-2025\0\\
 #t hf aug-cc-pvdz symm=none int=(grid=ultrafine) guess=(read,tcheck) s
 table=(opt,rrhf)\\title\\0,1\C,0,2.61750836,0.13842676,0.2827825\C,0,1
 .20767685,-0.08395134,-0.22121273\O,0,0.32192866,-0.53563736,0.9835374
 1\C,0,0.53524921,1.06067724,-0.77620066\C,0,-0.93601004,0.81082918,-1.
 04642948\C,0,-1.38040923,0.27562381,0.2429164\C,0,-2.20793188,-0.95898
 583,0.36842653\H,0,3.28713707,0.33316999,-0.55532013\H,0,2.99335229,-0
 .73202859,0.82317339\H,0,2.64280737,0.99720006,0.95499398\H,0,1.156815

 Normal termination of Gaussian 16 at Wed Apr  9 18:44:05 2025.
 Gaussian 16:  ES64L-G16RevC.01  3-Jul-2019

 ----------------------------------------------------------------------
 #t hf aug-cc-pvdz iop(5/13=1,5/36=2,99/5=2) pseudo=read geom=check gue
 ss=(read,tcheck) scf=(maxcycle=1)
 ----------------------------------------------------------------------
 -----
 title
 -----
 Structure from the checkpoint file:  "Grambow2020_wb97xd3_007575_reverse_mol1.chk"
 Charge =  0 Multiplicity = 1

                         Standard orientation:
 ---------------------------------------------------------------------
 Center     Atomic      Atomic             Coordinates (Angstroms)
 Number     Number       Type             X           Y           Z
 ---------------------------------------------------------------------
      1          6           0       -2.584699   -0.333272   -0.011272
      2          6           0       -1.152772   -0.031271    0.375343
      3          8           0       -0.229213   -1.100508   -0.290815
      4          6           0       -0.626625    1.239101   -0.048531
      5          6           0        0.867277    1.367945    0.178864
      6          6           0        1.362946    0.141971   -0.451729
      7          6           0        2.340362   -0.772405    0.206590
      8          1           0       -3.264891    0.318678    0.537402
      9          1           0       -2.851669   -1.367764    0.211271
     10          1           0       -2.726815   -0.164142   -1.079541
     11          1           0       -0.981772   -0.236669    1.442821
     12          1           0       -0.178034   -1.910000    0.243664
     13          1           0       -0.994741    1.613223   -1.001245
     14          1           0        1.162134    1.441244    1.231112
     15          1           0        1.241510    2.245097   -0.353969
     16          1           0        1.327790    0.123760   -1.533346
     17          1           0        2.118198   -0.908448    1.264944
     18          1           0        3.319285   -0.279724    0.146133
     19          1           0        2.423778   -1.743604   -0.278312
 ---------------------------------------------------------------------

 SCF Done:  E(RHF) =  -310.428403760     A.U. after    2 cycles

 The electronic state is 1-A.
 Alpha  occ. eigenvalues --  -21.06089 -11.51703 -11.43046 -11.41982 -11.40020
 Alpha  occ. eigenvalues --  -11.35830 -11.28720  -1.69627  -1.25242  -1.14617
 Alpha  occ. eigenvalues --   -1.05333  -0.91799  -0.83812  -0.76884  -0.66458
 Alpha  occ. eigenvalues --   -0.63133  -0.61236  -0.59190  -0.57641  -0.54848
 Alpha  occ. eigenvalues --   -0.52541  -0.51284  -0.49835  -0.43405  -0.41820
 Alpha  occ. eigenvalues --   -0.39170  -0.34444  -0.18836
 Alpha virt. eigenvalues --    0.03310   0.04599   0.04862   0.04893   0.05096
 Alpha virt. eigenvalues --    0.05879   0.06175   0.07097   0.07317   0.08474
 Alpha virt. eigenvalues --    0.08816   0.09195   0.10449   0.12721   0.13151

 Mulliken charges:
               1
     1  C   -4.122098
     2  C   -0.331264
     3  O   -2.194805
     4  C   -0.947789
     5  C   -3.708552
     6  C   -0.222694
     7  C   -4.022748
     8  H    1.276599
     9  H    1.171986
    10  H    1.288799
    11  H    1.792499
    12  H    0.743641
    13  H    1.338296
    14  H    1.386867
    15  H    1.282871
    16  H    1.565115
    17  H    1.273448
    18  H    1.150560
    19  H    1.279271
 Sum of Mulliken charges =   0.00000

 Dipole moment (field-independent basis, Debye):
    X=              3.5638    Y=             -3.2350    Z=             -0.5876  Tot=              4.8488

 Test job not archived.
 1\1\GINC-SE105\SP\RHF\Aug-CC-pVDZ\C6H12O1\OHZDE\09-Apr-2025\0\\#t hf a
 ug-cc-pvdz iop(5/13=1,5/36=2,99/5=2) pseudo=read geom=check guess=(rea
 d,tcheck) scf=(maxcycle=1)\\title\\0,1\C,0,2.61750836,0.13842676,0.282
 7825\C,0,1.20767685,-0.08395134,-0.22121273\O,0,0.32192866,-0.53563736
 ,0.98353741\C,0,0.53524921,1.06067724,-0.77620066\C,0,-0.93601004,0.81
 082918,-1.04642948\C,0,-1.38040923,0.27562381,0.2429164\C,0,-2.2079318
 8,-0.95898583,0.36842653\H,0,3.28713707,0.33316999,-0.55532013\H,0,2.9
 9335229,-0.73202859,0.82317339\H,0,2.64280737,0.99720006,0.95499398\H,

 Normal termination of Gaussian 16 at Wed Apr  9 18:44:12 2025.
