 Gaussian 16, Revision C.01,

 ----------------------------------------------------------------------
 #t hf aug-cc-pvdz symm=none int=(grid=ultrafine) guess=(read,tcheck) s
 table=(opt,rrhf)
 ----------------------------------------------------------------------
 -----
 title
 -----
 Symbolic Z-matrix:
 Charge =  0 Multiplicity = 1

 SCF Done:  E(RHF) =  -264.899871349     A.U. after   17 cycles
 Normal termination of Gaussian 16 at Wed Apr  9 03:08:53 2025.
 Gaussian 16:  ES64L-G16RevC.01  3-Jul-2019

 ----------------------------------------------------------------------
 #t hf aug-cc-pvdz iop(5/13=1,5/36=2,99/5=2) pseudo=read geom=check gue
 ss=(read,tcheck) scf=(maxcycle=1)
 ----------------------------------------------------------------------
 -----
 title
 -----
 Structure from the checkpoint file:  "Grambow2020_b97d3_006635_forward_mol1.chk"
 Charge =  0 Multiplicity = 1

                         Standard orientation:
 ---------------------------------------------------------------------
 Center     Atomic      Atomic             Coordinates (Angstroms)
 Number     Number       Type             X           Y           Z
 ---------------------------------------------------------------------
      1          6           0        2.269207    0.150182   -0.082269
      2          6           0        1.039803   -0.711952    0.295727
      3          6           0       -0.146153   -0.197760   -0.481350
      4          7           0       -1.703478   -1.555871   -0.032190
      5          6           0       -0.700235    1.029491   -0.068287
      6          7           0       -1.158563    2.094326    0.169010
      7          1           0        2.117793    1.198216    0.206476
      8          1           0        2.456344    0.110336   -1.162492
      9          1           0        3.155292   -0.230207    0.443531
     10          1           0        1.242415   -1.755737    0.014376
     11          1           0        0.904212   -0.667441    1.390785
     12          1           0       -1.073109   -1.164692   -0.897659
     13          1           0       -1.190890   -2.015266    0.720654
     14          1           0       -2.353510   -0.864163    0.343667
 ---------------------------------------------------------------------

 SCF Done:  E(RHF) =  -266.174042024     A.U. after    2 cycles

 The electronic state is 1-A.
 Alpha  occ. eigenvalues --  -15.78710 -15.77338 -11.48267 -11.44895 -11.42921
 Alpha  occ. eigenvalues --  -11.38895  -1.35521  -1.28039  -1.20220  -1.01619
 Alpha  occ. eigenvalues --   -0.89182  -0.72860  -0.67170  -0.64674  -0.62887
 Alpha  occ. eigenvalues --   -0.55187  -0.53524  -0.51959  -0.51081  -0.47166
 Alpha  occ. eigenvalues --   -0.46471  -0.39694  -0.31543
 Alpha virt. eigenvalues --    0.03165   0.04371   0.05368   0.05755   0.05951
 Alpha virt. eigenvalues --    0.06478   0.06883   0.07869   0.08686   0.10892
 Alpha virt. eigenvalues --    0.11362   0.12433   0.13542   0.14200   0.14668

 Mulliken charges:
               1
     1  C   -3.608852
     2  C   -3.162674
     3  C   -0.787574
     4  N   -2.306162
     5  C    2.667794
     6  N   -2.437814
     7  H    1.359788
     8  H    1.244536
     9  H    1.076970
    10  H    1.456951
    11  H    1.492549
    12  H    1.490287
    13  H    0.744923
    14  H    0.769277
 Sum of Mulliken charges =  -0.00000

 Dipole moment (field-independent basis, Debye):
    X=              1.2913    Y=             -3.1452    Z=              1.3248  Tot=              3.6489

 Test job not archived.
 1\1\GINC-SE368\SP\RHF\Aug-CC-pVDZ\C4H8N2\OHZDE\09-Apr-2025\0\\#t hf au
 g-cc-pvdz iop(5/13=1,5/36=2,99/5=2) pseudo=read geom=check guess=(read
 ,tcheck) scf=(maxcycle=1)\\title\\0,1\C,0,-1.96470188,0.20347903,0.010
 98963\C,0,-0.61304598,-0.52202178,-0.19940446\C,0,0.45031373,0.2509155
 4,0.53989655\N,0,2.196228,-0.92518844,0.33981337\C,0,0.85800586,1.4771
 7722,-0.02032051\N,0,1.18299798,2.5541718,-0.38734952\H,0,-1.9384354,1
 .21447611,-0.41547198\H,0,-2.20304971,0.28229884,1.07891601\H,0,-2.762
 65682,-0.36300136,-0.48768435\H,0,-0.69014462,-1.53695,0.2173366\H,0,-

 Normal termination of Gaussian 16 at Wed Apr  9 03:08:56 2025.
