 Gaussian 16, Revision C.01,

 ----------------------------------------------------------------------
 #t hf aug-cc-pvdz symm=none int=(grid=ultrafine) guess=(read,tcheck) s
 table=(opt,rrhf)
 ----------------------------------------------------------------------
 -----
 title
 -----
 Symbolic Z-matrix:
 Charge =  0 Multiplicity = 1

 SCF Done:  E(RHF) =  -306.666856979     A.U. after   14 cycles
 Normal termination of Gaussian 16 at Wed Apr  9 19:08:57 2025.
 Gaussian 16:  ES64L-G16RevC.01  3-Jul-2019

 ----------------------------------------------------------------------
 #t hf aug-cc-pvdz iop(5/13=1,5/36=2,99/5=2) pseudo=read geom=check gue
 ss=(read,tcheck) scf=(maxcycle=1)
 ----------------------------------------------------------------------
 -----
 title
 -----
 Structure from the checkpoint file:  "Grambow2020_wb97xd3_008171_reverse_mol2.chk"
 Charge =  0 Multiplicity = 1

                         Standard orientation:
 ---------------------------------------------------------------------
 Center     Atomic      Atomic             Coordinates (Angstroms)
 Number     Number       Type             X           Y           Z
 ---------------------------------------------------------------------
      1          6           0       -2.779654    0.237142    0.358477
      2          6           0       -1.472966    0.317871    0.162797
      3          8           0       -0.809912   -0.540578   -0.646793
      4          6           0        0.599884   -0.509623   -0.603548
      5          6           0        1.321433   -0.762887    0.758263
      6          6           0        2.036287    0.535809    0.465380
      7          6           0        1.344821    0.807519   -0.639927
      8          1           0       -3.271800    0.962263    0.989759
      9          1           0       -3.372975   -0.537498   -0.109599
     10          1           0       -0.866766    1.094369    0.623615
     11          1           0        0.913833   -1.207022   -1.380469
     12          1           0        0.637768   -0.728645    1.608903
     13          1           0        1.927530   -1.668748    0.824696
     14          1           0        2.858891    1.033940    0.963052
     15          1           0        1.353985    1.620980   -1.354258
 ---------------------------------------------------------------------

 SCF Done:  E(RHF) =  -308.112789532     A.U. after    2 cycles

 The electronic state is 1-A.
 Alpha  occ. eigenvalues --  -21.06642 -11.51566 -11.43672 -11.43161 -11.40717
 Alpha  occ. eigenvalues --  -11.37065 -11.36078  -1.78860  -1.32478  -1.10335
 Alpha  occ. eigenvalues --   -0.95984  -0.92162  -0.81347  -0.74388  -0.70491
 Alpha  occ. eigenvalues --   -0.68044  -0.58559  -0.56986  -0.55026  -0.50320
 Alpha  occ. eigenvalues --   -0.49684  -0.46661  -0.43080  -0.37309  -0.35464
 Alpha  occ. eigenvalues --   -0.26246
 Alpha virt. eigenvalues --    0.03812   0.04734   0.05216   0.05613   0.05794
 Alpha virt. eigenvalues --    0.06696   0.06775   0.07783   0.10359   0.11307
 Alpha virt. eigenvalues --    0.11763   0.12622   0.12722   0.13329   0.13856

 Mulliken charges:
               1
     1  C   -3.786484
     2  C    1.296926
     3  O   -4.087638
     4  C    1.062193
     5  C   -4.001299
     6  C   -0.119326
     7  C   -1.687333
     8  H    1.284973
     9  H    1.485013
    10  H    2.095104
    11  H    1.556813
    12  H    1.389843
    13  H    1.234377
    14  H    1.128930
    15  H    1.147906
 Sum of Mulliken charges =  -0.00000

 Dipole moment (field-independent basis, Debye):
    X=              1.7936    Y=              0.1127    Z=             -0.0076  Tot=              1.7971

 Test job not archived.
 1\1\GINC-SE113\SP\RHF\Aug-CC-pVDZ\C6H8O1\OHZDE\09-Apr-2025\0\\#t hf au
 g-cc-pvdz iop(5/13=1,5/36=2,99/5=2) pseudo=read geom=check guess=(read
 ,tcheck) scf=(maxcycle=1)\\title\\0,1\C,0,-2.30108224,-1.55997746,0.48
 881485\C,0,-1.3427058,-0.70034569,0.18093559\O,0,-0.38591859,-0.983080
 27,-0.73373904\C,0,0.70941346,-0.09776241,-0.8162793\C,0,1.57687857,0.
 15444852,0.45776887\C,0,1.31904248,1.61676259,0.1774736\C,0,0.4914924,
 1.39987058,-0.84319902\H,0,-3.06143488,-1.28017952,1.20302971\H,0,-2.3
 47443,-2.53997081,0.03202503\H,0,-1.28811479,0.28891302,0.62945405\H,0

 Normal termination of Gaussian 16 at Wed Apr  9 19:09:02 2025.
