 Gaussian 16, Revision C.01,

 ----------------------------------------------------------------------
 #t hf aug-cc-pvdz symm=none int=(grid=ultrafine) guess=(read,tcheck) s
 table=(opt,rrhf)
 ----------------------------------------------------------------------
 -----
 title
 -----
 Symbolic Z-matrix:
 Charge =  0 Multiplicity = 1

 SCF Done:  E(RHF) =  -302.843679521     A.U. after   14 cycles
 Normal termination of Gaussian 16 at Wed Apr  9 19:24:08 2025.
 Gaussian 16:  ES64L-G16RevC.01  3-Jul-2019

 ----------------------------------------------------------------------
 #t hf aug-cc-pvdz iop(5/13=1,5/36=2,99/5=2) pseudo=read geom=check gue
 ss=(read,tcheck) scf=(maxcycle=1)
 ----------------------------------------------------------------------
 -----
 title
 -----
 Structure from the checkpoint file:  "Grambow2020_wb97xd3_008882_reverse_mol2.chk"
 Charge =  0 Multiplicity = 1

                         Standard orientation:
 ---------------------------------------------------------------------
 Center     Atomic      Atomic             Coordinates (Angstroms)
 Number     Number       Type             X           Y           Z
 ---------------------------------------------------------------------
      1          6           0       -2.878686   -0.388733   -0.016943
      2          7           0       -1.453987   -0.486711    0.180113
      3          6           0        2.133234   -1.667667   -0.027273
      4          6           0        1.432244   -0.575836    0.014957
      5          6           0        0.728125    0.528869   -0.008844
      6          7           0        1.295833    1.824679   -0.026273
      7          6           0       -0.746221    0.506077   -0.132472
      8          1           0       -3.385243   -0.576282    0.932115
      9          1           0       -3.202585    0.585181   -0.409238
     10          1           0       -3.198058   -1.171432   -0.708487
     11          1           0        2.506118   -2.066171   -0.966008
     12          1           0        2.357251   -2.228202    0.874868
     13          1           0        2.299666    1.805101    0.067511
     14          1           0        0.899264    2.430887    0.678318
     15          1           0       -1.181511    1.438888   -0.522513
 ---------------------------------------------------------------------

 SCF Done:  E(RHF) =  -304.291452817     A.U. after    2 cycles

 The electronic state is 1-A.
 Alpha  occ. eigenvalues --  -15.75695 -15.72951 -11.47366 -11.42221 -11.41404
 Alpha  occ. eigenvalues --  -11.39176 -11.38291  -1.42283  -1.33908  -1.14198
 Alpha  occ. eigenvalues --   -1.04938  -0.95005  -0.84137  -0.70445  -0.67089
 Alpha  occ. eigenvalues --   -0.64319  -0.60612  -0.59493  -0.58923  -0.56762
 Alpha  occ. eigenvalues --   -0.51162  -0.47789  -0.39489  -0.36930  -0.35324
 Alpha  occ. eigenvalues --   -0.28846
 Alpha virt. eigenvalues --    0.03546   0.05076   0.05314   0.05910   0.06334
 Alpha virt. eigenvalues --    0.06704   0.07014   0.08073   0.09675   0.11043
 Alpha virt. eigenvalues --    0.11446   0.12111   0.12170   0.13214   0.15021

 Mulliken charges:
               1
     1  C   -3.483195
     2  N   -3.052717
     3  C   -4.457844
     4  C    2.375980
     5  C    1.978058
     6  N   -3.406591
     7  C    0.858144
     8  H    1.358351
     9  H    1.190680
    10  H    1.378823
    11  H    1.244255
    12  H    1.270093
    13  H    0.650607
    14  H    0.461395
    15  H    1.633960
 Sum of Mulliken charges =   0.00000

 Dipole moment (field-independent basis, Debye):
    X=              0.0085    Y=              1.1192    Z=              0.4116  Tot=              1.1925

 Test job not archived.
 1\1\GINC-SE145\SP\RHF\Aug-CC-pVDZ\C5H8N2\OHZDE\09-Apr-2025\0\\#t hf au
 g-cc-pvdz iop(5/13=1,5/36=2,99/5=2) pseudo=read geom=check guess=(read
 ,tcheck) scf=(maxcycle=1)\\title\\0,1\C,0,2.54462789,1.01496703,-0.185
 21987\N,0,1.35740885,0.19882474,-0.23640812\C,0,-1.15651847,-2.5413152
 6,0.45469277\C,0,-1.09566977,-1.26942158,0.20200931\C,0,-1.03775864,0.
 02573914,0.01245846\N,0,-2.17689784,0.85817877,-0.09301988\C,0,0.25194
 816,0.751043,0.0029281\H,0,3.06577265,0.94952812,-1.14261838\H,0,2.343
 01319,2.0711064,0.04113375\H,0,3.22066806,0.61449397,0.57335895\H,0,-1

 Normal termination of Gaussian 16 at Wed Apr  9 19:24:13 2025.
