 Gaussian 16, Revision C.01,

 ----------------------------------------------------------------------
 #t hf aug-cc-pvdz symm=none int=(grid=ultrafine) guess=(read,tcheck) s
 table=(opt,rrhf)
 ----------------------------------------------------------------------
 -----
 title
 -----
 Symbolic Z-matrix:
 Charge =  0 Multiplicity = 1

 SCF Done:  E(RHF) =  -286.700200647     A.U. after   15 cycles
 Normal termination of Gaussian 16 at Wed Apr  9 19:00:58 2025.
 Gaussian 16:  ES64L-G16RevC.01  3-Jul-2019

 ----------------------------------------------------------------------
 #t hf aug-cc-pvdz iop(5/13=1,5/36=2,99/5=2) pseudo=read geom=check gue
 ss=(read,tcheck) scf=(maxcycle=1)
 ----------------------------------------------------------------------
 -----
 title
 -----
 Structure from the checkpoint file:  "Grambow2020_wb97xd3_007995_forward_mol1.chk"
 Charge =  0 Multiplicity = 1

                         Standard orientation:
 ---------------------------------------------------------------------
 Center     Atomic      Atomic             Coordinates (Angstroms)
 Number     Number       Type             X           Y           Z
 ---------------------------------------------------------------------
      1          6           0       -3.430012    0.459767   -0.040412
      2          6           0       -2.078972   -0.083272    0.034925
      3          6           0       -0.972718   -0.540849    0.095963
      4          6           0        0.395206   -1.056994    0.140542
      5          6           0        1.237364   -0.101689   -0.704705
      6          6           0        1.720353    1.022838    0.130108
      7          7           0        2.819920    0.040003    0.233048
      8          1           0       -3.633189    1.119431    0.804540
      9          1           0       -4.169366   -0.342584   -0.031449
     10          1           0       -3.562719    1.032541   -0.959542
     11          1           0        0.414782   -2.065663   -0.276341
     12          1           0        0.733376   -1.112240    1.182840
     13          1           0        2.467933   -0.662813   -0.663355
     14          1           0        1.235352    1.183066    1.090701
     15          1           0        1.974718    1.952699   -0.370483
     16          1           0        3.572345    0.416744   -0.346773
 ---------------------------------------------------------------------

 SCF Done:  E(RHF) =  -288.106592080     A.U. after    2 cycles

 The electronic state is 1-A.
 Alpha  occ. eigenvalues --  -15.77780 -11.47789 -11.44243 -11.43371 -11.40285
 Alpha  occ. eigenvalues --  -11.38282 -11.37807  -1.45006  -1.20252  -1.11485
 Alpha  occ. eigenvalues --   -0.98241  -0.94524  -0.83373  -0.68041  -0.65468
 Alpha  occ. eigenvalues --   -0.60977  -0.59816  -0.57882  -0.57762  -0.57056
 Alpha  occ. eigenvalues --   -0.53019  -0.47436  -0.40598  -0.34935  -0.34447
 Alpha  occ. eigenvalues --   -0.31345
 Alpha virt. eigenvalues --    0.03410   0.04828   0.05562   0.05699   0.06093
 Alpha virt. eigenvalues --    0.06704   0.06910   0.07413   0.08373   0.09384
 Alpha virt. eigenvalues --    0.10741   0.12792   0.13008   0.13415   0.14337

 Mulliken charges:
               1
     1  C   -5.524824
     2  C    2.025528
     3  C    3.074087
     4  C   -3.680025
     5  C   -1.035400
     6  C   -2.332854
     7  N   -1.652125
     8  H    0.899217
     9  H    0.888533
    10  H    0.881520
    11  H    0.873797
    12  H    1.055504
    13  H    1.011294
    14  H    1.464733
    15  H    1.482170
    16  H    0.568846
 Sum of Mulliken charges =  -0.00000

 Dipole moment (field-independent basis, Debye):
    X=              0.5643    Y=              0.9586    Z=              0.7362  Tot=              1.3339

 Test job not archived.
 1\1\GINC-SE116\SP\RHF\Aug-CC-pVDZ\C6H9N1\OHZDE\09-Apr-2025\0\\#t hf au
 g-cc-pvdz iop(5/13=1,5/36=2,99/5=2) pseudo=read geom=check guess=(read
 ,tcheck) scf=(maxcycle=1)\\title\\0,1\C,0,2.57634832,1.30277328,1.8895
 8495\C,0,1.73348303,0.47711485,1.03299749\C,0,1.04924858,-0.20996199,0
 .32826518\C,0,0.17056891,-1.03293967,-0.50254237\C,0,-1.22980564,-0.89
 522288,0.09433637\C,0,-1.91578245,0.28187533,-0.48757993\N,0,-2.333835
 56,-0.81861629,-1.38187141\H,0,2.68280182,2.30836192,1.47990105\H,0,3.
 57210043,0.86730612,1.98621805\H,0,2.14438466,1.38555186,2.88810101\H,

 Normal termination of Gaussian 16 at Wed Apr  9 19:01:03 2025.
