 Gaussian 16, Revision C.01,

 ----------------------------------------------------------------------
 #t hf aug-cc-pvdz symm=none int=(grid=ultrafine) guess=(read,tcheck) s
 table=(opt,rrhf)
 ----------------------------------------------------------------------
 -----
 title
 -----
 Symbolic Z-matrix:
 Charge =  0 Multiplicity = 1

 SCF Done:  E(RHF) =  -264.857674653     A.U. after   16 cycles
 Normal termination of Gaussian 16 at Wed Apr  9 15:41:54 2025.
 Gaussian 16:  ES64L-G16RevC.01  3-Jul-2019

 ----------------------------------------------------------------------
 #t hf aug-cc-pvdz iop(5/13=1,5/36=2,99/5=2) pseudo=read geom=check gue
 ss=(read,tcheck) scf=(maxcycle=1)
 ----------------------------------------------------------------------
 -----
 title
 -----
 Structure from the checkpoint file:  "Grambow2020_b97d3_006631_forward_mol1.chk"
 Charge =  0 Multiplicity = 1

                         Standard orientation:
 ---------------------------------------------------------------------
 Center     Atomic      Atomic             Coordinates (Angstroms)
 Number     Number       Type             X           Y           Z
 ---------------------------------------------------------------------
      1          6           0       -1.641911   -0.873217    0.059627
      2          6           0       -0.202098   -1.152535   -0.116604
      3          6           0        0.768869    0.011766    0.361923
      4          7           0        2.109531   -0.202080   -0.143425
      5          6           0        0.061986    1.338305    0.033604
      6          7           0       -1.151181    1.339962   -0.128477
      7          1           0       -2.062159   -0.975441    1.063314
      8          1           0       -2.320973   -1.163807   -0.744991
      9          1           0       -2.115974    1.143977   -0.349693
     10          1           0        0.136221   -2.019291    0.472367
     11          1           0        0.035973   -1.355484   -1.171434
     12          1           0        0.818766    0.004148    1.464328
     13          1           0        2.124590   -0.008932   -1.148137
     14          1           0        2.754033    0.463738    0.286259
 ---------------------------------------------------------------------

 SCF Done:  E(RHF) =  -266.144188157     A.U. after    2 cycles

 The electronic state is 1-A.
 Alpha  occ. eigenvalues --  -15.80182 -15.74049 -11.45222 -11.42747 -11.40510
 Alpha  occ. eigenvalues --  -11.36837  -1.40842  -1.30864  -1.13488  -0.98767
 Alpha  occ. eigenvalues --   -0.84840  -0.81578  -0.68437  -0.63198  -0.62291
 Alpha  occ. eigenvalues --   -0.56402  -0.54942  -0.49770  -0.48830  -0.44261
 Alpha  occ. eigenvalues --   -0.41112  -0.37191  -0.24245
 Alpha virt. eigenvalues --    0.03902   0.05223   0.05788   0.05899   0.06061
 Alpha virt. eigenvalues --    0.06229   0.06448   0.08737   0.09073   0.11138
 Alpha virt. eigenvalues --    0.12097   0.12964   0.13445   0.14077   0.14668

 Mulliken charges:
               1
     1  C   -2.823677
     2  C   -2.790619
     3  C    0.969398
     4  N   -2.731447
     5  C    0.535503
     6  N   -2.166631
     7  H    1.228182
     8  H    1.287227
     9  H    0.929613
    10  H    1.333469
    11  H    1.369472
    12  H    1.748405
    13  H    0.535616
    14  H    0.575490
 Sum of Mulliken charges =   0.00000

 Dipole moment (field-independent basis, Debye):
    X=             -1.0528    Y=             -0.4554    Z=             -0.3565  Tot=              1.2012

 Test job not archived.
 1\1\GINC-SE163\SP\RHF\Aug-CC-pVDZ\C4H8N2\OHZDE\09-Apr-2025\0\\#t hf au
 g-cc-pvdz iop(5/13=1,5/36=2,99/5=2) pseudo=read geom=check guess=(read
 ,tcheck) scf=(maxcycle=1)\\title\\0,1\C,0,-1.65887831,0.21889328,0.248
 73889\C,0,-0.50989328,-0.70938181,0.23212321\C,0,0.91684761,-0.0088212
 4,0.2635247\N,0,1.9572669,-0.95452248,-0.08527322\C,0,0.79151447,1.284
 049,-0.56107242\N,0,-0.31888761,1.7643777,-0.74638228\H,0,-1.93500115,
 0.6716333,1.20436793\H,0,-2.50459946,-0.00311908,-0.40581839\H,0,-1.29
 778408,1.95105558,-0.90476731\H,0,-0.48524671,-1.36840562,1.11399141\H

 Normal termination of Gaussian 16 at Wed Apr  9 15:41:58 2025.
