 Gaussian 16, Revision C.01,

 ----------------------------------------------------------------------
 #t hf aug-cc-pvdz symm=none int=(grid=ultrafine) guess=(read,tcheck) s
 table=(opt,rrhf)
 ----------------------------------------------------------------------
 -----
 title
 -----
 Symbolic Z-matrix:
 Charge =  0 Multiplicity = 1

 SCF Done:  E(RHF) =  -287.939106224     A.U. after   16 cycles

 1\1\GINC-SE049\Stability\RHF\Aug-CC-pVDZ\C6H11N1\OHZDE\09-Apr-2025\0\\
 #t hf aug-cc-pvdz symm=none int=(grid=ultrafine) guess=(read,tcheck) s
 table=(opt,rrhf)\\title\\0,1\C,0,2.09646699,-0.56117847,-0.12913617\C,
 0,0.73742564,-0.04473101,0.38852138\C,0,0.55724272,1.43102975,0.040349
 31\C,0,-0.23523347,-1.03033554,-0.18669644\C,0,-2.27114268,-0.23064955
 ,0.70010478\C,0,-0.60321437,-0.83582868,-1.54063246\N,0,-0.86749224,-0
 .78624283,-2.66562018\H,0,2.25704806,-1.60559901,0.13621795\H,0,2.8921
 9467,0.03943151,0.31353475\H,0,2.16420418,-0.46456482,-1.2147272\H,0,0

 Normal termination of Gaussian 16 at Wed Apr  9 03:46:23 2025.
 Gaussian 16:  ES64L-G16RevC.01  3-Jul-2019

 ----------------------------------------------------------------------
 #t hf aug-cc-pvdz iop(5/13=1,5/36=2,99/5=2) pseudo=read geom=check gue
 ss=(read,tcheck) scf=(maxcycle=1)
 ----------------------------------------------------------------------
 -----
 title
 -----
 Structure from the checkpoint file:  "Grambow2020_wb97xd3_007881_reverse_mol1.chk"
 Charge =  0 Multiplicity = 1

                         Standard orientation:
 ---------------------------------------------------------------------
 Center     Atomic      Atomic             Coordinates (Angstroms)
 Number     Number       Type             X           Y           Z
 ---------------------------------------------------------------------
      1          6           0        2.078059    0.430615   -0.609818
      2          6           0        0.939096   -0.546683   -0.250189
      3          6           0        0.964876   -0.873981    1.241042
      4          6           0       -0.275151    0.138134   -0.802446
      5          6           0       -1.957882   -1.435054   -0.288307
      6          6           0       -0.827753    1.175627   -0.012114
      7          7           0       -1.266402    2.092302    0.540328
      8          1           0        2.095091    0.653009   -1.676244
      9          1           0        3.030495   -0.021996   -0.330745
     10          1           0        1.976308    1.369255   -0.061154
     11          1           0        1.101135   -1.457767   -0.832678
     12          1           0        1.934075   -1.290227    1.523129
     13          1           0        0.201843   -1.606863    1.506279
     14          1           0        0.794132    0.024350    1.838993
     15          1           0       -1.317627   -0.774710   -1.031717
     16          1           0       -2.933936   -1.358563   -0.765320
     17          1           0       -1.545339   -2.438811   -0.354350
     18          1           0       -1.998825   -1.075742    0.732505
 ---------------------------------------------------------------------

 SCF Done:  E(RHF) =  -289.380265129     A.U. after    2 cycles

 The electronic state is 1-A.
 Alpha  occ. eigenvalues --  -15.75947 -11.47724 -11.44263 -11.42695 -11.41564
 Alpha  occ. eigenvalues --  -11.39966 -11.37659  -1.33936  -1.25654  -1.09675
 Alpha  occ. eigenvalues --   -1.02097  -0.99344  -0.85257  -0.67479  -0.65125
 Alpha  occ. eigenvalues --   -0.62039  -0.59816  -0.58839  -0.56579  -0.55424
 Alpha  occ. eigenvalues --   -0.53176  -0.49696  -0.49508  -0.47695  -0.45042
 Alpha  occ. eigenvalues --   -0.43868  -0.30771
 Alpha virt. eigenvalues --    0.03252   0.04017   0.04997   0.05112   0.05495
 Alpha virt. eigenvalues --    0.05845   0.06483   0.07211   0.07862   0.08180
 Alpha virt. eigenvalues --    0.08625   0.09131   0.10746   0.12374   0.13167

 Mulliken charges:
               1
     1  C   -4.187831
     2  C   -0.888892
     3  C   -4.119214
     4  C   -1.765308
     5  C   -5.331810
     6  C    2.970060
     7  N   -2.593713
     8  H    1.200666
     9  H    1.203435
    10  H    1.432204
    11  H    1.687983
    12  H    1.163236
    13  H    1.367514
    14  H    1.391442
    15  H    2.839671
    16  H    0.804964
    17  H    1.137955
    18  H    1.687635
 Sum of Mulliken charges =   0.00000

 Dipole moment (field-independent basis, Debye):
    X=              1.0107    Y=             -3.7942    Z=             -0.0035  Tot=              3.9265

 Test job not archived.
 1\1\GINC-SE049\SP\RHF\Aug-CC-pVDZ\C6H11N1\OHZDE\09-Apr-2025\0\\#t hf a
 ug-cc-pvdz iop(5/13=1,5/36=2,99/5=2) pseudo=read geom=check guess=(rea
 d,tcheck) scf=(maxcycle=1)\\title\\0,1\C,0,2.09646699,-0.56117847,-0.1
 2913617\C,0,0.73742564,-0.04473101,0.38852138\C,0,0.55724272,1.4310297
 5,0.04034931\C,0,-0.23523347,-1.03033554,-0.18669644\C,0,-2.27114268,-
 0.23064955,0.70010478\C,0,-0.60321437,-0.83582868,-1.54063246\N,0,-0.8
 6749224,-0.78624283,-2.66562018\H,0,2.25704806,-1.60559901,0.13621795\
 H,0,2.89219467,0.03943151,0.31353475\H,0,2.16420418,-0.46456482,-1.214

 Normal termination of Gaussian 16 at Wed Apr  9 03:46:30 2025.
