 Gaussian 16, Revision C.01,

 ----------------------------------------------------------------------
 #t hf aug-cc-pvdz symm=none int=(grid=ultrafine) guess=(read,tcheck) s
 table=(opt,rrhf)
 ----------------------------------------------------------------------
 -----
 title
 -----
 Symbolic Z-matrix:
 Charge =  0 Multiplicity = 1

 SCF Done:  E(RHF) =  -307.903644044     A.U. after   14 cycles

 1\1\GINC-SE014\Stability\RHF\Aug-CC-pVDZ\C6H10O1\OHZDE\09-Apr-2025\0\\
 #t hf aug-cc-pvdz symm=none int=(grid=ultrafine) guess=(read,tcheck) s
 table=(opt,rrhf)\\title\\0,1\C,0,2.46459396,-0.03595123,0.28714094\C,0
 ,0.99240404,0.1301652,0.03054014\C,0,0.11194483,-0.80026014,0.42190843
 \C,0,-1.37825052,-0.96141867,0.33518664\C,0,-2.27107389,0.09315091,-0.
 30049113\C,0,0.63186799,1.37863341,-0.67648873\O,0,1.4569442,2.1912831
 2,-1.01926781\H,0,2.84827318,0.79525433,0.88117902\H,0,3.02247451,-0.0
 2803797,-0.65082575\H,0,2.66872146,-0.96889222,0.8117607\H,0,0.5581013

 Normal termination of Gaussian 16 at Wed Apr  9 18:52:56 2025.
 Gaussian 16:  ES64L-G16RevC.01  3-Jul-2019

 ----------------------------------------------------------------------
 #t hf aug-cc-pvdz iop(5/13=1,5/36=2,99/5=2) pseudo=read geom=check gue
 ss=(read,tcheck) scf=(maxcycle=1)
 ----------------------------------------------------------------------
 -----
 title
 -----
 Structure from the checkpoint file:  "Grambow2020_wb97xd3_007732_reverse_mol2.chk"
 Charge =  0 Multiplicity = 1

                         Standard orientation:
 ---------------------------------------------------------------------
 Center     Atomic      Atomic             Coordinates (Angstroms)
 Number     Number       Type             X           Y           Z
 ---------------------------------------------------------------------
      1          6           0        1.922574   -1.233375    0.006797
      2          6           0        0.639675   -0.449203    0.001603
      3          6           0       -0.549123   -1.066301   -0.002753
      4          6           0       -1.982408   -0.619284   -0.009476
      5          6           0       -2.372179    0.850760    0.010152
      6          6           0        0.820377    1.019088   -0.002751
      7          8           0        1.910802    1.538331   -0.005225
      8          1           0        2.526263   -0.978579    0.879512
      9          1           0        2.527076   -0.988963   -0.868368
     10          1           0        1.727293   -2.305335    0.013119
     11          1           0       -0.490670   -2.154357   -0.004688
     12          1           0       -2.455042   -1.120175    0.843807
     13          1           0       -2.440017   -1.094926   -0.885248
     14          1           0       -2.007288    1.385282   -0.868123
     15          1           0       -3.460343    0.934181    0.012663
     16          1           0       -0.082571    1.645838   -0.004430
     17          1           0       -2.004612    1.360269    0.902118
 ---------------------------------------------------------------------

 SCF Done:  E(RHF) =  -309.373380133     A.U. after    2 cycles

 The electronic state is 1-A.
 Alpha  occ. eigenvalues --  -21.05051 -11.48562 -11.46342 -11.43956 -11.41093
 Alpha  occ. eigenvalues --  -11.38777 -11.37012  -1.70252  -1.27591  -1.15137
 Alpha  occ. eigenvalues --   -1.00549  -0.95075  -0.85666  -0.74764  -0.63803
 Alpha  occ. eigenvalues --   -0.63452  -0.62488  -0.57270  -0.55166  -0.52979
 Alpha  occ. eigenvalues --   -0.50937  -0.50591  -0.46730  -0.45915  -0.44905
 Alpha  occ. eigenvalues --   -0.32874  -0.28527
 Alpha virt. eigenvalues --    0.03072   0.04873   0.04907   0.05566   0.05983
 Alpha virt. eigenvalues --    0.06048   0.06469   0.07611   0.08198   0.08535
 Alpha virt. eigenvalues --    0.10055   0.11357   0.12364   0.12656   0.13294

 Mulliken charges:
               1
     1  C   -5.654266
     2  C    1.268624
     3  C    1.784400
     4  C   -2.450610
     5  C   -4.555147
     6  C    0.983908
     7  O   -3.169029
     8  H    1.023564
     9  H    1.023806
    10  H    1.295824
    11  H    1.243679
    12  H    1.099145
    13  H    1.102949
    14  H    1.375015
    15  H    0.943908
    16  H    1.309136
    17  H    1.375094
 Sum of Mulliken charges =  -0.00000

 Dipole moment (field-independent basis, Debye):
    X=             -1.8923    Y=             -1.1917    Z=             -0.0038  Tot=              2.2363

 Test job not archived.
 1\1\GINC-SE014\SP\RHF\Aug-CC-pVDZ\C6H10O1\OHZDE\09-Apr-2025\0\\#t hf a
 ug-cc-pvdz iop(5/13=1,5/36=2,99/5=2) pseudo=read geom=check guess=(rea
 d,tcheck) scf=(maxcycle=1)\\title\\0,1\C,0,2.46459396,-0.03595123,0.28
 714094\C,0,0.99240404,0.1301652,0.03054014\C,0,0.11194483,-0.80026014,
 0.42190843\C,0,-1.37825052,-0.96141867,0.33518664\C,0,-2.27107389,0.09
 315091,-0.30049113\C,0,0.63186799,1.37863341,-0.67648873\O,0,1.4569442
 ,2.19128312,-1.01926781\H,0,2.84827318,0.79525433,0.88117902\H,0,3.022
 47451,-0.02803797,-0.65082575\H,0,2.66872146,-0.96889222,0.8117607\H,0

 Normal termination of Gaussian 16 at Wed Apr  9 18:53:01 2025.
