 Gaussian 16, Revision C.01,

 ----------------------------------------------------------------------
 #t hf aug-cc-pvdz symm=none int=(grid=ultrafine) guess=(read,tcheck) s
 table=(opt,rrhf)
 ----------------------------------------------------------------------
 -----
 title
 -----
 Symbolic Z-matrix:
 Charge =  0 Multiplicity = 1

 SCF Done:  E(RHF) =  -306.525635544     A.U. after   16 cycles
 Normal termination of Gaussian 16 at Wed Apr  9 03:27:24 2025.
 Gaussian 16:  ES64L-G16RevC.01  3-Jul-2019

 ----------------------------------------------------------------------
 #t hf aug-cc-pvdz iop(5/13=1,5/36=2,99/5=2) pseudo=read geom=check gue
 ss=(read,tcheck) scf=(maxcycle=1)
 ----------------------------------------------------------------------
 -----
 title
 -----
 Structure from the checkpoint file:  "Grambow2020_wb97xd3_006669_forward_mol1.chk"
 Charge =  0 Multiplicity = 1

                         Standard orientation:
 ---------------------------------------------------------------------
 Center     Atomic      Atomic             Coordinates (Angstroms)
 Number     Number       Type             X           Y           Z
 ---------------------------------------------------------------------
      1          6           0        2.185680   -0.285782   -0.145048
      2          6           0        0.712916   -0.509095   -0.398206
      3          6           0       -0.187646   -0.764336    0.805363
      4          8           0       -0.049804    1.279738    0.790032
      5          6           0       -0.170308    0.771208   -0.546127
      6          6           0       -1.545621    0.133328   -0.678001
      7          6           0       -1.531841   -0.859734    0.220212
      8          1           0        2.657420   -1.209240    0.195508
      9          1           0        2.337791    0.480895    0.613146
     10          1           0        2.687868    0.025919   -1.063004
     11          1           0        0.533026   -1.229990   -1.194807
     12          1           0        0.039336    0.203989    1.530366
     13          1           0        0.094179    1.532444   -1.286338
     14          1           0       -2.385016    0.516744   -1.243851
     15          1           0       -2.345256   -1.472202    0.579553
 ---------------------------------------------------------------------

 SCF Done:  E(RHF) =  -307.980662138     A.U. after    2 cycles

 The electronic state is 1-A.
 Alpha  occ. eigenvalues --  -21.00000 -11.52215 -11.47313 -11.43789 -11.41916
 Alpha  occ. eigenvalues --  -11.39304 -11.37020  -1.69566  -1.31041  -1.12696
 Alpha  occ. eigenvalues --   -0.99708  -0.96308  -0.78820  -0.77287  -0.69732
 Alpha  occ. eigenvalues --   -0.65458  -0.59489  -0.55589  -0.53439  -0.52627
 Alpha  occ. eigenvalues --   -0.50387  -0.44303  -0.42689  -0.33760  -0.27306
 Alpha  occ. eigenvalues --   -0.25282
 Alpha virt. eigenvalues --    0.03839   0.04578   0.05153   0.05413   0.05616
 Alpha virt. eigenvalues --    0.05973   0.07146   0.07753   0.08206   0.10230
 Alpha virt. eigenvalues --    0.11339   0.12252   0.12904   0.13251   0.14056

 Mulliken charges:
               1
     1  C   -4.192657
     2  C   -0.340347
     3  C   -2.725299
     4  O   -2.468844
     5  C   -0.803621
     6  C   -0.735852
     7  C   -0.064955
     8  H    1.206822
     9  H    1.262108
    10  H    1.187522
    11  H    1.736395
    12  H    1.648331
    13  H    1.614862
    14  H    1.352648
    15  H    1.322887
 Sum of Mulliken charges =  -0.00000

 Dipole moment (field-independent basis, Debye):
    X=             -0.4725    Y=              0.3951    Z=             -1.5107  Tot=              1.6314

 Test job not archived.
 1\1\GINC-SE341\SP\RHF\Aug-CC-pVDZ\C6H8O1\OHZDE\09-Apr-2025\0\\#t hf au
 g-cc-pvdz iop(5/13=1,5/36=2,99/5=2) pseudo=read geom=check guess=(read
 ,tcheck) scf=(maxcycle=1)\\title\\0,1\C,0,1.94174432,0.39548514,-0.174
 84352\C,0,0.57943054,-0.23774589,-0.33643251\C,0,-0.10377746,-0.789350
 91,0.91004095\O,0,-0.56138405,1.2052149,1.0089239\C,0,-0.64390058,0.73
 413366,-0.34374672\C,0,-1.78370668,-0.27150349,-0.41658573\C,0,-1.4084
 9815,-1.2503881,0.41657219\H,0,2.68632355,-0.36246864,0.07495448\H,0,1
 .93095754,1.14420611,0.6157835\H,0,2.25300436,0.87422891,-1.10538913\H

 Normal termination of Gaussian 16 at Wed Apr  9 03:27:29 2025.
