 Gaussian 16, Revision C.01,

 ----------------------------------------------------------------------
 #t hf aug-cc-pvdz symm=none int=(grid=ultrafine) guess=(read,tcheck) s
 table=(opt,rrhf)
 ----------------------------------------------------------------------
 -----
 title
 -----
 Symbolic Z-matrix:
 Charge =  0 Multiplicity = 1

 SCF Done:  E(RHF) =  -343.520585016     A.U. after   17 cycles
 Normal termination of Gaussian 16 at Wed Apr  9 03:27:59 2025.
 Gaussian 16:  ES64L-G16RevC.01  3-Jul-2019

 ----------------------------------------------------------------------
 #t hf aug-cc-pvdz iop(5/13=1,5/36=2,99/5=2) pseudo=read geom=check gue
 ss=(read,tcheck) scf=(maxcycle=1)
 ----------------------------------------------------------------------
 -----
 title
 -----
 Structure from the checkpoint file:  "Grambow2020_wb97xd3_006685_forward_mol1.chk"
 Charge =  0 Multiplicity = 1

                         Standard orientation:
 ---------------------------------------------------------------------
 Center     Atomic      Atomic             Coordinates (Angstroms)
 Number     Number       Type             X           Y           Z
 ---------------------------------------------------------------------
      1          6           0        1.707546    0.148435    1.202305
      2          6           0        0.405110   -0.242858   -0.333138
      3          8           0        1.223884    0.037293   -1.361278
      4          6           0       -0.332631   -1.457285   -0.090079
      5          6           0       -1.636548   -0.759808    0.276829
      6          6           0       -0.862972    0.537088    0.047029
      7          8           0       -1.108150    1.700254    0.005053
      8          1           0        2.675459   -0.257039    0.913254
      9          1           0        1.689863    1.235521    1.135205
     10          1           0        1.445047   -0.136505    2.227238
     11          1           0        1.483729    0.965142   -1.317674
     12          1           0       -0.098725   -2.462929   -0.395918
     13          1           0        0.691721   -0.858564    0.798542
     14          1           0       -2.474942   -0.858294   -0.422305
     15          1           0       -2.021045   -0.881150    1.293779
 ---------------------------------------------------------------------

 SCF Done:  E(RHF) =  -345.113353646     A.U. after    2 cycles

 The electronic state is 1-A.
 Alpha  occ. eigenvalues --  -21.13080 -21.08750 -11.57359 -11.50954 -11.44734
 Alpha  occ. eigenvalues --  -11.37911 -11.36597  -1.79672  -1.72996  -1.33364
 Alpha  occ. eigenvalues --   -1.06027  -0.96760  -0.87911  -0.74279  -0.70773
 Alpha  occ. eigenvalues --   -0.65469  -0.62224  -0.59380  -0.57698  -0.55944
 Alpha  occ. eigenvalues --   -0.50666  -0.48816  -0.45787  -0.43343  -0.38659
 Alpha  occ. eigenvalues --   -0.29830  -0.25189
 Alpha virt. eigenvalues --    0.03287   0.05038   0.05270   0.05809   0.05904
 Alpha virt. eigenvalues --    0.06311   0.07270   0.08427   0.09533   0.10782
 Alpha virt. eigenvalues --    0.12485   0.12667   0.13529   0.13914   0.14345

 Mulliken charges:
               1
     1  C   -4.806625
     2  C    1.933632
     3  O   -3.705177
     4  C   -1.281182
     5  C   -3.651619
     6  C    4.065900
     7  O   -3.293886
     8  H    1.061517
     9  H    1.252006
    10  H    0.553678
    11  H    0.745221
    12  H    1.088526
    13  H    3.531130
    14  H    1.298428
    15  H    1.208451
 Sum of Mulliken charges =  -0.00000

 Dipole moment (field-independent basis, Debye):
    X=              0.6839    Y=              0.1723    Z=             -0.5824  Tot=              0.9147

 Test job not archived.
 1\1\GINC-SE120\SP\RHF\Aug-CC-pVDZ\C5H8O2\OHZDE\09-Apr-2025\0\\#t hf au
 g-cc-pvdz iop(5/13=1,5/36=2,99/5=2) pseudo=read geom=check guess=(read
 ,tcheck) scf=(maxcycle=1)\\title\\0,1\C,0,-1.7056389,-0.66373384,0.031
 67867\C,0,-0.10818887,0.62273683,0.01812612\O,0,-0.78128481,1.76946055
 ,-0.17658773\C,0,0.82111834,0.30608578,1.07372697\C,0,1.86292179,-0.32
 714181,0.15996228\C,0,0.87917035,-0.02083361,-0.96767945\O,0,0.8720572
 7,-0.07998407,-2.15565259\H,0,-2.50028188,-0.18262888,0.59903708\H,0,-
 1.91092384,-0.65275315,-1.03804407\H,0,-1.56596488,-1.70474988,0.34370

 Normal termination of Gaussian 16 at Wed Apr  9 03:28:04 2025.
