 Gaussian 16, Revision C.01,

 ----------------------------------------------------------------------
 #t hf aug-cc-pvdz symm=none int=(grid=ultrafine) guess=(read,tcheck) s
 table=(opt,rrhf)
 ----------------------------------------------------------------------
 -----
 title
 -----
 Symbolic Z-matrix:
 Charge =  0 Multiplicity = 1

 SCF Done:  E(RHF) =  -283.460189715     A.U. after   16 cycles
 Normal termination of Gaussian 16 at Wed Apr  9 03:09:45 2025.
 Gaussian 16:  ES64L-G16RevC.01  3-Jul-2019

 ----------------------------------------------------------------------
 #t hf aug-cc-pvdz iop(5/13=1,5/36=2,99/5=2) pseudo=read geom=check gue
 ss=(read,tcheck) scf=(maxcycle=1)
 ----------------------------------------------------------------------
 -----
 title
 -----
 Structure from the checkpoint file:  "Grambow2020_b97d3_006670_reverse_mol1.chk"
 Charge =  0 Multiplicity = 1

                         Standard orientation:
 ---------------------------------------------------------------------
 Center     Atomic      Atomic             Coordinates (Angstroms)
 Number     Number       Type             X           Y           Z
 ---------------------------------------------------------------------
      1          7           0        2.623660    0.612173   -0.045895
      2          6           0        1.678453   -0.090701   -0.059203
      3          6           0        0.535196   -0.920855   -0.029669
      4          6           0       -0.748179   -0.326298    0.206084
      5          6           0       -1.333459    1.002583    0.150379
      6          8           0       -1.906048   -0.196343   -0.509982
      7          1           0       -0.334271   -1.040664    1.271677
      8          1           0        0.564416   -1.925157   -0.449366
      9          1           0       -1.326642   -0.842870    1.519895
     10          1           0       -1.918510    1.378300    0.989286
     11          1           0       -0.894286    1.727554   -0.535920
 ---------------------------------------------------------------------

 SCF Done:  E(RHF) =  -284.760509521     A.U. after    2 cycles

 The electronic state is 1-A.
 Alpha  occ. eigenvalues --  -21.14022 -15.73847 -11.59884 -11.50744 -11.44358
 Alpha  occ. eigenvalues --  -11.41076  -1.85580  -1.30057  -1.18708  -1.03146
 Alpha  occ. eigenvalues --   -0.91145  -0.77489  -0.72817  -0.66815  -0.60479
 Alpha  occ. eigenvalues --   -0.55785  -0.49570  -0.47000  -0.43667  -0.42206
 Alpha  occ. eigenvalues --   -0.38313  -0.29514
 Alpha virt. eigenvalues --    0.02607   0.04114   0.04985   0.05742   0.06743
 Alpha virt. eigenvalues --    0.08951   0.09314   0.10520   0.11230   0.11661
 Alpha virt. eigenvalues --    0.12498   0.13704   0.14043   0.15019   0.15551

 Mulliken charges:
               1
     1  N   -2.385835
     2  C    1.582796
     3  C   -2.250289
     4  C    2.650519
     5  C   -2.350053
     6  O   -2.626360
     7  H    1.402118
     8  H    1.321541
     9  H   -0.090925
    10  H    1.388563
    11  H    1.357923
 Sum of Mulliken charges =   0.00000

 Dipole moment (field-independent basis, Debye):
    X=             -5.3129    Y=             -0.7452    Z=              0.1613  Tot=              5.3673

 Test job not archived.
 1\1\GINC-SE186\SP\RHF\Aug-CC-pVDZ\C4H5N1O1\OHZDE\09-Apr-2025\0\\#t hf
 aug-cc-pvdz iop(5/13=1,5/36=2,99/5=2) pseudo=read geom=check guess=(re
 ad,tcheck) scf=(maxcycle=1)\\title\\0,1\N,0,2.84332971,0.86726561,-0.2
 8096684\C,0,1.94183337,0.11075119,-0.33211466\C,0,0.85183709,-0.788559
 13,-0.34670753\C,0,-0.45576323,-0.2994184,-0.01951963\C,0,-1.12083723,
 0.98977205,0.06560156\O,0,-1.64346047,-0.17753903,-0.68646753\H,0,0.03
 67239,-1.0805086,0.96256121\H,0,0.92632886,-1.74668144,-0.85863949\H,0
 ,-0.95646962,-0.96862531,1.25681144\H,0,-1.69780526,1.25021026,0.95244

 Normal termination of Gaussian 16 at Wed Apr  9 03:09:49 2025.
