 Gaussian 16, Revision C.01,

 ----------------------------------------------------------------------
 #t hf aug-cc-pvdz symm=none int=(grid=ultrafine) guess=(read,tcheck) s
 table=(opt,rrhf)
 ----------------------------------------------------------------------
 -----
 title
 -----
 Symbolic Z-matrix:
 Charge =  0 Multiplicity = 1

 SCF Done:  E(RHF) =  -343.518140989     A.U. after   15 cycles
 Normal termination of Gaussian 16 at Wed Apr  9 18:49:44 2025.
 Gaussian 16:  ES64L-G16RevC.01  3-Jul-2019

 ----------------------------------------------------------------------
 #t hf aug-cc-pvdz iop(5/13=1,5/36=2,99/5=2) pseudo=read geom=check gue
 ss=(read,tcheck) scf=(maxcycle=1)
 ----------------------------------------------------------------------
 -----
 title
 -----
 Structure from the checkpoint file:  "Grambow2020_wb97xd3_007689_forward_mol1.chk"
 Charge =  0 Multiplicity = 1

                         Standard orientation:
 ---------------------------------------------------------------------
 Center     Atomic      Atomic             Coordinates (Angstroms)
 Number     Number       Type             X           Y           Z
 ---------------------------------------------------------------------
      1          6           0        2.275628   -0.398434    0.243188
      2          6           0        0.415484   -0.464169   -0.942127
      3          6           0       -0.535610   -1.252665   -0.178622
      4          8           0       -1.049002   -0.595522    1.015185
      5          6           0       -1.449038   -0.074449   -0.228620
      6          6           0       -0.317324    0.869907   -0.646611
      7          8           0        0.084016    1.750671    0.358554
      8          1           0        3.264986   -0.699736   -0.102805
      9          1           0        1.927889   -1.033103    1.049804
     10          1           0        2.245954    0.655574    0.495322
     11          1           0        1.718454   -0.609230   -0.817643
     12          1           0       -0.781751   -2.301790   -0.258757
     13          1           0       -2.501279   -0.066840   -0.481983
     14          1           0       -0.471760    1.456616   -1.549828
     15          1           0       -0.017439    1.276170    1.192734
 ---------------------------------------------------------------------

 SCF Done:  E(RHF) =  -345.093315891     A.U. after    2 cycles

 The electronic state is 1-A.
 Alpha  occ. eigenvalues --  -21.07891 -21.07421 -11.54370 -11.47756 -11.44977
 Alpha  occ. eigenvalues --  -11.40010 -11.39020  -1.83224  -1.71093  -1.22888
 Alpha  occ. eigenvalues --   -1.07073  -0.95395  -0.88490  -0.79094  -0.72849
 Alpha  occ. eigenvalues --   -0.62651  -0.60054  -0.58705  -0.58203  -0.53545
 Alpha  occ. eigenvalues --   -0.52710  -0.48963  -0.42651  -0.38667  -0.34689
 Alpha  occ. eigenvalues --   -0.30525  -0.27218
 Alpha virt. eigenvalues --    0.03529   0.04740   0.05269   0.05453   0.06182
 Alpha virt. eigenvalues --    0.06868   0.07125   0.08828   0.09708   0.10942
 Alpha virt. eigenvalues --    0.12426   0.12791   0.13192   0.14070   0.14489

 Mulliken charges:
               1
     1  C   -4.842044
     2  C   -1.356163
     3  C   -0.327656
     4  O   -2.808103
     5  C    0.199372
     6  C    0.840681
     7  O   -3.033180
     8  H    0.920495
     9  H    1.398886
    10  H    1.403588
    11  H    2.503413
    12  H    1.424327
    13  H    1.341658
    14  H    1.650014
    15  H    0.684712
 Sum of Mulliken charges =   0.00000

 Dipole moment (field-independent basis, Debye):
    X=              0.0830    Y=             -0.3017    Z=              1.5096  Tot=              1.5417

 Test job not archived.
 1\1\GINC-SE162\SP\RHF\Aug-CC-pVDZ\C5H8O2\OHZDE\09-Apr-2025\0\\#t hf au
 g-cc-pvdz iop(5/13=1,5/36=2,99/5=2) pseudo=read geom=check guess=(read
 ,tcheck) scf=(maxcycle=1)\\title\\0,1\C,0,1.91479643,-0.57864754,0.315
 74504\C,0,0.10141709,0.60064728,0.75203135\C,0,-0.21734826,1.33543126,
 -0.45946654\O,0,-0.73384295,0.51705562,-1.54762015\C,0,-1.55862767,0.6
 839021,-0.42046012\C,0,-1.08776626,-0.3788939,0.57756547\O,0,-0.948356
 95,-1.65201223,0.02357093\H,0,2.84511533,-0.55444786,0.88429211\H,0,2.
 05800087,-0.21179806,-0.69384352\H,0,1.45587545,-1.56044771,0.34482478

 Normal termination of Gaussian 16 at Wed Apr  9 18:49:49 2025.
