 Gaussian 16, Revision C.01,

 ----------------------------------------------------------------------
 #t hf aug-cc-pvdz symm=none int=(grid=ultrafine) guess=(read,tcheck) s
 table=(opt,rrhf)
 ----------------------------------------------------------------------
 -----
 title
 -----
 Symbolic Z-matrix:
 Charge =  0 Multiplicity = 1

 SCF Done:  E(RHF) =  -322.519604098     A.U. after   17 cycles
 Normal termination of Gaussian 16 at Wed Apr  9 18:22:21 2025.
 Gaussian 16:  ES64L-G16RevC.01  3-Jul-2019

 ----------------------------------------------------------------------
 #t hf aug-cc-pvdz iop(5/13=1,5/36=2,99/5=2) pseudo=read geom=check gue
 ss=(read,tcheck) scf=(maxcycle=1)
 ----------------------------------------------------------------------
 -----
 title
 -----
 Structure from the checkpoint file:  "Grambow2020_wb97xd3_006938_forward_mol1.chk"
 Charge =  0 Multiplicity = 1

                         Standard orientation:
 ---------------------------------------------------------------------
 Center     Atomic      Atomic             Coordinates (Angstroms)
 Number     Number       Type             X           Y           Z
 ---------------------------------------------------------------------
      1          8           0        1.822554    0.691407   -0.018599
      2          6           0        1.574998   -0.489510    0.340247
      3          7           0        0.949740   -1.380659   -0.387619
      4          6           0       -1.248082   -1.067550    0.174181
      5          6           0       -2.164867    0.071943    0.026368
      6          6           0       -0.972666    0.902270   -0.076212
      7          6           0        0.023751    1.613983   -0.078580
      8          1           0        1.796264   -0.782980    1.377361
      9          1           0        0.832665   -0.976508   -1.317769
     10          1           0       -0.971586   -1.385149    1.166718
     11          1           0       -1.203415   -1.820589   -0.592936
     12          1           0       -2.764073    0.068366   -0.881101
     13          1           0       -2.770713    0.316734    0.897496
     14          1           0        0.573435    2.526669   -0.103677
 ---------------------------------------------------------------------

 SCF Done:  E(RHF) =  -324.029085330     A.U. after    2 cycles

 The electronic state is 1-A.
 Alpha  occ. eigenvalues --  -21.00838 -15.70129 -11.51911 -11.48028 -11.45140
 Alpha  occ. eigenvalues --  -11.41485 -11.40702  -1.67881  -1.30344  -1.24978
 Alpha  occ. eigenvalues --   -1.06004  -0.92735  -0.81380  -0.76107  -0.70170
 Alpha  occ. eigenvalues --   -0.65603  -0.59720  -0.57729  -0.55290  -0.54325
 Alpha  occ. eigenvalues --   -0.51939  -0.40451  -0.37172  -0.32814  -0.29205
 Alpha  occ. eigenvalues --   -0.25954
 Alpha virt. eigenvalues --    0.02619   0.04152   0.04909   0.05315   0.05822
 Alpha virt. eigenvalues --    0.06752   0.07507   0.08672   0.09820   0.11087
 Alpha virt. eigenvalues --    0.12365   0.12748   0.12921   0.13338   0.13738

 Mulliken charges:
               1
     1  O   -2.524481
     2  C    2.168396
     3  N   -2.254409
     4  C   -1.994103
     5  C   -4.145314
     6  C    4.305207
     7  C   -3.857388
     8  H    1.644458
     9  H    0.601311
    10  H    1.402657
    11  H    1.238482
    12  H    1.314915
    13  H    1.192812
    14  H    0.907457
 Sum of Mulliken charges =  -0.00000

 Dipole moment (field-independent basis, Debye):
    X=             -3.8206    Y=              0.5264    Z=              0.2839  Tot=              3.8671

 Test job not archived.
 1\1\GINC-SE229\SP\RHF\Aug-CC-pVDZ\C5H7N1O1\OHZDE\09-Apr-2025\0\\#t hf
 aug-cc-pvdz iop(5/13=1,5/36=2,99/5=2) pseudo=read geom=check guess=(re
 ad,tcheck) scf=(maxcycle=1)\\title\\0,1\O,0,-0.45549014,2.18475384,-0.
 07886802\C,0,-1.3406347,1.42160464,0.38882979\N,0,-1.2204682,0.7139055
 7,1.48409469\C,0,-0.33637673,-1.2620065,0.73694708\C,0,0.92986036,-1.6
 0248534,0.07248795\C,0,0.99819973,-0.20081843,-0.31734293\C,0,1.018104
 62,0.95595871,-0.71841323\H,0,-2.2476469,1.23867296,-0.20661538\H,0,-0
 .35026742,1.00401575,1.932213\H,0,-1.25852836,-1.39364504,0.19403241\H

 Normal termination of Gaussian 16 at Wed Apr  9 18:22:26 2025.
