 Gaussian 16, Revision C.01,

 ----------------------------------------------------------------------
 #t hf aug-cc-pvdz symm=none int=(grid=ultrafine) guess=(read,tcheck) s
 table=(opt,rrhf)
 ----------------------------------------------------------------------
 -----
 title
 -----
 Symbolic Z-matrix:
 Charge =  0 Multiplicity = 1

 SCF Done:  E(RHF) =  -302.890132198     A.U. after   14 cycles
 Normal termination of Gaussian 16 at Wed Apr  9 18:23:25 2025.
 Gaussian 16:  ES64L-G16RevC.01  3-Jul-2019

 ----------------------------------------------------------------------
 #t hf aug-cc-pvdz iop(5/13=1,5/36=2,99/5=2) pseudo=read geom=check gue
 ss=(read,tcheck) scf=(maxcycle=1)
 ----------------------------------------------------------------------
 -----
 title
 -----
 Structure from the checkpoint file:  "Grambow2020_wb97xd3_006954_forward_mol2.chk"
 Charge =  0 Multiplicity = 1

                         Standard orientation:
 ---------------------------------------------------------------------
 Center     Atomic      Atomic             Coordinates (Angstroms)
 Number     Number       Type             X           Y           Z
 ---------------------------------------------------------------------
      1          6           0        0.616139    1.559174    0.163143
      2          6           0        0.799678    0.068318    0.032714
      3          6           0        2.098793   -0.366964   -0.596018
      4          7           0        0.326877   -0.797866    1.103688
      5          6           0       -0.394182   -0.804596   -0.173864
      6          6           0       -1.708937   -0.217106   -0.252374
      7          7           0       -2.757633    0.247482   -0.306569
      8          1           0        0.687781    2.042183   -0.812905
      9          1           0        1.400294    1.972033    0.801421
     10          1           0       -0.352075    1.816866    0.594116
     11          1           0        2.941233    0.012014   -0.013712
     12          1           0        2.170490   -1.453916   -0.623398
     13          1           0        2.185806    0.019210   -1.613502
     14          1           0       -0.194695   -0.271040    1.795846
     15          1           0       -0.292493   -1.717615   -0.749305
 ---------------------------------------------------------------------

 SCF Done:  E(RHF) =  -304.327423625     A.U. after    2 cycles

 The electronic state is 1-A.
 Alpha  occ. eigenvalues --  -15.76385 -15.76101 -11.55956 -11.45610 -11.43607
 Alpha  occ. eigenvalues --  -11.41133 -11.38758  -1.51215  -1.30461  -1.14712
 Alpha  occ. eigenvalues --   -1.04155  -1.01111  -0.84807  -0.74370  -0.66114
 Alpha  occ. eigenvalues --   -0.63053  -0.59084  -0.58371  -0.55786  -0.53385
 Alpha  occ. eigenvalues --   -0.50479  -0.49098  -0.47410  -0.43530  -0.42340
 Alpha  occ. eigenvalues --   -0.35160
 Alpha virt. eigenvalues --    0.03197   0.05106   0.05390   0.05525   0.06021
 Alpha virt. eigenvalues --    0.06466   0.06720   0.07871   0.09781   0.10947
 Alpha virt. eigenvalues --    0.11874   0.12728   0.13378   0.13671   0.14053

 Mulliken charges:
               1
     1  C   -4.471791
     2  C    3.425113
     3  C   -4.645098
     4  N   -2.427819
     5  C   -1.190748
     6  C    1.992675
     7  N   -2.433194
     8  H    1.184324
     9  H    1.133786
    10  H    1.344085
    11  H    1.180351
    12  H    1.253690
    13  H    1.272939
    14  H    0.722491
    15  H    1.659194
 Sum of Mulliken charges =  -0.00000

 Dipole moment (field-independent basis, Debye):
    X=              3.1239    Y=              0.2055    Z=              0.0211  Tot=              3.1307

 Test job not archived.
 1\1\GINC-SE174\SP\RHF\Aug-CC-pVDZ\C5H8N2\OHZDE\09-Apr-2025\0\\#t hf au
 g-cc-pvdz iop(5/13=1,5/36=2,99/5=2) pseudo=read geom=check guess=(read
 ,tcheck) scf=(maxcycle=1)\\title\\0,1\C,0,-0.62597701,1.28549364,-0.15
 457056\C,0,-0.25470371,-0.17335656,-0.06934662\C,0,-1.28299243,-1.0613
 8862,0.58371965\N,0,0.45419872,-0.78796139,-1.18313275\C,0,1.18080918,
 -0.56017199,0.07076431\C,0,2.19773205,0.46079814,0.12889458\N,0,3.0099
 6754,1.27159166,0.16670599\H,0,-0.82686403,1.68974327,0.83907218\H,0,-
 1.53157196,1.40032464,-0.75412196\H,0,0.16596143,1.88435703,-0.6059879

 Normal termination of Gaussian 16 at Wed Apr  9 18:23:30 2025.
