 Gaussian 16, Revision C.01,

 ----------------------------------------------------------------------
 #t hf aug-cc-pvdz symm=none int=(grid=ultrafine) guess=(read,tcheck) s
 table=(opt,rrhf)
 ----------------------------------------------------------------------
 -----
 title
 -----
 Symbolic Z-matrix:
 Charge =  0 Multiplicity = 1

 SCF Done:  E(RHF) =  -359.690144767     A.U. after   15 cycles
 Normal termination of Gaussian 16 at Wed Apr  9 04:05:48 2025.
 Gaussian 16:  ES64L-G16RevC.01  3-Jul-2019

 ----------------------------------------------------------------------
 #t hf aug-cc-pvdz iop(5/13=1,5/36=2,99/5=2) pseudo=read geom=check gue
 ss=(read,tcheck) scf=(maxcycle=1)
 ----------------------------------------------------------------------
 -----
 title
 -----
 Structure from the checkpoint file:  "Grambow2020_wb97xd3_009256_reverse_mol1.chk"
 Charge =  0 Multiplicity = 1

                         Standard orientation:
 ---------------------------------------------------------------------
 Center     Atomic      Atomic             Coordinates (Angstroms)
 Number     Number       Type             X           Y           Z
 ---------------------------------------------------------------------
      1          6           0       -0.315365    1.937499    0.131790
      2          6           0       -0.109810    0.524371    0.594026
      3          6           0       -1.369612   -0.816327   -0.107722
      4          8           0       -2.396994   -0.439732   -0.478568
      5          6           0        0.986383   -0.265035    0.188677
      6          8           0        0.906456   -1.534143    0.396286
      7          7           0        1.970452    0.180391   -0.622835
      8          1           0       -0.023166    2.061497   -0.913949
      9          1           0       -1.375302    2.195110    0.194433
     10          1           0        0.233050    2.673213    0.728038
     11          1           0       -0.448445    0.297362    1.600843
     12          1           0       -0.241290   -1.657051    0.187542
     13          1           0        2.187437    1.157925   -0.669234
     14          1           0        2.649278   -0.482843   -0.950209
 ---------------------------------------------------------------------

 SCF Done:  E(RHF) =  -361.337342939     A.U. after    2 cycles

 The electronic state is 1-A.
 Alpha  occ. eigenvalues --  -21.10788 -21.05998 -15.79580 -11.51994 -11.48078
 Alpha  occ. eigenvalues --  -11.40384 -11.36397  -1.77448  -1.74204  -1.37111
 Alpha  occ. eigenvalues --   -1.17012  -0.97017  -0.86238  -0.75080  -0.73362
 Alpha  occ. eigenvalues --   -0.63165  -0.61298  -0.59646  -0.58388  -0.52760
 Alpha  occ. eigenvalues --   -0.51323  -0.48477  -0.47309  -0.45938  -0.36844
 Alpha  occ. eigenvalues --   -0.35343  -0.23840
 Alpha virt. eigenvalues --    0.03275   0.04759   0.05537   0.06055   0.06481
 Alpha virt. eigenvalues --    0.07517   0.07843   0.09075   0.10219   0.11981
 Alpha virt. eigenvalues --    0.13039   0.13773   0.14226   0.14794   0.15010

 Mulliken charges:
               1
     1  C   -3.488828
     2  C   -1.788779
     3  C    1.240506
     4  O   -2.301995
     5  C    4.869110
     6  O   -3.713467
     7  N   -3.152148
     8  H    1.249522
     9  H    1.169129
    10  H    1.161984
    11  H    1.503601
    12  H    1.848659
    13  H    0.670646
    14  H    0.732060
 Sum of Mulliken charges =  -0.00000

 Dipole moment (field-independent basis, Debye):
    X=              1.6558    Y=              1.4447    Z=             -0.6888  Tot=              2.3029

 Test job not archived.
 1\1\GINC-SE177\SP\RHF\Aug-CC-pVDZ\C4H7N1O2\OHZDE\09-Apr-2025\0\\#t hf
 aug-cc-pvdz iop(5/13=1,5/36=2,99/5=2) pseudo=read geom=check guess=(re
 ad,tcheck) scf=(maxcycle=1)\\title\\0,1\C,0,-0.87148493,-1.34006523,0.
 17390761\C,0,-0.51641631,-0.00953912,-0.42314644\C,0,-1.03114057,1.580
 50186,0.6179355\O,0,-1.89396074,1.46403998,1.37743571\C,0,0.81002198,0
 .45967781,-0.52064385\O,0,0.97412504,1.71418364,-0.76438513\N,0,1.8870
 1213,-0.25100073,-0.1201722\H,0,-0.23866575,-1.57286265,1.03394908\H,0
 ,-1.90116448,-1.31722935,0.53858721\H,0,-0.79755728,-2.16846434,-0.537

 Normal termination of Gaussian 16 at Wed Apr  9 04:05:52 2025.
