 Gaussian 16, Revision C.01,

 ----------------------------------------------------------------------
 #t hf aug-cc-pvdz symm=none int=(grid=ultrafine) guess=(read,tcheck) s
 table=(opt,rrhf)
 ----------------------------------------------------------------------
 -----
 title
 -----
 Symbolic Z-matrix:
 Charge =  0 Multiplicity = 1

 SCF Done:  E(RHF) =  -286.745863431     A.U. after   16 cycles
 Normal termination of Gaussian 16 at Wed Apr  9 19:19:14 2025.
 Gaussian 16:  ES64L-G16RevC.01  3-Jul-2019

 ----------------------------------------------------------------------
 #t hf aug-cc-pvdz iop(5/13=1,5/36=2,99/5=2) pseudo=read geom=check gue
 ss=(read,tcheck) scf=(maxcycle=1)
 ----------------------------------------------------------------------
 -----
 title
 -----
 Structure from the checkpoint file:  "Grambow2020_wb97xd3_008599_reverse_mol2.chk"
 Charge =  0 Multiplicity = 1

                         Standard orientation:
 ---------------------------------------------------------------------
 Center     Atomic      Atomic             Coordinates (Angstroms)
 Number     Number       Type             X           Y           Z
 ---------------------------------------------------------------------
      1          6           0        0.450974   -1.391693    0.611491
      2          6           0       -0.247898   -0.824356   -0.579461
      3          6           0       -0.990672    0.535344   -0.382336
      4          6           0        0.043865    1.408953    0.334161
      5          6           0        1.400098    0.793507   -0.043251
      6          6           0       -2.048723   -0.050435    0.427066
      7          7           0        1.173242   -0.616327   -0.370412
      8          1           0        0.689328   -2.447862    0.622947
      9          1           0        0.228283   -0.955139    1.577765
     10          1           0       -0.557375   -1.447040   -1.407622
     11          1           0       -1.248020    0.902801   -1.381379
     12          1           0       -0.028473    2.455733    0.037666
     13          1           0       -0.140294    1.359687    1.407909
     14          1           0        1.811052    1.263952   -0.938724
     15          1           0       -2.759981   -0.522395   -0.279833
     16          1           0        2.146921    0.876627    0.748138
 ---------------------------------------------------------------------

 SCF Done:  E(RHF) =  -288.128994105     A.U. after    2 cycles

 The electronic state is 1-A.
 Alpha  occ. eigenvalues --  -15.72642 -11.49881 -11.46501 -11.41897 -11.40741
 Alpha  occ. eigenvalues --  -11.39519 -11.36800  -1.52864  -1.20878  -1.12530
 Alpha  occ. eigenvalues --   -0.94852  -0.89056  -0.82041  -0.77050  -0.71991
 Alpha  occ. eigenvalues --   -0.63635  -0.60813  -0.60601  -0.56551  -0.49334
 Alpha  occ. eigenvalues --   -0.46990  -0.44396  -0.42998  -0.41840  -0.33485
 Alpha  occ. eigenvalues --   -0.32601
 Alpha virt. eigenvalues --    0.03938   0.05200   0.05270   0.05487   0.05788
 Alpha virt. eigenvalues --    0.06122   0.06309   0.07216   0.07637   0.09496
 Alpha virt. eigenvalues --    0.11736   0.11957   0.13016   0.13175   0.13496

 Mulliken charges:
               1
     1  C   -2.363427
     2  C    0.703202
     3  C   -1.058967
     4  C   -2.896606
     5  C   -2.322351
     6  C   -2.298007
     7  N   -2.175635
     8  H    1.336484
     9  H    1.689768
    10  H    1.306847
    11  H    1.374648
    12  H    1.125667
    13  H    1.496477
    14  H    1.473482
    15  H    1.175426
    16  H    1.432991
 Sum of Mulliken charges =   0.00000

 Dipole moment (field-independent basis, Debye):
    X=              0.8094    Y=              0.6318    Z=             -1.4536  Tot=              1.7796

 Test job not archived.
 1\1\GINC-SE212\SP\RHF\Aug-CC-pVDZ\C6H9N1\OHZDE\09-Apr-2025\0\\#t hf au
 g-cc-pvdz iop(5/13=1,5/36=2,99/5=2) pseudo=read geom=check guess=(read
 ,tcheck) scf=(maxcycle=1)\\title\\0,1\C,0,1.12016048,1.18814622,-0.318
 19848\C,0,1.00754891,-0.04911036,0.50955483\C,0,-0.42948383,-0.4831665
 8,0.94069934\C,0,-1.23308504,-0.40767387,-0.36135803\C,0,-0.18506014,-
 0.56252927,-1.47412227\C,0,-0.58066973,0.6129932,1.88585399\N,0,1.1030
 9469,-0.11709119,-0.93711894\H,0,2.07260429,1.70122534,-0.36333193\H,0
 ,0.24595027,1.82417611,-0.38946789\H,0,1.83787751,-0.41944118,1.095023

 Normal termination of Gaussian 16 at Wed Apr  9 19:19:19 2025.
