 Gaussian 16, Revision C.01,

 ----------------------------------------------------------------------
 #t hf aug-cc-pvdz symm=none int=(grid=ultrafine) guess=(read,tcheck) s
 table=(opt,rrhf)
 ----------------------------------------------------------------------
 -----
 title
 -----
 Symbolic Z-matrix:
 Charge =  0 Multiplicity = 1

 SCF Done:  E(RHF) =  -360.871389873     A.U. after   14 cycles
 Normal termination of Gaussian 16 at Wed Apr  9 19:19:04 2025.
 Gaussian 16:  ES64L-G16RevC.01  3-Jul-2019

 ----------------------------------------------------------------------
 #t hf aug-cc-pvdz iop(5/13=1,5/36=2,99/5=2) pseudo=read geom=check gue
 ss=(read,tcheck) scf=(maxcycle=1)
 ----------------------------------------------------------------------
 -----
 title
 -----
 Structure from the checkpoint file:  "Grambow2020_wb97xd3_008625_reverse_mol1.chk"
 Charge =  0 Multiplicity = 1

                         Standard orientation:
 ---------------------------------------------------------------------
 Center     Atomic      Atomic             Coordinates (Angstroms)
 Number     Number       Type             X           Y           Z
 ---------------------------------------------------------------------
      1          6           0       -2.407991   -0.802266    0.609781
      2          6           0       -1.697110    0.024242   -0.443618
      3          6           0       -1.116194    1.247080   -0.105104
      4          8           0        0.833293    1.090994    0.136550
      5          6           0        1.303266   -0.061984   -0.068946
      6          8           0        0.686361   -0.987649   -0.684027
      7          7           0        2.538833   -0.348134    0.419881
      8          1           0       -3.434822   -0.465463    0.776082
      9          1           0       -2.450176   -1.854731    0.324266
     10          1           0       -1.880956   -0.748984    1.565159
     11          1           0       -0.531220   -0.561714   -0.659786
     12          1           0       -2.101314   -0.028629   -1.453379
     13          1           0       -0.952252    2.000979   -0.862164
     14          1           0       -1.149276    1.620755    0.910614
     15          1           0        2.976222   -1.201464    0.125405
     16          1           0        3.102903    0.406992    0.761772
 ---------------------------------------------------------------------

 SCF Done:  E(RHF) =  -362.527542044     A.U. after    2 cycles

 The electronic state is 1-A.
 Alpha  occ. eigenvalues --  -21.02138 -21.02023 -15.76467 -11.49740 -11.49138
 Alpha  occ. eigenvalues --  -11.38906 -11.34816  -1.79649  -1.61816  -1.32668
 Alpha  occ. eigenvalues --   -1.21174  -1.00385  -0.83743  -0.80962  -0.69636
 Alpha  occ. eigenvalues --   -0.66384  -0.61651  -0.61047  -0.57418  -0.56322
 Alpha  occ. eigenvalues --   -0.52231  -0.49917  -0.48340  -0.47540  -0.35239
 Alpha  occ. eigenvalues --   -0.32335  -0.29251  -0.24226
 Alpha virt. eigenvalues --    0.03664   0.04951   0.05510   0.05745   0.05869
 Alpha virt. eigenvalues --    0.06416   0.06618   0.06855   0.09142   0.10978
 Alpha virt. eigenvalues --    0.12072   0.13267   0.13767   0.14620   0.15102

 Mulliken charges:
               1
     1  C   -4.042982
     2  C   -2.942576
     3  C   -2.455873
     4  O   -2.560140
     5  C    6.106842
     6  O   -3.182465
     7  N   -2.782915
     8  H    1.268675
     9  H    1.222118
    10  H    1.219858
    11  H    2.751012
    12  H    1.303469
    13  H    1.380301
    14  H    1.478435
    15  H    0.633247
    16  H    0.602996
 Sum of Mulliken charges =   0.00000

 Dipole moment (field-independent basis, Debye):
    X=              0.5010    Y=              1.0118    Z=              0.2361  Tot=              1.1535

 Test job not archived.
 1\1\GINC-SE362\SP\RHF\Aug-CC-pVDZ\C4H9N1O2\OHZDE\09-Apr-2025\0\\#t hf
 aug-cc-pvdz iop(5/13=1,5/36=2,99/5=2) pseudo=read geom=check guess=(re
 ad,tcheck) scf=(maxcycle=1)\\title\\0,1\C,0,-2.09545687,-0.4991706,-0.
 57162922\C,0,-1.25632838,0.5785003,0.08609884\C,0,-0.53980586,0.299925
 16,1.25073549\O,0,1.3673048,-0.02742531,0.87786632\C,0,1.69771516,0.08
 221785,-0.33509253\O,0,0.99055138,0.65776042,-1.2207683\N,0,2.87310629
 ,-0.47240977,-0.73296667\H,0,-3.07757201,-0.60247205,-0.10231715\H,0,-
 2.25823632,-0.28307421,-1.62888387\H,0,-1.59530334,-1.46868575,-0.5147

 Normal termination of Gaussian 16 at Wed Apr  9 19:19:08 2025.
