 Gaussian 16, Revision C.01,

 ----------------------------------------------------------------------
 #t hf aug-cc-pvdz symm=none int=(grid=ultrafine) guess=(read,tcheck) s
 table=(opt,rrhf)
 ----------------------------------------------------------------------
 -----
 title
 -----
 Symbolic Z-matrix:
 Charge =  0 Multiplicity = 1

 SCF Done:  E(RHF) =  -342.469343328     A.U. after   13 cycles
 Normal termination of Gaussian 16 at Wed Apr  9 19:16:53 2025.
 Gaussian 16:  ES64L-G16RevC.01  3-Jul-2019

 ----------------------------------------------------------------------
 #t hf aug-cc-pvdz iop(5/13=1,5/36=2,99/5=2) pseudo=read geom=check gue
 ss=(read,tcheck) scf=(maxcycle=1)
 ----------------------------------------------------------------------
 -----
 title
 -----
 Structure from the checkpoint file:  "Grambow2020_wb97xd3_008531_reverse_mol2.chk"
 Charge =  0 Multiplicity = 1

                         Standard orientation:
 ---------------------------------------------------------------------
 Center     Atomic      Atomic             Coordinates (Angstroms)
 Number     Number       Type             X           Y           Z
 ---------------------------------------------------------------------
      1          8           0        1.707731    0.176776    0.698761
      2          6           0        0.525535   -0.010993    0.013500
      3          6           0        1.758726   -0.477776   -0.586706
      4          8           0       -0.192408    1.122566   -0.424825
      5          6           0       -1.371919    0.614701    0.210060
      6          6           0       -1.785225   -0.662670   -0.421835
      7          6           0       -0.689048   -0.656920    0.617582
      8          1           0        2.022914   -1.530553   -0.560769
      9          1           0        2.212190    0.114971   -1.374795
     10          1           0       -2.000947    1.306902    0.750707
     11          1           0       -1.547373   -0.837725   -1.464564
     12          1           0       -2.726726   -1.076541   -0.081175
     13          1           0       -0.711058   -1.209843    1.543510
 ---------------------------------------------------------------------

 SCF Done:  E(RHF) =  -343.992165715     A.U. after    2 cycles

 The electronic state is 1-A.
 Alpha  occ. eigenvalues --  -21.06849 -21.05763 -11.52662 -11.47261 -11.44431
 Alpha  occ. eigenvalues --  -11.43707 -11.39410  -1.86667  -1.73428  -1.27240
 Alpha  occ. eigenvalues --   -0.99655  -0.95835  -0.87049  -0.76675  -0.73139
 Alpha  occ. eigenvalues --   -0.69210  -0.62139  -0.60434  -0.51508  -0.49559
 Alpha  occ. eigenvalues --   -0.48447  -0.45295  -0.39397  -0.35290  -0.30768
 Alpha  occ. eigenvalues --   -0.27444
 Alpha virt. eigenvalues --    0.03730   0.04636   0.05363   0.05772   0.06060
 Alpha virt. eigenvalues --    0.06367   0.09350   0.10150   0.11992   0.12123
 Alpha virt. eigenvalues --    0.12594   0.13225   0.14141   0.14730   0.15692

 Mulliken charges:
               1
     1  O   -2.975989
     2  C    6.105588
     3  C   -2.046815
     4  O   -3.480262
     5  C    1.112350
     6  C   -3.051281
     7  C   -3.206202
     8  H    1.428103
     9  H    1.331303
    10  H    1.296592
    11  H    1.166731
    12  H    1.330269
    13  H    0.989612
 Sum of Mulliken charges =   0.00000

 Dipole moment (field-independent basis, Debye):
    X=             -0.9244    Y=             -0.7583    Z=              0.2295  Tot=              1.2175

 Test job not archived.
 1\1\GINC-SE168\SP\RHF\Aug-CC-pVDZ\C5H6O2\OHZDE\09-Apr-2025\0\\#t hf au
 g-cc-pvdz iop(5/13=1,5/36=2,99/5=2) pseudo=read geom=check guess=(read
 ,tcheck) scf=(maxcycle=1)\\title\\0,1\O,0,1.52369086,1.37920757,-0.284
 21037\C,0,0.67494751,0.30987369,-0.08777697\C,0,1.96862768,0.29959725,
 0.56427986\O,0,0.33574486,-0.49955091,-1.19335473\C,0,-1.0530202,-0.32
 730159,-0.88689913\C,0,-1.36435666,-0.92337827,0.43580767\C,0,-0.75285
 984,0.45568684,0.35657979\H,0,2.05913296,0.54515628,1.61799619\H,0,2.7
 6181742,-0.30758049,0.13972475\H,0,-1.74051762,-0.15896315,-1.70306519

 Normal termination of Gaussian 16 at Wed Apr  9 19:16:57 2025.
