 Gaussian 16, Revision C.01,

 ----------------------------------------------------------------------
 #t hf aug-cc-pvdz symm=none int=(grid=ultrafine) guess=(read,tcheck) s
 table=(opt,rrhf)
 ----------------------------------------------------------------------
 -----
 title
 -----
 Symbolic Z-matrix:
 Charge =  0 Multiplicity = 1

 SCF Done:  E(RHF) =  -270.877048814     A.U. after   14 cycles
 Normal termination of Gaussian 16 at Wed Apr  9 19:12:08 2025.
 Gaussian 16:  ES64L-G16RevC.01  3-Jul-2019

 ----------------------------------------------------------------------
 #t hf aug-cc-pvdz iop(5/13=1,5/36=2,99/5=2) pseudo=read geom=check gue
 ss=(read,tcheck) scf=(maxcycle=1)
 ----------------------------------------------------------------------
 -----
 title
 -----
 Structure from the checkpoint file:  "Grambow2020_wb97xd3_008387_reverse_mol2.chk"
 Charge =  0 Multiplicity = 1

                         Standard orientation:
 ---------------------------------------------------------------------
 Center     Atomic      Atomic             Coordinates (Angstroms)
 Number     Number       Type             X           Y           Z
 ---------------------------------------------------------------------
      1          6           0       -2.028401    0.463641   -0.445800
      2          6           0       -0.661755    0.123912    0.083713
      3          6           0       -0.475898   -1.110862    0.911778
      4          6           0        1.664377    0.682932   -0.001209
      5          6           0        0.317455    1.266436    0.344097
      6          6           0        1.562064   -0.555413   -0.471781
      7          6           0        0.153008   -1.028871   -0.458769
      8          1           0       -1.957199    1.051587   -1.364352
      9          1           0       -2.600514   -0.439039   -0.669060
     10          1           0       -2.599066    1.045880    0.282665
     11          1           0        0.187009   -1.081899    1.768771
     12          1           0       -1.340182   -1.754479    1.024858
     13          1           0        2.592728    1.223004    0.137628
     14          1           0        0.088166    2.129578   -0.291388
     15          1           0        0.272075    1.620626    1.378779
     16          1           0        2.391886   -1.171289   -0.795623
     17          1           0       -0.220004   -1.674617   -1.244449
 ---------------------------------------------------------------------

 SCF Done:  E(RHF) =  -272.234902402     A.U. after    2 cycles

 The electronic state is 1-A.
 Alpha  occ. eigenvalues --  -11.45851 -11.44097 -11.41710 -11.38934 -11.37671
 Alpha  occ. eigenvalues --  -11.36719 -11.34419  -1.40434  -1.13064  -1.06790
 Alpha  occ. eigenvalues --   -0.98408  -0.86562  -0.77235  -0.75786  -0.68418
 Alpha  occ. eigenvalues --   -0.61541  -0.58676  -0.56717  -0.54456  -0.52452
 Alpha  occ. eigenvalues --   -0.48280  -0.46563  -0.42814  -0.41439  -0.35376
 Alpha  occ. eigenvalues --   -0.30164
 Alpha virt. eigenvalues --    0.03912   0.04935   0.05138   0.05473   0.05573
 Alpha virt. eigenvalues --    0.06212   0.06662   0.06982   0.08141   0.08854
 Alpha virt. eigenvalues --    0.10097   0.12051   0.13006   0.13446   0.13975

 Mulliken charges:
               1
     1  C   -5.472925
     2  C    2.595842
     3  C   -2.562285
     4  C   -0.248711
     5  C   -5.076960
     6  C   -0.883679
     7  C   -1.557413
     8  H    1.211499
     9  H    1.206886
    10  H    1.278505
    11  H    1.435262
    12  H    1.377022
    13  H    1.405497
    14  H    1.414711
    15  H    1.161320
    16  H    1.393629
    17  H    1.321801
 Sum of Mulliken charges =  -0.00000

 Dipole moment (field-independent basis, Debye):
    X=             -0.1952    Y=             -0.0336    Z=             -0.0722  Tot=              0.2108

 Test job not archived.
 1\1\GINC-SE028\SP\RHF\Aug-CC-pVDZ\C7H10\OHZDE\09-Apr-2025\0\\#t hf aug
 -cc-pvdz iop(5/13=1,5/36=2,99/5=2) pseudo=read geom=check guess=(read,
 tcheck) scf=(maxcycle=1)\\title\\0,1\C,0,1.95358895,-0.08823926,-0.258
 42134\C,0,0.48416769,-0.17898818,0.05155546\C,0,0.03588332,-0.31088667
 ,1.47512282\C,0,-1.7226818,0.01099272,-0.85637036\C,0,-0.44291135,-0.7
 7220269,-1.00704589\C,0,-1.61139094,0.97168591,0.05472062\C,0,-0.27607
 633,0.95176911,0.70764358\H,0,2.12420736,0.45898005,-1.1889734\H,0,2.4
 9353564,0.42791534,0.53783953\H,0,2.39487114,-1.08258424,-0.36738183\H

 Normal termination of Gaussian 16 at Wed Apr  9 19:12:14 2025.
