 Gaussian 16, Revision C.01,

 ----------------------------------------------------------------------
 #t hf aug-cc-pvdz symm=none int=(grid=ultrafine) guess=(read,tcheck) s
 table=(opt,rrhf)
 ----------------------------------------------------------------------
 -----
 title
 -----
 Symbolic Z-matrix:
 Charge =  0 Multiplicity = 1

 SCF Done:  E(RHF) =  -338.619279384     A.U. after   16 cycles
 Normal termination of Gaussian 16 at Wed Apr  9 03:52:38 2025.
 Gaussian 16:  ES64L-G16RevC.01  3-Jul-2019

 ----------------------------------------------------------------------
 #t hf aug-cc-pvdz iop(5/13=1,5/36=2,99/5=2) pseudo=read geom=check gue
 ss=(read,tcheck) scf=(maxcycle=1)
 ----------------------------------------------------------------------
 -----
 title
 -----
 Structure from the checkpoint file:  "Grambow2020_wb97xd3_008311_reverse_mol2.chk"
 Charge =  0 Multiplicity = 1

                         Standard orientation:
 ---------------------------------------------------------------------
 Center     Atomic      Atomic             Coordinates (Angstroms)
 Number     Number       Type             X           Y           Z
 ---------------------------------------------------------------------
      1          6           0        2.466876    0.316187   -0.121659
      2          8           0        1.483428   -0.634185   -0.009151
      3          6           0        0.261828   -0.331544    0.079045
      4          6           0       -0.222085    1.072841    0.025883
      5          7           0       -1.637310    0.816120   -0.046053
      6          6           0       -1.830916   -0.524819   -0.025999
      7          7           0       -0.752852   -1.244095    0.039816
      8          1           0        3.430695   -0.153013    0.015277
      9          1           0        2.269932    1.223364    0.444143
     10          1           0        0.229105    1.553473   -0.867481
     11          1           0        0.067606    1.683926    0.891725
     12          1           0       -2.359974    1.509116   -0.039227
     13          1           0       -2.827876   -0.943553   -0.071188
 ---------------------------------------------------------------------

 SCF Done:  E(RHF) =  -340.161726158     A.U. after    2 cycles

 The electronic state is 1-A.
 Alpha  occ. eigenvalues --  -21.14885 -15.80837 -15.75115 -11.52996 -11.48821
 Alpha  occ. eigenvalues --  -11.44729 -11.32847  -1.86181  -1.57468  -1.31187
 Alpha  occ. eigenvalues --   -1.12061  -0.96473  -0.88171  -0.80814  -0.75681
 Alpha  occ. eigenvalues --   -0.69924  -0.64494  -0.60230  -0.59141  -0.53850
 Alpha  occ. eigenvalues --   -0.52833  -0.51493  -0.44426  -0.39647  -0.36768
 Alpha  occ. eigenvalues --   -0.21551
 Alpha virt. eigenvalues --    0.02152   0.04070   0.04797   0.06311   0.07072
 Alpha virt. eigenvalues --    0.07952   0.08394   0.09049   0.10283   0.11674
 Alpha virt. eigenvalues --    0.11979   0.12561   0.14106   0.14269   0.15060

 Mulliken charges:
               1
     1  C   -2.432133
     2  O   -3.619650
     3  C    5.116105
     4  C   -2.338895
     5  N   -2.827555
     6  C    1.128145
     7  N   -3.039956
     8  H    1.523392
     9  H    1.305645
    10  H    1.344982
    11  H    1.474572
    12  H    0.797820
    13  H    1.567528
 Sum of Mulliken charges =   0.00000

 Dipole moment (field-independent basis, Debye):
    X=             -4.9803    Y=              2.1926    Z=              1.0355  Tot=              5.5392

 Test job not archived.
 1\1\GINC-SE186\SP\RHF\Aug-CC-pVDZ\C4H6N2O1\OHZDE\09-Apr-2025\0\\#t hf
 aug-cc-pvdz iop(5/13=1,5/36=2,99/5=2) pseudo=read geom=check guess=(re
 ad,tcheck) scf=(maxcycle=1)\\title\\0,1\C,0,2.41488681,-0.08070482,-0.
 24075146\O,0,1.37790069,0.60862877,-0.817392\C,0,0.17379094,0.39874306
 ,-0.50475087\C,0,-0.2240898,-0.57873895,0.5419179\N,0,-1.62486523,-0.2
 5498024,0.62528727\C,0,-1.88817615,0.73832854,-0.2578927\N,0,-0.869884
 83,1.1631974,-0.94088573\H,0,3.32279456,0.1179943,-0.79217514\H,0,2.18
 425354,-1.11976195,-0.01926154\H,0,0.37719288,-0.36611885,1.45072436\H

 Normal termination of Gaussian 16 at Wed Apr  9 03:52:42 2025.
