 Gaussian 16, Revision C.01,

 ----------------------------------------------------------------------
 #t hf aug-cc-pvdz symm=none int=(grid=ultrafine) guess=(read,tcheck) s
 table=(opt,rrhf)
 ----------------------------------------------------------------------
 -----
 title
 -----
 Symbolic Z-matrix:
 Charge =  0 Multiplicity = 1

 SCF Done:  E(RHF) =  -299.475917369     A.U. after   17 cycles
 Normal termination of Gaussian 16 at Wed Apr  9 17:44:13 2025.
 Gaussian 16:  ES64L-G16RevC.01  3-Jul-2019

 ----------------------------------------------------------------------
 #t hf aug-cc-pvdz iop(5/13=1,5/36=2,99/5=2) pseudo=read geom=check gue
 ss=(read,tcheck) scf=(maxcycle=1)
 ----------------------------------------------------------------------
 -----
 title
 -----
 Structure from the checkpoint file:  "Grambow2020_wb97xd3_006145_reverse_mol1.chk"
 Charge =  0 Multiplicity = 1

                         Standard orientation:
 ---------------------------------------------------------------------
 Center     Atomic      Atomic             Coordinates (Angstroms)
 Number     Number       Type             X           Y           Z
 ---------------------------------------------------------------------
      1          7           0        1.589908    0.156220    0.482613
      2          6           0        0.650597    0.270394   -0.426803
      3          6           0       -0.493531    1.156368   -0.373139
      4          6           0       -1.312292    0.292002    0.283036
      5          7           0       -0.765223   -0.979656    0.417852
      6          8           0        0.196266   -0.972087   -0.692796
      7          1           0        0.566630   -0.554389    1.080160
      8          1           0        1.803647    1.044610    0.926167
      9          1           0       -0.547433    2.226264   -0.469011
     10          1           0       -2.234405    0.511676    0.803232
 ---------------------------------------------------------------------

 SCF Done:  E(RHF) =  -300.821761003     A.U. after    2 cycles

 The electronic state is 1-A.
 Alpha  occ. eigenvalues --  -21.08094 -15.77998 -15.76340 -11.53752 -11.46707
 Alpha  occ. eigenvalues --  -11.41562  -1.89407  -1.36315  -1.28901  -1.10898
 Alpha  occ. eigenvalues --   -0.84783  -0.81239  -0.74653  -0.71133  -0.58080
 Alpha  occ. eigenvalues --   -0.57036  -0.49071  -0.46664  -0.44443  -0.38190
 Alpha  occ. eigenvalues --   -0.32421  -0.30900
 Alpha virt. eigenvalues --    0.02971   0.04678   0.05008   0.06677   0.07447
 Alpha virt. eigenvalues --    0.08448   0.09759   0.11016   0.11581   0.12596
 Alpha virt. eigenvalues --    0.13938   0.14180   0.15358   0.15982   0.16234

 Mulliken charges:
               1
     1  N   -2.666807
     2  C    3.192926
     3  C   -0.980493
     4  C    0.742985
     5  N   -1.014802
     6  O   -2.741087
     7  H    0.403520
     8  H    0.626916
     9  H    1.116880
    10  H    1.319962
 Sum of Mulliken charges =   0.00000

 Dipole moment (field-independent basis, Debye):
    X=             -0.0646    Y=              2.8068    Z=              0.6245  Tot=              2.8762

 Test job not archived.
 1\1\GINC-SE162\SP\RHF\Aug-CC-pVDZ\C3H4N2O1\OHZDE\09-Apr-2025\0\\#t hf
 aug-cc-pvdz iop(5/13=1,5/36=2,99/5=2) pseudo=read geom=check guess=(re
 ad,tcheck) scf=(maxcycle=1)\\title\\0,1\N,0,1.65409483,-0.20828571,-0.
 07654096\C,0,0.49699351,-0.46494525,-0.64011846\C,0,-0.6016639,0.46346
 705,-0.80703865\C,0,-1.1908125,0.20361555,0.3902274\N,0,-0.60660257,-0
 .86385045,1.06386647\O,0,0.00746968,-1.58134661,-0.06137557\H,0,0.8496
 4549,-0.34226752,1.03882197\H,0,1.96792855,0.73999687,-0.26074315\H,0,
 -0.69804647,1.31426497,-1.45790522\H,0,-1.93523262,0.79197409,0.908710

 Normal termination of Gaussian 16 at Wed Apr  9 17:44:16 2025.
