 Gaussian 16, Revision C.01,

 ----------------------------------------------------------------------
 #t hf aug-cc-pvdz symm=none int=(grid=ultrafine) guess=(read,tcheck) s
 table=(opt,rrhf)
 ----------------------------------------------------------------------
 -----
 title
 -----
 Symbolic Z-matrix:
 Charge =  0 Multiplicity = 1

 SCF Done:  E(RHF) =  -307.019436876     A.U. after   12 cycles

 1\1\GINC-SE454\Stability\RHF\Aug-CC-pVDZ\C4H10O2\OHZDE\09-Apr-2025\0\\
 #t hf aug-cc-pvdz symm=none int=(grid=ultrafine) guess=(read,tcheck) s
 table=(opt,rrhf)\\title\\0,1\C,0,-2.02438134,-0.55197625,0.28800299\C,
 0,-0.64948683,0.02179656,-0.02368957\C,0,0.49645436,-0.94972026,-0.376
 9606\O,0,2.01631943,1.68008162,-1.28972807\C,0,0.2659365,0.43661643,1.
 14852253\O,0,1.39564247,-0.30829764,0.58481032\H,0,-2.49136243,-0.9696
 2184,-0.61581056\H,0,-1.95559179,-1.35509163,1.03685683\H,0,-2.6963096
 2,0.22395532,0.68251471\H,0,-0.70772979,0.82707756,-0.76627396\H,0,0.8

 Normal termination of Gaussian 16 at Wed Apr  9 17:21:31 2025.
 Gaussian 16:  ES64L-G16RevC.01  3-Jul-2019

 ----------------------------------------------------------------------
 #t hf aug-cc-pvdz iop(5/13=1,5/36=2,99/5=2) pseudo=read geom=check gue
 ss=(read,tcheck) scf=(maxcycle=1)
 ----------------------------------------------------------------------
 -----
 title
 -----
 Structure from the checkpoint file:  "Grambow2020_b97d3_007112_reverse_mol2.chk"
 Charge =  0 Multiplicity = 1

                         Standard orientation:
 ---------------------------------------------------------------------
 Center     Atomic      Atomic             Coordinates (Angstroms)
 Number     Number       Type             X           Y           Z
 ---------------------------------------------------------------------
      1          6           0       -2.326085   -0.642616   -0.078259
      2          6           0       -0.816594   -0.449939   -0.110119
      3          6           0       -0.130070    0.226485    1.095269
      4          8           0        2.546229   -0.810380   -0.254297
      5          6           0       -0.235217    0.733832   -0.913140
      6          8           0        0.598126    1.147420    0.219727
      7          1           0       -2.611180   -1.399799    0.666572
      8          1           0       -2.837795    0.296710    0.179284
      9          1           0       -2.702467   -0.977798   -1.055595
     10          1           0       -0.296977   -1.380171   -0.370825
     11          1           0        0.557037   -0.389305    1.690500
     12          1           0       -0.819376    0.775209    1.757020
     13          1           0        3.141889   -0.871873    0.512070
     14          1           0        0.373385    0.496394   -1.795542
     15          1           0       -0.973006    1.513919   -1.161914
     16          1           0        2.061445    0.033821   -0.107519
 ---------------------------------------------------------------------

 SCF Done:  E(RHF) =  -308.445398793     A.U. after    2 cycles

 The electronic state is 1-A.
 Alpha  occ. eigenvalues --  -21.06613 -21.04471 -11.44992 -11.44922 -11.40004
 Alpha  occ. eigenvalues --  -11.36890  -1.76267  -1.63084  -1.18875  -0.99359
 Alpha  occ. eigenvalues --   -0.97761  -0.79784  -0.70064  -0.62625  -0.60441
 Alpha  occ. eigenvalues --   -0.59226  -0.57130  -0.55412  -0.49523  -0.48414
 Alpha  occ. eigenvalues --   -0.44569  -0.41664  -0.35682  -0.33412  -0.29640
 Alpha virt. eigenvalues --    0.03789   0.05100   0.05448   0.05618   0.05757
 Alpha virt. eigenvalues --    0.06083   0.06482   0.06960   0.08474   0.09692
 Alpha virt. eigenvalues --    0.11492   0.12990   0.13620   0.14233   0.14781

 Mulliken charges:
               1
     1  C   -4.459090
     2  C   -1.436384
     3  C   -1.178145
     4  O   -2.138563
     5  C   -1.389699
     6  O   -2.392896
     7  H    1.179603
     8  H    1.222411
     9  H    1.178534
    10  H    1.304431
    11  H    1.560355
    12  H    1.431365
    13  H    0.768754
    14  H    1.564380
    15  H    1.412335
    16  H    1.372608
 Sum of Mulliken charges =   0.00000

 Dipole moment (field-independent basis, Debye):
    X=             -1.1592    Y=              0.0311    Z=              0.5126  Tot=              1.2679

 Test job not archived.
 1\1\GINC-SE454\SP\RHF\Aug-CC-pVDZ\C4H10O2\OHZDE\09-Apr-2025\0\\#t hf a
 ug-cc-pvdz iop(5/13=1,5/36=2,99/5=2) pseudo=read geom=check guess=(rea
 d,tcheck) scf=(maxcycle=1)\\title\\0,1\C,0,-2.02438134,-0.55197625,0.2
 8800299\C,0,-0.64948683,0.02179656,-0.02368957\C,0,0.49645436,-0.94972
 026,-0.3769606\O,0,2.01631943,1.68008162,-1.28972807\C,0,0.2659365,0.4
 3661643,1.14852253\O,0,1.39564247,-0.30829764,0.58481032\H,0,-2.491362
 43,-0.96962184,-0.61581056\H,0,-1.95559179,-1.35509163,1.03685683\H,0,
 -2.69630962,0.22395532,0.68251471\H,0,-0.70772979,0.82707756,-0.766273

 Normal termination of Gaussian 16 at Wed Apr  9 17:21:35 2025.
