 Gaussian 16, Revision C.01,

 ----------------------------------------------------------------------
 #t hf aug-cc-pvdz symm=none int=(grid=ultrafine) guess=(read,tcheck) s
 table=(opt,rrhf)
 ----------------------------------------------------------------------
 -----
 title
 -----
 Symbolic Z-matrix:
 Charge =  0 Multiplicity = 1

 SCF Done:  E(RHF) =  -394.427471207     A.U. after   15 cycles
 Normal termination of Gaussian 16 at Wed Apr  9 18:30:25 2025.
 Gaussian 16:  ES64L-G16RevC.01  3-Jul-2019

 ----------------------------------------------------------------------
 #t hf aug-cc-pvdz iop(5/13=1,5/36=2,99/5=2) pseudo=read geom=check gue
 ss=(read,tcheck) scf=(maxcycle=1)
 ----------------------------------------------------------------------
 -----
 title
 -----
 Structure from the checkpoint file:  "Grambow2020_wb97xd3_007207_reverse_mol2.chk"
 Charge =  0 Multiplicity = 1

                         Standard orientation:
 ---------------------------------------------------------------------
 Center     Atomic      Atomic             Coordinates (Angstroms)
 Number     Number       Type             X           Y           Z
 ---------------------------------------------------------------------
      1          7           0        0.428581    1.698622    0.005743
      2          6           0        1.090856    0.762433    0.009599
      3          8           0       -1.165784   -1.209562    0.008551
      4          6           0       -2.226246   -0.644589   -0.007195
      5          8           0       -2.407115    0.665741   -0.008390
      6          6           0        1.881824   -0.493089    0.016389
      7          8           0        3.073427   -0.481152   -0.024120
      8          1           0       -1.543612    1.118353    0.000957
      9          1           0       -3.193576   -1.163462   -0.023415
     10          1           0        1.254290   -1.393992    0.061167
 ---------------------------------------------------------------------

 SCF Done:  E(RHF) =  -396.064421338     A.U. after    2 cycles

 The electronic state is 1-A.
 Alpha  occ. eigenvalues --  -21.13664 -21.12772 -21.07555 -15.80870 -11.55499
 Alpha  occ. eigenvalues --  -11.52814 -11.47733  -1.84379  -1.77132  -1.67674
 Alpha  occ. eigenvalues --   -1.35222  -1.01486  -0.90107  -0.76522  -0.67526
 Alpha  occ. eigenvalues --   -0.63463  -0.60160  -0.57309  -0.56555  -0.55919
 Alpha  occ. eigenvalues --   -0.50710  -0.46210  -0.45205  -0.35715  -0.35420
 Alpha  occ. eigenvalues --   -0.32889
 Alpha virt. eigenvalues --    0.03658   0.05107   0.07368   0.07972   0.09087
 Alpha virt. eigenvalues --    0.10067   0.10361   0.11417   0.12070   0.12412
 Alpha virt. eigenvalues --    0.12531   0.13855   0.14141   0.14584   0.15805

 Mulliken charges:
               1
     1  N   -2.243828
     2  C    1.726750
     3  O   -2.649812
     4  C    2.477585
     5  O   -2.879349
     6  C    1.405884
     7  O   -2.512475
     8  H    1.307938
     9  H    1.755347
    10  H    1.611961
 Sum of Mulliken charges =   0.00000

 Dipole moment (field-independent basis, Debye):
    X=             -0.1065    Y=             -1.3002    Z=              0.0299  Tot=              1.3049

 Test job not archived.
 1\1\GINC-SE041\SP\RHF\Aug-CC-pVDZ\C3H3N1O3\OHZDE\09-Apr-2025\0\\#t hf
 aug-cc-pvdz iop(5/13=1,5/36=2,99/5=2) pseudo=read geom=check guess=(re
 ad,tcheck) scf=(maxcycle=1)\\title\\0,1\N,0,-0.97549669,1.41545788,-0.
 86754461\C,0,-1.478698,0.53011831,-0.34025487\O,0,1.06509808,-0.802244
 56,0.51712593\C,0,2.02072124,-0.16546922,0.16311492\O,0,1.98876828,0.9
 6367615,-0.52513548\C,0,-2.05758146,-0.64400471,0.3585592\O,0,-3.23609
 284,-0.78507426,0.47218513\H,0,1.06401081,1.21479545,-0.70498286\H,0,3
 .05848999,-0.45374813,0.37560418\H,0,-1.29292842,-1.33456791,0.7404734

 Normal termination of Gaussian 16 at Wed Apr  9 18:30:28 2025.
