 Gaussian 16, Revision C.01,

 ----------------------------------------------------------------------
 #t hf aug-cc-pvdz symm=none int=(grid=ultrafine) guess=(read,tcheck) s
 table=(opt,rrhf)
 ----------------------------------------------------------------------
 -----
 title
 -----
 Symbolic Z-matrix:
 Charge =  0 Multiplicity = 1

 SCF Done:  E(RHF) =  -286.735523616     A.U. after   16 cycles
 Normal termination of Gaussian 16 at Wed Apr  9 19:18:13 2025.
 Gaussian 16:  ES64L-G16RevC.01  3-Jul-2019

 ----------------------------------------------------------------------
 #t hf aug-cc-pvdz iop(5/13=1,5/36=2,99/5=2) pseudo=read geom=check gue
 ss=(read,tcheck) scf=(maxcycle=1)
 ----------------------------------------------------------------------
 -----
 title
 -----
 Structure from the checkpoint file:  "Grambow2020_wb97xd3_008575_forward_mol1.chk"
 Charge =  0 Multiplicity = 1

                         Standard orientation:
 ---------------------------------------------------------------------
 Center     Atomic      Atomic             Coordinates (Angstroms)
 Number     Number       Type             X           Y           Z
 ---------------------------------------------------------------------
      1          6           0       -2.254803   -0.557454    0.070927
      2          6           0       -0.877813   -0.031146   -0.134497
      3          6           0        0.296133   -0.642023   -0.644903
      4          6           0        1.423742    0.289198   -0.624880
      5          6           0        1.514783   -1.218064    0.584783
      6          6           0        0.851967    1.394390    0.025664
      7          7           0       -0.476216    1.184276    0.259901
      8          1           0       -3.004042    0.235450    0.021917
      9          1           0       -2.498116   -1.288568   -0.700516
     10          1           0       -2.362347   -1.057371    1.039913
     11          1           0        0.255196   -1.540783   -1.247316
     12          1           0        2.130071   -0.605744    1.228719
     13          1           0        2.131734   -1.922674    0.042493
     14          1           0        0.772271   -1.738096    1.193103
     15          1           0        1.284264    2.352686    0.272791
     16          1           0       -1.099573    1.865759    0.667020
 ---------------------------------------------------------------------

 SCF Done:  E(RHF) =  -288.158428195     A.U. after    2 cycles

 The electronic state is 1-A.
 Alpha  occ. eigenvalues --  -15.81980 -11.45403 -11.42036 -11.40922 -11.38245
 Alpha  occ. eigenvalues --  -11.37480 -11.32322  -1.52232  -1.19134  -1.13466
 Alpha  occ. eigenvalues --   -0.97820  -0.96625  -0.80685  -0.76490  -0.68175
 Alpha  occ. eigenvalues --   -0.62136  -0.60532  -0.57952  -0.55907  -0.53972
 Alpha  occ. eigenvalues --   -0.52135  -0.50599  -0.46880  -0.37481  -0.28529
 Alpha  occ. eigenvalues --   -0.24589
 Alpha virt. eigenvalues --    0.02966   0.04568   0.05119   0.05297   0.05573
 Alpha virt. eigenvalues --    0.06484   0.07187   0.07453   0.08155   0.09971
 Alpha virt. eigenvalues --    0.11583   0.12073   0.12313   0.12689   0.12833

 Mulliken charges:
               1
     1  C   -4.895721
     2  C    4.396186
     3  C   -2.036631
     4  C   -1.603304
     5  C   -3.443583
     6  C    0.269956
     7  N   -3.930386
     8  H    1.205702
     9  H    1.165913
    10  H    1.104073
    11  H    1.516227
    12  H    1.277587
    13  H    1.206278
    14  H    1.333722
    15  H    1.605561
    16  H    0.828420
 Sum of Mulliken charges =   0.00000

 Dipole moment (field-independent basis, Debye):
    X=             -4.0734    Y=             -0.1995    Z=              2.5776  Tot=              4.8246

 Test job not archived.
 1\1\GINC-SE112\SP\RHF\Aug-CC-pVDZ\C6H9N1\OHZDE\09-Apr-2025\0\\#t hf au
 g-cc-pvdz iop(5/13=1,5/36=2,99/5=2) pseudo=read geom=check guess=(read
 ,tcheck) scf=(maxcycle=1)\\title\\0,1\C,0,2.05438308,-0.53467595,-0.24
 703558\C,0,0.76316295,0.01554196,0.24825523\C,0,-0.44124458,-0.6215342
 2,0.64242316\C,0,-1.45151614,0.36122465,1.0330786\C,0,-1.7906035,-0.64
 306148,-0.58551325\C,0,-0.79475423,1.56337891,0.7247394\N,0,0.48327837
 ,1.32397244,0.30952772\H,0,2.8926868,0.12559204,-0.0151952\H,0,2.25661
 05,-1.49958583,0.21869652\H,0,2.04429994,-0.69136472,-1.33136235\H,0,-

 Normal termination of Gaussian 16 at Wed Apr  9 19:18:18 2025.
