 Gaussian 16, Revision C.01,

 ----------------------------------------------------------------------
 #t hf aug-cc-pvdz symm=none int=(grid=ultrafine) guess=(read,tcheck) s
 table=(opt,rrhf)
 ----------------------------------------------------------------------
 -----
 title
 -----
 Symbolic Z-matrix:
 Charge =  0 Multiplicity = 1

 SCF Done:  E(RHF) =  -307.744399923     A.U. after   14 cycles

 1\1\GINC-SE437\Stability\RHF\Aug-CC-pVDZ\C6H10O1\OHZDE\09-Apr-2025\0\\
 #t hf aug-cc-pvdz symm=none int=(grid=ultrafine) guess=(read,tcheck) s
 table=(opt,rrhf)\\title\\0,1\C,0,2.33390931,0.2789454,-1.82009863\C,0,
 -0.32766988,0.1151595,1.30135445\C,0,-0.07248485,-1.27629465,0.7790814
 5\C,0,-0.99501131,-0.76760548,-0.39316776\C,0,-1.01026706,0.62944879,0
 .28146098\C,0,-1.75557722,1.37407735,1.38935052\O,0,-0.810945,0.799100
 72,2.38472959\H,0,3.0820262,1.03660519,-2.04793031\H,0,2.80895261,-0.5
 4738461,-1.29228205\H,0,1.89860407,-0.08926868,-2.748315\H,0,0.9588614

 Normal termination of Gaussian 16 at Wed Apr  9 03:33:36 2025.
 Gaussian 16:  ES64L-G16RevC.01  3-Jul-2019

 ----------------------------------------------------------------------
 #t hf aug-cc-pvdz iop(5/13=1,5/36=2,99/5=2) pseudo=read geom=check gue
 ss=(read,tcheck) scf=(maxcycle=1)
 ----------------------------------------------------------------------
 -----
 title
 -----
 Structure from the checkpoint file:  "Grambow2020_wb97xd3_007037_reverse_mol2.chk"
 Charge =  0 Multiplicity = 1

                         Standard orientation:
 ---------------------------------------------------------------------
 Center     Atomic      Atomic             Coordinates (Angstroms)
 Number     Number       Type             X           Y           Z
 ---------------------------------------------------------------------
      1          6           0        3.366770   -0.781602   -0.095854
      2          6           0       -0.632033    0.013666   -0.576919
      3          6           0        0.154211    1.297580   -0.663045
      4          6           0        0.246748    1.087707    0.896243
      5          6           0       -0.480995   -0.270375    0.714253
      6          6           0       -1.903031   -0.814600    0.576371
      7          8           0       -1.844844   -0.542290   -0.885193
      8          1           0        3.911332   -1.706976   -0.276880
      9          1           0        3.471161   -0.128347   -0.961555
     10          1           0        3.779622   -0.285443    0.781663
     11          1           0        1.083532    1.267344   -1.230615
     12          1           0       -0.430463    2.169369   -0.956116
     13          1           0       -0.353120    1.833596    1.419578
     14          1           0        1.240472    1.045416    1.341525
     15          1           0        2.313658   -1.006975    0.071133
     16          1           0       -2.670551   -0.175674    1.010934
     17          1           0       -2.096911   -1.868242    0.775583
 ---------------------------------------------------------------------

 SCF Done:  E(RHF) =  -309.235970536     A.U. after    2 cycles

 The electronic state is 1-A.
 Alpha  occ. eigenvalues --  -21.07176 -11.49174 -11.48480 -11.43373 -11.39676
 Alpha  occ. eigenvalues --  -11.35291 -11.35170  -1.80411  -1.30915  -1.04789
 Alpha  occ. eigenvalues --   -1.02452  -0.93164  -0.91278  -0.67766  -0.67063
 Alpha  occ. eigenvalues --   -0.63126  -0.61527  -0.56828  -0.53526  -0.53222
 Alpha  occ. eigenvalues --   -0.53111  -0.52001  -0.45349  -0.43892  -0.39912
 Alpha  occ. eigenvalues --   -0.34672  -0.27259
 Alpha virt. eigenvalues --    0.03422   0.04879   0.05223   0.05503   0.05940
 Alpha virt. eigenvalues --    0.06210   0.06688   0.08542   0.08866   0.09203
 Alpha virt. eigenvalues --    0.09260   0.10190   0.12382   0.13430   0.13802

 Mulliken charges:
               1
     1  C   -5.325811
     2  C    4.724768
     3  C   -3.025475
     4  C   -2.904718
     5  C   -1.710094
     6  C   -2.308261
     7  O   -3.226120
     8  H    1.182953
     9  H    1.288989
    10  H    1.256799
    11  H    1.620382
    12  H    1.160727
    13  H    1.240498
    14  H    1.534286
    15  H    1.663557
    16  H    1.339659
    17  H    1.487859
 Sum of Mulliken charges =   0.00000

 Dipole moment (field-independent basis, Debye):
    X=             -0.8471    Y=              1.3465    Z=             -0.2631  Tot=              1.6124

 Test job not archived.
 1\1\GINC-SE437\SP\RHF\Aug-CC-pVDZ\C6H10O1\OHZDE\09-Apr-2025\0\\#t hf a
 ug-cc-pvdz iop(5/13=1,5/36=2,99/5=2) pseudo=read geom=check guess=(rea
 d,tcheck) scf=(maxcycle=1)\\title\\0,1\C,0,2.33390931,0.2789454,-1.820
 09863\C,0,-0.32766988,0.1151595,1.30135445\C,0,-0.07248485,-1.27629465
 ,0.77908145\C,0,-0.99501131,-0.76760548,-0.39316776\C,0,-1.01026706,0.
 62944879,0.28146098\C,0,-1.75557722,1.37407735,1.38935052\O,0,-0.81094
 5,0.79910072,2.38472959\H,0,3.0820262,1.03660519,-2.04793031\H,0,2.808
 95261,-0.54738461,-1.29228205\H,0,1.89860407,-0.08926868,-2.748315\H,0

 Normal termination of Gaussian 16 at Wed Apr  9 03:33:41 2025.
