 Gaussian 16, Revision C.01,

 ----------------------------------------------------------------------
 #t hf aug-cc-pvdz symm=none int=(grid=ultrafine) guess=(read,tcheck) s
 table=(opt,rrhf)
 ----------------------------------------------------------------------
 -----
 title
 -----
 Symbolic Z-matrix:
 Charge =  0 Multiplicity = 1

 SCF Done:  E(RHF) =  -358.313401115     A.U. after   16 cycles
 Normal termination of Gaussian 16 at Wed Apr  9 18:12:26 2025.
 Gaussian 16:  ES64L-G16RevC.01  3-Jul-2019

 ----------------------------------------------------------------------
 #t hf aug-cc-pvdz iop(5/13=1,5/36=2,99/5=2) pseudo=read geom=check gue
 ss=(read,tcheck) scf=(maxcycle=1)
 ----------------------------------------------------------------------
 -----
 title
 -----
 Structure from the checkpoint file:  "Grambow2020_wb97xd3_006759_forward_mol1.chk"
 Charge =  0 Multiplicity = 1

                         Standard orientation:
 ---------------------------------------------------------------------
 Center     Atomic      Atomic             Coordinates (Angstroms)
 Number     Number       Type             X           Y           Z
 ---------------------------------------------------------------------
      1          8           0        2.438634   -0.812063   -0.187897
      2          6           0        1.428083   -0.312746    0.002035
      3          6           0        0.347241    0.634735   -0.040208
      4          8           0        0.588881    1.831551    0.124526
      5          7           0       -0.820891   -0.005382   -0.153549
      6          6           0       -2.255378    0.132027   -0.052651
      7          6           0       -1.488541   -1.152950    0.004394
      8          1           0        0.468839   -1.335180    1.494390
      9          1           0       -2.738431    0.485384   -0.959589
     10          1           0       -2.651607    0.527805    0.876423
     11          1           0       -0.277203   -1.592139    1.343404
     12          1           0       -1.463904   -2.010498   -0.654237
 ---------------------------------------------------------------------

 SCF Done:  E(RHF) =  -359.901643105     A.U. after    2 cycles

 The electronic state is 1-A.
 Alpha  occ. eigenvalues --  -21.21451 -21.02169 -15.83813 -11.62147 -11.53959
 Alpha  occ. eigenvalues --  -11.48449 -11.43215  -1.84414  -1.70894  -1.54286
 Alpha  occ. eigenvalues --   -1.15442  -0.94068  -0.92096  -0.75697  -0.73476
 Alpha  occ. eigenvalues --   -0.68218  -0.64671  -0.61385  -0.56414  -0.55440
 Alpha  occ. eigenvalues --   -0.51474  -0.49341  -0.47798  -0.37386  -0.31147
 Alpha  occ. eigenvalues --   -0.20999
 Alpha virt. eigenvalues --    0.03503   0.04542   0.05223   0.05965   0.06912
 Alpha virt. eigenvalues --    0.07258   0.09119   0.09794   0.10658   0.11318
 Alpha virt. eigenvalues --    0.11875   0.12234   0.12771   0.13342   0.13757

 Mulliken charges:
               1
     1  O   -2.578760
     2  C    2.111438
     3  C    4.664375
     4  O   -3.162337
     5  N   -1.968246
     6  C   -2.164668
     7  C   -1.054649
     8  H    0.115102
     9  H    1.401635
    10  H    1.496683
    11  H   -0.111813
    12  H    1.251241
 Sum of Mulliken charges =  -0.00000

 Dipole moment (field-independent basis, Debye):
    X=              1.4032    Y=             -1.6754    Z=             -1.5540  Tot=              2.6816

 Test job not archived.
 1\1\GINC-SE226\SP\RHF\Aug-CC-pVDZ\C4H5N1O2\OHZDE\09-Apr-2025\0\\#t hf
 aug-cc-pvdz iop(5/13=1,5/36=2,99/5=2) pseudo=read geom=check guess=(re
 ad,tcheck) scf=(maxcycle=1)\\title\\0,1\O,0,2.51163827,0.97588141,1.24
 736067\C,0,1.73092126,0.37922516,0.66333382\C,0,0.92850396,-0.71497912
 ,0.18734246\O,0,1.47715886,-1.77341117,-0.12345497\N,0,-0.34480177,-0.
 32888031,0.0579217\C,0,-1.63035031,-0.67403206,-0.50337026\C,0,-1.1970
 3601,0.69305,-0.07234448\H,0,0.98222888,1.57073081,-0.82408594\H,0,-2.
 23660231,-1.32090525,0.1249242\H,0,-1.66721927,-0.88238376,-1.56734719

 Normal termination of Gaussian 16 at Wed Apr  9 18:12:30 2025.
