 Gaussian 16, Revision C.01,

 ----------------------------------------------------------------------
 #t hf aug-cc-pvdz symm=none int=(grid=ultrafine) guess=(read,tcheck) s
 table=(opt,rrhf)
 ----------------------------------------------------------------------
 -----
 title
 -----
 Symbolic Z-matrix:
 Charge =  0 Multiplicity = 1

 SCF Done:  E(RHF) =  -268.871537440     A.U. after   15 cycles
 Normal termination of Gaussian 16 at Wed Apr  9 03:05:25 2025.
 Gaussian 16:  ES64L-G16RevC.01  3-Jul-2019

 ----------------------------------------------------------------------
 #t hf aug-cc-pvdz iop(5/13=1,5/36=2,99/5=2) pseudo=read geom=check gue
 ss=(read,tcheck) scf=(maxcycle=1)
 ----------------------------------------------------------------------
 -----
 title
 -----
 Structure from the checkpoint file:  "Grambow2020_b97d3_006486_reverse_mol2.chk"
 Charge =  0 Multiplicity = 1

                         Standard orientation:
 ---------------------------------------------------------------------
 Center     Atomic      Atomic             Coordinates (Angstroms)
 Number     Number       Type             X           Y           Z
 ---------------------------------------------------------------------
      1          8           0        0.159747    1.893817   -0.137712
      2          6           0       -0.064505    0.710510    0.113843
      3          6           0       -1.414356    0.145240   -0.171371
      4          6           0       -1.811047   -1.119257    0.065448
      5          6           0        1.715031   -0.985002   -0.480095
      6          6           0        1.030656   -0.201395    0.659818
      7          1           0       -2.104876    0.863281   -0.618753
      8          1           0        2.138384   -0.291854   -1.218978
      9          1           0       -2.820437   -1.450861   -0.180800
     10          1           0       -1.151855   -1.865308    0.509768
     11          1           0        2.530256   -1.604929   -0.083243
     12          1           0        1.003095   -1.641644   -0.997561
     13          1           0        0.627198   -0.901584    1.405251
     14          1           0        1.765575    0.441791    1.160151
 ---------------------------------------------------------------------

 SCF Done:  E(RHF) =  -270.132287526     A.U. after    2 cycles

 The electronic state is 1-A.
 Alpha  occ. eigenvalues --  -21.04860 -11.49869 -11.44123 -11.41953 -11.40166
 Alpha  occ. eigenvalues --  -11.37388  -1.69603  -1.22024  -1.13782  -0.94650
 Alpha  occ. eigenvalues --   -0.88772  -0.74277  -0.66170  -0.62068  -0.60386
 Alpha  occ. eigenvalues --   -0.56467  -0.53226  -0.51755  -0.48280  -0.46463
 Alpha  occ. eigenvalues --   -0.44422  -0.34842  -0.28183
 Alpha virt. eigenvalues --    0.03313   0.04665   0.05480   0.05629   0.06513
 Alpha virt. eigenvalues --    0.06672   0.06815   0.07851   0.09539   0.10822
 Alpha virt. eigenvalues --    0.12075   0.12768   0.13158   0.14210   0.14717

 Mulliken charges:
               1
     1  O   -3.474742
     2  C    3.735268
     3  C   -1.169765
     4  C   -2.677382
     5  C   -3.676482
     6  C   -3.726607
     7  H    1.419429
     8  H    1.266839
     9  H    1.344821
    10  H    1.625371
    11  H    1.162716
    12  H    1.432262
    13  H    1.455845
    14  H    1.282428
 Sum of Mulliken charges =   0.00000

 Dipole moment (field-independent basis, Debye):
    X=             -0.2906    Y=             -1.7897    Z=              0.2349  Tot=              1.8283

 Test job not archived.
 1\1\GINC-SE365\SP\RHF\Aug-CC-pVDZ\C5H8O1\OHZDE\09-Apr-2025\0\\#t hf au
 g-cc-pvdz iop(5/13=1,5/36=2,99/5=2) pseudo=read geom=check guess=(read
 ,tcheck) scf=(maxcycle=1)\\title\\0,1\O,0,-0.80421418,2.09608595,-0.60
 416861\C,0,-0.4840673,1.04274286,-0.05484332\C,0,-1.54721362,0.1416725
 3,0.47503138\C,0,-1.35085404,-1.02789031,1.11218618\C,0,1.35432801,-0.
 33413033,-1.11257405\C,0,0.97808214,0.61670034,0.0433543\H,0,-2.560705
 93,0.507929,0.29828135\H,0,1.16932496,0.15010864,-2.08051875\H,0,-2.19
 06784,-1.62875826,1.46306959\H,0,-0.35546309,-1.42758542,1.30709019\H,

 Normal termination of Gaussian 16 at Wed Apr  9 03:05:28 2025.
