 Gaussian 16, Revision C.01,

 ----------------------------------------------------------------------
 #t hf aug-cc-pvdz symm=none int=(grid=ultrafine) guess=(read,tcheck) s
 table=(opt,rrhf)
 ----------------------------------------------------------------------
 -----
 title
 -----
 Symbolic Z-matrix:
 Charge =  0 Multiplicity = 1

 SCF Done:  E(RHF) =  -320.593192637     A.U. after   15 cycles
 Normal termination of Gaussian 16 at Wed Apr  9 17:28:10 2025.
 Gaussian 16:  ES64L-G16RevC.01  3-Jul-2019

 ----------------------------------------------------------------------
 #t hf aug-cc-pvdz iop(5/13=1,5/36=2,99/5=2) pseudo=read geom=check gue
 ss=(read,tcheck) scf=(maxcycle=1)
 ----------------------------------------------------------------------
 -----
 title
 -----
 Structure from the checkpoint file:  "Grambow2020_b97d3_007148_reverse_mol1.chk"
 Charge =  0 Multiplicity = 1

                         Standard orientation:
 ---------------------------------------------------------------------
 Center     Atomic      Atomic             Coordinates (Angstroms)
 Number     Number       Type             X           Y           Z
 ---------------------------------------------------------------------
      1          8           0        2.078668    0.023742    0.078383
      2          6           0        0.874225   -0.022043    0.012678
      3          7           0       -0.011488    1.065757   -0.207612
      4          6           0       -1.330916    0.736220   -0.117001
      5          6           0       -1.285902   -0.768624   -0.162605
      6          8           0        0.100698   -1.140280    0.124865
      7          1           0        0.351960    2.011476   -0.263931
      8          1           0       -1.765891    0.903854    1.639989
      9          1           0       -2.036901    1.265722    0.684979
     10          1           0       -1.504108   -1.116402   -1.184142
     11          1           0       -1.944016   -1.265961    0.551966
 ---------------------------------------------------------------------

 SCF Done:  E(RHF) =  -321.997082659     A.U. after    2 cycles

 The electronic state is 1-A.
 Alpha  occ. eigenvalues --  -21.11150 -21.06191 -15.81298 -11.54299 -11.49350
 Alpha  occ. eigenvalues --  -11.44232  -1.86713  -1.68681  -1.43609  -1.11397
 Alpha  occ. eigenvalues --   -0.90583  -0.86123  -0.75543  -0.68881  -0.63288
 Alpha  occ. eigenvalues --   -0.58022  -0.57318  -0.52694  -0.48120  -0.42177
 Alpha  occ. eigenvalues --   -0.34456  -0.33419  -0.30178
 Alpha virt. eigenvalues --    0.02771   0.04759   0.04992   0.05582   0.06544
 Alpha virt. eigenvalues --    0.09507   0.10383   0.10700   0.11654   0.11821
 Alpha virt. eigenvalues --    0.13256   0.13624   0.14397   0.15311   0.16585

 Mulliken charges:
               1
     1  O   -2.985987
     2  C    5.645860
     3  N   -2.281777
     4  C   -0.824321
     5  C   -1.481406
     6  O   -2.747468
     7  H    0.717058
     8  H    0.097390
     9  H    0.961144
    10  H    1.437839
    11  H    1.461668
 Sum of Mulliken charges =  -0.00000

 Dipole moment (field-independent basis, Debye):
    X=             -1.5171    Y=              0.4144    Z=             -1.1299  Tot=              1.9365

 Test job not archived.
 1\1\GINC-SE135\SP\RHF\Aug-CC-pVDZ\C3H5N1O2\OHZDE\09-Apr-2025\0\\#t hf
 aug-cc-pvdz iop(5/13=1,5/36=2,99/5=2) pseudo=read geom=check guess=(re
 ad,tcheck) scf=(maxcycle=1)\\title\\0,1\O,0,2.61868701,-0.07574352,-0.
 39934057\C,0,1.43615289,0.0806765,-0.21429526\N,0,0.6093503,-0.6413770
 4,0.68646056\C,0,-0.71421297,-0.32758929,0.60036522\C,0,-0.68678929,0.
 94512971,-0.20467951\O,0,0.63697892,1.00079869,-0.82754771\H,0,0.99201
 047,-1.42101161,1.21123746\H,0,-1.39821332,-1.40709529,-0.69235623\H,0
 ,-1.52121895,-1.1621989,0.32810189\H,0,-0.75905851,1.81290719,0.468997

 Normal termination of Gaussian 16 at Wed Apr  9 17:28:14 2025.
