 Gaussian 16, Revision C.01,

 ----------------------------------------------------------------------
 #t hf aug-cc-pvdz symm=none int=(grid=ultrafine) guess=(read,tcheck) s
 table=(opt,rrhf)
 ----------------------------------------------------------------------
 -----
 title
 -----
 Symbolic Z-matrix:
 Charge =  0 Multiplicity = 1

 SCF Done:  E(RHF) =  -306.561658032     A.U. after   16 cycles
 Normal termination of Gaussian 16 at Wed Apr  9 18:38:52 2025.
 Gaussian 16:  ES64L-G16RevC.01  3-Jul-2019

 ----------------------------------------------------------------------
 #t hf aug-cc-pvdz iop(5/13=1,5/36=2,99/5=2) pseudo=read geom=check gue
 ss=(read,tcheck) scf=(maxcycle=1)
 ----------------------------------------------------------------------
 -----
 title
 -----
 Structure from the checkpoint file:  "Grambow2020_wb97xd3_007366_reverse_mol2.chk"
 Charge =  0 Multiplicity = 1

                         Standard orientation:
 ---------------------------------------------------------------------
 Center     Atomic      Atomic             Coordinates (Angstroms)
 Number     Number       Type             X           Y           Z
 ---------------------------------------------------------------------
      1          6           0        1.572572   -0.685756   -0.639215
      2          6           0        1.854043    0.089152    0.616582
      3          6           0        0.492450    0.111147    0.005279
      4          6           0       -0.290794    1.329291   -0.473764
      5          6           0       -1.516520    0.910129    0.330179
      6          8           0       -1.536824   -1.060360   -0.352906
      7          6           0       -0.775202   -0.384364    0.654720
      8          1           0        1.978615   -0.310033   -1.569722
      9          1           0        1.511292   -1.764558   -0.575830
     10          1           0        1.988976   -0.464428    1.537623
     11          1           0        2.453974    0.987505    0.540683
     12          1           0        0.050123    2.291675   -0.072452
     13          1           0       -0.463519    1.463988   -1.543035
     14          1           0       -2.461787   -1.044344   -0.076003
     15          1           0       -0.782378   -0.894520    1.619301
 ---------------------------------------------------------------------

 SCF Done:  E(RHF) =  -307.994021403     A.U. after    2 cycles

 The electronic state is 1-A.
 Alpha  occ. eigenvalues --  -21.09310 -11.48946 -11.44599 -11.43334 -11.40940
 Alpha  occ. eigenvalues --  -11.39063 -11.36545  -1.75539  -1.35427  -1.17803
 Alpha  occ. eigenvalues --   -0.95432  -0.87160  -0.82725  -0.75053  -0.67920
 Alpha  occ. eigenvalues --   -0.66230  -0.61864  -0.57803  -0.51647  -0.50928
 Alpha  occ. eigenvalues --   -0.44706  -0.43484  -0.41747  -0.38059  -0.34042
 Alpha  occ. eigenvalues --   -0.30451
 Alpha virt. eigenvalues --    0.04051   0.04801   0.05449   0.05551   0.05937
 Alpha virt. eigenvalues --    0.06621   0.06907   0.07605   0.08746   0.10621
 Alpha virt. eigenvalues --    0.11516   0.12518   0.13420   0.13634   0.14192

 Mulliken charges:
               1
     1  C   -2.007305
     2  C   -2.344073
     3  C    1.843670
     4  C   -3.651797
     5  C   -1.181696
     6  O   -2.619275
     7  C   -0.003906
     8  H    1.177268
     9  H    1.233756
    10  H    1.186956
    11  H    1.187165
    12  H    1.396043
    13  H    1.409759
    14  H    0.849306
    15  H    1.524128
 Sum of Mulliken charges =  -0.00000

 Dipole moment (field-independent basis, Debye):
    X=              1.8087    Y=             -1.4208    Z=             -0.2721  Tot=              2.3161

 Test job not archived.
 1\1\GINC-SE224\SP\RHF\Aug-CC-pVDZ\C6H8O1\OHZDE\09-Apr-2025\0\\#t hf au
 g-cc-pvdz iop(5/13=1,5/36=2,99/5=2) pseudo=read geom=check guess=(read
 ,tcheck) scf=(maxcycle=1)\\title\\0,1\C,0,-1.33341907,0.32913597,-0.88
 020752\C,0,-1.60063626,0.01167679,0.56358961\C,0,-0.21569068,-0.080086
 18,0.01439323\C,0,0.69831862,-1.30123025,-0.00050863\C,0,1.84105787,-0
 .50616363,0.62113729\O,0,1.71122893,1.09751406,-0.70596854\C,0,0.96893
 491,0.73707893,0.46511456\H,0,-1.65896673,-0.38482309,-1.62597202\H,0,
 -1.37509845,1.36350897,-1.1963112\H,0,-1.82914152,0.83256789,1.2320942

 Normal termination of Gaussian 16 at Wed Apr  9 18:38:57 2025.
