 Gaussian 16, Revision C.01,

 ----------------------------------------------------------------------
 #t hf aug-cc-pvdz symm=none int=(grid=ultrafine) guess=(read,tcheck) s
 table=(opt,rrhf)
 ----------------------------------------------------------------------
 -----
 title
 -----
 Symbolic Z-matrix:
 Charge =  0 Multiplicity = 1

 SCF Done:  E(RHF) =  -338.577614802     A.U. after   15 cycles
 Normal termination of Gaussian 16 at Wed Apr  9 03:52:35 2025.
 Gaussian 16:  ES64L-G16RevC.01  3-Jul-2019

 ----------------------------------------------------------------------
 #t hf aug-cc-pvdz iop(5/13=1,5/36=2,99/5=2) pseudo=read geom=check gue
 ss=(read,tcheck) scf=(maxcycle=1)
 ----------------------------------------------------------------------
 -----
 title
 -----
 Structure from the checkpoint file:  "Grambow2020_wb97xd3_008304_forward_mol1.chk"
 Charge =  0 Multiplicity = 1

                         Standard orientation:
 ---------------------------------------------------------------------
 Center     Atomic      Atomic             Coordinates (Angstroms)
 Number     Number       Type             X           Y           Z
 ---------------------------------------------------------------------
      1          6           0       -2.407431   -0.596653    0.407668
      2          8           0       -1.594051    0.161778   -0.501440
      3          6           0       -0.086225    0.200566   -0.175926
      4          6           0       -0.726506    1.319524    0.192671
      5          7           0        2.545421    0.514063    0.221199
      6          6           0        2.016441   -0.616270    0.006684
      7          7           0        0.666411   -0.785696   -0.293867
      8          1           0       -2.435781   -1.622368    0.044050
      9          1           0       -3.401822   -0.153435    0.396559
     10          1           0       -1.982128   -0.551108    1.409562
     11          1           0       -0.782829    2.243549   -0.364010
     12          1           0        3.535490    0.410892    0.421701
     13          1           0        2.558979   -1.563323    0.025754
 ---------------------------------------------------------------------

 SCF Done:  E(RHF) =  -340.122278981     A.U. after    2 cycles

 The electronic state is 1-A.
 Alpha  occ. eigenvalues --  -21.12480 -15.73807 -15.73180 -11.53359 -11.44658
 Alpha  occ. eigenvalues --  -11.42833 -11.41983  -1.84965  -1.44503  -1.26731
 Alpha  occ. eigenvalues --   -1.11502  -0.95151  -0.90145  -0.73853  -0.69578
 Alpha  occ. eigenvalues --   -0.65985  -0.63190  -0.61416  -0.59551  -0.52562
 Alpha  occ. eigenvalues --   -0.48571  -0.44864  -0.39974  -0.38037  -0.35949
 Alpha  occ. eigenvalues --   -0.30218
 Alpha virt. eigenvalues --    0.03574   0.05093   0.05760   0.06174   0.06350
 Alpha virt. eigenvalues --    0.06498   0.09429   0.10219   0.10697   0.10784
 Alpha virt. eigenvalues --    0.12018   0.12584   0.13555   0.14698   0.15256

 Mulliken charges:
               1
     1  C   -3.058139
     2  O   -2.716624
     3  C    4.542013
     4  C   -2.424494
     5  N   -2.600441
     6  C    1.577666
     7  N   -3.085642
     8  H    1.354006
     9  H    1.244847
    10  H    1.529614
    11  H    1.253888
    12  H    0.761162
    13  H    1.622146
 Sum of Mulliken charges =  -0.00000

 Dipole moment (field-independent basis, Debye):
    X=             -1.9276    Y=             -1.2737    Z=             -0.6488  Tot=              2.3998

 Test job not archived.
 1\1\GINC-SE045\SP\RHF\Aug-CC-pVDZ\C4H6N2O1\OHZDE\09-Apr-2025\0\\#t hf
 aug-cc-pvdz iop(5/13=1,5/36=2,99/5=2) pseudo=read geom=check guess=(re
 ad,tcheck) scf=(maxcycle=1)\\title\\0,1\C,0,2.30089355,0.1698305,-0.30
 222187\O,0,1.22010088,-0.57061023,-0.89121746\C,0,-0.17605384,-0.30838
 44,-0.28872707\C,0,0.37346182,-1.44995293,0.15030177\N,0,-2.68164217,-
 0.11597415,0.64216062\C,0,-2.06486962,0.8651819,0.13185407\N,0,-0.7988
 7467,0.76029077,-0.44074755\H,0,2.38746027,1.10995789,-0.84423691\H,0,
 3.20253563,-0.42931802,-0.41815632\H,0,2.09527193,0.34699865,0.7528043

 Normal termination of Gaussian 16 at Wed Apr  9 03:52:40 2025.
