 Gaussian 16, Revision C.01,

 ----------------------------------------------------------------------
 #t hf aug-cc-pvdz symm=none int=(grid=ultrafine) guess=(read,tcheck) s
 table=(opt,rrhf)
 ----------------------------------------------------------------------
 -----
 title
 -----
 Symbolic Z-matrix:
 Charge =  0 Multiplicity = 1

 SCF Done:  E(RHF) =  -302.920491221     A.U. after   14 cycles
 Normal termination of Gaussian 16 at Wed Apr  9 18:32:29 2025.
 Gaussian 16:  ES64L-G16RevC.01  3-Jul-2019

 ----------------------------------------------------------------------
 #t hf aug-cc-pvdz iop(5/13=1,5/36=2,99/5=2) pseudo=read geom=check gue
 ss=(read,tcheck) scf=(maxcycle=1)
 ----------------------------------------------------------------------
 -----
 title
 -----
 Structure from the checkpoint file:  "Grambow2020_wb97xd3_007238_reverse_mol2.chk"
 Charge =  0 Multiplicity = 1

                         Standard orientation:
 ---------------------------------------------------------------------
 Center     Atomic      Atomic             Coordinates (Angstroms)
 Number     Number       Type             X           Y           Z
 ---------------------------------------------------------------------
      1          6           0       -0.065636    1.975214   -0.355115
      2          7           0       -1.597104    0.123820    0.251541
      3          6           0       -1.384250   -1.070709   -0.133121
      4          7           0       -0.034854   -1.484211   -0.269487
      5          6           0        0.641945   -0.446512    0.061420
      6          6           0        2.126747   -0.385919    0.062684
      7          6           0       -0.271648    0.690115    0.438453
      8          1           0        0.925107    2.392502   -0.166411
      9          1           0       -0.167248    1.787000   -1.425135
     10          1           0       -0.812617    2.712810   -0.065076
     11          1           0       -2.178456   -1.772858   -0.359218
     12          1           0        2.545365   -1.354403   -0.201599
     13          1           0        2.474180    0.362526   -0.654296
     14          1           0        2.499925   -0.085269    1.044260
     15          1           0       -0.145502    0.907293    1.507182
 ---------------------------------------------------------------------

 SCF Done:  E(RHF) =  -304.366604200     A.U. after    2 cycles

 The electronic state is 1-A.
 Alpha  occ. eigenvalues --  -15.73076 -15.71797 -11.47916 -11.43600 -11.42655
 Alpha  occ. eigenvalues --  -11.40458 -11.37953  -1.53873  -1.26486  -1.17442
 Alpha  occ. eigenvalues --   -1.06962  -0.95779  -0.80781  -0.75893  -0.69003
 Alpha  occ. eigenvalues --   -0.64095  -0.59465  -0.57427  -0.55565  -0.54719
 Alpha  occ. eigenvalues --   -0.51486  -0.48771  -0.45531  -0.38598  -0.36940
 Alpha  occ. eigenvalues --   -0.35152
 Alpha virt. eigenvalues --    0.03236   0.05172   0.05639   0.05659   0.05900
 Alpha virt. eigenvalues --    0.06307   0.06731   0.07916   0.09970   0.10530
 Alpha virt. eigenvalues --    0.11306   0.11998   0.12701   0.13386   0.14088

 Mulliken charges:
               1
     1  C   -3.803075
     2  N   -2.711564
     3  C    1.389720
     4  N   -3.677696
     5  C    4.920544
     6  C   -5.007580
     7  C   -1.582153
     8  H    1.281535
     9  H    1.218939
    10  H    1.193433
    11  H    1.674102
    12  H    1.265536
    13  H    1.219619
    14  H    1.234586
    15  H    1.384055
 Sum of Mulliken charges =  -0.00000

 Dipole moment (field-independent basis, Debye):
    X=              1.8484    Y=              1.1066    Z=              0.2836  Tot=              2.1729

 Test job not archived.
 1\1\GINC-SE135\SP\RHF\Aug-CC-pVDZ\C5H8N2\OHZDE\09-Apr-2025\0\\#t hf au
 g-cc-pvdz iop(5/13=1,5/36=2,99/5=2) pseudo=read geom=check guess=(read
 ,tcheck) scf=(maxcycle=1)\\title\\0,1\C,0,-1.39415018,0.15259212,-1.08
 458044\N,0,-1.27844643,0.28104886,1.38750261\C,0,-0.46056154,-0.430494
 46,2.05454175\N,0,0.78686855,-0.73293073,1.45213104\C,0,0.72749465,-0.
 15375835,0.30958528\C,0,1.8134427,-0.1973606,-0.70388743\C,0,-0.586267
 01,0.56342952,0.14106528\H,0,-0.86262153,0.40898583,-2.00275837\H,0,-1
 .5824026,-0.92221794,-1.07859893\H,0,-2.353617,0.66793141,-1.08491812\

 Normal termination of Gaussian 16 at Wed Apr  9 18:32:34 2025.
