 Gaussian 16, Revision C.01,

 ----------------------------------------------------------------------
 #t hf aug-cc-pvdz symm=none int=(grid=ultrafine) guess=(read,tcheck) s
 table=(opt,rrhf)
 ----------------------------------------------------------------------
 -----
 title
 -----
 Symbolic Z-matrix:
 Charge =  0 Multiplicity = 1

 SCF Done:  E(RHF) =  -284.762070143     A.U. after   14 cycles
 Normal termination of Gaussian 16 at Wed Apr  9 03:06:48 2025.
 Gaussian 16:  ES64L-G16RevC.01  3-Jul-2019

 ----------------------------------------------------------------------
 #t hf aug-cc-pvdz iop(5/13=1,5/36=2,99/5=2) pseudo=read geom=check gue
 ss=(read,tcheck) scf=(maxcycle=1)
 ----------------------------------------------------------------------
 -----
 title
 -----
 Structure from the checkpoint file:  "Grambow2020_b97d3_006561_reverse_mol2.chk"
 Charge =  0 Multiplicity = 1

                         Standard orientation:
 ---------------------------------------------------------------------
 Center     Atomic      Atomic             Coordinates (Angstroms)
 Number     Number       Type             X           Y           Z
 ---------------------------------------------------------------------
      1          8           0        2.220600   -0.020534   -0.384361
      2          6           0        1.060326   -0.013200    0.440434
      3          6           0       -0.056614    1.050289    0.130493
      4          7           0       -1.005658   -0.090571   -0.025852
      5          6           0       -2.316677   -0.042849   -0.211294
      6          6           0       -0.021285   -1.008132    0.175161
      7          1           0        1.925771   -0.372707   -1.248241
      8          1           0        1.454540    0.062998    1.465335
      9          1           0        0.082281    1.600460   -0.806655
     10          1           0       -0.363068    1.718599    0.944883
     11          1           0       -2.779016    0.921693   -0.381812
     12          1           0       -2.881697   -0.969459   -0.222629
     13          1           0       -0.158511   -2.079961    0.296209
 ---------------------------------------------------------------------

 SCF Done:  E(RHF) =  -286.092249989     A.U. after    2 cycles

 The electronic state is 1-A.
 Alpha  occ. eigenvalues --  -21.06406 -15.84188 -11.49467 -11.42504 -11.39771
 Alpha  occ. eigenvalues --  -11.37327  -1.70934  -1.51607  -1.13702  -0.99491
 Alpha  occ. eigenvalues --   -0.89840  -0.75995  -0.70921  -0.66642  -0.65247
 Alpha  occ. eigenvalues --   -0.58298  -0.52718  -0.51934  -0.49509  -0.47399
 Alpha  occ. eigenvalues --   -0.40909  -0.31119  -0.23444
 Alpha virt. eigenvalues --    0.03685   0.05502   0.05576   0.05860   0.06057
 Alpha virt. eigenvalues --    0.06557   0.06919   0.09187   0.10425   0.12254
 Alpha virt. eigenvalues --    0.12930   0.13187   0.15335   0.15485   0.15792

 Mulliken charges:
               1
     1  O   -2.898205
     2  C    0.049846
     3  C   -2.309787
     4  N   -2.740489
     5  C   -1.768440
     6  C    0.281160
     7  H    0.731307
     8  H    1.357558
     9  H    1.461764
    10  H    1.502881
    11  H    1.499727
    12  H    1.511078
    13  H    1.321601
 Sum of Mulliken charges =  -0.00000

 Dipole moment (field-independent basis, Debye):
    X=             -0.6572    Y=              0.6257    Z=              0.1965  Tot=              0.9284

 Test job not archived.
 1\1\GINC-SE455\SP\RHF\Aug-CC-pVDZ\C4H7N1O1\OHZDE\09-Apr-2025\0\\#t hf
 aug-cc-pvdz iop(5/13=1,5/36=2,99/5=2) pseudo=read geom=check guess=(re
 ad,tcheck) scf=(maxcycle=1)\\title\\0,1\O,0,-2.36393269,-0.58438692,0.
 44746061\C,0,-1.32503433,0.05624949,-0.28524234\C,0,-0.22053913,0.8288
 2299,0.525835\N,0,0.78605997,-0.05343779,-0.13375817\C,0,2.10710011,0.
 02024079,-0.06403345\C,0,-0.17853555,-0.76283433,-0.77999945\H,0,-1.94
 277429,-1.35369242,0.88108785\H,0,-1.85492854,0.69588439,-1.00753803\H
 ,0,-0.25549169,0.67337171,1.60973505\H,0,-0.05240823,1.88444175,0.2784

 Normal termination of Gaussian 16 at Wed Apr  9 03:06:51 2025.
