 Gaussian 16, Revision C.01,

 ----------------------------------------------------------------------
 #t hf aug-cc-pvdz symm=none int=(grid=ultrafine) guess=(read,tcheck) s
 table=(opt,rrhf)
 ----------------------------------------------------------------------
 -----
 title
 -----
 Symbolic Z-matrix:
 Charge =  0 Multiplicity = 1

 SCF Done:  E(RHF) =  -342.365361716     A.U. after   16 cycles
 Normal termination of Gaussian 16 at Wed Apr  9 03:59:40 2025.
 Gaussian 16:  ES64L-G16RevC.01  3-Jul-2019

 ----------------------------------------------------------------------
 #t hf aug-cc-pvdz iop(5/13=1,5/36=2,99/5=2) pseudo=read geom=check gue
 ss=(read,tcheck) scf=(maxcycle=1)
 ----------------------------------------------------------------------
 -----
 title
 -----
 Structure from the checkpoint file:  "Grambow2020_wb97xd3_008769_reverse_mol1.chk"
 Charge =  0 Multiplicity = 1

                         Standard orientation:
 ---------------------------------------------------------------------
 Center     Atomic      Atomic             Coordinates (Angstroms)
 Number     Number       Type             X           Y           Z
 ---------------------------------------------------------------------
      1          8           0        2.286854   -0.716292   -0.020542
      2          6           0        1.610239    0.245419   -0.250878
      3          6           0        0.309461    0.538522    0.467541
      4          8           0       -0.508108    1.408751   -0.317386
      5          6           0       -1.860529    0.094656    0.172357
      6          6           0       -1.351020   -1.043619   -0.593918
      7          6           0       -0.627349   -0.622474    0.655003
      8          1           0        1.897652    1.001884   -1.010130
      9          1           0        0.565039    1.002517    1.430869
     10          1           0       -1.658972    1.312248    0.119593
     11          1           0       -1.930471   -1.949899   -0.444936
     12          1           0       -0.983932   -0.897724   -1.601986
     13          1           0       -0.604100   -1.283724    1.509382
 ---------------------------------------------------------------------

 SCF Done:  E(RHF) =  -343.891828754     A.U. after    2 cycles

 The electronic state is 1-A.
 Alpha  occ. eigenvalues --  -21.07287 -21.05004 -11.50097 -11.47840 -11.47198
 Alpha  occ. eigenvalues --  -11.44503 -11.40852  -1.75371  -1.70525  -1.31485
 Alpha  occ. eigenvalues --   -1.07483  -0.91942  -0.83366  -0.78254  -0.71726
 Alpha  occ. eigenvalues --   -0.68458  -0.64475  -0.56900  -0.54123  -0.49669
 Alpha  occ. eigenvalues --   -0.45681  -0.44304  -0.39728  -0.33387  -0.31564
 Alpha  occ. eigenvalues --   -0.27983
 Alpha virt. eigenvalues --    0.03754   0.04796   0.05102   0.06269   0.06453
 Alpha virt. eigenvalues --    0.06682   0.07185   0.09942   0.10621   0.11600
 Alpha virt. eigenvalues --    0.12223   0.13477   0.13937   0.14220   0.14954

 Mulliken charges:
               1
     1  O   -2.818709
     2  C    1.415429
     3  C   -0.188132
     4  O   -2.575675
     5  C   -0.877653
     6  C   -2.763226
     7  C   -0.631130
     8  H    1.490142
     9  H    1.554979
    10  H    1.558170
    11  H    1.368040
    12  H    1.295052
    13  H    1.172712
 Sum of Mulliken charges =   0.00000

 Dipole moment (field-independent basis, Debye):
    X=              0.0632    Y=             -0.0819    Z=             -0.1355  Tot=              0.1705

 Test job not archived.
 1\1\GINC-SE212\SP\RHF\Aug-CC-pVDZ\C5H6O2\OHZDE\09-Apr-2025\0\\#t hf au
 g-cc-pvdz iop(5/13=1,5/36=2,99/5=2) pseudo=read geom=check guess=(read
 ,tcheck) scf=(maxcycle=1)\\title\\0,1\O,0,1.60197189,1.70280813,-1.149
 24522\C,0,1.67175746,0.81921305,-0.34293248\C,0,0.77059618,-0.39798504
 ,-0.36289226\O,0,0.71472436,-0.99784519,0.9328205\C,0,-1.19024553,-0.9
 9869856,0.52437832\C,0,-1.42525204,0.44555561,0.56109317\C,0,-0.690547
 78,-0.1443646,-0.61068653\H,0,2.41644895,0.82750533,0.47966952\H,0,1.1
 8338881,-1.09864971,-1.1026785\H,0,-0.28476011,-1.72273171,0.95077301\

 Normal termination of Gaussian 16 at Wed Apr  9 03:59:44 2025.
