 Gaussian 16, Revision C.01,

 ----------------------------------------------------------------------
 #t hf aug-cc-pvdz symm=none int=(grid=ultrafine) guess=(read,tcheck) s
 table=(opt,rrhf)
 ----------------------------------------------------------------------
 -----
 title
 -----
 Symbolic Z-matrix:
 Charge =  0 Multiplicity = 1

 SCF Done:  E(RHF) =  -234.102136862     A.U. after   14 cycles
 Normal termination of Gaussian 16 at Wed Apr  9 16:24:13 2025.
 Gaussian 16:  ES64L-G16RevC.01  3-Jul-2019

 ----------------------------------------------------------------------
 #t hf aug-cc-pvdz iop(5/13=1,5/36=2,99/5=2) pseudo=read geom=check gue
 ss=(read,tcheck) scf=(maxcycle=1)
 ----------------------------------------------------------------------
 -----
 title
 -----
 Structure from the checkpoint file:  "Grambow2020_b97d3_006795_reverse_mol2.chk"
 Charge =  0 Multiplicity = 1

                         Standard orientation:
 ---------------------------------------------------------------------
 Center     Atomic      Atomic             Coordinates (Angstroms)
 Number     Number       Type             X           Y           Z
 ---------------------------------------------------------------------
      1          6           0       -2.488795    0.136613    0.287422
      2          6           0       -1.467551   -0.382477   -0.644646
      3          6           0        0.707908    1.471403    0.006654
      4          6           0        0.949955    0.003214   -0.377171
      5          6           0        2.244162   -0.531239    0.251995
      6          6           0       -0.263666   -0.894391    0.056748
      7          1           0       -2.175117    0.426820    1.312944
      8          1           0       -3.106240   -0.785391    0.406211
      9          1           0       -3.169711    0.881681   -0.149989
     10          1           0       -0.166095    1.880290   -0.520690
     11          1           0        0.526649    1.564512    1.088475
     12          1           0        1.579959    2.090898   -0.246841
     13          1           0        1.022944   -0.065677   -1.471943
     14          1           0        2.427853   -1.575764   -0.036393
     15          1           0        3.104470    0.071262   -0.074693
     16          1           0        2.195371   -0.482879    1.349885
     17          1           0       -0.038739   -1.909700   -0.313148
     18          1           0       -0.293422   -0.914785    1.170170
 ---------------------------------------------------------------------

 SCF Done:  E(RHF) =  -235.304865303     A.U. after    2 cycles

 The electronic state is 1-A.
 Alpha  occ. eigenvalues --  -11.44121 -11.41259 -11.39233 -11.38538 -11.37297
 Alpha  occ. eigenvalues --  -11.34941  -1.28227  -1.13563  -1.00104  -0.99473
 Alpha  occ. eigenvalues --   -0.81545  -0.73731  -0.64355  -0.60407  -0.59660
 Alpha  occ. eigenvalues --   -0.56191  -0.54892  -0.54676  -0.53233  -0.48630
 Alpha  occ. eigenvalues --   -0.45331  -0.43448  -0.40503  -0.31371
 Alpha virt. eigenvalues --    0.04009   0.05349   0.05423   0.05603   0.05893
 Alpha virt. eigenvalues --    0.05991   0.06203   0.06412   0.07357   0.08188
 Alpha virt. eigenvalues --    0.08775   0.09262   0.09702   0.11977   0.13199

 Mulliken charges:
               1
     1  C   -3.658288
     2  C   -1.059518
     3  C   -4.052817
     4  C   -0.733605
     5  C   -4.118198
     6  C   -2.845742
     7  H    1.430257
     8  H    1.234828
     9  H    1.386933
    10  H    1.420968
    11  H    1.339749
    12  H    1.176083
    13  H    1.755078
    14  H    1.252889
    15  H    1.192114
    16  H    1.320386
    17  H    1.494358
    18  H    1.464526
 Sum of Mulliken charges =  -0.00000

 Dipole moment (field-independent basis, Debye):
    X=              0.5711    Y=              0.0727    Z=              1.5071  Tot=              1.6133

 Test job not archived.
 1\1\GINC-SE097\SP\RHF\Aug-CC-pVDZ\C6H12\OHZDE\09-Apr-2025\0\\#t hf aug
 -cc-pvdz iop(5/13=1,5/36=2,99/5=2) pseudo=read geom=check guess=(read,
 tcheck) scf=(maxcycle=1)\\title\\0,1\C,0,-2.56025099,-0.09197871,0.191
 53644\C,0,-1.51610522,-0.46984401,-0.78217802\C,0,0.53463193,1.4768149
 9,-0.00843337\C,0,0.87218213,0.06084115,-0.50094207\C,0,2.20659653,-0.
 4278192,0.07958446\C,0,-0.27255272,-0.94758896,-0.12743733\H,0,-2.2560
 3037,0.14327808,1.23384807\H,0,-3.1119837,-1.06054225,0.24553133\H,0,-
 3.29514445,0.63443691,-0.18576261\H,0,-0.37090816,1.86203569,-0.499109

 Normal termination of Gaussian 16 at Wed Apr  9 16:24:18 2025.
