 Gaussian 16, Revision C.01,

 ----------------------------------------------------------------------
 #t hf aug-cc-pvdz symm=none int=(grid=ultrafine) guess=(read,tcheck) s
 table=(opt,rrhf)
 ----------------------------------------------------------------------
 -----
 title
 -----
 Symbolic Z-matrix:
 Charge =  0 Multiplicity = 1

 SCF Done:  E(RHF) =  -301.923253584     A.U. after   15 cycles
 Normal termination of Gaussian 16 at Wed Apr  9 03:15:03 2025.
 Gaussian 16:  ES64L-G16RevC.01  3-Jul-2019

 ----------------------------------------------------------------------
 #t hf aug-cc-pvdz iop(5/13=1,5/36=2,99/5=2) pseudo=read geom=check gue
 ss=(read,tcheck) scf=(maxcycle=1)
 ----------------------------------------------------------------------
 -----
 title
 -----
 Structure from the checkpoint file:  "Grambow2020_b97d3_006944_forward_mol1.chk"
 Charge =  0 Multiplicity = 1

                         Standard orientation:
 ---------------------------------------------------------------------
 Center     Atomic      Atomic             Coordinates (Angstroms)
 Number     Number       Type             X           Y           Z
 ---------------------------------------------------------------------
      1          6           0       -2.499262   -0.027058   -0.037363
      2          7           0       -1.169578   -0.625480   -0.071033
      3          6           0       -0.039865    0.147093    0.018592
      4          8           0       -0.010413    1.364937    0.036983
      5          7           0        1.183687   -0.647373    0.123378
      6          6           0        2.735677   -0.008875   -0.039248
      7          1           0       -2.900877    0.032770    0.986226
      8          1           0       -3.183017   -0.616592   -0.660687
      9          1           0       -2.420396    0.986232   -0.441362
     10          1           0       -1.097557   -1.617861    0.125744
     11          1           0        1.138037   -1.583268   -0.283642
     12          1           0        1.787911   -0.699728    1.022933
     13          1           0        2.989578   -0.239523   -1.086978
     14          1           0        2.491567    1.061479    0.023600
 ---------------------------------------------------------------------

 SCF Done:  E(RHF) =  -303.311522080     A.U. after    2 cycles

 The electronic state is 1-A.
 Alpha  occ. eigenvalues --  -21.05213 -15.80631 -15.79138 -11.53285 -11.41858
 Alpha  occ. eigenvalues --  -11.33620  -1.73515  -1.44425  -1.36504  -1.04663
 Alpha  occ. eigenvalues --   -0.91494  -0.82507  -0.75467  -0.71910  -0.64348
 Alpha  occ. eigenvalues --   -0.61054  -0.57197  -0.53968  -0.52248  -0.49162
 Alpha  occ. eigenvalues --   -0.43699  -0.34125  -0.32492  -0.27797
 Alpha virt. eigenvalues --    0.02395   0.03959   0.04953   0.05399   0.06410
 Alpha virt. eigenvalues --    0.07027   0.07576   0.08979   0.09839   0.12034
 Alpha virt. eigenvalues --    0.12830   0.13031   0.13659   0.15328   0.15869

 Mulliken charges:
               1
     1  C   -3.607701
     2  N   -2.507712
     3  C    5.429447
     4  O   -2.834864
     5  N   -2.407258
     6  C   -3.192242
     7  H    1.316690
     8  H    1.293484
     9  H    1.318617
    10  H    0.763200
    11  H    0.686307
    12  H    1.158019
    13  H    1.337931
    14  H    1.246081
 Sum of Mulliken charges =  -0.00000

 Dipole moment (field-independent basis, Debye):
    X=             -4.9755    Y=             -2.5883    Z=             -0.3785  Tot=              5.6213

 Test job not archived.
 1\1\GINC-SE060\SP\RHF\Aug-CC-pVDZ\C3H8N2O1\OHZDE\09-Apr-2025\0\\#t hf
 aug-cc-pvdz iop(5/13=1,5/36=2,99/5=2) pseudo=read geom=check guess=(re
 ad,tcheck) scf=(maxcycle=1)\\title\\0,1\C,0,-2.40404234,0.30398087,0.2
 3842556\N,0,-1.05323594,-0.16025547,0.5335705\C,0,0.00897738,0.1933832
 ,-0.25876439\O,0,-0.05862751,0.82100671,-1.30081444\N,0,1.29403736,-0.
 24047501,0.2886145\C,0,2.74126917,-0.21311823,-0.57600682\H,0,-2.63689
 369,1.25203934,0.74790847\H,0,-3.12977478,-0.45953279,0.54496246\H,0,-
 2.47521834,0.46123673,-0.84157255\H,0,-0.86920535,-0.49974624,1.471444

 Normal termination of Gaussian 16 at Wed Apr  9 03:15:07 2025.
