 Gaussian 16, Revision C.01,

 ----------------------------------------------------------------------
 #t hf aug-cc-pvdz symm=none int=(grid=ultrafine) guess=(read,tcheck) s
 table=(opt,rrhf)
 ----------------------------------------------------------------------
 -----
 title
 -----
 Symbolic Z-matrix:
 Charge =  0 Multiplicity = 1

 SCF Done:  E(RHF) =  -341.260976114     A.U. after   19 cycles
 Normal termination of Gaussian 16 at Wed Apr  9 19:29:56 2025.
 Gaussian 16:  ES64L-G16RevC.01  3-Jul-2019

 ----------------------------------------------------------------------
 #t hf aug-cc-pvdz iop(5/13=1,5/36=2,99/5=2) pseudo=read geom=check gue
 ss=(read,tcheck) scf=(maxcycle=1)
 ----------------------------------------------------------------------
 -----
 title
 -----
 Structure from the checkpoint file:  "Grambow2020_wb97xd3_009087_forward_mol1.chk"
 Charge =  0 Multiplicity = 1

                         Standard orientation:
 ---------------------------------------------------------------------
 Center     Atomic      Atomic             Coordinates (Angstroms)
 Number     Number       Type             X           Y           Z
 ---------------------------------------------------------------------
      1          8           0       -1.833417   -0.981296   -0.100885
      2          6           0       -0.664107   -0.680269    0.172892
      3          6           0        0.580956   -1.359231   -0.088699
      4          6           0        1.699562   -0.468391   -0.055961
      5          6           0        1.319722    0.827803   -0.030114
      6          6           0       -0.145785    0.925869    0.031546
      7          8           0       -0.889053    1.837686   -0.071551
      8          1           0       -0.282274   -0.772880    1.297065
      9          1           0        0.641347   -2.419666   -0.301304
     10          1           0        2.725232   -0.807464    0.004734
     11          1           0        1.953365    1.674194    0.201009
 ---------------------------------------------------------------------

 SCF Done:  E(RHF) =  -342.757808684     A.U. after    2 cycles

 The electronic state is 1-A.
 Alpha  occ. eigenvalues --  -21.10234 -20.97429 -11.54088 -11.53619 -11.49288
 Alpha  occ. eigenvalues --  -11.47183 -11.44622  -1.75077  -1.64340  -1.35769
 Alpha  occ. eigenvalues --   -1.08301  -0.99359  -0.82904  -0.77834  -0.70949
 Alpha  occ. eigenvalues --   -0.64007  -0.59910  -0.58961  -0.53609  -0.50615
 Alpha  occ. eigenvalues --   -0.46482  -0.42709  -0.33999  -0.24971  -0.23181
 Alpha virt. eigenvalues --   -0.00094   0.02105   0.04028   0.04378   0.05376
 Alpha virt. eigenvalues --    0.09196   0.09892   0.10674   0.11493   0.11637
 Alpha virt. eigenvalues --    0.12748   0.13318   0.13833   0.13896   0.14934

 Mulliken charges:
               1
     1  O   -3.235710
     2  C    1.295179
     3  C   -1.565452
     4  C    0.141886
     5  C   -1.813299
     6  C    3.105604
     7  O   -3.252219
     8  H    1.282427
     9  H    1.304675
    10  H    1.368215
    11  H    1.368693
 Sum of Mulliken charges =  -0.00000

 Dipole moment (field-independent basis, Debye):
    X=              4.4705    Y=              0.1028    Z=              0.3339  Tot=              4.4841

 Test job not archived.
 1\1\GINC-SE232\SP\RHF\Aug-CC-pVDZ\C5H4O2\OHZDE\09-Apr-2025\0\\#t hf au
 g-cc-pvdz iop(5/13=1,5/36=2,99/5=2) pseudo=read geom=check guess=(read
 ,tcheck) scf=(maxcycle=1)\\title\\0,1\O,0,-0.85190602,2.25262262,-0.36
 425195\C,0,-0.56065424,1.09260746,-0.04425827\C,0,-1.02217231,-0.17852
 892,-0.54507206\C,0,-0.10119797,-1.23644235,-0.26476358\C,0,1.08680866
 ,-0.77433066,0.18262701\C,0,1.04420395,0.68905234,0.3161384\O,0,1.8803
 6338,1.4949738,0.5301851\H,0,-0.97144547,0.64593969,0.9803764\H,0,-1.9
 5372479,-0.29688447,-1.08504742\H,0,-0.35986181,-2.2839185,-0.34563518

 Normal termination of Gaussian 16 at Wed Apr  9 19:30:00 2025.
