 Gaussian 16, Revision C.01,

 ----------------------------------------------------------------------
 #t hf aug-cc-pvdz symm=none int=(grid=ultrafine) guess=(read,tcheck) s
 table=(opt,rrhf)
 ----------------------------------------------------------------------
 -----
 title
 -----
 Symbolic Z-matrix:
 Charge =  0 Multiplicity = 1

 SCF Done:  E(RHF) =  -317.636347379     A.U. after   16 cycles
 Normal termination of Gaussian 16 at Wed Apr  9 19:04:40 2025.
 Gaussian 16:  ES64L-G16RevC.01  3-Jul-2019

 ----------------------------------------------------------------------
 #t hf aug-cc-pvdz iop(5/13=1,5/36=2,99/5=2) pseudo=read geom=check gue
 ss=(read,tcheck) scf=(maxcycle=1)
 ----------------------------------------------------------------------
 -----
 title
 -----
 Structure from the checkpoint file:  "Grambow2020_wb97xd3_008051_reverse_mol2.chk"
 Charge =  0 Multiplicity = 1

                         Standard orientation:
 ---------------------------------------------------------------------
 Center     Atomic      Atomic             Coordinates (Angstroms)
 Number     Number       Type             X           Y           Z
 ---------------------------------------------------------------------
      1          7           0        2.844524   -0.000413   -0.260365
      2          6           0        1.743749    0.030222    0.059774
      3          6           0        0.342871    0.063306    0.460892
      4          6           0       -0.520514    1.192972   -0.058381
      5          7           0       -1.736596    0.763728   -0.171585
      6          6           0       -1.863325   -0.549498    0.060317
      7          7           0       -0.429343   -1.094331   -0.069237
      8          1           0        0.258522   -0.016508    1.558551
      9          1           0       -0.218837    2.228118   -0.071965
     10          1           0       -0.165163   -1.244829   -1.052618
     11          1           0       -2.569588   -1.127535   -0.522085
     12          1           0       -0.271717   -1.944151    0.460818
 ---------------------------------------------------------------------

 SCF Done:  E(RHF) =  -319.096182394     A.U. after    2 cycles

 The electronic state is 1-A.
 Alpha  occ. eigenvalues --  -15.88010 -15.79114 -15.76262 -11.52779 -11.46326
 Alpha  occ. eigenvalues --  -11.39795 -11.37255  -1.58471  -1.34306  -1.32545
 Alpha  occ. eigenvalues --   -1.13673  -0.94012  -0.82535  -0.80948  -0.77974
 Alpha  occ. eigenvalues --   -0.65345  -0.61394  -0.59216  -0.55996  -0.53233
 Alpha  occ. eigenvalues --   -0.48751  -0.47736  -0.45790  -0.38334  -0.25773
 Alpha virt. eigenvalues --    0.02515   0.04874   0.05013   0.05797   0.06136
 Alpha virt. eigenvalues --    0.08876   0.10130   0.10334   0.11036   0.11810
 Alpha virt. eigenvalues --    0.12036   0.12882   0.13905   0.14223   0.15093

 Mulliken charges:
               1
     1  N   -2.522149
     2  C    2.989260
     3  C   -2.253198
     4  C    1.062514
     5  N   -2.707309
     6  C   -0.640770
     7  N   -1.646983
     8  H    1.454933
     9  H    1.391048
    10  H    0.685429
    11  H    1.475392
    12  H    0.711834
 Sum of Mulliken charges =  -0.00000

 Dipole moment (field-independent basis, Debye):
    X=              0.2778    Y=             -2.9753    Z=             -0.0404  Tot=              2.9885

 Test job not archived.
 1\1\GINC-SE159\SP\RHF\Aug-CC-pVDZ\C4H5N3\OHZDE\09-Apr-2025\0\\#t hf au
 g-cc-pvdz iop(5/13=1,5/36=2,99/5=2) pseudo=read geom=check guess=(read
 ,tcheck) scf=(maxcycle=1)\\title\\0,1\N,0,2.52075082,-1.65343767,0.594
 81806\C,0,1.67579193,-0.99966565,0.17797308\C,0,0.59965267,-0.1666371,
 -0.34398172\C,0,-0.67888007,-0.84715074,-0.78384488\N,0,-1.66596291,-0
 .03094182,-0.59572268\C,0,-1.31491544,1.09412514,0.04098171\N,0,0.0416
 5589,0.75434614,0.68456268\H,0,0.98151118,0.49432892,-1.14125677\H,0,-
 0.71236263,-1.74072693,-1.38643996\H,0,-0.07289186,0.23467577,1.565641

 Normal termination of Gaussian 16 at Wed Apr  9 19:04:44 2025.
