 Gaussian 16, Revision C.01,

 ----------------------------------------------------------------------
 #t hf aug-cc-pvdz symm=none int=(grid=ultrafine) guess=(read,tcheck) s
 table=(opt,rrhf)
 ----------------------------------------------------------------------
 -----
 title
 -----
 Symbolic Z-matrix:
 Charge =  0 Multiplicity = 1

 SCF Done:  E(RHF) =  -358.395954058     A.U. after   15 cycles
 Normal termination of Gaussian 16 at Wed Apr  9 03:34:09 2025.
 Gaussian 16:  ES64L-G16RevC.01  3-Jul-2019

 ----------------------------------------------------------------------
 #t hf aug-cc-pvdz iop(5/13=1,5/36=2,99/5=2) pseudo=read geom=check gue
 ss=(read,tcheck) scf=(maxcycle=1)
 ----------------------------------------------------------------------
 -----
 title
 -----
 Structure from the checkpoint file:  "Grambow2020_wb97xd3_007074_forward_mol1.chk"
 Charge =  0 Multiplicity = 1

                         Standard orientation:
 ---------------------------------------------------------------------
 Center     Atomic      Atomic             Coordinates (Angstroms)
 Number     Number       Type             X           Y           Z
 ---------------------------------------------------------------------
      1          8           0        2.074054   -0.733836    0.001706
      2          6           0        0.992246   -0.215728   -0.044683
      3          7           0        0.765773    1.153132   -0.062456
      4          6           0       -0.515185    1.703218   -0.062415
      5          6           0       -1.426132   -0.147073    0.555878
      6          8           0       -1.406631   -0.775414   -0.686217
      7          6           0       -0.296896   -0.978477    0.197448
      8          1           0        1.487936    1.670623    0.417945
      9          1           0       -1.036102    1.451821   -0.986329
     10          1           0       -1.286353    1.117547    0.787030
     11          1           0       -2.219850   -0.421447    1.247358
     12          1           0       -0.169620   -1.988110    0.569915
 ---------------------------------------------------------------------

 SCF Done:  E(RHF) =  -359.969734551     A.U. after    2 cycles

 The electronic state is 1-A.
 Alpha  occ. eigenvalues --  -21.11807 -21.06658 -15.78214 -11.55940 -11.52794
 Alpha  occ. eigenvalues --  -11.46672 -11.42131  -1.85203  -1.73651  -1.42452
 Alpha  occ. eigenvalues --   -1.07531  -1.03867  -0.91165  -0.84481  -0.71879
 Alpha  occ. eigenvalues --   -0.68254  -0.63931  -0.60169  -0.56659  -0.53747
 Alpha  occ. eigenvalues --   -0.49907  -0.43065  -0.40384  -0.35198  -0.33890
 Alpha  occ. eigenvalues --   -0.28149
 Alpha virt. eigenvalues --    0.03358   0.04652   0.05862   0.06184   0.06897
 Alpha virt. eigenvalues --    0.09000   0.09755   0.10071   0.11026   0.11619
 Alpha virt. eigenvalues --    0.13026   0.13519   0.13808   0.14669   0.14975

 Mulliken charges:
               1
     1  O   -3.368567
     2  C    4.170971
     3  N   -2.225444
     4  C   -2.076150
     5  C   -0.667650
     6  O   -2.572336
     7  C   -0.380436
     8  H    0.594608
     9  H    1.437292
    10  H    2.317887
    11  H    1.225421
    12  H    1.544404
 Sum of Mulliken charges =   0.00000

 Dipole moment (field-independent basis, Debye):
    X=             -1.6252    Y=             -1.5174    Z=              0.6133  Tot=              2.3065

 Test job not archived.
 1\1\GINC-SE143\SP\RHF\Aug-CC-pVDZ\C4H5N1O2\OHZDE\09-Apr-2025\0\\#t hf
 aug-cc-pvdz iop(5/13=1,5/36=2,99/5=2) pseudo=read geom=check guess=(re
 ad,tcheck) scf=(maxcycle=1)\\title\\0,1\O,0,0.93843132,2.22068361,0.64
 467906\C,0,0.60266751,1.08999277,0.42175327\N,0,1.44009045,0.0900016,-
 0.05166515\C,0,0.98554681,-1.19478635,-0.34519446\C,0,-1.07714829,-0.5
 7772634,-0.35983006\O,0,-1.25845,-0.54030061,1.01992449\C,0,-0.8512227
 9,0.66122229,0.3535023\H,0,2.19170593,0.45251461,-0.62066422\H,0,0.650
 67583,-1.69555715,0.56324401\H,0,-0.12322993,-1.17095709,-1.00041574\H

 Normal termination of Gaussian 16 at Wed Apr  9 03:34:14 2025.
