 Gaussian 16, Revision C.01,

 ----------------------------------------------------------------------
 #t hf aug-cc-pvdz symm=none int=(grid=ultrafine) guess=(read,tcheck) s
 table=(opt,rrhf)
 ----------------------------------------------------------------------
 -----
 title
 -----
 Symbolic Z-matrix:
 Charge =  0 Multiplicity = 1

 SCF Done:  E(RHF) =  -307.805830154     A.U. after   15 cycles

 1\1\GINC-SE041\Stability\RHF\Aug-CC-pVDZ\C6H10O1\OHZDE\09-Apr-2025\0\\
 #t hf aug-cc-pvdz symm=none int=(grid=ultrafine) guess=(read,tcheck) s
 table=(opt,rrhf)\\title\\0,1\C,0,-2.90825458,-0.68319518,0.55379199\C,
 0,0.02060551,0.28844652,-1.57741277\O,0,0.15908662,1.46791415,-1.05040
 642\C,0,1.32057659,1.6328142,-0.1569253\C,0,1.88855329,0.25402808,-0.0
 2830857\C,0,0.94011563,-0.76315269,0.49103189\C,0,1.07766691,-0.575947
 86,-1.00552543\H,0,-3.98516433,-0.80384558,0.44441822\H,0,-2.70787058,
 0.11552505,1.26757814\H,0,-2.47835707,-1.61529565,0.91969518\H,0,-2.46

 Normal termination of Gaussian 16 at Wed Apr  9 18:20:30 2025.
 Gaussian 16:  ES64L-G16RevC.01  3-Jul-2019

 ----------------------------------------------------------------------
 #t hf aug-cc-pvdz iop(5/13=1,5/36=2,99/5=2) pseudo=read geom=check gue
 ss=(read,tcheck) scf=(maxcycle=1)
 ----------------------------------------------------------------------
 -----
 title
 -----
 Structure from the checkpoint file:  "Grambow2020_wb97xd3_006892_reverse_mol2.chk"
 Charge =  0 Multiplicity = 1

                         Standard orientation:
 ---------------------------------------------------------------------
 Center     Atomic      Atomic             Coordinates (Angstroms)
 Number     Number       Type             X           Y           Z
 ---------------------------------------------------------------------
      1          6           0       -3.361563   -0.047763   -0.230950
      2          6           0        0.082102   -0.620186    1.139395
      3          8           0        0.466680   -1.388400    0.164714
      4          6           0        1.424484   -0.785214   -0.780452
      5          6           0        1.509347    0.648324   -0.358601
      6          6           0        0.213976    1.373524   -0.356450
      7          6           0        0.692490    0.710271    0.918214
      8          1           0       -4.380751   -0.369570   -0.021307
      9          1           0       -3.071707   -0.398280   -1.221263
     10          1           0       -3.316055    1.040625   -0.201810
     11          1           0       -2.685663   -0.462439    0.516411
     12          1           0        2.364291   -1.327901   -0.677924
     13          1           0        1.013084   -0.946852   -1.776497
     14          1           0        2.444305    1.181194   -0.454562
     15          1           0       -0.631375    0.927749   -0.869008
     16          1           0        0.231886    2.454692   -0.364735
     17          1           0        0.933534    1.334241    1.766042
 ---------------------------------------------------------------------

 SCF Done:  E(RHF) =  -309.278157364     A.U. after    2 cycles

 The electronic state is 1-A.
 Alpha  occ. eigenvalues --  -21.10301 -11.48065 -11.43772 -11.42868 -11.41012
 Alpha  occ. eigenvalues --  -11.37478 -11.34785  -1.82149  -1.33153  -1.07002
 Alpha  occ. eigenvalues --   -1.02034  -0.92654  -0.84097  -0.77068  -0.72102
 Alpha  occ. eigenvalues --   -0.64799  -0.59361  -0.56254  -0.52902  -0.52747
 Alpha  occ. eigenvalues --   -0.52659  -0.51734  -0.46951  -0.44177  -0.39478
 Alpha  occ. eigenvalues --   -0.36999  -0.31936
 Alpha virt. eigenvalues --    0.03377   0.04655   0.04789   0.04918   0.05360
 Alpha virt. eigenvalues --    0.06134   0.06913   0.07744   0.08200   0.09395
 Alpha virt. eigenvalues --    0.10627   0.11708   0.11835   0.13311   0.13855

 Mulliken charges:
               1
     1  C   -5.286418
     2  C   -0.605584
     3  O   -2.529757
     4  C   -1.928632
     5  C   -1.389922
     6  C   -2.528175
     7  C    0.517294
     8  H    1.194998
     9  H    1.338241
    10  H    1.311146
    11  H    1.394219
    12  H    1.421892
    13  H    1.444502
    14  H    1.282119
    15  H    1.695735
    16  H    1.176532
    17  H    1.491809
 Sum of Mulliken charges =  -0.00000

 Dipole moment (field-independent basis, Debye):
    X=              2.2371    Y=              1.4760    Z=             -2.3619  Tot=              3.5724

 Test job not archived.
 1\1\GINC-SE041\SP\RHF\Aug-CC-pVDZ\C6H10O1\OHZDE\09-Apr-2025\0\\#t hf a
 ug-cc-pvdz iop(5/13=1,5/36=2,99/5=2) pseudo=read geom=check guess=(rea
 d,tcheck) scf=(maxcycle=1)\\title\\0,1\C,0,-2.90825458,-0.68319518,0.5
 5379199\C,0,0.02060551,0.28844652,-1.57741277\O,0,0.15908662,1.4679141
 5,-1.05040642\C,0,1.32057659,1.6328142,-0.1569253\C,0,1.88855329,0.254
 02808,-0.02830857\C,0,0.94011563,-0.76315269,0.49103189\C,0,1.07766691
 ,-0.57594786,-1.00552543\H,0,-3.98516433,-0.80384558,0.44441822\H,0,-2
 .70787058,0.11552505,1.26757814\H,0,-2.47835707,-1.61529565,0.91969518

 Normal termination of Gaussian 16 at Wed Apr  9 18:20:36 2025.
