 Gaussian 16, Revision C.01,

 ----------------------------------------------------------------------
 #t hf aug-cc-pvdz symm=none int=(grid=ultrafine) guess=(read,tcheck) s
 table=(opt,rrhf)
 ----------------------------------------------------------------------
 -----
 title
 -----
 Symbolic Z-matrix:
 Charge =  0 Multiplicity = 1

 SCF Done:  E(RHF) =  -306.493179307     A.U. after   19 cycles
 Normal termination of Gaussian 16 at Wed Apr  9 04:05:56 2025.
 Gaussian 16:  ES64L-G16RevC.01  3-Jul-2019

 ----------------------------------------------------------------------
 #t hf aug-cc-pvdz iop(5/13=1,5/36=2,99/5=2) pseudo=read geom=check gue
 ss=(read,tcheck) scf=(maxcycle=1)
 ----------------------------------------------------------------------
 -----
 title
 -----
 Structure from the checkpoint file:  "Grambow2020_wb97xd3_009288_forward_mol1.chk"
 Charge =  0 Multiplicity = 1

                         Standard orientation:
 ---------------------------------------------------------------------
 Center     Atomic      Atomic             Coordinates (Angstroms)
 Number     Number       Type             X           Y           Z
 ---------------------------------------------------------------------
      1          6           0        0.938545    1.385553    0.830969
      2          6           0       -1.013130    0.372691   -0.530699
      3          6           0       -2.482065    0.202686   -0.431530
      4          6           0       -0.138815   -0.493558    0.135578
      5          8           0       -0.360114   -1.358973    0.963803
      6          6           0        1.298891   -0.193238   -0.303851
      7          6           0        2.359464   -0.419223   -0.849542
      8          1           0        0.082576    1.481236    1.482803
      9          1           0        1.064960    2.207113    0.138154
     10          1           0        1.832694    1.109431    1.371244
     11          1           0       -0.595606    1.034592   -1.277383
     12          1           0       -2.745237   -0.266757    0.517627
     13          1           0       -2.992155    1.163640   -0.528780
     14          1           0       -2.865392   -0.441920   -1.231160
     15          1           0        3.321728   -0.545019   -1.288482
 ---------------------------------------------------------------------

 SCF Done:  E(RHF) =  -307.948025940     A.U. after    2 cycles

 The electronic state is 1-A.
 Alpha  occ. eigenvalues --  -20.99646 -11.50645 -11.46808 -11.43153 -11.42401
 Alpha  occ. eigenvalues --  -11.41912 -11.37747  -1.67213  -1.23039  -1.12784
 Alpha  occ. eigenvalues --   -1.03012  -0.96868  -0.80805  -0.71411  -0.66624
 Alpha  occ. eigenvalues --   -0.62936  -0.62747  -0.57763  -0.54250  -0.52239
 Alpha  occ. eigenvalues --   -0.51338  -0.46483  -0.39010  -0.36976  -0.26878
 Alpha  occ. eigenvalues --   -0.21858
 Alpha virt. eigenvalues --    0.00122   0.03244   0.04630   0.05052   0.05499
 Alpha virt. eigenvalues --    0.06136   0.06576   0.06961   0.07850   0.10510
 Alpha virt. eigenvalues --    0.11027   0.11427   0.12759   0.13296   0.13630

 Mulliken charges:
               1
     1  C   -4.071872
     2  C   -1.610003
     3  C   -3.863798
     4  C    4.560475
     5  O   -3.812862
     6  C    2.980101
     7  C   -4.236742
     8  H    1.450886
     9  H    1.384127
    10  H    1.329823
    11  H    1.703465
    12  H    1.206375
    13  H    1.173834
    14  H    1.189969
    15  H    0.616223
 Sum of Mulliken charges =  -0.00000

 Dipole moment (field-independent basis, Debye):
    X=              0.9898    Y=              2.8009    Z=             -0.5554  Tot=              3.0221

 Test job not archived.
 1\1\GINC-SE364\SP\RHF\Aug-CC-pVDZ\C6H8O1\OHZDE\09-Apr-2025\0\\#t hf au
 g-cc-pvdz iop(5/13=1,5/36=2,99/5=2) pseudo=read geom=check guess=(read
 ,tcheck) scf=(maxcycle=1)\\title\\0,1\C,0,0.11128013,0.76401295,-1.653
 81503\C,0,-0.22846736,-0.71590825,0.43985882\C,0,-1.31929765,-1.428229
 41,1.14639427\C,0,-0.03137077,0.65868207,0.61419893\O,0,-0.71846654,1.
 49177337,1.17787491\C,0,1.27044291,1.07249373,-0.0817373\C,0,2.4166120
 7,1.46810054,-0.14052341\H,0,-0.9581197,0.62175853,-1.60021147\H,0,0.6
 3854863,-0.01733209,-2.1852505\H,0,0.37374071,1.76884484,-1.95226006\H

 Normal termination of Gaussian 16 at Wed Apr  9 04:06:00 2025.
