 Gaussian 16, Revision C.01,

 ----------------------------------------------------------------------
 #t hf aug-cc-pvdz symm=none int=(grid=ultrafine) guess=(read,tcheck) s
 table=(opt,rrhf)
 ----------------------------------------------------------------------
 -----
 title
 -----
 Symbolic Z-matrix:
 Charge =  0 Multiplicity = 1

 SCF Done:  E(RHF) =  -360.783063897     A.U. after   15 cycles
 Normal termination of Gaussian 16 at Wed Apr  9 18:09:23 2025.
 Gaussian 16:  ES64L-G16RevC.01  3-Jul-2019

 ----------------------------------------------------------------------
 #t hf aug-cc-pvdz iop(5/13=1,5/36=2,99/5=2) pseudo=read geom=check gue
 ss=(read,tcheck) scf=(maxcycle=1)
 ----------------------------------------------------------------------
 -----
 title
 -----
 Structure from the checkpoint file:  "Grambow2020_wb97xd3_006617_forward_mol1.chk"
 Charge =  0 Multiplicity = 1

                         Standard orientation:
 ---------------------------------------------------------------------
 Center     Atomic      Atomic             Coordinates (Angstroms)
 Number     Number       Type             X           Y           Z
 ---------------------------------------------------------------------
      1          6           0       -2.554111   -0.139157   -0.256991
      2          6           0       -1.059314    0.119125   -0.275871
      3          8           0       -0.835546    1.281467    0.496168
      4          6           0       -0.310587   -1.093614    0.282114
      5          7           0        1.139409   -1.114251    0.086832
      6          6           0        1.877814   -0.073254   -0.095152
      7          8           0        2.005407    1.094019   -0.216837
      8          1           0       -2.815169   -0.999315   -0.875429
      9          1           0       -3.083106    0.735423   -0.634143
     10          1           0       -2.891704   -0.324489    0.764956
     11          1           0       -0.735004    0.285608   -1.312780
     12          1           0        0.052213    1.610013    0.325181
     13          1           0       -0.521852   -1.164095    1.353253
     14          1           0       -0.689793   -2.000949   -0.191611
     15          1           0        2.480928   -1.453633   -0.017444
     16          1           0        3.145934   -0.771289   -0.179053
 ---------------------------------------------------------------------

 SCF Done:  E(RHF) =  -362.454249104     A.U. after    2 cycles

 The electronic state is 1-A.
 Alpha  occ. eigenvalues --  -21.10429 -21.05742 -15.75423 -11.58366 -11.46648
 Alpha  occ. eigenvalues --  -11.42205 -11.36825  -1.77213  -1.71388  -1.41808
 Alpha  occ. eigenvalues --   -1.16364  -1.03639  -0.86464  -0.79620  -0.70669
 Alpha  occ. eigenvalues --   -0.67606  -0.62651  -0.61432  -0.58600  -0.55785
 Alpha  occ. eigenvalues --   -0.53292  -0.50784  -0.47703  -0.44198  -0.38734
 Alpha  occ. eigenvalues --   -0.37289  -0.32685  -0.31076
 Alpha virt. eigenvalues --    0.03692   0.04976   0.05298   0.05830   0.06194
 Alpha virt. eigenvalues --    0.06497   0.07199   0.07844   0.08610   0.11140
 Alpha virt. eigenvalues --    0.11474   0.11811   0.13264   0.13573   0.14758

 Mulliken charges:
               1
     1  C   -3.820929
     2  C    0.571308
     3  O   -3.141919
     4  C   -1.756800
     5  N   -2.719945
     6  C    3.464191
     7  O   -2.848928
     8  H    1.198546
     9  H    1.141305
    10  H    1.165647
    11  H    1.795774
    12  H    0.964323
    13  H    1.493844
    14  H    1.519230
    15  H    0.755080
    16  H    0.219272
 Sum of Mulliken charges =  -0.00000

 Dipole moment (field-independent basis, Debye):
    X=             -0.4176    Y=             -0.2761    Z=             -0.3769  Tot=              0.6266

 Test job not archived.
 1\1\GINC-SE220\SP\RHF\Aug-CC-pVDZ\C4H9N1O2\OHZDE\09-Apr-2025\0\\#t hf
 aug-cc-pvdz iop(5/13=1,5/36=2,99/5=2) pseudo=read geom=check guess=(re
 ad,tcheck) scf=(maxcycle=1)\\title\\0,1\C,0,-2.0682488,-0.85462726,-0.
 3550192\C,0,-0.70694293,-0.19604598,-0.47586385\O,0,-0.93362285,1.1414
 1146,-0.87206862\C,0,0.03702008,-0.28109892,0.85903645\N,0,1.4583721,0
 .06592039,0.83940578\C,0,2.02391576,0.82593019,-0.03499715\O,0,1.97687
 007,1.49590172,-1.00584089\H,0,-1.97568549,-1.91082121,-0.09738899\H,0
 ,-2.6021424,-0.77151523,-1.30107334\H,0,-2.6616997,-0.35510895,0.41373

 Normal termination of Gaussian 16 at Wed Apr  9 18:09:28 2025.
