 Gaussian 16, Revision C.01,

 ----------------------------------------------------------------------
 #t hf aug-cc-pvdz symm=none int=(grid=ultrafine) guess=(read,tcheck) s
 table=(opt,rrhf)
 ----------------------------------------------------------------------
 -----
 title
 -----
 Symbolic Z-matrix:
 Charge =  0 Multiplicity = 1

 SCF Done:  E(RHF) =  -353.493751519     A.U. after   15 cycles
 Normal termination of Gaussian 16 at Wed Apr  9 18:54:27 2025.
 Gaussian 16:  ES64L-G16RevC.01  3-Jul-2019

 ----------------------------------------------------------------------
 #t hf aug-cc-pvdz iop(5/13=1,5/36=2,99/5=2) pseudo=read geom=check gue
 ss=(read,tcheck) scf=(maxcycle=1)
 ----------------------------------------------------------------------
 -----
 title
 -----
 Structure from the checkpoint file:  "Grambow2020_wb97xd3_007768_reverse_mol1.chk"
 Charge =  0 Multiplicity = 1

                         Standard orientation:
 ---------------------------------------------------------------------
 Center     Atomic      Atomic             Coordinates (Angstroms)
 Number     Number       Type             X           Y           Z
 ---------------------------------------------------------------------
      1          8           0       -2.866376    0.249229   -0.000366
      2          6           0       -1.911343   -0.360224   -0.000481
      3          7           0       -0.102940    0.360778    0.001017
      4          6           0        0.976812    1.133083    0.000218
      5          7           0        2.106826    0.423578   -0.000729
      6          6           0        1.657831   -0.836998   -0.000551
      7          7           0        0.337555   -0.903982    0.000816
      8          1           0       -1.014543   -1.269798    0.000075
      9          1           0        0.926855    2.210496    0.000076
     10          1           0        2.288815   -1.712317   -0.000070
 ---------------------------------------------------------------------

 SCF Done:  E(RHF) =  -355.069521624     A.U. after    2 cycles

 The electronic state is 1-A.
 Alpha  occ. eigenvalues --  -21.19185 -15.76335 -15.75533 -15.72140 -11.58574
 Alpha  occ. eigenvalues --  -11.44419 -11.41257  -1.82886  -1.65333  -1.31368
 Alpha  occ. eigenvalues --   -1.17331  -0.94934  -0.82871  -0.80494  -0.70689
 Alpha  occ. eigenvalues --   -0.63506  -0.62885  -0.56835  -0.55225  -0.55208
 Alpha  occ. eigenvalues --   -0.47499  -0.44050  -0.37576  -0.34734  -0.34170
 Alpha virt. eigenvalues --    0.03631   0.05502   0.05858   0.09032   0.09184
 Alpha virt. eigenvalues --    0.10708   0.10924   0.11251   0.11679   0.12373
 Alpha virt. eigenvalues --    0.13482   0.14095   0.14329   0.16126   0.17023

 Mulliken charges:
               1
     1  O   -2.316609
     2  C    1.393131
     3  N   -0.841421
     4  C    1.077050
     5  N   -2.943767
     6  C    1.430663
     7  N   -2.788420
     8  H    1.976251
     9  H    1.459715
    10  H    1.553408
 Sum of Mulliken charges =  -0.00000

 Dipole moment (field-independent basis, Debye):
    X=             -3.7663    Y=             -0.4879    Z=             -0.0003  Tot=              3.7978

 Test job not archived.
 1\1\GINC-SE045\SP\RHF\Aug-CC-pVDZ\C3H3N3O1\OHZDE\09-Apr-2025\0\\#t hf
 aug-cc-pvdz iop(5/13=1,5/36=2,99/5=2) pseudo=read geom=check guess=(re
 ad,tcheck) scf=(maxcycle=1)\\title\\0,1\O,0,3.09463942,-0.17183705,0.2
 7673965\C,0,2.04633131,-0.59445433,0.35398326\N,0,0.40428926,0.3494238
 8,-0.09652281\C,0,-0.51374027,1.23160884,-0.47241173\N,0,-1.75204836,0
 .74263462,-0.38393829\C,0,-1.54209615,-0.49828204,0.07069893\N,0,-0.25
 910857,-0.7607371,0.25146908\H,0,1.00031246,-1.30536201,0.53295016\H,0
 ,-0.26772818,2.2266235,-0.80817756\H,0,-2.32109992,-1.2174913,0.271236

 Normal termination of Gaussian 16 at Wed Apr  9 18:54:30 2025.
