 Gaussian 16, Revision C.01,

 ----------------------------------------------------------------------
 #t hf aug-cc-pvdz symm=none int=(grid=ultrafine) guess=(read,tcheck) s
 table=(opt,rrhf)
 ----------------------------------------------------------------------
 -----
 title
 -----
 Symbolic Z-matrix:
 Charge =  0 Multiplicity = 1

 SCF Done:  E(RHF) =  -358.590357122     A.U. after   15 cycles
 Normal termination of Gaussian 16 at Wed Apr  9 18:13:57 2025.
 Gaussian 16:  ES64L-G16RevC.01  3-Jul-2019

 ----------------------------------------------------------------------
 #t hf aug-cc-pvdz iop(5/13=1,5/36=2,99/5=2) pseudo=read geom=check gue
 ss=(read,tcheck) scf=(maxcycle=1)
 ----------------------------------------------------------------------
 -----
 title
 -----
 Structure from the checkpoint file:  "Grambow2020_wb97xd3_006790_reverse_mol2.chk"
 Charge =  0 Multiplicity = 1

                         Standard orientation:
 ---------------------------------------------------------------------
 Center     Atomic      Atomic             Coordinates (Angstroms)
 Number     Number       Type             X           Y           Z
 ---------------------------------------------------------------------
      1          8           0       -0.640418    1.059669    0.022581
      2          6           0       -1.417734    0.133056    0.023255
      3          6           0       -2.875286    0.288686   -0.032675
      4          6           0       -3.660680   -0.781413   -0.027204
      5          7           0        1.819388   -0.361156    0.089695
      6          6           0        3.003775   -0.176893    0.000477
      7          8           0        4.164027   -0.119941   -0.075326
      8          1           0       -1.047203   -0.909855    0.066339
      9          1           0       -3.261130    1.300773   -0.077512
     10          1           0       -3.240198   -1.780984    0.019149
     11          1           0       -4.739846   -0.703778   -0.066549
     12          1           0        1.063349    0.323493    0.069544
 ---------------------------------------------------------------------

 SCF Done:  E(RHF) =  -360.141744403     A.U. after    2 cycles

 The electronic state is 1-A.
 Alpha  occ. eigenvalues --  -21.10675 -21.08575 -15.75471 -11.55762 -11.51365
 Alpha  occ. eigenvalues --  -11.45811 -11.42011  -1.75685  -1.74154  -1.33669
 Alpha  occ. eigenvalues --   -1.21733  -0.94061  -0.82933  -0.78188  -0.66922
 Alpha  occ. eigenvalues --   -0.64803  -0.60618  -0.57694  -0.56659  -0.55459
 Alpha  occ. eigenvalues --   -0.52554  -0.51415  -0.37777  -0.37176  -0.32915
 Alpha  occ. eigenvalues --   -0.32436
 Alpha virt. eigenvalues --    0.02616   0.04881   0.04995   0.06148   0.07301
 Alpha virt. eigenvalues --    0.07603   0.09743   0.10283   0.11459   0.11534
 Alpha virt. eigenvalues --    0.12658   0.13314   0.13530   0.14130   0.14832

 Mulliken charges:
               1
     1  O   -3.076214
     2  C    0.677900
     3  C   -0.406254
     4  C   -3.078408
     5  N   -2.460057
     6  C    3.949757
     7  O   -2.542857
     8  H    1.564398
     9  H    1.442424
    10  H    1.444895
    11  H    1.390165
    12  H    1.094250
 Sum of Mulliken charges =   0.00000

 Dipole moment (field-independent basis, Debye):
    X=             -3.2798    Y=              0.1719    Z=             -0.1352  Tot=              3.2871

 Test job not archived.
 1\1\GINC-SE114\SP\RHF\Aug-CC-pVDZ\C4H5N1O2\OHZDE\09-Apr-2025\0\\#t hf
 aug-cc-pvdz iop(5/13=1,5/36=2,99/5=2) pseudo=read geom=check guess=(re
 ad,tcheck) scf=(maxcycle=1)\\title\\0,1\O,0,0.38577567,-0.43628181,1.0
 8161211\C,0,0.34508299,0.41583392,0.22424626\C,0,1.14410946,1.64562788
 ,0.25536591\C,0,1.04053315,2.53294756,-0.72642882\N,0,-1.45060001,-2.3
 1392115,-0.00286439\C,0,-1.86044665,-3.42866384,0.18169217\O,0,-2.3250
 8142,-4.49321668,0.259244\H,0,-0.32085503,0.29761264,-0.65288655\H,0,1
 .80507468,1.78213701,1.10371529\H,0,0.3675589,2.36435869,-1.5611625\H,

 Normal termination of Gaussian 16 at Wed Apr  9 18:14:01 2025.
