 Gaussian 16, Revision C.01,

 ----------------------------------------------------------------------
 #t hf aug-cc-pvdz symm=none int=(grid=ultrafine) guess=(read,tcheck) s
 table=(opt,rrhf)
 ----------------------------------------------------------------------
 -----
 title
 -----
 Symbolic Z-matrix:
 Charge =  0 Multiplicity = 1

 SCF Done:  E(RHF) =  -357.282411165     A.U. after   15 cycles
 Normal termination of Gaussian 16 at Wed Apr  9 19:19:42 2025.
 Gaussian 16:  ES64L-G16RevC.01  3-Jul-2019

 ----------------------------------------------------------------------
 #t hf aug-cc-pvdz iop(5/13=1,5/36=2,99/5=2) pseudo=read geom=check gue
 ss=(read,tcheck) scf=(maxcycle=1)
 ----------------------------------------------------------------------
 -----
 title
 -----
 Structure from the checkpoint file:  "Grambow2020_wb97xd3_008631_forward_mol1.chk"
 Charge =  0 Multiplicity = 1

                         Standard orientation:
 ---------------------------------------------------------------------
 Center     Atomic      Atomic             Coordinates (Angstroms)
 Number     Number       Type             X           Y           Z
 ---------------------------------------------------------------------
      1          7           0       -2.347127   -0.373923    0.000855
      2          6           0       -1.156189   -0.027477    0.000001
      3          6           0       -0.523961    1.316116   -0.000301
      4          6           0        0.813097    1.194820   -0.000330
      5          6           0        0.988464   -0.237953   -0.000502
      6          8           0        2.199464   -0.547306    0.000920
      7          8           0       -0.069122   -0.997839   -0.001133
      8          1           0       -2.471109   -1.382506    0.000632
      9          1           0       -1.150993    2.196909    0.000540
     10          1           0        2.280783    0.691171    0.001343
 ---------------------------------------------------------------------

 SCF Done:  E(RHF) =  -358.843187644     A.U. after    2 cycles

 The electronic state is 1-A.
 Alpha  occ. eigenvalues --  -21.16246 -21.13397 -15.77902 -11.56056 -11.53078
 Alpha  occ. eigenvalues --  -11.44788 -11.38847  -1.93021  -1.77893  -1.36730
 Alpha  occ. eigenvalues --   -1.22851  -0.97020  -0.85296  -0.79550  -0.70389
 Alpha  occ. eigenvalues --   -0.65544  -0.64186  -0.60578  -0.52908  -0.51362
 Alpha  occ. eigenvalues --   -0.42355  -0.40639  -0.39753  -0.36579  -0.35998
 Alpha virt. eigenvalues --    0.03456   0.05227   0.06337   0.06384   0.09217
 Alpha virt. eigenvalues --    0.10187   0.10509   0.11073   0.12297   0.12783
 Alpha virt. eigenvalues --    0.13159   0.13612   0.14670   0.14926   0.15734

 Mulliken charges:
               1
     1  N   -3.606808
     2  C    4.202431
     3  C   -0.065360
     4  C   -2.883878
     5  C    5.692369
     6  O   -3.196364
     7  O   -3.440374
     8  H    0.897732
     9  H    1.458082
    10  H    0.942170
 Sum of Mulliken charges =  -0.00000

 Dipole moment (field-independent basis, Debye):
    X=              0.0406    Y=             -2.4601    Z=             -0.0004  Tot=              2.4605

 Test job not archived.
 1\1\GINC-SE168\SP\RHF\Aug-CC-pVDZ\C4H3N1O2\OHZDE\09-Apr-2025\0\\#t hf
 aug-cc-pvdz iop(5/13=1,5/36=2,99/5=2) pseudo=read geom=check guess=(re
 ad,tcheck) scf=(maxcycle=1)\\title\\0,1\N,0,2.2617161,-0.18128634,0.11
 204131\C,0,1.02457378,-0.11892843,0.04920066\C,0,-0.01097463,-1.181641
 98,-0.00768574\C,0,-1.23329092,-0.62948752,-0.06688977\C,0,-0.93081089
 ,0.78177319,-0.04589382\O,0,-1.97280018,1.47037172,-0.09399646\O,0,0.3
 1558741,1.15373365,0.01775653\H,0,2.70817576,0.73118622,0.13812895\H,0
 ,0.29309411,-2.21912458,0.00408213\H,0,-2.45409355,0.32670406,-0.12261

 Normal termination of Gaussian 16 at Wed Apr  9 19:19:46 2025.
