 Gaussian 16, Revision C.01,

 ----------------------------------------------------------------------
 #t hf aug-cc-pvdz symm=none int=(grid=ultrafine) guess=(read,tcheck) s
 table=(opt,rrhf)
 ----------------------------------------------------------------------
 -----
 title
 -----
 Symbolic Z-matrix:
 Charge =  0 Multiplicity = 1

 SCF Done:  E(RHF) =  -357.239779459     A.U. after   17 cycles
 Normal termination of Gaussian 16 at Wed Apr  9 03:58:31 2025.
 Gaussian 16:  ES64L-G16RevC.01  3-Jul-2019

 ----------------------------------------------------------------------
 #t hf aug-cc-pvdz iop(5/13=1,5/36=2,99/5=2) pseudo=read geom=check gue
 ss=(read,tcheck) scf=(maxcycle=1)
 ----------------------------------------------------------------------
 -----
 title
 -----
 Structure from the checkpoint file:  "Grambow2020_wb97xd3_008755_forward_mol1.chk"
 Charge =  0 Multiplicity = 1

                         Standard orientation:
 ---------------------------------------------------------------------
 Center     Atomic      Atomic             Coordinates (Angstroms)
 Number     Number       Type             X           Y           Z
 ---------------------------------------------------------------------
      1          8           0       -2.586521    0.428942    0.012590
      2          6           0       -1.731586   -0.407963   -0.001097
      3          6           0       -0.275144   -0.098003   -0.014347
      4          7           0        0.545032   -1.111318    0.006255
      5          8           0        1.796545   -0.654628   -0.007393
      6          6           0        1.706666    0.748545   -0.012220
      7          6           0        0.371476    1.208755   -0.110805
      8          1           0       -1.962285   -1.490027   -0.000345
      9          1           0        2.628180    1.234162   -0.305844
     10          1           0        1.410222    1.132577    1.051647
 ---------------------------------------------------------------------

 SCF Done:  E(RHF) =  -358.768490835     A.U. after    2 cycles

 The electronic state is 1-A.
 Alpha  occ. eigenvalues --  -21.15926 -21.08334 -15.85526 -11.50698 -11.48921
 Alpha  occ. eigenvalues --  -11.45794 -11.42335  -1.95413  -1.72947  -1.32393
 Alpha  occ. eigenvalues --   -1.22199  -0.96304  -0.87727  -0.78035  -0.72485
 Alpha  occ. eigenvalues --   -0.69857  -0.58108  -0.56826  -0.51795  -0.50731
 Alpha  occ. eigenvalues --   -0.47447  -0.45661  -0.36956  -0.35948  -0.30946
 Alpha virt. eigenvalues --    0.02609   0.05038   0.05439   0.07082   0.08954
 Alpha virt. eigenvalues --    0.09154   0.10206   0.10472   0.11046   0.11901
 Alpha virt. eigenvalues --    0.12335   0.13270   0.14668   0.15133   0.15302

 Mulliken charges:
               1
     1  O   -2.874605
     2  C    1.565211
     3  C    3.839211
     4  N   -0.866514
     5  O   -2.887293
     6  C   -0.413483
     7  C   -2.690651
     8  H    1.548003
     9  H    1.541419
    10  H    1.238702
 Sum of Mulliken charges =  -0.00000

 Dipole moment (field-independent basis, Debye):
    X=              3.2163    Y=             -1.1723    Z=              0.3502  Tot=              3.4412

 Test job not archived.
 1\1\GINC-SE096\SP\RHF\Aug-CC-pVDZ\C4H3N1O2\OHZDE\09-Apr-2025\0\\#t hf
 aug-cc-pvdz iop(5/13=1,5/36=2,99/5=2) pseudo=read geom=check guess=(re
 ad,tcheck) scf=(maxcycle=1)\\title\\0,1\O,0,-2.3741847,0.98137925,-1.0
 9380044\C,0,-1.69937258,-0.00414139,-1.0238765\C,0,-0.38670028,-0.0559
 9167,-0.32267864\N,0,0.22441531,-1.20741563,-0.2966043\O,0,1.37185969,
 -1.0727015,0.36691556\C,0,1.43104484,0.26724056,0.78887129\C,0,0.35186
 845,1.04121156,0.2983695\H,0,-2.00654487,-0.96540007,-1.47742994\H,0,2
 .42414682,0.57729199,1.08693583\H,0,0.70649531,0.43322191,1.69145163\\

 Normal termination of Gaussian 16 at Wed Apr  9 03:58:35 2025.
