 Gaussian 16, Revision C.01,

 ----------------------------------------------------------------------
 #t hf aug-cc-pvdz symm=none int=(grid=ultrafine) guess=(read,tcheck) s
 table=(opt,rrhf)
 ----------------------------------------------------------------------
 -----
 title
 -----
 Symbolic Z-matrix:
 Charge =  0 Multiplicity = 1

 SCF Done:  E(RHF) =  -284.714106040     A.U. after   15 cycles
 Normal termination of Gaussian 16 at Wed Apr  9 03:21:03 2025.
 Gaussian 16:  ES64L-G16RevC.01  3-Jul-2019

 ----------------------------------------------------------------------
 #t hf aug-cc-pvdz iop(5/13=1,5/36=2,99/5=2) pseudo=read geom=check gue
 ss=(read,tcheck) scf=(maxcycle=1)
 ----------------------------------------------------------------------
 -----
 title
 -----
 Structure from the checkpoint file:  "Grambow2020_wb97xd3_006083_reverse_mol1.chk"
 Charge =  0 Multiplicity = 1

                         Standard orientation:
 ---------------------------------------------------------------------
 Center     Atomic      Atomic             Coordinates (Angstroms)
 Number     Number       Type             X           Y           Z
 ---------------------------------------------------------------------
      1          6           0       -1.470761   -1.260228    0.126512
      2          6           0       -1.155055   -0.032407   -0.685136
      3          7           0       -0.751182    1.321710    0.510468
      4          6           0        0.165689    0.603562   -0.394011
      5          6           0        1.226088   -0.153551    0.349645
      6          8           0        2.289575   -0.419785   -0.136922
      7          1           0       -1.091133   -1.284093    1.150675
      8          1           0       -0.996906   -2.083753   -0.421010
      9          1           0       -2.542039   -1.455382    0.136953
     10          1           0       -1.760857    0.990408   -0.026989
     11          1           0       -0.833074    2.262263    0.120207
     12          1           0        0.601245    1.187018   -1.202610
     13          1           0        0.968680   -0.454413    1.382809
 ---------------------------------------------------------------------

 SCF Done:  E(RHF) =  -286.028438481     A.U. after    2 cycles

 The electronic state is 1-A.
 Alpha  occ. eigenvalues --  -21.07271 -15.79505 -11.50066 -11.47119 -11.42391
 Alpha  occ. eigenvalues --  -11.38601  -1.72284  -1.46649  -1.11943  -1.03059
 Alpha  occ. eigenvalues --   -0.88143  -0.81169  -0.67258  -0.63853  -0.62242
 Alpha  occ. eigenvalues --   -0.58962  -0.54043  -0.51499  -0.50768  -0.45319
 Alpha  occ. eigenvalues --   -0.40843  -0.33544  -0.29160
 Alpha virt. eigenvalues --    0.03700   0.04811   0.05662   0.06087   0.06223
 Alpha virt. eigenvalues --    0.06851   0.07564   0.09793   0.10802   0.12286
 Alpha virt. eigenvalues --    0.13419   0.13619   0.14008   0.14663   0.15252

 Mulliken charges:
               1
     1  C   -3.746099
     2  C   -0.910096
     3  N   -1.816982
     4  C   -0.841459
     5  C    1.724930
     6  O   -2.969693
     7  H    1.444663
     8  H    1.406343
     9  H    1.168507
    10  H    1.183089
    11  H    0.489429
    12  H    1.439107
    13  H    1.428262
 Sum of Mulliken charges =  -0.00000

 Dipole moment (field-independent basis, Debye):
    X=             -0.7669    Y=              1.0665    Z=              0.9017  Tot=              1.5933

 Test job not archived.
 1\1\GINC-SE459\SP\RHF\Aug-CC-pVDZ\C4H7N1O1\OHZDE\09-Apr-2025\0\\#t hf
 aug-cc-pvdz iop(5/13=1,5/36=2,99/5=2) pseudo=read geom=check guess=(re
 ad,tcheck) scf=(maxcycle=1)\\title\\0,1\C,0,-0.84867805,-0.40236693,1.
 29538144\C,0,-0.19671773,-1.03367684,0.09438962\N,0,-0.60134817,0.0288
 1298,-1.366297\C,0,0.7001871,-0.13365724,-0.69244108\C,0,1.20036653,1.
 14957324,-0.09760625\O,0,2.36607552,1.36384287,0.08636112\H,0,-1.10640
 094,0.65632509,1.21571597\H,0,-0.10790054,-0.50284883,2.0976689\H,0,-1
 .73066188,-0.96380022,1.59989485\H,0,-1.1188143,-0.93649555,-0.8988863

 Normal termination of Gaussian 16 at Wed Apr  9 03:21:07 2025.
