 Gaussian 16, Revision C.01,

 ----------------------------------------------------------------------
 #t hf aug-cc-pvdz symm=none int=(grid=ultrafine) guess=(read,tcheck) s
 table=(opt,rrhf)
 ----------------------------------------------------------------------
 -----
 title
 -----
 Symbolic Z-matrix:
 Charge =  0 Multiplicity = 1

 SCF Done:  E(RHF) =  -307.758656346     A.U. after   15 cycles

 1\1\GINC-SE207\Stability\RHF\Aug-CC-pVDZ\C6H10O1\OHZDE\09-Apr-2025\0\\
 #t hf aug-cc-pvdz symm=none int=(grid=ultrafine) guess=(read,tcheck) s
 table=(opt,rrhf)\\title\\0,1\C,0,-2.27786797,0.09881317,0.36530589\C,0
 ,-0.79145483,-0.03548828,0.49239693\C,0,-0.1290765,-1.2338381,0.000590
 7\C,0,1.31054028,-1.17725332,0.21353733\C,0,1.94846875,0.00606789,0.21
 278142\C,0,1.24856414,1.24992309,-0.27383177\O,0,-0.11792691,0.9549535
 4,-0.65667602\H,0,-2.75029913,-0.48028997,1.16191176\H,0,-2.62836953,-
 0.28656758,-0.59223202\H,0,-2.59080899,1.13763866,0.46787155\H,0,-0.38

 Normal termination of Gaussian 16 at Wed Apr  9 19:29:23 2025.
 Gaussian 16:  ES64L-G16RevC.01  3-Jul-2019

 ----------------------------------------------------------------------
 #t hf aug-cc-pvdz iop(5/13=1,5/36=2,99/5=2) pseudo=read geom=check gue
 ss=(read,tcheck) scf=(maxcycle=1)
 ----------------------------------------------------------------------
 -----
 title
 -----
 Structure from the checkpoint file:  "Grambow2020_wb97xd3_009037_forward_mol1.chk"
 Charge =  0 Multiplicity = 1

                         Standard orientation:
 ---------------------------------------------------------------------
 Center     Atomic      Atomic             Coordinates (Angstroms)
 Number     Number       Type             X           Y           Z
 ---------------------------------------------------------------------
      1          6           0        2.397655   -0.104914    0.167708
      2          6           0        0.929590    0.117716    0.364769
      3          6           0        0.263781    1.208015   -0.331369
      4          6           0       -1.156167    1.261134   -0.012041
      5          6           0       -1.823852    0.134524    0.291521
      6          6           0       -1.197195   -1.214315    0.042985
      7          8           0        0.143201   -1.068725   -0.489007
      8          1           0        2.945418    0.612500    0.782854
      9          1           0        2.683631    0.047781   -0.873037
     10          1           0        2.689513   -1.109148    0.474210
     11          1           0        0.578890   -0.122616    1.373952
     12          1           0        0.105308   -0.121197   -1.123362
     13          1           0        0.816950    2.099726   -0.592273
     14          1           0       -1.684168    2.210459   -0.025944
     15          1           0       -2.870261    0.141192    0.569456
     16          1           0       -1.158254   -1.863016    0.923054
     17          1           0       -1.735505   -1.758839   -0.738290
 ---------------------------------------------------------------------

 SCF Done:  E(RHF) =  -309.262911156     A.U. after    2 cycles

 The electronic state is 1-A.
 Alpha  occ. eigenvalues --  -21.08210 -11.48861 -11.45343 -11.42503 -11.39567
 Alpha  occ. eigenvalues --  -11.36102 -11.33722  -1.79041  -1.22766  -1.15922
 Alpha  occ. eigenvalues --   -1.03478  -0.91384  -0.84639  -0.77023  -0.68233
 Alpha  occ. eigenvalues --   -0.63804  -0.62264  -0.59079  -0.56401  -0.53669
 Alpha  occ. eigenvalues --   -0.52802  -0.47968  -0.45375  -0.42084  -0.41715
 Alpha  occ. eigenvalues --   -0.33809  -0.21760
 Alpha virt. eigenvalues --    0.04012   0.04996   0.05260   0.05366   0.05671
 Alpha virt. eigenvalues --    0.06047   0.06452   0.06967   0.08138   0.09505
 Alpha virt. eigenvalues --    0.10926   0.12110   0.12949   0.13721   0.14259

 Mulliken charges:
               1
     1  C   -4.124986
     2  C   -0.935207
     3  C   -2.981372
     4  C    0.112222
     5  C   -1.433329
     6  C   -1.924002
     7  O   -2.660676
     8  H    1.124961
     9  H    1.226603
    10  H    1.231274
    11  H    1.984307
    12  H    1.900838
    13  H    1.263444
    14  H    1.421527
    15  H    1.466605
    16  H    1.227387
    17  H    1.100401
 Sum of Mulliken charges =   0.00000

 Dipole moment (field-independent basis, Debye):
    X=              0.8043    Y=             -2.0804    Z=              0.4699  Tot=              2.2794

 Test job not archived.
 1\1\GINC-SE207\SP\RHF\Aug-CC-pVDZ\C6H10O1\OHZDE\09-Apr-2025\0\\#t hf a
 ug-cc-pvdz iop(5/13=1,5/36=2,99/5=2) pseudo=read geom=check guess=(rea
 d,tcheck) scf=(maxcycle=1)\\title\\0,1\C,0,-2.27786797,0.09881317,0.36
 530589\C,0,-0.79145483,-0.03548828,0.49239693\C,0,-0.1290765,-1.233838
 1,0.0005907\C,0,1.31054028,-1.17725332,0.21353733\C,0,1.94846875,0.006
 06789,0.21278142\C,0,1.24856414,1.24992309,-0.27383177\O,0,-0.11792691
 ,0.95495354,-0.65667602\H,0,-2.75029913,-0.48028997,1.16191176\H,0,-2.
 62836953,-0.28656758,-0.59223202\H,0,-2.59080899,1.13763866,0.46787155

 Normal termination of Gaussian 16 at Wed Apr  9 19:29:29 2025.
