 Gaussian 16, Revision C.01,

 ----------------------------------------------------------------------
 #t hf aug-cc-pvdz symm=none int=(grid=ultrafine) guess=(read,tcheck) s
 table=(opt,rrhf)
 ----------------------------------------------------------------------
 -----
 title
 -----
 Symbolic Z-matrix:
 Charge =  0 Multiplicity = 1

 SCF Done:  E(RHF) =  -302.700046743     A.U. after   17 cycles
 Normal termination of Gaussian 16 at Wed Apr  9 19:30:16 2025.
 Gaussian 16:  ES64L-G16RevC.01  3-Jul-2019

 ----------------------------------------------------------------------
 #t hf aug-cc-pvdz iop(5/13=1,5/36=2,99/5=2) pseudo=read geom=check gue
 ss=(read,tcheck) scf=(maxcycle=1)
 ----------------------------------------------------------------------
 -----
 title
 -----
 Structure from the checkpoint file:  "Grambow2020_wb97xd3_009080_forward_mol1.chk"
 Charge =  0 Multiplicity = 1

                         Standard orientation:
 ---------------------------------------------------------------------
 Center     Atomic      Atomic             Coordinates (Angstroms)
 Number     Number       Type             X           Y           Z
 ---------------------------------------------------------------------
      1          6           0        1.749161   -0.871120    0.559048
      2          7           0        1.134792   -0.192344   -0.450516
      3          6           0        0.950650    1.198826   -0.190295
      4          6           0       -0.316913    1.314247    0.178940
      5          6           0       -0.858381   -0.068326    0.076498
      6          6           0       -2.320178   -0.376602    0.147199
      7          7           0       -0.044291   -0.799379   -0.725016
      8          1           0        2.690004   -0.473690    0.928293
      9          1           0        1.597830   -1.942038    0.556187
     10          1           0       -0.026107   -0.501483    1.227818
     11          1           0        1.799036    1.862352   -0.156801
     12          1           0       -0.843932    2.175342    0.556363
     13          1           0       -2.850070    0.093243   -0.683721
     14          1           0       -2.747407   -0.001246    1.077661
     15          1           0       -2.478889   -1.452572    0.094581
 ---------------------------------------------------------------------

 SCF Done:  E(RHF) =  -304.181368465     A.U. after    2 cycles

 The electronic state is 1-A.
 Alpha  occ. eigenvalues --  -15.80748 -15.70228 -11.48724 -11.44168 -11.43739
 Alpha  occ. eigenvalues --  -11.41146 -11.37525  -1.64073  -1.23676  -1.15869
 Alpha  occ. eigenvalues --   -1.07013  -0.94544  -0.80632  -0.78956  -0.69459
 Alpha  occ. eigenvalues --   -0.69223  -0.62263  -0.58646  -0.56683  -0.53270
 Alpha  occ. eigenvalues --   -0.49715  -0.47651  -0.42320  -0.38576  -0.33906
 Alpha  occ. eigenvalues --   -0.27679
 Alpha virt. eigenvalues --    0.03634   0.04858   0.05243   0.05551   0.06416
 Alpha virt. eigenvalues --    0.06561   0.07627   0.08043   0.08953   0.10482
 Alpha virt. eigenvalues --    0.10781   0.11906   0.12443   0.13001   0.14561

 Mulliken charges:
               1
     1  C   -2.404783
     2  N   -1.881809
     3  C   -0.453806
     4  C   -1.366290
     5  C    3.066542
     6  C   -4.870043
     7  N   -1.928917
     8  H    1.461871
     9  H    1.472944
    10  H    0.863402
    11  H    1.200405
    12  H    1.263792
    13  H    1.175950
    14  H    1.108738
    15  H    1.292004
 Sum of Mulliken charges =  -0.00000

 Dipole moment (field-independent basis, Debye):
    X=              0.9274    Y=              1.5082    Z=              0.6976  Tot=              1.9029

 Test job not archived.
 1\1\GINC-SE229\SP\RHF\Aug-CC-pVDZ\C5H8N2\OHZDE\09-Apr-2025\0\\#t hf au
 g-cc-pvdz iop(5/13=1,5/36=2,99/5=2) pseudo=read geom=check guess=(read
 ,tcheck) scf=(maxcycle=1)\\title\\0,1\C,0,2.06298533,-0.5106171,0.1494
 4937\N,0,1.2154138,-0.038125,-0.80751314\C,0,0.82885609,1.32336098,-0.
 62337513\C,0,-0.38111739,1.2670408,-0.08563373\C,0,-0.68419283,-0.1882
 0036,-0.01074861\C,0,-2.04918063,-0.72024183,0.29029116\N,0,0.13351798
 ,-0.85059614,-0.86642758\H,0,2.96070201,0.06643501,0.35092997\H,0,2.09
 987705,-1.58735477,0.24457698\H,0,0.35202532,-0.37087561,1.0374518\H,0

 Normal termination of Gaussian 16 at Wed Apr  9 19:30:21 2025.
