 Gaussian 16, Revision C.01,

 ----------------------------------------------------------------------
 #t hf aug-cc-pvdz symm=none int=(grid=ultrafine) guess=(read,tcheck) s
 table=(opt,rrhf)
 ----------------------------------------------------------------------
 -----
 title
 -----
 Symbolic Z-matrix:
 Charge =  0 Multiplicity = 1

 SCF Done:  E(RHF) =  -373.296772026     A.U. after   17 cycles
 Normal termination of Gaussian 16 at Wed Apr  9 03:27:57 2025.
 Gaussian 16:  ES64L-G16RevC.01  3-Jul-2019

 ----------------------------------------------------------------------
 #t hf aug-cc-pvdz iop(5/13=1,5/36=2,99/5=2) pseudo=read geom=check gue
 ss=(read,tcheck) scf=(maxcycle=1)
 ----------------------------------------------------------------------
 -----
 title
 -----
 Structure from the checkpoint file:  "Grambow2020_wb97xd3_006704_reverse_mol2.chk"
 Charge =  0 Multiplicity = 1

                         Standard orientation:
 ---------------------------------------------------------------------
 Center     Atomic      Atomic             Coordinates (Angstroms)
 Number     Number       Type             X           Y           Z
 ---------------------------------------------------------------------
      1          8           0       -2.798890    0.000528   -0.046790
      2          6           0       -1.636139    0.017632   -0.021347
      3          6           0       -0.322844    0.044208    0.074283
      4          7           0        0.471158    1.189966    0.075678
      5          6           0        1.655274    0.747125   -0.033951
      6          7           0        1.768170   -0.638042   -0.184891
      7          8           0        0.452579   -1.125108    0.075268
      8          1           0        2.372979   -1.082474    0.498902
      9          1           0        2.544466    1.361861   -0.076135
 ---------------------------------------------------------------------

 SCF Done:  E(RHF) =  -374.864605736     A.U. after    2 cycles

 The electronic state is 1-A.
 Alpha  occ. eigenvalues --  -21.14014 -21.11575 -15.82210 -15.77231 -11.54226
 Alpha  occ. eigenvalues --  -11.48276 -11.46609  -1.88999  -1.76686  -1.42712
 Alpha  occ. eigenvalues --   -1.29563  -1.04194  -0.88748  -0.79068  -0.70030
 Alpha  occ. eigenvalues --   -0.65988  -0.61273  -0.58107  -0.55114  -0.49895
 Alpha  occ. eigenvalues --   -0.48873  -0.44799  -0.41172  -0.40408  -0.20490
 Alpha virt. eigenvalues --    0.02912   0.05053   0.07164   0.09238   0.09506
 Alpha virt. eigenvalues --    0.10474   0.11631   0.12533   0.12859   0.13539
 Alpha virt. eigenvalues --    0.13937   0.15234   0.15689   0.16962   0.17588

 Mulliken charges:
               1
     1  O   -2.642465
     2  C    1.351484
     3  C    4.043139
     4  N   -2.995570
     5  C    1.451969
     6  N   -0.615936
     7  O   -2.881232
     8  H    0.740068
     9  H    1.548544
 Sum of Mulliken charges =  -0.00000

 Dipole moment (field-independent basis, Debye):
    X=              2.0441    Y=             -0.7991    Z=              0.7336  Tot=              2.3141

 Test job not archived.
 1\1\GINC-SE452\SP\RHF\Aug-CC-pVDZ\C3H2N2O2\OHZDE\09-Apr-2025\0\\#t hf
 aug-cc-pvdz iop(5/13=1,5/36=2,99/5=2) pseudo=read geom=check guess=(re
 ad,tcheck) scf=(maxcycle=1)\\title\\0,1\O,0,-3.01939635,0.04182782,-1.
 24808594\C,0,-1.94586991,0.01313859,-0.80126836\C,0,-0.75094357,0.0232
 571,-0.24751348\N,0,0.26168336,0.94428,-0.5111546\C,0,1.28256987,0.455
 93366,0.06292283\N,0,1.09498358,-0.79133642,0.665704\O,0,-0.31663584,-
 0.99295017,0.61694021\H,0,1.34948578,-0.82035959,1.64818671\H,0,2.2672
 2007,0.904045,0.06103763\\Version=ES64L-G16RevC.01\State=1-A\HF=-374.8

 Normal termination of Gaussian 16 at Wed Apr  9 03:28:00 2025.
