 Gaussian 16, Revision C.01,

 ----------------------------------------------------------------------
 #t hf aug-cc-pvdz symm=none int=(grid=ultrafine) guess=(read,tcheck) s
 table=(opt,rrhf)
 ----------------------------------------------------------------------
 -----
 title
 -----
 Symbolic Z-matrix:
 Charge =  0 Multiplicity = 1

 SCF Done:  E(RHF) =  -233.003830394     A.U. after   13 cycles
 Normal termination of Gaussian 16 at Wed Apr  9 03:07:58 2025.
 Gaussian 16:  ES64L-G16RevC.01  3-Jul-2019

 ----------------------------------------------------------------------
 #t hf aug-cc-pvdz iop(5/13=1,5/36=2,99/5=2) pseudo=read geom=check gue
 ss=(read,tcheck) scf=(maxcycle=1)
 ----------------------------------------------------------------------
 -----
 title
 -----
 Structure from the checkpoint file:  "Grambow2020_b97d3_006588_reverse_mol2.chk"
 Charge =  0 Multiplicity = 1

                         Standard orientation:
 ---------------------------------------------------------------------
 Center     Atomic      Atomic             Coordinates (Angstroms)
 Number     Number       Type             X           Y           Z
 ---------------------------------------------------------------------
      1          6           0       -1.915115   -0.002918   -0.788555
      2          6           0        2.215697   -0.001912   -0.544616
      3          6           0        1.035233    0.001400    0.082888
      4          6           0        0.056045   -1.092061    0.477638
      5          6           0       -1.067520    0.001333    0.481358
      6          6           0        0.054911    1.095726    0.472422
      7          1           0       -2.558214   -0.894035   -0.832950
      8          1           0       -1.268476   -0.006404   -1.679323
      9          1           0        2.722313    0.926712   -0.814638
     10          1           0        2.717340   -0.935001   -0.808742
     11          1           0        0.254779   -1.491161    1.484124
     12          1           0       -0.064749   -1.934457   -0.218542
     13          1           0       -1.707085    0.003075    1.374308
     14          1           0       -2.558402    0.887626   -0.840093
     15          1           0        0.253762    1.499802    1.476915
     16          1           0       -0.066771    1.934432   -0.227872
 ---------------------------------------------------------------------

 SCF Done:  E(RHF) =  -234.189136227     A.U. after    2 cycles

 The electronic state is 1-A.
 Alpha  occ. eigenvalues --  -11.46840 -11.40479 -11.40461 -11.38374 -11.36749
 Alpha  occ. eigenvalues --  -11.34704  -1.34377  -1.09052  -0.99951  -0.96209
 Alpha  occ. eigenvalues --   -0.81762  -0.73351  -0.64862  -0.61835  -0.59744
 Alpha  occ. eigenvalues --   -0.57230  -0.53027  -0.52649  -0.45826  -0.42661
 Alpha  occ. eigenvalues --   -0.41056  -0.40277  -0.32623
 Alpha virt. eigenvalues --    0.03829   0.05516   0.05627   0.05676   0.05729
 Alpha virt. eigenvalues --    0.05963   0.06016   0.06669   0.07490   0.08436
 Alpha virt. eigenvalues --    0.11765   0.11920   0.12365   0.13233   0.14311

 Mulliken charges:
               1
     1  C   -4.255998
     2  C   -4.304443
     3  C    3.682088
     4  C   -3.584371
     5  C   -1.100100
     6  C   -3.582977
     7  H    1.242313
     8  H    1.277451
     9  H    1.417811
    10  H    1.418214
    11  H    1.163845
    12  H    1.341862
    13  H    1.538055
    14  H    1.242406
    15  H    1.163102
    16  H    1.340741
 Sum of Mulliken charges =  -0.00000

 Dipole moment (field-independent basis, Debye):
    X=             -0.6525    Y=              0.0025    Z=              0.3044  Tot=              0.7200

 Test job not archived.
 1\1\GINC-SE423\SP\RHF\Aug-CC-pVDZ\C6H10\OHZDE\09-Apr-2025\0\\#t hf aug
 -cc-pvdz iop(5/13=1,5/36=2,99/5=2) pseudo=read geom=check guess=(read,
 tcheck) scf=(maxcycle=1)\\title\\0,1\C,0,0.46798285,0.40582738,1.84250
 877\C,0,-1.75668459,-0.1479341,-1.60238899\C,0,-0.56478126,-0.17099936
 ,-0.99732552\C,0,0.16134956,-1.20579316,-0.15338835\C,0,0.98423865,-0.
 02718487,0.47243843\C,0,0.48181973,0.88926719,-0.69603015\H,0,0.677280
 36,-0.35884031,2.60481655\H,0,-0.62111197,0.56182366,1.8084408\H,0,-2.
 13106278,0.7521373,-2.09394429\H,0,-2.39912998,-1.03035094,-1.62820991

 Normal termination of Gaussian 16 at Wed Apr  9 03:08:03 2025.
