 Gaussian 16, Revision C.01,

 ----------------------------------------------------------------------
 #t hf aug-cc-pvdz symm=none int=(grid=ultrafine) guess=(read,tcheck) s
 table=(opt,rrhf)
 ----------------------------------------------------------------------
 -----
 title
 -----
 Symbolic Z-matrix:
 Charge =  0 Multiplicity = 1

 SCF Done:  E(RHF) =  -337.406559969     A.U. after   16 cycles
 Normal termination of Gaussian 16 at Wed Apr  9 03:58:25 2025.
 Gaussian 16:  ES64L-G16RevC.01  3-Jul-2019

 ----------------------------------------------------------------------
 #t hf aug-cc-pvdz iop(5/13=1,5/36=2,99/5=2) pseudo=read geom=check gue
 ss=(read,tcheck) scf=(maxcycle=1)
 ----------------------------------------------------------------------
 -----
 title
 -----
 Structure from the checkpoint file:  "Grambow2020_wb97xd3_008691_forward_mol1.chk"
 Charge =  0 Multiplicity = 1

                         Standard orientation:
 ---------------------------------------------------------------------
 Center     Atomic      Atomic             Coordinates (Angstroms)
 Number     Number       Type             X           Y           Z
 ---------------------------------------------------------------------
      1          8           0        2.670993   -0.323116    0.000594
      2          6           0        1.587205    0.062310   -0.000142
      3          6           0        0.230539    0.068256   -0.001357
      4          6           0       -0.623745    1.210159   -0.000421
      5          7           0       -1.897714    0.706086    0.000336
      6          6           0       -1.825887   -0.607169    0.000549
      7          7           0       -0.565989   -1.070392   -0.000228
      8          1           0        1.708438    1.945961    0.002282
      9          1           0        0.908137    2.105815   -0.000302
     10          1           0       -2.670824   -1.285682    0.002042
     11          1           0       -0.276448   -2.032355   -0.001305
 ---------------------------------------------------------------------

 SCF Done:  E(RHF) =  -338.918704561     A.U. after    2 cycles

 The electronic state is 1-A.
 Alpha  occ. eigenvalues --  -21.18264 -15.83104 -15.72261 -11.61537 -11.47584
 Alpha  occ. eigenvalues --  -11.44955 -11.38569  -1.82319  -1.58876  -1.29365
 Alpha  occ. eigenvalues --   -1.16304  -0.93648  -0.85069  -0.80256  -0.69620
 Alpha  occ. eigenvalues --   -0.65562  -0.64739  -0.60692  -0.56251  -0.55921
 Alpha  occ. eigenvalues --   -0.51511  -0.40071  -0.38732  -0.32295  -0.30247
 Alpha virt. eigenvalues --    0.02438   0.04653   0.06719   0.07556   0.07659
 Alpha virt. eigenvalues --    0.08128   0.09982   0.10939   0.11128   0.11686
 Alpha virt. eigenvalues --    0.12233   0.12969   0.13817   0.13879   0.14588

 Mulliken charges:
               1
     1  O   -2.828182
     2  C    2.018266
     3  C    4.502160
     4  C   -1.343112
     5  N   -2.769475
     6  C    1.483188
     7  N   -3.499832
     8  H    0.552826
     9  H   -0.509008
    10  H    1.577728
    11  H    0.815442
 Sum of Mulliken charges =  -0.00000

 Dipole moment (field-independent basis, Debye):
    X=              2.8885    Y=             -6.5001    Z=              0.0008  Tot=              7.1130

 Test job not archived.
 1\1\GINC-SE021\SP\RHF\Aug-CC-pVDZ\C4H4N2O1\OHZDE\09-Apr-2025\0\\#t hf
 aug-cc-pvdz iop(5/13=1,5/36=2,99/5=2) pseudo=read geom=check guess=(re
 ad,tcheck) scf=(maxcycle=1)\\title\\0,1\O,0,-2.57055066,-1.00220094,0.
 04804547\C,0,-1.60186685,-0.38284815,0.0133321\C,0,-0.28166145,-0.0705
 2959,0.00369923\C,0,0.29261031,1.23186853,-0.08414328\N,0,1.64747016,1
 .02982568,-0.05922277\C,0,1.87411964,-0.26239206,0.03351517\N,0,0.7514
 4238,-0.99700958,0.07656545\H,0,-2.14538887,1.41978016,-0.12068596\H,0
 ,-1.40192421,1.75605735,-0.13550622\H,0,2.85045529,-0.73088797,0.07327

 Normal termination of Gaussian 16 at Wed Apr  9 03:58:29 2025.
