 Gaussian 16, Revision C.01,

 ----------------------------------------------------------------------
 #t hf aug-cc-pvdz symm=none int=(grid=ultrafine) guess=(read,tcheck) s
 table=(opt,rrhf)
 ----------------------------------------------------------------------
 -----
 title
 -----
 Symbolic Z-matrix:
 Charge =  0 Multiplicity = 1

 SCF Done:  E(RHF) =  -380.660608574     A.U. after   14 cycles
 Normal termination of Gaussian 16 at Wed Apr  9 19:15:01 2025.
 Gaussian 16:  ES64L-G16RevC.01  3-Jul-2019

 ----------------------------------------------------------------------
 #t hf aug-cc-pvdz iop(5/13=1,5/36=2,99/5=2) pseudo=read geom=check gue
 ss=(read,tcheck) scf=(maxcycle=1)
 ----------------------------------------------------------------------
 -----
 title
 -----
 Structure from the checkpoint file:  "Grambow2020_wb97xd3_008487_reverse_mol1.chk"
 Charge =  0 Multiplicity = 1

                         Standard orientation:
 ---------------------------------------------------------------------
 Center     Atomic      Atomic             Coordinates (Angstroms)
 Number     Number       Type             X           Y           Z
 ---------------------------------------------------------------------
      1          6           0        2.696119   -0.220626   -0.063445
      2          8           0        1.590057    0.672493   -0.125257
      3          6           0        0.382559    0.129205    0.073695
      4          8           0        0.256713   -1.069958    0.358628
      5          6           0       -0.735302    0.999238   -0.135872
      6          6           0       -1.971933    0.461643    0.473806
      7          8           0       -2.202664   -0.694472   -0.511570
      8          1           0        2.603011   -1.008507   -0.811922
      9          1           0        3.576077    0.385733   -0.265154
     10          1           0        2.772225   -0.679733    0.922392
     11          1           0       -0.579711    2.061413   -0.254052
     12          1           0       -1.506533   -0.019520   -1.108672
     13          1           0       -1.909821   -0.011002    1.454852
     14          1           0       -2.842803    1.104765    0.393807
     15          1           0       -1.493943   -1.314408   -0.194764
 ---------------------------------------------------------------------

 SCF Done:  E(RHF) =  -382.365084837     A.U. after    2 cycles

 The electronic state is 1-A.
 Alpha  occ. eigenvalues --  -21.13929 -21.07661 -21.01736 -11.50609 -11.46935
 Alpha  occ. eigenvalues --  -11.40385 -11.35442  -1.84654  -1.79143  -1.64147
 Alpha  occ. eigenvalues --   -1.14876  -1.01913  -0.91732  -0.74954  -0.73101
 Alpha  occ. eigenvalues --   -0.68519  -0.62743  -0.62449  -0.56299  -0.55192
 Alpha  occ. eigenvalues --   -0.52080  -0.50945  -0.50357  -0.44035  -0.39934
 Alpha  occ. eigenvalues --   -0.31459  -0.29219  -0.26433
 Alpha virt. eigenvalues --    0.03715   0.05177   0.05672   0.05864   0.06029
 Alpha virt. eigenvalues --    0.06624   0.06955   0.07594   0.11008   0.12118
 Alpha virt. eigenvalues --    0.12173   0.13482   0.13766   0.14967   0.15803

 Mulliken charges:
               1
     1  C   -3.077039
     2  O   -3.475768
     3  C    6.853224
     4  O   -3.085006
     5  C   -3.584621
     6  C   -2.036253
     7  O   -2.207372
     8  H    1.277944
     9  H    1.333144
    10  H    1.338078
    11  H    1.464232
    12  H    1.476679
    13  H    1.449927
    14  H    1.236099
    15  H    1.036732
 Sum of Mulliken charges =  -0.00000

 Dipole moment (field-independent basis, Debye):
    X=             -1.5493    Y=             -0.5612    Z=              0.0540  Tot=              1.6487

 Test job not archived.
 1\1\GINC-SE015\SP\RHF\Aug-CC-pVDZ\C4H8O3\OHZDE\09-Apr-2025\0\\#t hf au
 g-cc-pvdz iop(5/13=1,5/36=2,99/5=2) pseudo=read geom=check guess=(read
 ,tcheck) scf=(maxcycle=1)\\title\\0,1\C,0,-2.65117606,-0.25604836,0.01
 290092\O,0,-1.53378809,0.57166507,0.31487581\C,0,-0.33359673,0.0909830
 1,-0.03337834\O,0,-0.22341885,-0.98310289,-0.64100956\C,0,0.79553827,0
 .85531126,0.40405223\C,0,2.02426251,0.49392927,-0.33730578\O,0,2.24193
 444,-0.89315328,0.28673449\H,0,-2.56683708,-1.22197129,0.51242511\H,0,
 -3.52305077,0.28060934,0.37966621\H,0,-2.73470131,-0.42209814,-1.06129

 Normal termination of Gaussian 16 at Wed Apr  9 19:15:06 2025.
