 Gaussian 16, Revision C.01,

 ----------------------------------------------------------------------
 #t hf aug-cc-pvdz symm=none int=(grid=ultrafine) guess=(read,tcheck) s
 table=(opt,rrhf)
 ----------------------------------------------------------------------
 -----
 title
 -----
 Symbolic Z-matrix:
 Charge =  0 Multiplicity = 1

 SCF Done:  E(RHF) =  -359.602255642     A.U. after   14 cycles
 Normal termination of Gaussian 16 at Wed Apr  9 03:53:38 2025.
 Gaussian 16:  ES64L-G16RevC.01  3-Jul-2019

 ----------------------------------------------------------------------
 #t hf aug-cc-pvdz iop(5/13=1,5/36=2,99/5=2) pseudo=read geom=check gue
 ss=(read,tcheck) scf=(maxcycle=1)
 ----------------------------------------------------------------------
 -----
 title
 -----
 Structure from the checkpoint file:  "Grambow2020_wb97xd3_008368_forward_mol1.chk"
 Charge =  0 Multiplicity = 1

                         Standard orientation:
 ---------------------------------------------------------------------
 Center     Atomic      Atomic             Coordinates (Angstroms)
 Number     Number       Type             X           Y           Z
 ---------------------------------------------------------------------
      1          8           0        0.706485    1.239647   -0.214291
      2          6           0       -0.633192    0.953902    0.291423
      3          6           0       -1.505422    0.132331   -0.660886
      4          7           0       -1.154489   -1.101560    0.083729
      5          6           0       -0.256865   -0.359315    0.970293
      6          6           0        1.201566   -0.190354    0.453010
      7          8           0        1.549830   -0.733387   -0.678522
      8          1           0        1.030375    0.417508   -1.021863
      9          1           0       -1.036787    1.823437    0.800993
     10          1           0       -1.181089    0.170940   -1.704113
     11          1           0       -2.571659    0.360303   -0.609978
     12          1           0       -0.661637   -1.788199   -0.475638
     13          1           0       -0.355568   -0.557625    2.036714
     14          1           0        1.970750    0.015090    1.207254
 ---------------------------------------------------------------------

 SCF Done:  E(RHF) =  -361.235049184     A.U. after    2 cycles

 The electronic state is 1-A.
 Alpha  occ. eigenvalues --  -21.07377 -21.01545 -15.72744 -11.55191 -11.50978
 Alpha  occ. eigenvalues --  -11.43905 -11.40333  -1.85789  -1.63252  -1.43714
 Alpha  occ. eigenvalues --   -1.06926  -1.03943  -0.90043  -0.80084  -0.74754
 Alpha  occ. eigenvalues --   -0.70486  -0.63796  -0.61131  -0.58344  -0.50760
 Alpha  occ. eigenvalues --   -0.48303  -0.47778  -0.44109  -0.37568  -0.34011
 Alpha  occ. eigenvalues --   -0.29644  -0.26571
 Alpha virt. eigenvalues --    0.03836   0.04638   0.04769   0.05638   0.06200
 Alpha virt. eigenvalues --    0.06901   0.08095   0.09335   0.10290   0.11636
 Alpha virt. eigenvalues --    0.12174   0.13210   0.13605   0.14111   0.15007

 Mulliken charges:
               1
     1  O   -2.723718
     2  C    0.029004
     3  C   -2.056175
     4  N   -2.388699
     5  C   -0.623732
     6  C    2.586282
     7  O   -3.019951
     8  H    0.426205
     9  H    1.367146
    10  H    1.312717
    11  H    1.391151
    12  H    0.698046
    13  H    1.421537
    14  H    1.580186
 Sum of Mulliken charges =  -0.00000

 Dipole moment (field-independent basis, Debye):
    X=             -0.8843    Y=              1.6001    Z=              0.6366  Tot=              1.9359

 Test job not archived.
 1\1\GINC-SE162\SP\RHF\Aug-CC-pVDZ\C4H7N1O2\OHZDE\09-Apr-2025\0\\#t hf
 aug-cc-pvdz iop(5/13=1,5/36=2,99/5=2) pseudo=read geom=check guess=(re
 ad,tcheck) scf=(maxcycle=1)\\title\\0,1\O,0,-0.24013481,-1.25431442,0.
 82059462\C,0,-0.72805592,-0.61154636,-0.39633319\C,0,-1.194472,0.83341
 872,-0.20348523\N,0,0.12058117,1.3212695,-0.6859058\C,0,0.62514407,-0.
 04656539,-0.81665858\C,0,1.25890918,-0.64936061,0.47102571\O,0,1.34523
 8,0.07913422,1.54730657\H,0,0.14152146,-0.43116762,1.60146352\H,0,-1.3
 1818665,-1.31062637,-0.98086146\H,0,-1.4484343,1.08332645,0.8299816\H,

 Normal termination of Gaussian 16 at Wed Apr  9 03:53:43 2025.
