 Gaussian 16, Revision C.01,

 ----------------------------------------------------------------------
 #t hf aug-cc-pvdz symm=none int=(grid=ultrafine) guess=(read,tcheck) s
 table=(opt,rrhf)
 ----------------------------------------------------------------------
 -----
 title
 -----
 Symbolic Z-matrix:
 Charge =  0 Multiplicity = 1

 SCF Done:  E(RHF) =  -336.347996391     A.U. after   16 cycles
 Normal termination of Gaussian 16 at Wed Apr  9 03:46:11 2025.
 Gaussian 16:  ES64L-G16RevC.01  3-Jul-2019

 ----------------------------------------------------------------------
 #t hf aug-cc-pvdz iop(5/13=1,5/36=2,99/5=2) pseudo=read geom=check gue
 ss=(read,tcheck) scf=(maxcycle=1)
 ----------------------------------------------------------------------
 -----
 title
 -----
 Structure from the checkpoint file:  "Grambow2020_wb97xd3_007924_reverse_mol2.chk"
 Charge =  0 Multiplicity = 1

                         Standard orientation:
 ---------------------------------------------------------------------
 Center     Atomic      Atomic             Coordinates (Angstroms)
 Number     Number       Type             X           Y           Z
 ---------------------------------------------------------------------
      1          7           0        3.012216   -0.397872   -0.005107
      2          6           0        1.741449   -0.072337   -0.000909
      3          8           0       -1.263788    1.692372    0.000414
      4          6           0        0.573272    0.238787   -0.000587
      5          6           0       -0.804225    0.578490   -0.000289
      6          6           0       -1.704473   -0.600780    0.000346
      7          7           0       -2.403994   -1.509831    0.000497
      8          1           0        3.294231   -1.360979    0.014098
      9          1           0        3.722387    0.310968    0.023493
 ---------------------------------------------------------------------

 SCF Done:  E(RHF) =  -337.808226041     A.U. after    2 cycles

 The electronic state is 1-A.
 Alpha  occ. eigenvalues --  -21.09084 -15.84273 -15.78844 -11.58066 -11.49734
 Alpha  occ. eigenvalues --  -11.44747 -11.43035  -1.74966  -1.42751  -1.32629
 Alpha  occ. eigenvalues --   -1.14928  -0.99456  -0.82389  -0.75328  -0.73559
 Alpha  occ. eigenvalues --   -0.58813  -0.58665  -0.55043  -0.52867  -0.46635
 Alpha  occ. eigenvalues --   -0.43869  -0.41717  -0.33681  -0.32648
 Alpha virt. eigenvalues --    0.01692   0.04547   0.06593   0.09273   0.09386
 Alpha virt. eigenvalues --    0.10540   0.11348   0.11533   0.12137   0.12608
 Alpha virt. eigenvalues --    0.12622   0.14378   0.14741   0.15605   0.17664

 Mulliken charges:
               1
     1  N   -3.565070
     2  C    0.490450
     3  O   -3.248361
     4  C    2.092732
     5  C    3.742317
     6  C    1.633345
     7  N   -2.497121
     8  H    0.688401
     9  H    0.663306
 Sum of Mulliken charges =   0.00000

 Dipole moment (field-independent basis, Debye):
    X=              5.9275    Y=              0.3015    Z=              0.0619  Tot=              5.9355

 Test job not archived.
 1\1\GINC-SE069\SP\RHF\Aug-CC-pVDZ\C4H2N2O1\OHZDE\09-Apr-2025\0\\#t hf
 aug-cc-pvdz iop(5/13=1,5/36=2,99/5=2) pseudo=read geom=check guess=(re
 ad,tcheck) scf=(maxcycle=1)\\title\\0,1\N,0,-2.1774066,0.67961167,0.04
 8355\C,0,-1.03620395,0.21150482,0.49486716\O,0,1.42496711,-1.35719613,
 2.39945669\C,0,0.00948849,-0.22724624,0.91374696\C,0,1.24899272,-0.732
 27715,1.38434957\C,0,2.39195492,-0.42200677,0.49076504\N,0,3.27829036,
 -0.18453177,-0.19750828\H,0,-2.21588081,1.20751392,-0.80447284\H,0,-3.
 02183724,0.56079064,0.5779147\\Version=ES64L-G16RevC.01\State=1-A\HF=-

 Normal termination of Gaussian 16 at Wed Apr  9 03:46:14 2025.
