 Gaussian 16, Revision C.01,

 ----------------------------------------------------------------------
 #t hf aug-cc-pvdz symm=none int=(grid=ultrafine) guess=(read,tcheck) s
 table=(opt,rrhf)
 ----------------------------------------------------------------------
 -----
 title
 -----
 Symbolic Z-matrix:
 Charge =  0 Multiplicity = 1

 SCF Done:  E(RHF) =  -322.434526344     A.U. after   18 cycles
 Normal termination of Gaussian 16 at Wed Apr  9 19:11:00 2025.
 Gaussian 16:  ES64L-G16RevC.01  3-Jul-2019

 ----------------------------------------------------------------------
 #t hf aug-cc-pvdz iop(5/13=1,5/36=2,99/5=2) pseudo=read geom=check gue
 ss=(read,tcheck) scf=(maxcycle=1)
 ----------------------------------------------------------------------
 -----
 title
 -----
 Structure from the checkpoint file:  "Grambow2020_wb97xd3_008254_forward_mol1.chk"
 Charge =  0 Multiplicity = 1

                         Standard orientation:
 ---------------------------------------------------------------------
 Center     Atomic      Atomic             Coordinates (Angstroms)
 Number     Number       Type             X           Y           Z
 ---------------------------------------------------------------------
      1          6           0       -1.875839    0.786130    0.339769
      2          6           0       -0.634239    0.060754   -0.021820
      3          7           0       -0.635866   -1.134685   -0.891443
      4          6           0       -0.076698   -1.305219    0.363621
      5          6           0        1.312482   -0.757863    0.180970
      6          6           0        0.771308    0.591133   -0.167223
      7          8           0        1.258550    1.689024   -0.196951
      8          1           0       -1.723202    1.340585    1.266334
      9          1           0       -2.701254    0.087720    0.467118
     10          1           0       -2.134022    1.503064   -0.442099
     11          1           0       -0.017809   -1.162617   -1.703816
     12          1           0        0.485050   -1.426356    1.890541
     13          1           0        2.294638   -1.213774    0.212025
     14          1           0        1.197178   -0.947635    1.953699
 ---------------------------------------------------------------------

 SCF Done:  E(RHF) =  -323.944672029     A.U. after    2 cycles

 The electronic state is 1-A.
 Alpha  occ. eigenvalues --  -21.06107 -15.78712 -11.55547 -11.50295 -11.49270
 Alpha  occ. eigenvalues --  -11.43679 -11.40322  -1.72401  -1.55728  -1.15305
 Alpha  occ. eigenvalues --   -1.12078  -0.93473  -0.88347  -0.74872  -0.72042
 Alpha  occ. eigenvalues --   -0.64655  -0.60695  -0.59535  -0.55482  -0.53760
 Alpha  occ. eigenvalues --   -0.50339  -0.44796  -0.42204  -0.39083  -0.30113
 Alpha  occ. eigenvalues --   -0.27707
 Alpha virt. eigenvalues --    0.01736   0.03803   0.04979   0.05278   0.06255
 Alpha virt. eigenvalues --    0.06880   0.06998   0.07497   0.09008   0.09914
 Alpha virt. eigenvalues --    0.11763   0.12874   0.13178   0.13602   0.14157

 Mulliken charges:
               1
     1  C   -4.621997
     2  C    2.151848
     3  N   -2.356379
     4  C   -0.848027
     5  C   -1.308711
     6  C    4.668843
     7  O   -3.545581
     8  H    1.210890
     9  H    1.154509
    10  H    1.151585
    11  H    0.756651
    12  H    0.369709
    13  H    1.271639
    14  H   -0.054979
 Sum of Mulliken charges =   0.00000

 Dipole moment (field-independent basis, Debye):
    X=              0.3712    Y=             -0.2080    Z=             -1.1745  Tot=              1.2492

 Test job not archived.
 1\1\GINC-SE083\SP\RHF\Aug-CC-pVDZ\C5H7N1O1\OHZDE\09-Apr-2025\0\\#t hf
 aug-cc-pvdz iop(5/13=1,5/36=2,99/5=2) pseudo=read geom=check guess=(re
 ad,tcheck) scf=(maxcycle=1)\\title\\0,1\C,0,-1.9325174,0.01108884,0.09
 801109\C,0,-0.48009826,-0.27804359,0.02473975\N,0,0.17693436,-1.277394
 87,0.89360515\C,0,0.68703236,0.00784521,0.96355341\C,0,1.59770731,0.06
 489481,-0.23235598\C,0,0.45169743,-0.18429955,-1.1588882\O,0,0.2999352
 2,-0.02252028,-2.33975531\H,0,-2.13082426,1.00883066,-0.29496098\H,0,-
 2.28098584,-0.04873276,1.12771737\H,0,-2.48989807,-0.70566215,-0.50826

 Normal termination of Gaussian 16 at Wed Apr  9 19:11:05 2025.
