 Gaussian 16, Revision C.01,

 ----------------------------------------------------------------------
 #t hf aug-cc-pvdz symm=none int=(grid=ultrafine) guess=(read,tcheck) s
 table=(opt,rrhf)
 ----------------------------------------------------------------------
 -----
 title
 -----
 Symbolic Z-matrix:
 Charge =  0 Multiplicity = 1

 SCF Done:  E(RHF) =  -305.820257530     A.U. after   13 cycles
 Normal termination of Gaussian 16 at Wed Apr  9 17:19:18 2025.
 Gaussian 16:  ES64L-G16RevC.01  3-Jul-2019

 ----------------------------------------------------------------------
 #t hf aug-cc-pvdz iop(5/13=1,5/36=2,99/5=2) pseudo=read geom=check gue
 ss=(read,tcheck) scf=(maxcycle=1)
 ----------------------------------------------------------------------
 -----
 title
 -----
 Structure from the checkpoint file:  "Grambow2020_b97d3_007094_reverse_mol2.chk"
 Charge =  0 Multiplicity = 1

                         Standard orientation:
 ---------------------------------------------------------------------
 Center     Atomic      Atomic             Coordinates (Angstroms)
 Number     Number       Type             X           Y           Z
 ---------------------------------------------------------------------
      1          6           0        2.373295   -0.678084   -0.003438
      2          6           0        0.950674   -0.254157   -0.269804
      3          6           0        0.558418    1.154755   -0.424810
      4          8           0        0.286315    0.453729    0.808642
      5          6           0       -2.156045   -0.233218    0.506269
      6          8           0       -2.232641   -0.402963   -0.698125
      7          1           0        2.869414   -0.956714   -0.944410
      8          1           0        2.940602    0.136691    0.465131
      9          1           0        2.399259   -1.548909    0.666529
     10          1           0        0.301600   -0.991441   -0.753105
     11          1           0        1.317291    1.938179   -0.343893
     12          1           0       -2.386733    0.743425    0.988733
     13          1           0       -0.323625    1.393735   -1.024692
     14          1           0       -1.905249   -1.056872    1.212271
 ---------------------------------------------------------------------

 SCF Done:  E(RHF) =  -307.195749015     A.U. after    2 cycles

 The electronic state is 1-A.
 Alpha  occ. eigenvalues --  -21.06023 -21.05988 -11.48287 -11.46822 -11.41985
 Alpha  occ. eigenvalues --  -11.38465  -1.77174  -1.69272  -1.11526  -0.96275
 Alpha  occ. eigenvalues --   -0.88778  -0.84789  -0.69298  -0.65218  -0.61339
 Alpha  occ. eigenvalues --   -0.57620  -0.54364  -0.51698  -0.50568  -0.43790
 Alpha  occ. eigenvalues --   -0.43385  -0.36785  -0.31185  -0.29580
 Alpha virt. eigenvalues --    0.03770   0.05184   0.05488   0.05688   0.06281
 Alpha virt. eigenvalues --    0.06481   0.07138   0.07808   0.10766   0.11392
 Alpha virt. eigenvalues --    0.12230   0.13239   0.14442   0.15240   0.16045

 Mulliken charges:
               1
     1  C   -4.430871
     2  C    0.519014
     3  C   -2.141585
     4  O   -2.310728
     5  C   -0.789729
     6  O   -1.997107
     7  H    1.209063
     8  H    1.235718
     9  H    1.187958
    10  H    1.739371
    11  H    1.400775
    12  H    1.382921
    13  H    1.606184
    14  H    1.389017
 Sum of Mulliken charges =   0.00000

 Dipole moment (field-independent basis, Debye):
    X=              0.8788    Y=              0.1558    Z=              0.7398  Tot=              1.1593

 Test job not archived.
 1\1\GINC-SE041\SP\RHF\Aug-CC-pVDZ\C4H8O2\OHZDE\09-Apr-2025\0\\#t hf au
 g-cc-pvdz iop(5/13=1,5/36=2,99/5=2) pseudo=read geom=check guess=(read
 ,tcheck) scf=(maxcycle=1)\\title\\0,1\C,0,-0.33966901,2.09962417,0.324
 01618\C,0,-0.21240025,0.66309637,-0.11723942\C,0,-1.1028891,-0.3995111
 1,0.37349539\O,0,0.23880948,-0.27445686,0.89415768\C,0,1.51102094,-2.0
 110595,-0.4821173\O,0,0.91887739,-1.98551011,-1.54699159\H,0,-0.929171
 97,2.67114449,-0.4074541\H,0,-0.83502448,2.16369474,1.30165155\H,0,0.6
 5061603,2.56927897,0.40541694\H,0,0.25462194,0.48904233,-1.09194893\H,

 Normal termination of Gaussian 16 at Wed Apr  9 17:19:22 2025.
