 Gaussian 16, Revision C.01,

 ----------------------------------------------------------------------
 #t hf aug-cc-pvdz symm=none int=(grid=ultrafine) guess=(read,tcheck) s
 table=(opt,rrhf)
 ----------------------------------------------------------------------
 -----
 title
 -----
 Symbolic Z-matrix:
 Charge =  0 Multiplicity = 1

 SCF Done:  E(RHF) =  -343.669871935     A.U. after   15 cycles
 Normal termination of Gaussian 16 at Wed Apr  9 18:27:26 2025.
 Gaussian 16:  ES64L-G16RevC.01  3-Jul-2019

 ----------------------------------------------------------------------
 #t hf aug-cc-pvdz iop(5/13=1,5/36=2,99/5=2) pseudo=read geom=check gue
 ss=(read,tcheck) scf=(maxcycle=1)
 ----------------------------------------------------------------------
 -----
 title
 -----
 Structure from the checkpoint file:  "Grambow2020_wb97xd3_007147_reverse_mol2.chk"
 Charge =  0 Multiplicity = 1

                         Standard orientation:
 ---------------------------------------------------------------------
 Center     Atomic      Atomic             Coordinates (Angstroms)
 Number     Number       Type             X           Y           Z
 ---------------------------------------------------------------------
      1          8           0        2.896228   -1.352212   -0.152739
      2          6           0       -1.438014   -0.119047    0.070223
      3          6           0       -0.030717   -0.095389    0.508914
      4          6           0        0.652649    1.204626    0.178059
      5          8           0        1.820012    1.308883   -0.096308
      6          6           0       -2.694312   -0.933449    0.059190
      7          6           0       -2.441280    0.426805   -0.523715
      8          1           0        2.769972   -0.393144   -0.174227
      9          1           0        0.011285   -0.214690    1.599472
     10          1           0        0.539906   -0.931673    0.095614
     11          1           0        0.010080    2.105502    0.214698
     12          1           0       -3.281691   -1.028338    0.972378
     13          1           0       -2.763880   -1.798580   -0.599358
     14          1           0        3.567130   -1.544066   -0.808068
     15          1           0       -2.872679    1.250337   -1.064165
 ---------------------------------------------------------------------

 SCF Done:  E(RHF) =  -345.224236918     A.U. after    2 cycles

 The electronic state is 1-A.
 Alpha  occ. eigenvalues --  -21.08164 -21.07430 -11.50754 -11.46552 -11.45030
 Alpha  occ. eigenvalues --  -11.42975 -11.39731  -1.73606  -1.64136  -1.32444
 Alpha  occ. eigenvalues --   -1.13694  -0.86179  -0.85369  -0.77068  -0.67655
 Alpha  occ. eigenvalues --   -0.64321  -0.62524  -0.60836  -0.58476  -0.53398
 Alpha  occ. eigenvalues --   -0.46276  -0.44812  -0.44180  -0.40299  -0.34450
 Alpha  occ. eigenvalues --   -0.33328  -0.30631
 Alpha virt. eigenvalues --    0.03396   0.05058   0.05405   0.05796   0.05897
 Alpha virt. eigenvalues --    0.06487   0.08507   0.09103   0.09603   0.10240
 Alpha virt. eigenvalues --    0.11762   0.12017   0.12725   0.13307   0.13914

 Mulliken charges:
               1
     1  O   -2.024222
     2  C    5.087956
     3  C   -5.114333
     4  C    1.968701
     5  O   -3.084442
     6  C   -3.669304
     7  C   -2.278288
     8  H    1.251478
     9  H    1.334382
    10  H    1.322346
    11  H    1.628936
    12  H    0.951081
    13  H    0.963259
    14  H    0.870999
    15  H    0.791450
 Sum of Mulliken charges =   0.00000

 Dipole moment (field-independent basis, Debye):
    X=             -0.6607    Y=              0.7866    Z=             -0.1854  Tot=              1.0438

 Test job not archived.
 1\1\GINC-SE117\SP\RHF\Aug-CC-pVDZ\C5H8O2\OHZDE\09-Apr-2025\0\\#t hf au
 g-cc-pvdz iop(5/13=1,5/36=2,99/5=2) pseudo=read geom=check guess=(read
 ,tcheck) scf=(maxcycle=1)\\title\\0,1\O,0,1.50342104,-0.94750757,-2.76
 9605\C,0,-0.83513293,0.06270438,0.95419658\C,0,0.37721756,-0.34914964,
 0.22339152\C,0,1.43296854,0.72403048,0.21057816\O,0,2.20793709,0.90508
 371,-0.69248811\C,0,-2.18509702,-0.38679848,1.42024709\C,0,-1.51439992
 ,0.9441542,1.60142421\H,0,1.92678942,-0.26947948,-2.22439904\H,0,0.815
 2989,-1.22824368,0.71389504\H,0,0.15088773,-0.66098973,-0.79999959\H,0

 Normal termination of Gaussian 16 at Wed Apr  9 18:27:30 2025.
