 Gaussian 16, Revision C.01,

 ----------------------------------------------------------------------
 #t hf aug-cc-pvdz symm=none int=(grid=ultrafine) guess=(read,tcheck) s
 table=(opt,rrhf)
 ----------------------------------------------------------------------
 -----
 title
 -----
 Symbolic Z-matrix:
 Charge =  0 Multiplicity = 1

 SCF Done:  E(RHF) =  -245.812380809     A.U. after   14 cycles
 Normal termination of Gaussian 16 at Wed Apr  9 17:35:21 2025.
 Gaussian 16:  ES64L-G16RevC.01  3-Jul-2019

 ----------------------------------------------------------------------
 #t hf aug-cc-pvdz iop(5/13=1,5/36=2,99/5=2) pseudo=read geom=check gue
 ss=(read,tcheck) scf=(maxcycle=1)
 ----------------------------------------------------------------------
 -----
 title
 -----
 Structure from the checkpoint file:  "Grambow2020_b97d3_007193_reverse_mol2.chk"
 Charge =  0 Multiplicity = 1

                         Standard orientation:
 ---------------------------------------------------------------------
 Center     Atomic      Atomic             Coordinates (Angstroms)
 Number     Number       Type             X           Y           Z
 ---------------------------------------------------------------------
      1          8           0        2.052921   -0.660284   -0.000458
      2          6           0        1.480703    0.413899    0.000869
      3          6           0       -0.012447    0.604311   -0.001514
      4          6           0       -2.232986   -0.132164    0.000379
      5          7           0       -0.809283   -0.395952    0.000143
      6          1           0        2.043994    1.380700    0.004877
      7          1           0       -0.354801    1.659087   -0.003162
      8          1           0       -2.508638    0.939104   -0.002235
      9          1           0       -2.676223   -0.623557   -0.879115
     10          1           0       -2.674346   -0.617672    0.883893
 ---------------------------------------------------------------------

 SCF Done:  E(RHF) =  -246.909421913     A.U. after    2 cycles

 The electronic state is 1-A.
 Alpha  occ. eigenvalues --  -21.07464 -15.77013 -11.49869 -11.43277 -11.40302
 Alpha  occ. eigenvalues --   -1.70745  -1.39866  -1.07308  -0.93205  -0.76614
 Alpha  occ. eigenvalues --   -0.69286  -0.61730  -0.60589  -0.55497  -0.51117
 Alpha  occ. eigenvalues --   -0.49005  -0.39478  -0.38094  -0.30333
 Alpha virt. eigenvalues --    0.03346   0.04651   0.05387   0.06226   0.07226
 Alpha virt. eigenvalues --    0.07769   0.10206   0.12455   0.12489   0.12898
 Alpha virt. eigenvalues --    0.13864   0.14042   0.15028   0.16712   0.16926

 Mulliken charges:
               1
     1  O   -2.673841
     2  C    1.439915
     3  C    0.126607
     4  C   -3.237418
     5  N   -2.585425
     6  H    1.431460
     7  H    1.653674
     8  H    1.196915
     9  H    1.324044
    10  H    1.324067
 Sum of Mulliken charges =  -0.00000

 Dipole moment (field-independent basis, Debye):
    X=             -1.5278    Y=              1.5881    Z=              0.0006  Tot=              2.2037

 Test job not archived.
 1\1\GINC-SE219\SP\RHF\Aug-CC-pVDZ\C3H5N1O1\OHZDE\09-Apr-2025\0\\#t hf
 aug-cc-pvdz iop(5/13=1,5/36=2,99/5=2) pseudo=read geom=check guess=(re
 ad,tcheck) scf=(maxcycle=1)\\title\\0,1\O,0,2.2393787,-0.19595096,1.58
 852711\C,0,1.97219318,-0.2455796,0.4021653\C,0,0.59245603,-0.11472346,
 -0.18516844\C,0,-1.72483662,0.18912885,-0.08019076\N,0,-0.43104723,0.0
 7025433,0.55894311\H,0,2.76414477,-0.39767304,-0.37352653\H,0,0.539840
 42,-0.18881216,-1.29038502\H,0,-1.70942783,0.10558715,-1.18309098\H,0,
 -2.38788481,-0.58580004,0.33367937\H,0,-2.1628966,1.15796393,0.2036688

 Normal termination of Gaussian 16 at Wed Apr  9 17:35:24 2025.
