 Gaussian 16, Revision C.01,

 ----------------------------------------------------------------------
 #t hf aug-cc-pvdz symm=none int=(grid=ultrafine) guess=(read,tcheck) s
 table=(opt,rrhf)
 ----------------------------------------------------------------------
 -----
 title
 -----
 Symbolic Z-matrix:
 Charge =  0 Multiplicity = 1

 SCF Done:  E(RHF) =  -295.856627465     A.U. after   15 cycles
 Normal termination of Gaussian 16 at Wed Apr  9 16:18:40 2025.
 Gaussian 16:  ES64L-G16RevC.01  3-Jul-2019

 ----------------------------------------------------------------------
 #t hf aug-cc-pvdz iop(5/13=1,5/36=2,99/5=2) pseudo=read geom=check gue
 ss=(read,tcheck) scf=(maxcycle=1)
 ----------------------------------------------------------------------
 -----
 title
 -----
 Structure from the checkpoint file:  "Grambow2020_b97d3_006784_reverse_mol2.chk"
 Charge =  0 Multiplicity = 1

                         Standard orientation:
 ---------------------------------------------------------------------
 Center     Atomic      Atomic             Coordinates (Angstroms)
 Number     Number       Type             X           Y           Z
 ---------------------------------------------------------------------
      1          7           0       -2.067403   -0.114122    0.027091
      2          6           0       -0.798063    0.023521   -0.041515
      3          7           0        0.090004   -1.104602   -0.138692
      4          7           0        1.386652   -0.586435    0.131701
      5          6           0        1.223268    0.786298    0.026054
      6          7           0       -0.001561    1.201376   -0.031164
      7          1           0       -2.482998    0.820567    0.091700
      8          1           0       -0.144155   -1.865268    0.498980
      9          1           0        2.115324   -1.012147   -0.447069
     10          1           0        2.106751    1.424413    0.026601
 ---------------------------------------------------------------------

 SCF Done:  E(RHF) =  -297.183010412     A.U. after    2 cycles

 The electronic state is 1-A.
 Alpha  occ. eigenvalues --  -15.80821 -15.78358 -15.74799 -15.71200 -11.48604
 Alpha  occ. eigenvalues --  -11.46432  -1.63372  -1.35410  -1.30540  -1.15954
 Alpha  occ. eigenvalues --   -0.89488  -0.82547  -0.74899  -0.67891  -0.62223
 Alpha  occ. eigenvalues --   -0.58717  -0.54347  -0.47039  -0.44195  -0.42367
 Alpha  occ. eigenvalues --   -0.38039  -0.29434
 Alpha virt. eigenvalues --    0.02914   0.04838   0.05762   0.06801   0.09153
 Alpha virt. eigenvalues --    0.10223   0.10950   0.12305   0.13334   0.13892
 Alpha virt. eigenvalues --    0.14653   0.15204   0.15796   0.17510   0.18164

 Mulliken charges:
               1
     1  N   -2.928768
     2  C    4.254855
     3  N   -1.815909
     4  N   -1.851399
     5  C    1.342523
     6  N   -2.708449
     7  H    0.616936
     8  H    0.729123
     9  H    0.782191
    10  H    1.578896
 Sum of Mulliken charges =   0.00000

 Dipole moment (field-independent basis, Debye):
    X=              4.5175    Y=             -0.6613    Z=              0.1066  Tot=              4.5669

 Test job not archived.
 1\1\GINC-SE226\SP\RHF\Aug-CC-pVDZ\C2H4N4\OHZDE\09-Apr-2025\0\\#t hf au
 g-cc-pvdz iop(5/13=1,5/36=2,99/5=2) pseudo=read geom=check guess=(read
 ,tcheck) scf=(maxcycle=1)\\title\\0,1\N,0,2.18693372,0.23717376,-0.052
 63871\C,0,0.91243596,0.18934466,0.03815437\N,0,0.20055322,-1.05440104,
 0.16887979\N,0,-1.16224955,-0.73570377,-0.08431319\C,0,-1.19952357,0.6
 478036,-0.00204102\N,0,-0.04773706,1.23804728,0.02565937\H,0,2.4603033
 2,1.22122558,-0.13893441\H,0,0.53267705,-1.7837277,-0.46186991\H,0,-1.
 81108013,-1.25304513,0.51447286\H,0,-2.16667395,1.15010476,0.00487786\

 Normal termination of Gaussian 16 at Wed Apr  9 16:18:43 2025.
