 Gaussian 16, Revision C.01,

 ----------------------------------------------------------------------
 #t hf aug-cc-pvdz symm=none int=(grid=ultrafine) guess=(read,tcheck) s
 table=(opt,rrhf)
 ----------------------------------------------------------------------
 -----
 title
 -----
 Symbolic Z-matrix:
 Charge =  0 Multiplicity = 1

 SCF Done:  E(RHF) =  -323.734985976     A.U. after   16 cycles
 Normal termination of Gaussian 16 at Wed Apr  9 18:19:28 2025.
 Gaussian 16:  ES64L-G16RevC.01  3-Jul-2019

 ----------------------------------------------------------------------
 #t hf aug-cc-pvdz iop(5/13=1,5/36=2,99/5=2) pseudo=read geom=check gue
 ss=(read,tcheck) scf=(maxcycle=1)
 ----------------------------------------------------------------------
 -----
 title
 -----
 Structure from the checkpoint file:  "Grambow2020_wb97xd3_006869_reverse_mol2.chk"
 Charge =  0 Multiplicity = 1

                         Standard orientation:
 ---------------------------------------------------------------------
 Center     Atomic      Atomic             Coordinates (Angstroms)
 Number     Number       Type             X           Y           Z
 ---------------------------------------------------------------------
      1          6           0        1.796447    0.886298   -0.931489
      2          7           0        1.247345    0.175511   -0.006203
      3          6           0        1.047524   -0.274575    1.216712
      4          6           0        0.145982   -0.764405    0.136490
      5          6           0       -1.239196   -0.220961   -0.107076
      6          8           0       -2.071139   -0.941261   -0.599852
      7          6           0       -1.565588    1.175333    0.362484
      8          1           0        3.415906   -2.063084   -0.271376
      9          1           0        2.559263    1.600692   -0.658702
     10          1           0        1.503031    0.717123   -1.955534
     11          1           0        3.048224   -1.836856    0.339897
     12          1           0        0.903664    0.302516    2.115943
     13          1           0        0.291760   -1.763431   -0.269863
     14          1           0       -2.380864    1.567872   -0.241460
     15          1           0       -1.905929    1.119860    1.399514
     16          1           0       -0.708371    1.846679    0.321094
 ---------------------------------------------------------------------

 SCF Done:  E(RHF) =  -325.262212446     A.U. after    2 cycles

 The electronic state is 1-A.
 Alpha  occ. eigenvalues --  -21.05689 -15.86273 -11.51246 -11.46413 -11.44573
 Alpha  occ. eigenvalues --  -11.40405 -11.38919  -1.71938  -1.56004  -1.16049
 Alpha  occ. eigenvalues --   -1.10348  -0.95851  -0.81583  -0.77307  -0.70101
 Alpha  occ. eigenvalues --   -0.67384  -0.65290  -0.60551  -0.60292  -0.55848
 Alpha  occ. eigenvalues --   -0.55152  -0.49393  -0.47725  -0.47588  -0.39769
 Alpha  occ. eigenvalues --   -0.30313  -0.26263
 Alpha virt. eigenvalues --    0.03179   0.04792   0.05162   0.05338   0.06282
 Alpha virt. eigenvalues --    0.06478   0.06739   0.07536   0.08989   0.09822
 Alpha virt. eigenvalues --    0.10642   0.11253   0.12181   0.13431   0.13696

 Mulliken charges:
               1
     1  C   -1.467880
     2  N   -2.228320
     3  C   -1.005036
     4  C   -0.786946
     5  C    3.736336
     6  O   -3.497275
     7  C   -4.728599
     8  H    0.158798
     9  H    1.459412
    10  H    1.693289
    11  H   -0.300414
    12  H    1.463226
    13  H    1.561166
    14  H    1.233573
    15  H    1.215958
    16  H    1.492712
 Sum of Mulliken charges =   0.00000

 Dipole moment (field-independent basis, Debye):
    X=              0.5769    Y=              2.1747    Z=             -0.4840  Tot=              2.3014

 Test job not archived.
 1\1\GINC-SE219\SP\RHF\Aug-CC-pVDZ\C5H9N1O1\OHZDE\09-Apr-2025\0\\#t hf
 aug-cc-pvdz iop(5/13=1,5/36=2,99/5=2) pseudo=read geom=check guess=(re
 ad,tcheck) scf=(maxcycle=1)\\title\\0,1\C,0,0.62991306,0.56328575,-1.7
 6127318\N,0,0.6993303,0.04663987,-0.58180608\C,0,1.20121092,-0.1681772
 1,0.6181928\C,0,-0.09153976,-0.82408961,0.27443989\C,0,-1.43671603,-0.
 30003696,0.70946117\O,0,-2.34657862,-1.07725032,0.85737444\C,0,-1.5742
 8875,1.16604222,1.03861399\H,0,2.57252611,-2.25568109,-1.56909537\H,0,
 1.36673002,1.29634537,-2.05518247\H,0,-0.14083315,0.2177789,-2.4320620

 Normal termination of Gaussian 16 at Wed Apr  9 18:19:33 2025.
