 Gaussian 16, Revision C.01,

 ----------------------------------------------------------------------
 #t hf aug-cc-pvdz symm=none int=(grid=ultrafine) guess=(read,tcheck) s
 table=(opt,rrhf)
 ----------------------------------------------------------------------
 -----
 title
 -----
 Symbolic Z-matrix:
 Charge =  0 Multiplicity = 1

 SCF Done:  E(RHF) =  -354.788781101     A.U. after   14 cycles
 Normal termination of Gaussian 16 at Wed Apr  9 03:39:44 2025.
 Gaussian 16:  ES64L-G16RevC.01  3-Jul-2019

 ----------------------------------------------------------------------
 #t hf aug-cc-pvdz iop(5/13=1,5/36=2,99/5=2) pseudo=read geom=check gue
 ss=(read,tcheck) scf=(maxcycle=1)
 ----------------------------------------------------------------------
 -----
 title
 -----
 Structure from the checkpoint file:  "Grambow2020_wb97xd3_007467_forward_mol2.chk"
 Charge =  0 Multiplicity = 1

                         Standard orientation:
 ---------------------------------------------------------------------
 Center     Atomic      Atomic             Coordinates (Angstroms)
 Number     Number       Type             X           Y           Z
 ---------------------------------------------------------------------
      1          7           0       -2.364834   -0.534191   -0.080724
      2          6           0       -1.068781   -0.020789   -0.000471
      3          6           0       -0.577879    1.229219    0.014723
      4          7           0        0.818665    1.117211    0.017993
      5          6           0        1.211214   -0.197835    0.005460
      6          8           0        2.335481   -0.654122   -0.016020
      7          7           0        0.012219   -0.891289    0.017354
      8          1           0       -2.652595   -1.011039    0.762933
      9          1           0       -3.039945    0.175743   -0.316832
     10          1           0       -1.085743    2.176772    0.041164
     11          1           0        1.481360    1.867101   -0.022247
     12          1           0       -0.036607   -1.881281   -0.137498
 ---------------------------------------------------------------------

 SCF Done:  E(RHF) =  -356.363894425     A.U. after    2 cycles

 The electronic state is 1-A.
 Alpha  occ. eigenvalues --  -21.00591 -15.77809 -15.77586 -15.77285 -11.48980
 Alpha  occ. eigenvalues --  -11.47960 -11.40026  -1.70898  -1.54362  -1.36084
 Alpha  occ. eigenvalues --   -1.28841  -1.05154  -0.87580  -0.84639  -0.71532
 Alpha  occ. eigenvalues --   -0.67490  -0.63632  -0.62246  -0.59271  -0.57615
 Alpha  occ. eigenvalues --   -0.48803  -0.46087  -0.41537  -0.37193  -0.28595
 Alpha  occ. eigenvalues --   -0.22928
 Alpha virt. eigenvalues --    0.02872   0.04508   0.05073   0.06398   0.06631
 Alpha virt. eigenvalues --    0.10517   0.11001   0.11286   0.12162   0.12434
 Alpha virt. eigenvalues --    0.13593   0.14135   0.14710   0.15527   0.16907

 Mulliken charges:
               1
     1  N   -3.277955
     2  C    4.070843
     3  C   -0.756234
     4  N   -2.684798
     5  C    4.893725
     6  O   -3.229208
     7  N   -2.953858
     8  H    0.518214
     9  H    0.548802
    10  H    1.355418
    11  H    0.739690
    12  H    0.775361
 Sum of Mulliken charges =   0.00000

 Dipole moment (field-independent basis, Debye):
    X=             -3.7032    Y=              1.3665    Z=              0.5508  Tot=              3.9855

 Test job not archived.
 1\1\GINC-SE125\SP\RHF\Aug-CC-pVDZ\C3H5N3O1\OHZDE\09-Apr-2025\0\\#t hf
 aug-cc-pvdz iop(5/13=1,5/36=2,99/5=2) pseudo=read geom=check guess=(re
 ad,tcheck) scf=(maxcycle=1)\\title\\0,1\N,0,2.04996204,-0.1836757,0.04
 176022\C,0,0.668868,0.01833032,0.00242711\C,0,-0.09557351,1.12253409,-
 0.00748845\N,0,-1.42867722,0.69416605,0.0397132\C,0,-1.5089059,-0.6753
 7041,0.07884105\O,0,-2.49745051,-1.37616105,0.14447837\N,0,-0.18395644
 ,-1.07643429,0.03126324\H,0,2.41198491,-0.59680309,-0.80689299\H,0,2.5
 5172297,0.66582652,0.24696817\H,0,0.18058459,2.16048994,-0.06103804\H,

 Normal termination of Gaussian 16 at Wed Apr  9 03:39:49 2025.
