 Gaussian 16, Revision C.01,

 ----------------------------------------------------------------------
 #t hf aug-cc-pvdz symm=none int=(grid=ultrafine) guess=(read,tcheck) s
 table=(opt,rrhf)
 ----------------------------------------------------------------------
 -----
 title
 -----
 Symbolic Z-matrix:
 Charge =  0 Multiplicity = 1

 SCF Done:  E(RHF) =  -374.443316316     A.U. after   17 cycles
 Normal termination of Gaussian 16 at Wed Apr  9 19:33:58 2025.
 Gaussian 16:  ES64L-G16RevC.01  3-Jul-2019

 ----------------------------------------------------------------------
 #t hf aug-cc-pvdz iop(5/13=1,5/36=2,99/5=2) pseudo=read geom=check gue
 ss=(read,tcheck) scf=(maxcycle=1)
 ----------------------------------------------------------------------
 -----
 title
 -----
 Structure from the checkpoint file:  "Grambow2020_wb97xd3_009449_forward_mol1.chk"
 Charge =  0 Multiplicity = 1

                         Standard orientation:
 ---------------------------------------------------------------------
 Center     Atomic      Atomic             Coordinates (Angstroms)
 Number     Number       Type             X           Y           Z
 ---------------------------------------------------------------------
      1          8           0        2.329160   -0.645131   -0.157823
      2          6           0        1.085769   -0.231635    0.087472
      3          7           0       -0.081850   -0.964061    0.010271
      4          6           0       -1.071002   -0.094682   -0.029383
      5          8           0       -2.364723   -0.444369   -0.011284
      6          6           0       -0.614828    1.224596   -0.040535
      7          7           0        0.720203    1.127446    0.011083
      8          1           0        1.582424   -0.442962    1.115239
      9          1           0       -2.401174   -1.406212   -0.016029
     10          1           0       -1.155287    2.154731    0.012787
     11          1           0        1.390433    1.877076   -0.013943
 ---------------------------------------------------------------------

 SCF Done:  E(RHF) =  -376.069883117     A.U. after    2 cycles

 The electronic state is 1-A.
 Alpha  occ. eigenvalues --  -21.12805 -21.00326 -15.84245 -15.75996 -11.51271
 Alpha  occ. eigenvalues --  -11.47061 -11.44802  -1.79949  -1.69002  -1.52773
 Alpha  occ. eigenvalues --   -1.31154  -1.07187  -0.88447  -0.83777  -0.76906
 Alpha  occ. eigenvalues --   -0.70383  -0.64700  -0.59910  -0.57682  -0.50064
 Alpha  occ. eigenvalues --   -0.47340  -0.44198  -0.43246  -0.34205  -0.28791
 Alpha  occ. eigenvalues --   -0.20291
 Alpha virt. eigenvalues --    0.02370   0.04366   0.05012   0.05296   0.06814
 Alpha virt. eigenvalues --    0.10087   0.10503   0.10738   0.11795   0.12114
 Alpha virt. eigenvalues --    0.13057   0.14075   0.14151   0.15523   0.16605

 Mulliken charges:
               1
     1  O   -2.623181
     2  C    3.360311
     3  N   -3.055197
     4  C    5.288572
     5  O   -3.608261
     6  C   -0.914458
     7  N   -2.544922
     8  H    1.172425
     9  H    0.878069
    10  H    1.331115
    11  H    0.715528
 Sum of Mulliken charges =   0.00000

 Dipole moment (field-independent basis, Debye):
    X=             -1.1745    Y=              3.1532    Z=              0.6494  Tot=              3.4269

 Test job not archived.
 1\1\GINC-SE035\SP\RHF\Aug-CC-pVDZ\C3H4N2O2\OHZDE\09-Apr-2025\0\\#t hf
 aug-cc-pvdz iop(5/13=1,5/36=2,99/5=2) pseudo=read geom=check guess=(re
 ad,tcheck) scf=(maxcycle=1)\\title\\0,1\O,0,-2.3429753,0.81127932,-0.9
 4995911\C,0,-1.1339163,0.41566693,-0.55141709\N,0,0.02887631,1.1583816
 6,-0.50635968\C,0,1.02261643,0.29862286,-0.41091658\O,0,2.30241357,0.6
 6192449,-0.24826812\C,0,0.58131415,-1.02524344,-0.44755074\N,0,-0.7512
 2665,-0.94083932,-0.5553493\H,0,-1.74980445,0.64258918,0.40608806\H,0,
 2.33160855,1.62379975,-0.26916339\H,0,1.11902571,-1.94848933,-0.311264

 Normal termination of Gaussian 16 at Wed Apr  9 19:34:02 2025.
