 Gaussian 16, Revision C.01,

 ----------------------------------------------------------------------
 #t hf aug-cc-pvdz symm=none int=(grid=ultrafine) guess=(read,tcheck) s
 table=(opt,rrhf)
 ----------------------------------------------------------------------
 -----
 title
 -----
 Symbolic Z-matrix:
 Charge =  0 Multiplicity = 1

 SCF Done:  E(RHF) =  -360.771060141     A.U. after   15 cycles
 Normal termination of Gaussian 16 at Wed Apr  9 18:09:51 2025.
 Gaussian 16:  ES64L-G16RevC.01  3-Jul-2019

 ----------------------------------------------------------------------
 #t hf aug-cc-pvdz iop(5/13=1,5/36=2,99/5=2) pseudo=read geom=check gue
 ss=(read,tcheck) scf=(maxcycle=1)
 ----------------------------------------------------------------------
 -----
 title
 -----
 Structure from the checkpoint file:  "Grambow2020_wb97xd3_006621_reverse_mol1.chk"
 Charge =  0 Multiplicity = 1

                         Standard orientation:
 ---------------------------------------------------------------------
 Center     Atomic      Atomic             Coordinates (Angstroms)
 Number     Number       Type             X           Y           Z
 ---------------------------------------------------------------------
      1          6           0       -2.387729   -0.457503   -0.321768
      2          6           0       -1.120316   -0.012074    0.373636
      3          8           0       -0.119803   -1.006088    0.278560
      4          6           0       -0.464458    1.225120   -0.254111
      5          7           0        0.944790    1.176601    0.114743
      6          6           0        1.388897   -0.155406    0.069556
      7          8           0        2.181555   -0.705251   -0.597363
      8          1           0       -3.142562    0.331417   -0.287275
      9          1           0       -2.797845   -1.345262    0.159053
     10          1           0       -2.178824   -0.698057   -1.365424
     11          1           0       -1.330382    0.195905    1.432079
     12          1           0        0.659742   -0.970806    1.269101
     13          1           0       -0.549257    1.178754   -1.342132
     14          1           0       -0.904284    2.160682    0.087023
     15          1           0        1.122450    1.582442    1.021852
     16          1           0        1.515054   -0.581386    1.569074
 ---------------------------------------------------------------------

 SCF Done:  E(RHF) =  -362.471066117     A.U. after    2 cycles

 The electronic state is 1-A.
 Alpha  occ. eigenvalues --  -21.07172 -21.05169 -15.77584 -11.57640 -11.48375
 Alpha  occ. eigenvalues --  -11.43156 -11.38077  -1.79985  -1.70523  -1.41214
 Alpha  occ. eigenvalues --   -1.16797  -1.01685  -0.86681  -0.83675  -0.79039
 Alpha  occ. eigenvalues --   -0.66444  -0.65416  -0.61132  -0.57987  -0.56763
 Alpha  occ. eigenvalues --   -0.53652  -0.51429  -0.50457  -0.42970  -0.40463
 Alpha  occ. eigenvalues --   -0.37168  -0.30426  -0.29319
 Alpha virt. eigenvalues --    0.03389   0.04539   0.04791   0.05203   0.05649
 Alpha virt. eigenvalues --    0.05805   0.06871   0.07757   0.09579   0.10791
 Alpha virt. eigenvalues --    0.11975   0.12204   0.13387   0.13969   0.14221

 Mulliken charges:
               1
     1  C   -3.516328
     2  C    0.091091
     3  O   -2.996758
     4  C   -2.033849
     5  N   -2.513931
     6  C    4.528706
     7  O   -3.043276
     8  H    1.134753
     9  H    1.206740
    10  H    1.210213
    11  H    1.769967
    12  H    0.991261
    13  H    1.458561
    14  H    1.364821
    15  H    0.676987
    16  H   -0.328958
 Sum of Mulliken charges =  -0.00000

 Dipole moment (field-independent basis, Debye):
    X=             -2.7645    Y=              1.5845    Z=              0.0560  Tot=              3.1869

 Test job not archived.
 1\1\GINC-SE029\SP\RHF\Aug-CC-pVDZ\C4H9N1O2\OHZDE\09-Apr-2025\0\\#t hf
 aug-cc-pvdz iop(5/13=1,5/36=2,99/5=2) pseudo=read geom=check guess=(re
 ad,tcheck) scf=(maxcycle=1)\\title\\0,1\C,0,-1.97544123,-0.52756548,-0
 .45750227\C,0,-0.46656885,-0.43599425,-0.40052177\O,0,-0.02029536,0.81
 002161,-0.89692312\C,0,0.10977234,-0.48864961,1.02071827\N,0,1.4117952
 3,0.1637953,0.96206468\C,0,1.33626537,1.26969641,0.09904954\O,0,1.4557
 5084,2.42302435,0.27504093\H,0,-2.31952389,-1.47202895,-0.02977151\H,0
 ,-2.32492911,-0.47076074,-1.48810007\H,0,-2.42305129,0.29511803,0.1024

 Normal termination of Gaussian 16 at Wed Apr  9 18:09:56 2025.
