 Gaussian 16, Revision C.01,

 ----------------------------------------------------------------------
 #t hf aug-cc-pvdz symm=none int=(grid=ultrafine) guess=(read,tcheck) s
 table=(opt,rrhf)
 ----------------------------------------------------------------------
 -----
 title
 -----
 Symbolic Z-matrix:
 Charge =  0 Multiplicity = 1

 SCF Done:  E(RHF) =  -268.813104851     A.U. after   13 cycles
 Normal termination of Gaussian 16 at Wed Apr  9 03:20:33 2025.
 Gaussian 16:  ES64L-G16RevC.01  3-Jul-2019

 ----------------------------------------------------------------------
 #t hf aug-cc-pvdz iop(5/13=1,5/36=2,99/5=2) pseudo=read geom=check gue
 ss=(read,tcheck) scf=(maxcycle=1)
 ----------------------------------------------------------------------
 -----
 title
 -----
 Structure from the checkpoint file:  "Grambow2020_wb97xd3_006046_forward_mol2.chk"
 Charge =  0 Multiplicity = 1

                         Standard orientation:
 ---------------------------------------------------------------------
 Center     Atomic      Atomic             Coordinates (Angstroms)
 Number     Number       Type             X           Y           Z
 ---------------------------------------------------------------------
      1          6           0        1.991259    1.061342    0.145114
      2          8           0        1.844746   -0.196678   -0.465989
      3          6           0        0.897226   -1.017977    0.169207
      4          6           0       -0.480089   -0.513592    0.086753
      5          6           0       -1.603722   -0.100669    0.020794
      6          6           0       -2.971895    0.395837   -0.061129
      7          1           0        2.285189    0.959290    1.198419
      8          1           0        2.777684    1.588515   -0.392601
      9          1           0        1.065042    1.644629    0.094817
     10          1           0        0.959568   -1.989906   -0.322759
     11          1           0        1.162800   -1.162059    1.226470
     12          1           0       -3.389007    0.228198   -1.055046
     13          1           0       -3.607934   -0.110949    0.666160
     14          1           0       -3.007992    1.466059    0.148018
 ---------------------------------------------------------------------

 SCF Done:  E(RHF) =  -270.082631294     A.U. after    2 cycles

 The electronic state is 1-A.
 Alpha  occ. eigenvalues --  -21.04666 -11.48735 -11.43910 -11.39685 -11.38803
 Alpha  occ. eigenvalues --  -11.38161  -1.75856  -1.18286  -1.07965  -0.98562
 Alpha  occ. eigenvalues --   -0.90640  -0.68328  -0.65761  -0.61787  -0.59145
 Alpha  occ. eigenvalues --   -0.58513  -0.58027  -0.56023  -0.51461  -0.40273
 Alpha  occ. eigenvalues --   -0.35137  -0.34290  -0.30248
 Alpha virt. eigenvalues --    0.03012   0.04930   0.05769   0.05904   0.06206
 Alpha virt. eigenvalues --    0.06895   0.07143   0.08140   0.09551   0.11337
 Alpha virt. eigenvalues --    0.12178   0.12845   0.13447   0.14206   0.15546

 Mulliken charges:
               1
     1  C   -2.815175
     2  O   -2.781719
     3  C   -1.997747
     4  C    1.617382
     5  C    2.437808
     6  C   -5.017123
     7  H    1.314926
     8  H    1.255734
     9  H    1.477686
    10  H    0.818860
    11  H    1.017643
    12  H    0.904709
    13  H    0.890488
    14  H    0.876527
 Sum of Mulliken charges =  -0.00000

 Dipole moment (field-independent basis, Debye):
    X=             -0.6310    Y=              0.3700    Z=              0.3194  Tot=              0.7982

 Test job not archived.
 1\1\GINC-SE132\SP\RHF\Aug-CC-pVDZ\C5H8O1\OHZDE\09-Apr-2025\0\\#t hf au
 g-cc-pvdz iop(5/13=1,5/36=2,99/5=2) pseudo=read geom=check guess=(read
 ,tcheck) scf=(maxcycle=1)\\title\\0,1\C,0,-2.30134524,0.24555556,-0.14
 645882\O,0,-1.80111764,-1.06863869,-0.1325356\C,0,-0.6982077,-1.254313
 55,-0.98395526\C,0,0.49878591,-0.50350148,-0.58184945\C,0,1.47487274,0
 .1108344,-0.25435513\C,0,2.66512044,0.8527529,0.14312895\H,0,-2.602697
 44,0.54498814,-1.15927104\H,0,-3.17541291,0.26200673,0.50257687\H,0,-1
 .56119799,0.9629264,0.22528429\H,0,-0.47999956,-2.32330065,-0.96931043

 Normal termination of Gaussian 16 at Wed Apr  9 03:20:37 2025.
