 Gaussian 16, Revision C.01,

 ----------------------------------------------------------------------
 #t hf aug-cc-pvdz symm=none int=(grid=ultrafine) guess=(read,tcheck) s
 table=(opt,rrhf)
 ----------------------------------------------------------------------
 -----
 title
 -----
 Symbolic Z-matrix:
 Charge =  0 Multiplicity = 1

 SCF Done:  E(RHF) =  -289.209670362     A.U. after   12 cycles

 1\1\GINC-SE219\Stability\RHF\Aug-CC-pVDZ\C6H13N1\OHZDE\09-Apr-2025\0\\
 #t hf aug-cc-pvdz symm=none int=(grid=ultrafine) guess=(read,tcheck) s
 table=(opt,rrhf)\\title\\0,1\C,0,-1.00627866,1.68846906,0.52966315\C,0
 ,-0.73149731,0.24630003,0.86367649\N,0,-0.76040578,-0.74456005,-0.1932
 8193\C,0,-1.48173754,-1.97191642,0.05981326\C,0,0.48298752,-0.54579093
 ,0.51866869\C,0,1.73430295,-0.11748028,-0.21793164\C,0,1.57422646,0.88
 333063,-1.3541621\H,0,-2.06395629,1.91277008,0.68454264\H,0,-0.4257015
 4,2.35738618,1.16906089\H,0,-0.76814299,1.90456668,-0.50908015\H,0,-1.

 Normal termination of Gaussian 16 at Wed Apr  9 19:31:36 2025.
 Gaussian 16:  ES64L-G16RevC.01  3-Jul-2019

 ----------------------------------------------------------------------
 #t hf aug-cc-pvdz iop(5/13=1,5/36=2,99/5=2) pseudo=read geom=check gue
 ss=(read,tcheck) scf=(maxcycle=1)
 ----------------------------------------------------------------------
 -----
 title
 -----
 Structure from the checkpoint file:  "Grambow2020_wb97xd3_009126_reverse_mol2.chk"
 Charge =  0 Multiplicity = 1

                         Standard orientation:
 ---------------------------------------------------------------------
 Center     Atomic      Atomic             Coordinates (Angstroms)
 Number     Number       Type             X           Y           Z
 ---------------------------------------------------------------------
      1          6           0        0.004740    2.072567   -0.064838
      2          6           0       -0.653651    0.824193    0.459572
      3          7           0       -0.877250   -0.290715   -0.438640
      4          6           0       -2.178719   -0.920224   -0.412619
      5          6           0       -0.014967   -0.500148    0.703733
      6          6           0        1.426460   -0.922912    0.515642
      7          6           0        2.188560   -0.322321   -0.657712
      8          1           0       -0.754957    2.793472   -0.374896
      9          1           0        0.619764    2.545222    0.704378
     10          1           0        0.630278    1.855482   -0.927375
     11          1           0       -1.475530    1.026795    1.148400
     12          1           0       -2.097426   -1.942961   -0.785498
     13          1           0       -2.616345   -0.953739    0.597170
     14          1           0       -2.862162   -0.373553   -1.065184
     15          1           0        1.960461   -0.722848    1.450215
     16          1           0       -0.482655   -1.040491    1.529558
     17          1           0        1.417781   -2.012795    0.406642
     18          1           0        1.599675   -0.383564   -1.573765
     19          1           0        3.121612   -0.866116   -0.815174
     20          1           0        2.445708    0.723171   -0.486669
 ---------------------------------------------------------------------

 SCF Done:  E(RHF) =  -290.679986464     A.U. after    2 cycles

 The electronic state is 1-A.
 Alpha  occ. eigenvalues --  -15.70499 -11.50004 -11.42340 -11.39872 -11.37694
 Alpha  occ. eigenvalues --  -11.37517 -11.35090  -1.48367  -1.16728  -1.10491
 Alpha  occ. eigenvalues --   -1.02289  -0.92624  -0.82167  -0.78250  -0.67949
 Alpha  occ. eigenvalues --   -0.61426  -0.60040  -0.58598  -0.56841  -0.55818
 Alpha  occ. eigenvalues --   -0.54132  -0.50428  -0.48748  -0.47327  -0.43844
 Alpha  occ. eigenvalues --   -0.39286  -0.38827  -0.32170
 Alpha virt. eigenvalues --    0.04168   0.05287   0.05480   0.05615   0.05701
 Alpha virt. eigenvalues --    0.05875   0.06162   0.06195   0.06970   0.08199
 Alpha virt. eigenvalues --    0.08318   0.08581   0.09688   0.12552   0.13202

 Mulliken charges:
               1
     1  C   -4.201206
     2  C   -0.473989
     3  N   -1.967316
     4  C   -3.620393
     5  C    0.508154
     6  C   -3.155587
     7  C   -4.189354
     8  H    1.012466
     9  H    1.187368
    10  H    1.427858
    11  H    1.571244
    12  H    1.476759
    13  H    1.276355
    14  H    1.452398
    15  H    1.174799
    16  H    1.422809
    17  H    1.166419
    18  H    1.453859
    19  H    0.994290
    20  H    1.483068
 Sum of Mulliken charges =  -0.00000

 Dipole moment (field-independent basis, Debye):
    X=             -0.3320    Y=             -0.1057    Z=              0.5238  Tot=              0.6291

 Test job not archived.
 1\1\GINC-SE219\SP\RHF\Aug-CC-pVDZ\C6H13N1\OHZDE\09-Apr-2025\0\\#t hf a
 ug-cc-pvdz iop(5/13=1,5/36=2,99/5=2) pseudo=read geom=check guess=(rea
 d,tcheck) scf=(maxcycle=1)\\title\\0,1\C,0,-1.00627866,1.68846906,0.52
 966315\C,0,-0.73149731,0.24630003,0.86367649\N,0,-0.76040578,-0.744560
 05,-0.19328193\C,0,-1.48173754,-1.97191642,0.05981326\C,0,0.48298752,-
 0.54579093,0.51866869\C,0,1.73430295,-0.11748028,-0.21793164\C,0,1.574
 22646,0.88333063,-1.3541621\H,0,-2.06395629,1.91277008,0.68454264\H,0,
 -0.42570154,2.35738618,1.16906089\H,0,-0.76814299,1.90456668,-0.509080

 Normal termination of Gaussian 16 at Wed Apr  9 19:31:44 2025.
