 Gaussian 16, Revision C.01,

 ----------------------------------------------------------------------
 #t hf aug-cc-pvdz symm=none int=(grid=ultrafine) guess=(read,tcheck) s
 table=(opt,rrhf)
 ----------------------------------------------------------------------
 -----
 title
 -----
 Symbolic Z-matrix:
 Charge =  0 Multiplicity = 1

 SCF Done:  E(RHF) =  -325.120159577     A.U. after   13 cycles
 Normal termination of Gaussian 16 at Wed Apr  9 19:07:10 2025.
 Gaussian 16:  ES64L-G16RevC.01  3-Jul-2019

 ----------------------------------------------------------------------
 #t hf aug-cc-pvdz iop(5/13=1,5/36=2,99/5=2) pseudo=read geom=check gue
 ss=(read,tcheck) scf=(maxcycle=1)
 ----------------------------------------------------------------------
 -----
 title
 -----
 Structure from the checkpoint file:  "Grambow2020_wb97xd3_008110_forward_mol2.chk"
 Charge =  0 Multiplicity = 1

                         Standard orientation:
 ---------------------------------------------------------------------
 Center     Atomic      Atomic             Coordinates (Angstroms)
 Number     Number       Type             X           Y           Z
 ---------------------------------------------------------------------
      1          6           0       -2.730489    0.012015   -0.163521
      2          7           0       -1.366073    0.053282   -0.634197
      3          6           0       -0.296921   -0.023997    0.198780
      4          8           0       -0.407006   -0.122882    1.405671
      5          6           0        1.066727    0.033176   -0.479312
      6          6           0        1.815011    1.275220    0.000181
      7          6           0        1.843369   -1.243385   -0.165715
      8          1           0       -3.222910   -0.923604   -0.439496
      9          1           0       -3.304289    0.847103   -0.568902
     10          1           0       -2.709669    0.086936    0.921605
     11          1           0       -1.193701    0.111100   -1.620733
     12          1           0        0.924517    0.103469   -1.563457
     13          1           0        1.940359    1.238762    1.083187
     14          1           0        1.273298    2.190245   -0.247654
     15          1           0        2.802314    1.328236   -0.462752
     16          1           0        2.830560   -1.213165   -0.630928
     17          1           0        1.969612   -1.346937    0.912770
     18          1           0        1.322287   -2.130242   -0.532111
 ---------------------------------------------------------------------

 SCF Done:  E(RHF) =  -326.673258330     A.U. after    2 cycles

 The electronic state is 1-A.
 Alpha  occ. eigenvalues --  -21.00898 -15.75920 -11.50409 -11.42289 -11.39394
 Alpha  occ. eigenvalues --  -11.38405 -11.36066  -1.69955  -1.39102  -1.22663
 Alpha  occ. eigenvalues --   -1.02270  -1.00561  -0.87801  -0.77603  -0.69418
 Alpha  occ. eigenvalues --   -0.63631  -0.62121  -0.58799  -0.56783  -0.55843
 Alpha  occ. eigenvalues --   -0.53739  -0.50516  -0.49226  -0.45841  -0.45010
 Alpha  occ. eigenvalues --   -0.43520  -0.30121  -0.27527
 Alpha virt. eigenvalues --    0.03438   0.04763   0.04970   0.05375   0.05600
 Alpha virt. eigenvalues --    0.05738   0.06909   0.07514   0.07849   0.08289
 Alpha virt. eigenvalues --    0.08791   0.11030   0.12324   0.13669   0.14340

 Mulliken charges:
               1
     1  C   -3.644371
     2  N   -3.400029
     3  C    6.827061
     4  O   -3.546630
     5  C   -2.857419
     6  C   -3.893140
     7  C   -3.931914
     8  H    1.365901
     9  H    1.368626
    10  H    1.385728
    11  H    0.759592
    12  H    1.808593
    13  H    1.368814
    14  H    1.256707
    15  H    1.251317
    16  H    1.238649
    17  H    1.388352
    18  H    1.254161
 Sum of Mulliken charges =   0.00000

 Dipole moment (field-independent basis, Debye):
    X=             -0.5708    Y=              0.1857    Z=             -2.2902  Tot=              2.3676

 Test job not archived.
 1\1\GINC-SE014\SP\RHF\Aug-CC-pVDZ\C5H11N1O1\OHZDE\09-Apr-2025\0\\#t hf
  aug-cc-pvdz iop(5/13=1,5/36=2,99/5=2) pseudo=read geom=check guess=(r
 ead,tcheck) scf=(maxcycle=1)\\title\\0,1\C,0,2.84331395,0.37098013,-0.
 17166227\N,0,1.45811843,0.24063598,-0.5578166\C,0,0.46049111,0.0288859
 3,0.33817948\O,0,0.65892426,-0.07800036,1.53303544\C,0,-0.93944404,-0.
 07950465,-0.2543142\C,0,-1.49767553,-1.47310994,0.0263197\C,0,-1.82843
 088,1.00941106,0.34157886\H,0,3.20040951,1.39628255,-0.29520415\H,0,3.
 47321811,-0.29685384,-0.76172203\H,0,2.92192839,0.09974777,0.87895533\

 Normal termination of Gaussian 16 at Wed Apr  9 19:07:17 2025.
