 Gaussian 16, Revision C.01,

 ----------------------------------------------------------------------
 #t hf aug-cc-pvdz symm=none int=(grid=ultrafine) guess=(read,tcheck) s
 table=(opt,rrhf)
 ----------------------------------------------------------------------
 -----
 title
 -----
 Symbolic Z-matrix:
 Charge =  0 Multiplicity = 1

 SCF Done:  E(RHF) =  -308.884306079     A.U. after   14 cycles

 1\1\GINC-SE340\Stability\RHF\Aug-CC-pVDZ\C6H12O1\OHZDE\09-Apr-2025\0\\
 #t hf aug-cc-pvdz symm=none int=(grid=ultrafine) guess=(read,tcheck) s
 table=(opt,rrhf)\\title\\0,1\C,0,2.38108665,-0.07223059,-0.08743101\C,
 0,0.94393264,-0.26874154,0.35248322\O,0,0.96276166,-0.59630458,1.73577
 103\C,0,0.09960703,0.95644327,0.10595386\C,0,-0.64516471,1.11950116,-1
 .18682063\C,0,-1.39659666,1.03079493,0.09886603\C,0,-2.09009898,-1.055
 75719,0.12458241\H,0,2.43031933,0.10525858,-1.16305001\H,0,2.97012982,
 -0.95931074,0.14823887\H,0,2.82351565,0.78013332,0.43116842\H,0,0.5188

 Normal termination of Gaussian 16 at Wed Apr  9 18:43:51 2025.
 Gaussian 16:  ES64L-G16RevC.01  3-Jul-2019

 ----------------------------------------------------------------------
 #t hf aug-cc-pvdz iop(5/13=1,5/36=2,99/5=2) pseudo=read geom=check gue
 ss=(read,tcheck) scf=(maxcycle=1)
 ----------------------------------------------------------------------
 -----
 title
 -----
 Structure from the checkpoint file:  "Grambow2020_wb97xd3_007580_forward_mol1.chk"
 Charge =  0 Multiplicity = 1

                         Standard orientation:
 ---------------------------------------------------------------------
 Center     Atomic      Atomic             Coordinates (Angstroms)
 Number     Number       Type             X           Y           Z
 ---------------------------------------------------------------------
      1          6           0       -2.243947    0.441302    0.530464
      2          6           0       -0.925198   -0.229587    0.201280
      3          8           0       -1.218176   -1.396605   -0.555932
      4          6           0        0.003436    0.681856   -0.561380
      5          6           0        0.984444    1.552016    0.168678
      6          6           0        1.476079    0.498232   -0.765850
      7          6           0        2.059995   -1.132369    0.588952
      8          1           0       -2.082197    1.303529    1.179529
      9          1           0       -2.905202   -0.260840    1.039542
     10          1           0       -2.738105    0.775728   -0.383418
     11          1           0       -0.438523   -0.519658    1.141985
     12          1           0       -0.463955   -1.588084   -1.116921
     13          1           0       -0.465034    1.088711   -1.456659
     14          1           0        1.030321    1.404877    1.241909
     15          1           0        1.155094    2.578845   -0.135271
     16          1           0        2.188915   -0.460316   -0.502463
     17          1           0        2.027128   -0.560981    1.506951
     18          1           0        3.040933   -1.589418    0.449651
     19          1           0        1.267168   -1.868254    0.509753
 ---------------------------------------------------------------------

 SCF Done:  E(RHF) =  -310.399225656     A.U. after    2 cycles

 The electronic state is 1-A.
 Alpha  occ. eigenvalues --  -21.06299 -11.46729 -11.42798 -11.42258 -11.40851
 Alpha  occ. eigenvalues --  -11.38545 -11.36604  -1.71576  -1.31819  -1.11421
 Alpha  occ. eigenvalues --   -1.06524  -0.91743  -0.83766  -0.78663  -0.67562
 Alpha  occ. eigenvalues --   -0.66530  -0.61860  -0.58669  -0.58190  -0.55810
 Alpha  occ. eigenvalues --   -0.53596  -0.49845  -0.49492  -0.46337  -0.39412
 Alpha  occ. eigenvalues --   -0.37633  -0.31734  -0.29095
 Alpha virt. eigenvalues --    0.03618   0.04792   0.05146   0.05483   0.05613
 Alpha virt. eigenvalues --    0.06317   0.06483   0.06575   0.07122   0.08459
 Alpha virt. eigenvalues --    0.08850   0.09662   0.11113   0.11999   0.13144

 Mulliken charges:
               1
     1  C   -4.128827
     2  C    0.101844
     3  O   -3.395211
     4  C   -0.218294
     5  C   -2.384618
     6  C   -1.632596
     7  C   -5.137385
     8  H    1.222839
     9  H    1.120719
    10  H    1.187533
    11  H    1.938912
    12  H    0.916439
    13  H    1.295877
    14  H    1.513364
    15  H    1.185510
    16  H    2.687028
    17  H    1.605684
    18  H    0.807119
    19  H    1.314063
 Sum of Mulliken charges =  -0.00000

 Dipole moment (field-independent basis, Debye):
    X=              0.3358    Y=             -0.4986    Z=              1.7201  Tot=              1.8221

 Test job not archived.
 1\1\GINC-SE340\SP\RHF\Aug-CC-pVDZ\C6H12O1\OHZDE\09-Apr-2025\0\\#t hf a
 ug-cc-pvdz iop(5/13=1,5/36=2,99/5=2) pseudo=read geom=check guess=(rea
 d,tcheck) scf=(maxcycle=1)\\title\\0,1\C,0,2.38108665,-0.07223059,-0.0
 8743101\C,0,0.94393264,-0.26874154,0.35248322\O,0,0.96276166,-0.596304
 58,1.73577103\C,0,0.09960703,0.95644327,0.10595386\C,0,-0.64516471,1.1
 1950116,-1.18682063\C,0,-1.39659666,1.03079493,0.09886603\C,0,-2.09009
 898,-1.05575719,0.12458241\H,0,2.43031933,0.10525858,-1.16305001\H,0,2
 .97012982,-0.95931074,0.14823887\H,0,2.82351565,0.78013332,0.43116842\

 Normal termination of Gaussian 16 at Wed Apr  9 18:43:57 2025.
