 Gaussian 16, Revision C.01,

 ----------------------------------------------------------------------
 #t hf aug-cc-pvdz symm=none int=(grid=ultrafine) guess=(read,tcheck) s
 table=(opt,rrhf)
 ----------------------------------------------------------------------
 -----
 title
 -----
 Symbolic Z-matrix:
 Charge =  0 Multiplicity = 1

 SCF Done:  E(RHF) =  -302.733095044     A.U. after   15 cycles
 Normal termination of Gaussian 16 at Wed Apr  9 19:30:13 2025.
 Gaussian 16:  ES64L-G16RevC.01  3-Jul-2019

 ----------------------------------------------------------------------
 #t hf aug-cc-pvdz iop(5/13=1,5/36=2,99/5=2) pseudo=read geom=check gue
 ss=(read,tcheck) scf=(maxcycle=1)
 ----------------------------------------------------------------------
 -----
 title
 -----
 Structure from the checkpoint file:  "Grambow2020_wb97xd3_009074_reverse_mol1.chk"
 Charge =  0 Multiplicity = 1

                         Standard orientation:
 ---------------------------------------------------------------------
 Center     Atomic      Atomic             Coordinates (Angstroms)
 Number     Number       Type             X           Y           Z
 ---------------------------------------------------------------------
      1          6           0        2.430739   -0.540925   -0.006495
      2          7           0        1.162073   -0.014284   -0.466124
      3          6           0        0.630631    0.991733    0.224702
      4          6           0       -0.761865    1.292089   -0.117159
      5          6           0       -1.140724    0.002039    0.006778
      6          6           0       -2.465482   -0.664781   -0.023257
      7          7           0       -0.013928   -0.780411    0.262915
      8          1           0        2.531741   -0.506288    1.083974
      9          1           0        3.225593    0.038571   -0.477107
     10          1           0        2.508168   -1.574747   -0.336300
     11          1           0        1.179407    1.448524    1.056064
     12          1           0       -1.258530    2.223955   -0.317932
     13          1           0       -2.488136   -1.376990   -0.851619
     14          1           0       -3.271896    0.057813   -0.139349
     15          1           0       -2.623156   -1.228910    0.897314
 ---------------------------------------------------------------------

 SCF Done:  E(RHF) =  -304.177023528     A.U. after    2 cycles

 The electronic state is 1-A.
 Alpha  occ. eigenvalues --  -15.75977 -15.69887 -11.52163 -11.45329 -11.39248
 Alpha  occ. eigenvalues --  -11.39157 -11.36864  -1.57377  -1.26860  -1.09028
 Alpha  occ. eigenvalues --   -1.05874  -0.97770  -0.82781  -0.73274  -0.68592
 Alpha  occ. eigenvalues --   -0.64228  -0.61363  -0.58771  -0.56825  -0.55396
 Alpha  occ. eigenvalues --   -0.49939  -0.46817  -0.45128  -0.37213  -0.35887
 Alpha  occ. eigenvalues --   -0.24284
 Alpha virt. eigenvalues --    0.03806   0.05057   0.05341   0.05551   0.06076
 Alpha virt. eigenvalues --    0.06829   0.07120   0.07754   0.08557   0.10921
 Alpha virt. eigenvalues --    0.12142   0.12331   0.13091   0.14039   0.14260

 Mulliken charges:
               1
     1  C   -3.472125
     2  N   -2.073354
     3  C   -0.157601
     4  C   -3.090465
     5  C    5.240207
     6  C   -4.499173
     7  N   -2.150278
     8  H    1.335372
     9  H    1.412790
    10  H    1.368142
    11  H    1.446862
    12  H    1.088440
    13  H    1.192385
    14  H    1.189372
    15  H    1.169425
 Sum of Mulliken charges =  -0.00000

 Dipole moment (field-independent basis, Debye):
    X=              0.8031    Y=              1.2282    Z=              0.3129  Tot=              1.5005

 Test job not archived.
 1\1\GINC-SE162\SP\RHF\Aug-CC-pVDZ\C5H8N2\OHZDE\09-Apr-2025\0\\#t hf au
 g-cc-pvdz iop(5/13=1,5/36=2,99/5=2) pseudo=read geom=check guess=(read
 ,tcheck) scf=(maxcycle=1)\\title\\0,1\C,0,2.42678562,-0.62200833,-0.05
 354046\N,0,1.13298284,-0.23871348,-0.58011533\C,0,0.69034857,0.9820242
 1,-0.28751486\C,0,-0.72082878,1.2078135,-0.60958263\C,0,-1.11512238,0.
 08420817,0.02694459\C,0,-2.45144034,-0.46912843,0.35650215\N,0,0.01291
 07,-0.60455521,0.47488453\H,0,2.62919218,-0.18257336,0.92954277\H,0,3.
 18726079,-0.30937593,-0.7697973\H,0,2.45032721,-1.70629835,0.03198689\

 Normal termination of Gaussian 16 at Wed Apr  9 19:30:18 2025.
