 Gaussian 16, Revision C.01,

 ----------------------------------------------------------------------
 #t hf aug-cc-pvdz symm=none int=(grid=ultrafine) guess=(read,tcheck) s
 table=(opt,rrhf)
 ----------------------------------------------------------------------
 -----
 title
 -----
 Symbolic Z-matrix:
 Charge =  0 Multiplicity = 1

 SCF Done:  E(RHF) =  -317.615447046     A.U. after   16 cycles
 Normal termination of Gaussian 16 at Wed Apr  9 19:00:35 2025.
 Gaussian 16:  ES64L-G16RevC.01  3-Jul-2019

 ----------------------------------------------------------------------
 #t hf aug-cc-pvdz iop(5/13=1,5/36=2,99/5=2) pseudo=read geom=check gue
 ss=(read,tcheck) scf=(maxcycle=1)
 ----------------------------------------------------------------------
 -----
 title
 -----
 Structure from the checkpoint file:  "Grambow2020_wb97xd3_007985_reverse_mol2.chk"
 Charge =  0 Multiplicity = 1

                         Standard orientation:
 ---------------------------------------------------------------------
 Center     Atomic      Atomic             Coordinates (Angstroms)
 Number     Number       Type             X           Y           Z
 ---------------------------------------------------------------------
      1          7           0       -2.356063   -0.563379    0.288676
      2          6           0       -1.462144   -0.151166   -0.604074
      3          7           0       -0.778979    0.905543   -0.313846
      4          6           0        0.363248    1.264911    0.095524
      5          6           0        1.412116    0.305042    0.518387
      6          6           0        1.277898   -1.101437    0.208714
      7          7           0        2.050313   -0.540487   -0.588138
      8          1           0       -2.977165   -1.311567    0.046184
      9          1           0       -2.512147   -0.099390    1.174681
     10          1           0        0.605081    2.325460    0.087534
     11          1           0        2.097747    0.641060    1.290520
     12          1           0        0.832881   -2.071397    0.382924
 ---------------------------------------------------------------------

 SCF Done:  E(RHF) =  -319.063518134     A.U. after    2 cycles

 The electronic state is 1-A.
 Alpha  occ. eigenvalues --  -15.78896 -15.77406 -15.76683 -11.49170 -11.45277
 Alpha  occ. eigenvalues --  -11.42321 -11.40155  -1.50194  -1.44000  -1.30750
 Alpha  occ. eigenvalues --   -1.03779  -0.90174  -0.83948  -0.74930  -0.71090
 Alpha  occ. eigenvalues --   -0.68823  -0.64602  -0.61439  -0.52716  -0.50270
 Alpha  occ. eigenvalues --   -0.47795  -0.42209  -0.38934  -0.34374  -0.29359
 Alpha virt. eigenvalues --    0.03362   0.04846   0.05221   0.05832   0.05959
 Alpha virt. eigenvalues --    0.09726   0.09962   0.10502   0.10943   0.12055
 Alpha virt. eigenvalues --    0.12841   0.13497   0.13724   0.14135   0.15424

 Mulliken charges:
               1
     1  N   -2.310065
     2  C    0.894395
     3  N   -2.280901
     4  C    0.163149
     5  C   -0.999965
     6  C    0.619009
     7  N   -1.661136
     8  H    0.824482
     9  H    0.680996
    10  H    1.594976
    11  H    1.389147
    12  H    1.085914
 Sum of Mulliken charges =   0.00000

 Dipole moment (field-independent basis, Debye):
    X=             -1.1495    Y=             -0.7322    Z=              3.5366  Tot=              3.7901

 Test job not archived.
 1\1\GINC-SE135\SP\RHF\Aug-CC-pVDZ\C4H5N3\OHZDE\09-Apr-2025\0\\#t hf au
 g-cc-pvdz iop(5/13=1,5/36=2,99/5=2) pseudo=read geom=check guess=(read
 ,tcheck) scf=(maxcycle=1)\\title\\0,1\N,0,2.26249418,-0.35614313,0.188
 49603\C,0,1.30479489,-0.51485515,-0.71904756\N,0,0.2559887,-1.17906178
 ,-0.36349906\C,0,-0.94731802,-1.01420556,-0.00813127\C,0,-1.55133584,0
 .32218351,0.21438707\C,0,-0.87112818,1.51303912,-0.24525958\N,0,-1.777
 65859,1.18528683,-1.03078043\H,0,3.13264299,0.05650963,-0.08883628\H,0
 ,2.19992326,-0.71696799,1.13218122\H,0,-1.58271553,-1.89188446,0.08809

 Normal termination of Gaussian 16 at Wed Apr  9 19:00:39 2025.
