 Gaussian 16, Revision C.01,

 ----------------------------------------------------------------------
 #t hf aug-cc-pvdz symm=none int=(grid=ultrafine) guess=(read,tcheck) s
 table=(opt,rrhf)
 ----------------------------------------------------------------------
 -----
 title
 -----
 Symbolic Z-matrix:
 Charge =  0 Multiplicity = 1

 SCF Done:  E(RHF) =  -315.526363033     A.U. after   19 cycles
 Normal termination of Gaussian 16 at Wed Apr  9 03:09:42 2025.
 Gaussian 16:  ES64L-G16RevC.01  3-Jul-2019

 ----------------------------------------------------------------------
 #t hf aug-cc-pvdz iop(5/13=1,5/36=2,99/5=2) pseudo=read geom=check gue
 ss=(read,tcheck) scf=(maxcycle=1)
 ----------------------------------------------------------------------
 -----
 title
 -----
 Structure from the checkpoint file:  "Grambow2020_b97d3_006682_forward_mol1.chk"
 Charge =  0 Multiplicity = 1

                         Standard orientation:
 ---------------------------------------------------------------------
 Center     Atomic      Atomic             Coordinates (Angstroms)
 Number     Number       Type             X           Y           Z
 ---------------------------------------------------------------------
      1          8           0        2.118018   -0.592206   -0.035099
      2          6           0        0.856921   -0.184509    0.148011
      3          7           0        0.365305    0.970808    0.119022
      4          7           0       -0.703211    1.564173   -0.191220
      5          7           0       -2.005946   -0.551385   -0.044678
      6          6           0       -1.113112   -1.329286    0.009248
      7          1           0        2.646812    0.092013   -0.503260
      8          1           0       -1.001989    2.141022    0.618063
      9          1           0       -0.644853   -2.297781    0.040570
 ---------------------------------------------------------------------

 SCF Done:  E(RHF) =  -316.915976447     A.U. after    2 cycles

 The electronic state is 1-A.
 Alpha  occ. eigenvalues --  -21.16118 -15.84626 -15.82486 -15.75130 -11.47892
 Alpha  occ. eigenvalues --  -11.42161  -1.80103  -1.54231  -1.27831  -1.14138
 Alpha  occ. eigenvalues --   -0.81424  -0.78841  -0.71040  -0.65201  -0.62682
 Alpha  occ. eigenvalues --   -0.52263  -0.50433  -0.48705  -0.43397  -0.41662
 Alpha  occ. eigenvalues --   -0.34133  -0.32654
 Alpha virt. eigenvalues --    0.02814   0.05235   0.05701   0.08162   0.10201
 Alpha virt. eigenvalues --    0.10774   0.11281   0.12153   0.13359   0.14229
 Alpha virt. eigenvalues --    0.15337   0.15812   0.17416   0.18035   0.18842

 Mulliken charges:
               1
     1  O   -2.752378
     2  C    3.089656
     3  N   -0.317052
     4  N   -1.358271
     5  N   -2.260298
     6  C    0.522271
     7  H    0.767940
     8  H    0.673738
     9  H    1.634394
 Sum of Mulliken charges =  -0.00000

 Dipole moment (field-independent basis, Debye):
    X=              3.4218    Y=              0.0959    Z=              0.2486  Tot=              3.4322

 Test job not archived.
 1\1\GINC-SE128\SP\RHF\Aug-CC-pVDZ\C2H3N3O1\OHZDE\09-Apr-2025\0\\#t hf
 aug-cc-pvdz iop(5/13=1,5/36=2,99/5=2) pseudo=read geom=check guess=(re
 ad,tcheck) scf=(maxcycle=1)\\title\\0,1\O,0,-2.09858195,-0.41489745,-0
 .0529563\C,0,-0.79395738,-0.18737059,0.1375636\N,0,0.15859194,-0.99396
 907,0.27660344\N,0,1.38886111,-1.09759005,0.02016888\N,0,1.61600979,1.
 36695859,-0.24171251\C,0,0.46996625,1.66794408,-0.27608474\H,0,-2.2546
 0241,-1.32974218,-0.37802652\H,0,1.88531505,-1.33908643,0.89890352\H,0
 ,-0.37909741,2.32051511,-0.38319036\\Version=ES64L-G16RevC.01\State=1-

 Normal termination of Gaussian 16 at Wed Apr  9 03:09:45 2025.
