 Gaussian 16, Revision C.01,

 ----------------------------------------------------------------------
 #t hf aug-cc-pvdz symm=none int=(grid=ultrafine) guess=(read,tcheck) s
 table=(opt,rrhf)
 ----------------------------------------------------------------------
 -----
 title
 -----
 Symbolic Z-matrix:
 Charge =  0 Multiplicity = 1

 SCF Done:  E(RHF) =  -360.653492805     A.U. after   16 cycles
 Normal termination of Gaussian 16 at Wed Apr  9 18:47:50 2025.
 Gaussian 16:  ES64L-G16RevC.01  3-Jul-2019

 ----------------------------------------------------------------------
 #t hf aug-cc-pvdz iop(5/13=1,5/36=2,99/5=2) pseudo=read geom=check gue
 ss=(read,tcheck) scf=(maxcycle=1)
 ----------------------------------------------------------------------
 -----
 title
 -----
 Structure from the checkpoint file:  "Grambow2020_wb97xd3_007660_forward_mol1.chk"
 Charge =  0 Multiplicity = 1

                         Standard orientation:
 ---------------------------------------------------------------------
 Center     Atomic      Atomic             Coordinates (Angstroms)
 Number     Number       Type             X           Y           Z
 ---------------------------------------------------------------------
      1          6           0        1.461468   -1.144700   -0.676784
      2          8           0       -0.351502   -1.293510    0.049463
      3          6           0       -0.466299   -0.523879    1.263213
      4          6           0       -0.630466    0.219912    0.020734
      5          7           0        0.456234    0.849733   -0.547418
      6          8           0        1.318294    1.361874    0.476252
      7          6           0       -1.980897    0.508549   -0.567286
      8          1           0        1.470322   -2.194432   -0.402831
      9          1           0        1.419844   -0.968395   -1.740868
     10          1           0        2.165422   -0.527869   -0.131376
     11          1           0        0.454708   -0.391517    1.818141
     12          1           0       -1.331243   -0.803788    1.857242
     13          1           0        1.525001    2.238783    0.150509
     14          1           0       -2.293818    1.508039   -0.261939
     15          1           0       -2.732472   -0.212935   -0.246824
     16          1           0       -1.908572    0.497782   -1.655107
 ---------------------------------------------------------------------

 SCF Done:  E(RHF) =  -362.307851315     A.U. after    2 cycles

 The electronic state is 1-A.
 Alpha  occ. eigenvalues --  -21.06183 -21.04762 -15.66996 -11.49995 -11.47708
 Alpha  occ. eigenvalues --  -11.42556 -11.37665  -1.79613  -1.70766  -1.19777
 Alpha  occ. eigenvalues --   -1.07124  -1.01842  -0.95959  -0.77666  -0.67792
 Alpha  occ. eigenvalues --   -0.65922  -0.61737  -0.59750  -0.56508  -0.54435
 Alpha  occ. eigenvalues --   -0.53041  -0.49642  -0.46341  -0.42296  -0.36057
 Alpha  occ. eigenvalues --   -0.33029  -0.28877  -0.20694
 Alpha virt. eigenvalues --    0.03630   0.05113   0.05243   0.05814   0.06105
 Alpha virt. eigenvalues --    0.06384   0.06588   0.07186   0.08741   0.10766
 Alpha virt. eigenvalues --    0.11184   0.13072   0.13290   0.13904   0.14915

 Mulliken charges:
               1
     1  C   -3.808698
     2  O   -2.218747
     3  C   -2.490782
     4  C    4.758888
     5  N   -1.709859
     6  O   -2.344131
     7  C   -4.489411
     8  H    1.243502
     9  H    1.342198
    10  H    1.549324
    11  H    1.873267
    12  H    1.542043
    13  H    0.903635
    14  H    1.288477
    15  H    1.279460
    16  H    1.280834
 Sum of Mulliken charges =   0.00000

 Dipole moment (field-independent basis, Debye):
    X=             -0.1664    Y=             -2.5924    Z=              0.6008  Tot=              2.6663

 Test job not archived.
 1\1\GINC-SE105\SP\RHF\Aug-CC-pVDZ\C4H9N1O2\OHZDE\09-Apr-2025\0\\#t hf
 aug-cc-pvdz iop(5/13=1,5/36=2,99/5=2) pseudo=read geom=check guess=(re
 ad,tcheck) scf=(maxcycle=1)\\title\\0,1\C,0,1.68543415,0.73401385,-0.7
 1550275\O,0,1.00420148,-0.63734382,0.5058649\C,0,0.14054393,-0.0396633
 5,1.49357701\C,0,-0.47937576,-0.351442,0.21200548\N,0,-0.54804921,0.61
 629906,-0.76735563\O,0,-0.75829521,1.9031431,-0.17307768\C,0,-1.238304
 62,-1.62509316,-0.02162396\H,0,2.61371036,0.46428868,-0.22294035\H,0,1
 .61276203,0.38910322,-1.73572184\H,0,1.36217853,1.75400706,-0.5463267\

 Normal termination of Gaussian 16 at Wed Apr  9 18:47:55 2025.
