 Gaussian 16, Revision C.01,

 ----------------------------------------------------------------------
 #t hf aug-cc-pvdz symm=none int=(grid=ultrafine) guess=(read,tcheck) s
 table=(opt,rrhf)
 ----------------------------------------------------------------------
 -----
 title
 -----
 Symbolic Z-matrix:
 Charge =  0 Multiplicity = 1

 SCF Done:  E(RHF) =  -317.727515277     A.U. after   14 cycles
 Normal termination of Gaussian 16 at Wed Apr  9 19:04:39 2025.
 Gaussian 16:  ES64L-G16RevC.01  3-Jul-2019

 ----------------------------------------------------------------------
 #t hf aug-cc-pvdz iop(5/13=1,5/36=2,99/5=2) pseudo=read geom=check gue
 ss=(read,tcheck) scf=(maxcycle=1)
 ----------------------------------------------------------------------
 -----
 title
 -----
 Structure from the checkpoint file:  "Grambow2020_wb97xd3_008064_reverse_mol2.chk"
 Charge =  0 Multiplicity = 1

                         Standard orientation:
 ---------------------------------------------------------------------
 Center     Atomic      Atomic             Coordinates (Angstroms)
 Number     Number       Type             X           Y           Z
 ---------------------------------------------------------------------
      1          7           0       -2.039840   -1.426431   -0.201258
      2          6           0       -1.390848   -0.522503    0.076726
      3          6           0       -0.576012    0.669699    0.407439
      4          6           0        0.775022    0.252827    0.996887
      5          7           0        1.578919   -0.408410    0.032896
      6          6           0        2.229507   -0.932108   -0.778193
      7          7           0       -0.379641    1.577467   -0.699945
      8          1           0       -1.106813    1.201848    1.201136
      9          1           0        1.293315    1.155140    1.321722
     10          1           0        0.631969   -0.409625    1.851101
     11          1           0        0.099788    1.118012   -1.464375
     12          1           0       -1.260339    1.928756   -1.048592
 ---------------------------------------------------------------------

 SCF Done:  E(RHF) =  -319.175551408     A.U. after    2 cycles

 The electronic state is 1-A.
 Alpha  occ. eigenvalues --  -15.79023 -15.77358 -15.77323 -11.52557 -11.48235
 Alpha  occ. eigenvalues --  -11.44197 -11.43386  -1.47065  -1.37555  -1.30194
 Alpha  occ. eigenvalues --   -1.14057  -0.99233  -0.78525  -0.74202  -0.71034
 Alpha  occ. eigenvalues --   -0.65052  -0.59877  -0.58959  -0.53901  -0.48551
 Alpha  occ. eigenvalues --   -0.47613  -0.46293  -0.45242  -0.43637  -0.39605
 Alpha virt. eigenvalues --    0.02729   0.04779   0.05001   0.05578   0.06984
 Alpha virt. eigenvalues --    0.08687   0.09624   0.10445   0.10656   0.10866
 Alpha virt. eigenvalues --    0.12455   0.12616   0.12915   0.14034   0.14387

 Mulliken charges:
               1
     1  N   -2.534914
     2  C    2.994569
     3  C   -0.977367
     4  C   -1.263054
     5  N   -0.985835
     6  C   -0.623262
     7  N   -2.579099
     8  H    1.710028
     9  H    1.439485
    10  H    1.539359
    11  H    0.634883
    12  H    0.645206
 Sum of Mulliken charges =  -0.00000

 Dipole moment (field-independent basis, Debye):
    X=             -0.7551    Y=              3.7535    Z=              2.5997  Tot=              4.6279

 Test job not archived.
 1\1\GINC-SE016\SP\RHF\Aug-CC-pVDZ\C4H5N3\OHZDE\09-Apr-2025\0\\#t hf au
 g-cc-pvdz iop(5/13=1,5/36=2,99/5=2) pseudo=read geom=check guess=(read
 ,tcheck) scf=(maxcycle=1)\\title\\0,1\N,0,1.95590512,-0.81456449,1.726
 67066\C,0,1.36745453,-0.45680604,0.80945514\C,0,0.62824959,0.04424505,
 -0.37257707\C,0,-0.66109341,-0.75609635,-0.58131658\N,0,-1.58465137,-0
 .53460523,0.47260251\C,0,-2.335157,-0.32478479,1.33753372\N,0,0.337238
 82,1.45936253,-0.33185363\H,0,1.25807201,-0.15456336,-1.24360291\H,0,-
 1.11458467,-0.42591559,-1.51600333\H,0,-0.44390571,-1.82295291,-0.6415

 Normal termination of Gaussian 16 at Wed Apr  9 19:04:43 2025.
