 Gaussian 16, Revision C.01,

 ----------------------------------------------------------------------
 #t hf aug-cc-pvdz symm=none int=(grid=ultrafine) guess=(read,tcheck) s
 table=(opt,rrhf)
 ----------------------------------------------------------------------
 -----
 title
 -----
 Symbolic Z-matrix:
 Charge =  0 Multiplicity = 1

 SCF Done:  E(RHF) =  -299.608761840     A.U. after   16 cycles
 Normal termination of Gaussian 16 at Wed Apr  9 15:40:36 2025.
 Gaussian 16:  ES64L-G16RevC.01  3-Jul-2019

 ----------------------------------------------------------------------
 #t hf aug-cc-pvdz iop(5/13=1,5/36=2,99/5=2) pseudo=read geom=check gue
 ss=(read,tcheck) scf=(maxcycle=1)
 ----------------------------------------------------------------------
 -----
 title
 -----
 Structure from the checkpoint file:  "Grambow2020_b97d3_006601_forward_mol1.chk"
 Charge =  0 Multiplicity = 1

                         Standard orientation:
 ---------------------------------------------------------------------
 Center     Atomic      Atomic             Coordinates (Angstroms)
 Number     Number       Type             X           Y           Z
 ---------------------------------------------------------------------
      1          6           0       -2.168051   -0.235142   -0.000778
      2          6           0       -0.694586    0.117544   -0.000886
      3          7           0        0.156542   -1.010087   -0.000231
      4          6           0        1.355041   -0.522356    0.000517
      5          7           0        2.195376    0.398684   -0.001165
      6          8           0       -0.280378    1.279733    0.000891
      7          1           0       -2.390074   -0.878406   -0.862132
      8          1           0       -2.776266    0.673344   -0.038677
      9          1           0       -2.403885   -0.808740    0.905636
     10          1           0        2.395398   -1.104514    0.004694
 ---------------------------------------------------------------------

 SCF Done:  E(RHF) =  -300.920964244     A.U. after    2 cycles

 The electronic state is 1-A.
 Alpha  occ. eigenvalues --  -21.04805 -15.88082 -15.75113 -11.53698 -11.50662
 Alpha  occ. eigenvalues --  -11.39186  -1.72193  -1.46148  -1.31348  -1.10031
 Alpha  occ. eigenvalues --   -0.85142  -0.73072  -0.65530  -0.62904  -0.61520
 Alpha  occ. eigenvalues --   -0.57162  -0.54269  -0.53365  -0.45145  -0.42141
 Alpha  occ. eigenvalues --   -0.33623  -0.30881
 Alpha virt. eigenvalues --    0.02800   0.04691   0.06606   0.06640   0.06986
 Alpha virt. eigenvalues --    0.09289   0.10257   0.10654   0.12675   0.13636
 Alpha virt. eigenvalues --    0.13891   0.14674   0.15004   0.15365   0.16229

 Mulliken charges:
               1
     1  C   -4.537017
     2  C    4.629371
     3  N   -3.112960
     4  C    2.538358
     5  N   -1.778705
     6  O   -2.934435
     7  H    1.222060
     8  H    1.295078
     9  H    1.223889
    10  H    1.454360
 Sum of Mulliken charges =  -0.00000

 Dipole moment (field-independent basis, Debye):
    X=              0.4927    Y=             -0.6315    Z=              0.0059  Tot=              0.8010

 Test job not archived.
 1\1\GINC-SE232\SP\RHF\Aug-CC-pVDZ\C3H4N2O1\OHZDE\09-Apr-2025\0\\#t hf
 aug-cc-pvdz iop(5/13=1,5/36=2,99/5=2) pseudo=read geom=check guess=(re
 ad,tcheck) scf=(maxcycle=1)\\title\\0,1\C,0,-1.70583623,0.06323421,0.0
 3790916\C,0,-0.24315201,-0.29542412,-0.1276413\N,0,0.64006793,0.716178
 33,0.31116765\C,0,1.82401224,0.24095486,0.09501681\N,0,2.63748401,-0.6
 2311264,-0.28725482\O,0,0.13741591,-1.36844378,-0.60308927\H,0,-1.9048
 7935,0.3109156,1.08864659\H,0,-2.33974968,-0.76868823,-0.28266392\H,0,
 -1.92965554,0.95850973,-0.55757835\H,0,2.88066072,0.75014304,0.3082974

 Normal termination of Gaussian 16 at Wed Apr  9 15:40:39 2025.
