 Gaussian 16, Revision C.01,

 ----------------------------------------------------------------------
 #t hf aug-cc-pvdz symm=none int=(grid=ultrafine) guess=(read,tcheck) s
 table=(opt,rrhf)
 ----------------------------------------------------------------------
 -----
 title
 -----
 Symbolic Z-matrix:
 Charge =  0 Multiplicity = 1

 SCF Done:  E(RHF) =  -338.988763576     A.U. after   19 cycles
 Normal termination of Gaussian 16 at Wed Apr  9 16:28:39 2025.
 Gaussian 16:  ES64L-G16RevC.01  3-Jul-2019

 ----------------------------------------------------------------------
 #t hf aug-cc-pvdz iop(5/13=1,5/36=2,99/5=2) pseudo=read geom=check gue
 ss=(read,tcheck) scf=(maxcycle=1)
 ----------------------------------------------------------------------
 -----
 title
 -----
 Structure from the checkpoint file:  "Grambow2020_b97d3_006816_reverse_mol1.chk"
 Charge =  0 Multiplicity = 1

                         Standard orientation:
 ---------------------------------------------------------------------
 Center     Atomic      Atomic             Coordinates (Angstroms)
 Number     Number       Type             X           Y           Z
 ---------------------------------------------------------------------
      1          8           0        1.560162    0.292440   -0.373836
      2          6           0       -0.248509    1.619079    0.206126
      3          6           0       -0.901990    0.534520    0.179319
      4          8           0       -1.437752   -0.528674   -0.519866
      5          6           0       -0.299848   -0.860779    0.368716
      6          8           0        1.029170   -0.861014    0.151149
      7          1           0        0.068452    2.637541    0.313086
      8          1           0       -0.579009   -1.616471    1.102382
 ---------------------------------------------------------------------

 SCF Done:  E(RHF) =  -340.422582629     A.U. after    2 cycles

 The electronic state is 1-A.
 Alpha  occ. eigenvalues --  -21.17280 -21.11861 -21.02012 -11.57329 -11.54081
 Alpha  occ. eigenvalues --  -11.50438  -1.97411  -1.83584  -1.34172  -1.15231
 Alpha  occ. eigenvalues --   -0.93019  -0.84571  -0.72613  -0.66743  -0.59099
 Alpha  occ. eigenvalues --   -0.56143  -0.48781  -0.42935  -0.38523  -0.36839
 Alpha  occ. eigenvalues --   -0.26281  -0.22994
 Alpha virt. eigenvalues --    0.01875   0.04570   0.04714   0.07641   0.09799
 Alpha virt. eigenvalues --    0.10252   0.11041   0.11915   0.12525   0.13070
 Alpha virt. eigenvalues --    0.13528   0.15033   0.15930   0.17740   0.20049

 Mulliken charges:
               1
     1  O   -0.172868
     2  C   -1.874083
     3  C    2.932314
     4  O   -2.738145
     5  C    1.797922
     6  O   -2.023070
     7  H    0.684827
     8  H    1.393102
 Sum of Mulliken charges =   0.00000

 Dipole moment (field-independent basis, Debye):
    X=             -1.5319    Y=              0.4412    Z=              0.0605  Tot=              1.5953

 Test job not archived.
 1\1\GINC-SE454\SP\RHF\Aug-CC-pVDZ\C3H2O3\OHZDE\09-Apr-2025\0\\#t hf au
 g-cc-pvdz iop(5/13=1,5/36=2,99/5=2) pseudo=read geom=check guess=(read
 ,tcheck) scf=(maxcycle=1)\\title\\0,1\O,0,0.03209639,-0.78509737,1.579
 44562\C,0,-1.07209743,0.90991582,0.45015264\C,0,-0.17111266,0.75246315
 ,-0.42589451\O,0,1.14760669,0.84670228,-0.8238665\C,0,0.63693292,-0.53
 127706,-0.63656084\O,0,0.5971953,-1.32610949,0.44984946\H,0,-1.9314825
 7,1.21941674,1.01125567\H,0,0.73688536,-1.11715906,-1.54980655\\Versio
 n=ES64L-G16RevC.01\State=1-A\HF=-340.4225826\RMSD=5.422e-01\Dipole=-0.

 Normal termination of Gaussian 16 at Wed Apr  9 16:28:42 2025.
