 Gaussian 16, Revision C.01,

 ----------------------------------------------------------------------
 #t hf aug-cc-pvdz symm=none int=(grid=ultrafine) guess=(read,tcheck) s
 table=(opt,rrhf)
 ----------------------------------------------------------------------
 -----
 title
 -----
 Symbolic Z-matrix:
 Charge =  0 Multiplicity = 1

 SCF Done:  E(RHF) =  -394.351596945     A.U. after   16 cycles
 Normal termination of Gaussian 16 at Wed Apr  9 18:30:06 2025.
 Gaussian 16:  ES64L-G16RevC.01  3-Jul-2019

 ----------------------------------------------------------------------
 #t hf aug-cc-pvdz iop(5/13=1,5/36=2,99/5=2) pseudo=read geom=check gue
 ss=(read,tcheck) scf=(maxcycle=1)
 ----------------------------------------------------------------------
 -----
 title
 -----
 Structure from the checkpoint file:  "Grambow2020_wb97xd3_007201_reverse_mol1.chk"
 Charge =  0 Multiplicity = 1

                         Standard orientation:
 ---------------------------------------------------------------------
 Center     Atomic      Atomic             Coordinates (Angstroms)
 Number     Number       Type             X           Y           Z
 ---------------------------------------------------------------------
      1          7           0       -0.452173    1.171796    0.061270
      2          6           0        0.393288    0.199236    0.014898
      3          8           0       -0.177080   -0.931231    0.113922
      4          6           0       -1.710514   -0.116296    0.345207
      5          8           0       -2.545205   -0.285358   -0.456055
      6          6           0        1.896029    0.355076   -0.113010
      7          8           0        2.648867   -0.566151   -0.048142
      8          1           0       -0.212841    2.152001    0.044128
      9          1           0       -1.745824   -0.117500    1.435445
     10          1           0        2.238393    1.396757   -0.268833
 ---------------------------------------------------------------------

 SCF Done:  E(RHF) =  -396.023516390     A.U. after    2 cycles

 The electronic state is 1-A.
 Alpha  occ. eigenvalues --  -21.12051 -21.08380 -21.07770 -15.78207 -11.57646
 Alpha  occ. eigenvalues --  -11.54817 -11.50468  -1.83393  -1.75641  -1.71794
 Alpha  occ. eigenvalues --   -1.35849  -1.03790  -0.89504  -0.82078  -0.75574
 Alpha  occ. eigenvalues --   -0.64915  -0.62207  -0.58882  -0.56004  -0.53124
 Alpha  occ. eigenvalues --   -0.48972  -0.47448  -0.35804  -0.35075  -0.33401
 Alpha  occ. eigenvalues --   -0.29345
 Alpha virt. eigenvalues --    0.02668   0.04374   0.04856   0.07983   0.09113
 Alpha virt. eigenvalues --    0.10047   0.10889   0.11319   0.12248   0.12405
 Alpha virt. eigenvalues --    0.13479   0.14150   0.14337   0.15056   0.16295

 Mulliken charges:
               1
     1  N   -2.676293
     2  C    4.684209
     3  O   -3.020192
     4  C    1.766399
     5  O   -2.787373
     6  C    0.873807
     7  O   -2.577079
     8  H    0.732774
     9  H    1.520973
    10  H    1.482774
 Sum of Mulliken charges =  -0.00000

 Dipole moment (field-independent basis, Debye):
    X=              1.3704    Y=              1.5144    Z=              0.8676  Tot=              2.2190

 Test job not archived.
 1\1\GINC-SE105\SP\RHF\Aug-CC-pVDZ\C3H3N1O3\OHZDE\09-Apr-2025\0\\#t hf
 aug-cc-pvdz iop(5/13=1,5/36=2,99/5=2) pseudo=read geom=check guess=(re
 ad,tcheck) scf=(maxcycle=1)\\title\\0,1\N,0,-0.01355943,0.85767885,-0.
 39785091\C,0,-0.47421374,-0.26419796,0.04034727\O,0,0.45165678,-1.0288
 7295,0.45401041\C,0,1.63491213,0.15447826,-0.06427414\O,0,2.31029913,0
 .64610038,0.75393896\C,0,-1.93689479,-0.66343257,0.0476382\O,0,-2.3084
 0459,-1.74985907,0.36589835\H,0,-0.5679848,1.59240973,-0.81156385\H,0,
 1.87393832,-0.25650145,-1.04602148\H,0,-2.63328202,0.13690679,-0.27031

 Normal termination of Gaussian 16 at Wed Apr  9 18:30:09 2025.
