 Gaussian 16, Revision C.01,

 ----------------------------------------------------------------------
 #t hf aug-cc-pvdz symm=none int=(grid=ultrafine) guess=(read,tcheck) s
 table=(opt,rrhf)
 ----------------------------------------------------------------------
 -----
 title
 -----
 Symbolic Z-matrix:
 Charge =  0 Multiplicity = 1

 SCF Done:  E(RHF) =  -307.791468824     A.U. after   15 cycles

 1\1\GINC-SE165\Stability\RHF\Aug-CC-pVDZ\C6H10O1\OHZDE\09-Apr-2025\0\\
 #t hf aug-cc-pvdz symm=none int=(grid=ultrafine) guess=(read,tcheck) s
 table=(opt,rrhf)\\title\\0,1\C,0,1.84723141,-0.5594999,0.19067415\C,0,
 0.51423151,0.11285182,0.46757546\C,0,0.14834737,1.2910388,-0.45817216\
 C,0,-1.3599152,1.37162154,-0.58064537\C,0,-1.81087568,0.18097126,-0.00
 173721\C,0,-0.71566408,-0.80733906,0.38002062\O,0,-0.6482307,-1.822476
 63,-0.60580722\H,0,1.8796848,-0.97932272,-0.81624761\H,0,2.66411265,0.
 15914366,0.28025971\H,0,2.03704469,-1.37435925,0.89178238\H,0,0.525578

 Normal termination of Gaussian 16 at Wed Apr  9 03:45:49 2025.
 Gaussian 16:  ES64L-G16RevC.01  3-Jul-2019

 ----------------------------------------------------------------------
 #t hf aug-cc-pvdz iop(5/13=1,5/36=2,99/5=2) pseudo=read geom=check gue
 ss=(read,tcheck) scf=(maxcycle=1)
 ----------------------------------------------------------------------
 -----
 title
 -----
 Structure from the checkpoint file:  "Grambow2020_wb97xd3_007823_forward_mol1.chk"
 Charge =  0 Multiplicity = 1

                         Standard orientation:
 ---------------------------------------------------------------------
 Center     Atomic      Atomic             Coordinates (Angstroms)
 Number     Number       Type             X           Y           Z
 ---------------------------------------------------------------------
      1          6           0       -2.104111   -0.324078    0.020322
      2          6           0       -0.659434   -0.463251    0.466596
      3          6           0        0.217067   -1.414243   -0.373860
      4          6           0        1.653487   -0.934119   -0.323578
      5          6           0        1.566996    0.332276    0.263714
      6          6           0        0.149740    0.845119    0.488129
      7          8           0       -0.169354    1.775780   -0.531163
      8          1           0       -2.170649    0.065954   -0.996853
      9          1           0       -2.605890   -1.293393    0.040693
     10          1           0       -2.658994    0.356170    0.669124
     11          1           0       -0.646962   -0.840385    1.496132
     12          1           0       -0.049475   -1.368673   -1.438832
     13          1           0        0.108727   -2.463357   -0.095296
     14          1           0        1.995060   -0.672355    0.921497
     15          1           0        2.426395    0.991211    0.372560
     16          1           0        0.024185    1.396380    1.420498
     17          1           0       -0.010035    1.371981   -1.388150
 ---------------------------------------------------------------------

 SCF Done:  E(RHF) =  -309.262232827     A.U. after    2 cycles

 The electronic state is 1-A.
 Alpha  occ. eigenvalues --  -21.08199 -11.49467 -11.44895 -11.42260 -11.40292
 Alpha  occ. eigenvalues --  -11.37983 -11.35426  -1.73384  -1.34252  -1.13800
 Alpha  occ. eigenvalues --   -1.01996  -0.97699  -0.81800  -0.75488  -0.70936
 Alpha  occ. eigenvalues --   -0.64055  -0.58977  -0.58541  -0.55913  -0.51740
 Alpha  occ. eigenvalues --   -0.50654  -0.47722  -0.45861  -0.43405  -0.41027
 Alpha  occ. eigenvalues --   -0.34427  -0.28729
 Alpha virt. eigenvalues --    0.03546   0.04738   0.04833   0.05432   0.05749
 Alpha virt. eigenvalues --    0.05966   0.06391   0.06770   0.07760   0.08722
 Alpha virt. eigenvalues --    0.10957   0.11365   0.12380   0.13124   0.13676

 Mulliken charges:
               1
     1  C   -3.853709
     2  C   -1.379323
     3  C   -2.825489
     4  C   -1.880346
     5  C   -1.171837
     6  C    0.861464
     7  O   -3.208276
     8  H    1.319810
     9  H    1.182997
    10  H    1.165634
    11  H    1.478993
    12  H    1.590017
    13  H    1.257898
    14  H    1.621562
    15  H    1.407387
    16  H    1.693426
    17  H    0.739792
 Sum of Mulliken charges =   0.00000

 Dipole moment (field-independent basis, Debye):
    X=             -1.6333    Y=              1.3055    Z=              1.3479  Tot=              2.4878

 Test job not archived.
 1\1\GINC-SE165\SP\RHF\Aug-CC-pVDZ\C6H10O1\OHZDE\09-Apr-2025\0\\#t hf a
 ug-cc-pvdz iop(5/13=1,5/36=2,99/5=2) pseudo=read geom=check guess=(rea
 d,tcheck) scf=(maxcycle=1)\\title\\0,1\C,0,1.84723141,-0.5594999,0.190
 67415\C,0,0.51423151,0.11285182,0.46757546\C,0,0.14834737,1.2910388,-0
 .45817216\C,0,-1.3599152,1.37162154,-0.58064537\C,0,-1.81087568,0.1809
 7126,-0.00173721\C,0,-0.71566408,-0.80733906,0.38002062\O,0,-0.6482307
 ,-1.82247663,-0.60580722\H,0,1.8796848,-0.97932272,-0.81624761\H,0,2.6
 6411265,0.15914366,0.28025971\H,0,2.03704469,-1.37435925,0.89178238\H,

 Normal termination of Gaussian 16 at Wed Apr  9 03:45:56 2025.
