 Gaussian 16, Revision C.01,

 ----------------------------------------------------------------------
 #t hf aug-cc-pvdz symm=none int=(grid=ultrafine) guess=(read,tcheck) s
 table=(opt,rrhf)
 ----------------------------------------------------------------------
 -----
 title
 -----
 Symbolic Z-matrix:
 Charge =  0 Multiplicity = 1

 SCF Done:  E(RHF) =  -359.707700015     A.U. after   15 cycles
 Normal termination of Gaussian 16 at Wed Apr  9 19:33:51 2025.
 Gaussian 16:  ES64L-G16RevC.01  3-Jul-2019

 ----------------------------------------------------------------------
 #t hf aug-cc-pvdz iop(5/13=1,5/36=2,99/5=2) pseudo=read geom=check gue
 ss=(read,tcheck) scf=(maxcycle=1)
 ----------------------------------------------------------------------
 -----
 title
 -----
 Structure from the checkpoint file:  "Grambow2020_wb97xd3_009388_forward_mol1.chk"
 Charge =  0 Multiplicity = 1

                         Standard orientation:
 ---------------------------------------------------------------------
 Center     Atomic      Atomic             Coordinates (Angstroms)
 Number     Number       Type             X           Y           Z
 ---------------------------------------------------------------------
      1          6           0        0.779002    1.975360    0.004835
      2          7           0        0.140163    0.692747    0.070095
      3          6           0       -1.437484   -0.131476    0.342867
      4          8           0       -2.306761   -0.000059   -0.452243
      5          6           0        0.621359   -0.495467    0.008598
      6          8           0       -0.355372   -1.338958    0.130212
      7          6           0        2.020635   -0.968359   -0.148500
      8          1           0        0.284589    2.591501   -0.747459
      9          1           0        0.708950    2.488998    0.966031
     10          1           0        1.835318    1.887541   -0.262158
     11          1           0       -1.512111   -0.066839    1.434906
     12          1           0        2.713916   -0.144727   -0.305147
     13          1           0        2.072663   -1.654292   -0.993682
     14          1           0        2.311532   -1.519628    0.746284
 ---------------------------------------------------------------------

 SCF Done:  E(RHF) =  -361.338820323     A.U. after    2 cycles

 The electronic state is 1-A.
 Alpha  occ. eigenvalues --  -21.06766 -21.02426 -15.74181 -11.53834 -11.51960
 Alpha  occ. eigenvalues --  -11.41797 -11.41634  -1.82694  -1.67347  -1.38569
 Alpha  occ. eigenvalues --   -1.13931  -1.03585  -0.89377  -0.74325  -0.68461
 Alpha  occ. eigenvalues --   -0.67798  -0.64660  -0.60245  -0.58215  -0.56825
 Alpha  occ. eigenvalues --   -0.54357  -0.48548  -0.46584  -0.45151  -0.32402
 Alpha  occ. eigenvalues --   -0.29463  -0.26436
 Alpha virt. eigenvalues --    0.02569   0.04548   0.05076   0.05419   0.06161
 Alpha virt. eigenvalues --    0.06344   0.07660   0.09793   0.11293   0.11653
 Alpha virt. eigenvalues --    0.12513   0.12882   0.13457   0.13872   0.14204

 Mulliken charges:
               1
     1  C   -3.199665
     2  N   -3.071010
     3  C    1.998347
     4  O   -2.864120
     5  C    5.146324
     6  O   -3.085242
     7  C   -4.491432
     8  H    1.370389
     9  H    1.358134
    10  H    1.500667
    11  H    1.540955
    12  H    1.379955
    13  H    1.223699
    14  H    1.193001
 Sum of Mulliken charges =  -0.00000

 Dipole moment (field-independent basis, Debye):
    X=              4.0340    Y=              0.5070    Z=              0.7544  Tot=              4.1352

 Test job not archived.
 1\1\GINC-SE029\SP\RHF\Aug-CC-pVDZ\C4H7N1O2\OHZDE\09-Apr-2025\0\\#t hf
 aug-cc-pvdz iop(5/13=1,5/36=2,99/5=2) pseudo=read geom=check guess=(re
 ad,tcheck) scf=(maxcycle=1)\\title\\0,1\C,0,-1.43537277,-0.10835195,-0
 .9995168\N,0,-0.59907654,0.02522789,0.15816858\C,0,-0.60914723,0.37960
 804,1.92367979\O,0,-1.11607212,-0.391116,2.66807447\C,0,0.6774125,-0.0
 0775433,0.28728893\O,0,0.96684658,0.17680951,1.53726308\C,0,1.75010675
 ,-0.19265291,-0.72336338\H,0,-2.19741962,-0.86650542,-0.81375393\H,0,-
 1.93948851,0.83488805,-1.22041069\H,0,-0.86113168,-0.40614056,-1.88063

 Normal termination of Gaussian 16 at Wed Apr  9 19:33:55 2025.
