 Gaussian 16, Revision C.01,

 ----------------------------------------------------------------------
 #t hf aug-cc-pvdz symm=none int=(grid=ultrafine) guess=(read,tcheck) s
 table=(opt,rrhf)
 ----------------------------------------------------------------------
 -----
 title
 -----
 Symbolic Z-matrix:
 Charge =  0 Multiplicity = 1

 SCF Done:  E(RHF) =  -323.918023554     A.U. after   14 cycles
 Normal termination of Gaussian 16 at Wed Apr  9 18:45:46 2025.
 Gaussian 16:  ES64L-G16RevC.01  3-Jul-2019

 ----------------------------------------------------------------------
 #t hf aug-cc-pvdz iop(5/13=1,5/36=2,99/5=2) pseudo=read geom=check gue
 ss=(read,tcheck) scf=(maxcycle=1)
 ----------------------------------------------------------------------
 -----
 title
 -----
 Structure from the checkpoint file:  "Grambow2020_wb97xd3_007613_reverse_mol2.chk"
 Charge =  0 Multiplicity = 1

                         Standard orientation:
 ---------------------------------------------------------------------
 Center     Atomic      Atomic             Coordinates (Angstroms)
 Number     Number       Type             X           Y           Z
 ---------------------------------------------------------------------
      1          6           0       -0.530104    1.428403    0.844967
      2          6           0       -0.369403    0.723872   -0.495568
      3          7           0        1.033440    0.431121   -0.793811
      4          6           0       -1.215017   -0.514944   -0.666675
      5          6           0       -2.158860   -0.938079    0.155601
      6          6           0        1.813292   -0.403102   -0.068408
      7          8           0        1.466621   -1.016017    0.913154
      8          1           0       -0.249729    0.766239    1.663225
      9          1           0        0.107555    2.312459    0.878858
     10          1           0       -1.562525    1.750898    0.985831
     11          1           0       -0.675684    1.420273   -1.283848
     12          1           0        1.460799    0.889002   -1.578115
     13          1           0       -1.006625   -1.075381   -1.574708
     14          1           0       -2.728122   -1.832381   -0.064204
     15          1           0       -2.391379   -0.427701    1.082371
     16          1           0        2.839217   -0.470019   -0.477455
 ---------------------------------------------------------------------

 SCF Done:  E(RHF) =  -325.434626385     A.U. after    2 cycles

 The electronic state is 1-A.
 Alpha  occ. eigenvalues --  -21.02487 -15.76558 -11.48147 -11.46657 -11.41147
 Alpha  occ. eigenvalues --  -11.38505 -11.36226  -1.70095  -1.41569  -1.19353
 Alpha  occ. eigenvalues --   -1.06930  -0.94758  -0.83372  -0.75727  -0.74597
 Alpha  occ. eigenvalues --   -0.65522  -0.61164  -0.59966  -0.54743  -0.52525
 Alpha  occ. eigenvalues --   -0.51210  -0.49931  -0.47160  -0.44669  -0.35637
 Alpha  occ. eigenvalues --   -0.30912  -0.28578
 Alpha virt. eigenvalues --    0.03389   0.04795   0.05059   0.05595   0.05736
 Alpha virt. eigenvalues --    0.06004   0.06447   0.07923   0.09141   0.11433
 Alpha virt. eigenvalues --    0.11768   0.12376   0.12857   0.13471   0.14119

 Mulliken charges:
               1
     1  C   -3.593127
     2  C   -2.046571
     3  N   -2.413274
     4  C   -0.343228
     5  C   -2.898971
     6  C    1.951856
     7  O   -2.753376
     8  H    1.395555
     9  H    1.187461
    10  H    1.247189
    11  H    1.746717
    12  H    0.693493
    13  H    1.394395
    14  H    1.358908
    15  H    1.449506
    16  H    1.623466
 Sum of Mulliken charges =  -0.00000

 Dipole moment (field-independent basis, Debye):
    X=             -0.1775    Y=              1.5330    Z=             -1.6995  Tot=              2.2957

 Test job not archived.
 1\1\GINC-SE174\SP\RHF\Aug-CC-pVDZ\C5H9N1O1\OHZDE\09-Apr-2025\0\\#t hf
 aug-cc-pvdz iop(5/13=1,5/36=2,99/5=2) pseudo=read geom=check guess=(re
 ad,tcheck) scf=(maxcycle=1)\\title\\0,1\C,0,-0.96562779,-1.0241763,0.6
 453216\C,0,-0.66216774,0.14170749,-0.28626367\N,0,-0.29195447,1.349453
 64,0.4532715\C,0,0.35717121,-0.15287754,-1.36012241\C,0,0.87558456,-1.
 33464553,-1.64418846\C,0,0.80768773,1.46382122,1.23302365\O,0,1.627912
 35,0.59807642,1.42544755\H,0,-0.0660194,-1.33885317,1.17286336\H,0,-1.
 7140984,-0.72704724,1.38072621\H,0,-1.36232316,-1.86996434,0.08228264\

 Normal termination of Gaussian 16 at Wed Apr  9 18:45:51 2025.
