 Gaussian 16, Revision C.01,

 ----------------------------------------------------------------------
 #t hf aug-cc-pvdz symm=none int=(grid=ultrafine) guess=(read,tcheck) s
 table=(opt,rrhf)
 ----------------------------------------------------------------------
 -----
 title
 -----
 Symbolic Z-matrix:
 Charge =  0 Multiplicity = 1

 SCF Done:  E(RHF) =  -306.894781785     A.U. after   14 cycles

 1\1\GINC-SE168\Stability\RHF\Aug-CC-pVDZ\C4H10O2\OHZDE\09-Apr-2025\0\\
 #t hf aug-cc-pvdz symm=none int=(grid=ultrafine) guess=(read,tcheck) s
 table=(opt,rrhf)\\title\\0,1\C,0,2.01565167,0.35520987,0.00521831\O,0,
 1.17934675,-0.5055205,-0.76274226\C,0,-0.26333113,-1.32757312,0.439499
 24\C,0,-1.43892636,-0.5448748,0.49019392\C,0,-1.24337497,1.07406923,-0
 .59492536\O,0,-0.66712246,0.78233853,-1.70986112\H,0,1.44157663,1.0346
 9959,0.65433091\H,0,2.67042694,-0.26301557,0.63543046\H,0,2.64287036,0
 .96070617,-0.66764378\H,0,0.4275127,-1.36004415,1.28065466\H,0,-0.2109

 Normal termination of Gaussian 16 at Wed Apr  9 16:14:01 2025.
 Gaussian 16:  ES64L-G16RevC.01  3-Jul-2019

 ----------------------------------------------------------------------
 #t hf aug-cc-pvdz iop(5/13=1,5/36=2,99/5=2) pseudo=read geom=check gue
 ss=(read,tcheck) scf=(maxcycle=1)
 ----------------------------------------------------------------------
 -----
 title
 -----
 Structure from the checkpoint file:  "Grambow2020_b97d3_006768_reverse_mol1.chk"
 Charge =  0 Multiplicity = 1

                         Standard orientation:
 ---------------------------------------------------------------------
 Center     Atomic      Atomic             Coordinates (Angstroms)
 Number     Number       Type             X           Y           Z
 ---------------------------------------------------------------------
      1          6           0       -2.001629   -0.289632    0.545536
      2          8           0       -1.222012   -0.038244   -0.620238
      3          6           0        0.061230    1.522788   -0.275357
      4          6           0        1.308643    1.097895    0.235170
      5          6           0        1.341886   -0.847786    0.458611
      6          8           0        0.796910   -1.411502   -0.563877
      7          1           0       -1.393618   -0.319535    1.463165
      8          1           0       -2.749944    0.509167    0.645773
      9          1           0       -2.525518   -1.252670    0.441275
     10          1           0       -0.672048    2.010521    0.365175
     11          1           0       -0.046755    1.736772   -1.336975
     12          1           0        2.132655    1.165833   -0.478779
     13          1           0        1.559789    1.413327    1.248429
     14          1           0        2.437393   -0.947828    0.569964
     15          1           0        0.815293   -0.843358    1.431161
     16          1           0       -0.417211   -0.773857   -0.660034
 ---------------------------------------------------------------------

 SCF Done:  E(RHF) =  -308.343420461     A.U. after    2 cycles

 The electronic state is 1-A.
 Alpha  occ. eigenvalues --  -21.03418 -20.98896 -11.49780 -11.44973 -11.40279
 Alpha  occ. eigenvalues --  -11.37470  -1.70885  -1.63805  -1.16497  -0.97765
 Alpha  occ. eigenvalues --   -0.92134  -0.84176  -0.68011  -0.66698  -0.60402
 Alpha  occ. eigenvalues --   -0.60007  -0.57558  -0.55371  -0.52086  -0.49908
 Alpha  occ. eigenvalues --   -0.44642  -0.42581  -0.33858  -0.25128  -0.23616
 Alpha virt. eigenvalues --    0.03536   0.04574   0.04964   0.05279   0.05472
 Alpha virt. eigenvalues --    0.05738   0.06727   0.07136   0.08933   0.09196
 Alpha virt. eigenvalues --    0.11015   0.12956   0.13100   0.13455   0.14515

 Mulliken charges:
               1
     1  C   -2.924138
     2  O   -2.526026
     3  C   -2.365240
     4  C   -3.035985
     5  C   -0.639127
     6  O   -2.861861
     7  H    1.524274
     8  H    1.257592
     9  H    1.229666
    10  H    1.471595
    11  H    1.215438
    12  H    1.392567
    13  H    1.299875
    14  H    1.202015
    15  H    1.575534
    16  H    2.183819
 Sum of Mulliken charges =  -0.00000

 Dipole moment (field-independent basis, Debye):
    X=             -1.3315    Y=              1.9568    Z=              0.6457  Tot=              2.4533

 Test job not archived.
 1\1\GINC-SE168\SP\RHF\Aug-CC-pVDZ\C4H10O2\OHZDE\09-Apr-2025\0\\#t hf a
 ug-cc-pvdz iop(5/13=1,5/36=2,99/5=2) pseudo=read geom=check guess=(rea
 d,tcheck) scf=(maxcycle=1)\\title\\0,1\C,0,2.01565167,0.35520987,0.005
 21831\O,0,1.17934675,-0.5055205,-0.76274226\C,0,-0.26333113,-1.3275731
 2,0.43949924\C,0,-1.43892636,-0.5448748,0.49019392\C,0,-1.24337497,1.0
 7406923,-0.59492536\O,0,-0.66712246,0.78233853,-1.70986112\H,0,1.44157
 663,1.03469959,0.65433091\H,0,2.67042694,-0.26301557,0.63543046\H,0,2.
 64287036,0.96070617,-0.66764378\H,0,0.4275127,-1.36004415,1.28065466\H

 Normal termination of Gaussian 16 at Wed Apr  9 16:14:06 2025.
