 Gaussian 16, Revision C.01,

 ----------------------------------------------------------------------
 #t hf aug-cc-pvdz symm=none int=(grid=ultrafine) guess=(read,tcheck) s
 table=(opt,rrhf)
 ----------------------------------------------------------------------
 -----
 title
 -----
 Symbolic Z-matrix:
 Charge =  0 Multiplicity = 1

 SCF Done:  E(RHF) =  -304.597516313     A.U. after   16 cycles
 Normal termination of Gaussian 16 at Wed Apr  9 03:14:52 2025.
 Gaussian 16:  ES64L-G16RevC.01  3-Jul-2019

 ----------------------------------------------------------------------
 #t hf aug-cc-pvdz iop(5/13=1,5/36=2,99/5=2) pseudo=read geom=check gue
 ss=(read,tcheck) scf=(maxcycle=1)
 ----------------------------------------------------------------------
 -----
 title
 -----
 Structure from the checkpoint file:  "Grambow2020_b97d3_006932_reverse_mol2.chk"
 Charge =  0 Multiplicity = 1

                         Standard orientation:
 ---------------------------------------------------------------------
 Center     Atomic      Atomic             Coordinates (Angstroms)
 Number     Number       Type             X           Y           Z
 ---------------------------------------------------------------------
      1          8           0        2.600479   -0.391931   -0.706443
      2          6           0        1.682073   -0.193512    0.006252
      3          6           0       -2.722706   -0.146925   -0.443712
      4          6           0       -1.493385    0.277850   -0.128150
      5          8           0       -0.586437   -0.557299    0.505085
      6          6           0        0.647003    0.017524    0.817163
      7          1           0        1.070386    3.677303   -0.159861
      8          1           0       -3.415369    0.530647   -0.936493
      9          1           0       -3.050260   -1.160598   -0.220475
     10          1           0       -1.123644    1.282198   -0.341541
     11          1           0        0.765688    0.574829    1.744885
     12          1           0        0.962955    2.959834    0.015036
 ---------------------------------------------------------------------

 SCF Done:  E(RHF) =  -305.949517128     A.U. after    2 cycles

 The electronic state is 1-A.
 Alpha  occ. eigenvalues --  -21.15341 -21.10491 -11.55872 -11.45860 -11.45339
 Alpha  occ. eigenvalues --  -11.38248  -1.81061  -1.76548  -1.14431  -1.06012
 Alpha  occ. eigenvalues --   -0.82826  -0.75874  -0.68328  -0.62901  -0.61742
 Alpha  occ. eigenvalues --   -0.60740  -0.55532  -0.55348  -0.49195  -0.47896
 Alpha  occ. eigenvalues --   -0.44626  -0.30038  -0.28751
 Alpha virt. eigenvalues --    0.03661   0.05057   0.05556   0.06040   0.07517
 Alpha virt. eigenvalues --    0.08117   0.09579   0.11116   0.11212   0.11621
 Alpha virt. eigenvalues --    0.12322   0.12957   0.13194   0.14209   0.14491

 Mulliken charges:
               1
     1  O   -2.286831
     2  C    1.672298
     3  C   -3.278162
     4  C    1.056959
     5  O   -3.479470
     6  C    0.389612
     7  H    0.209812
     8  H    1.292087
     9  H    1.423745
    10  H    1.648899
    11  H    1.574199
    12  H   -0.223149
 Sum of Mulliken charges =  -0.00000

 Dipole moment (field-independent basis, Debye):
    X=              1.0712    Y=              0.4474    Z=             -0.2132  Tot=              1.1803

 Test job not archived.
 1\1\GINC-SE165\SP\RHF\Aug-CC-pVDZ\C4H6O2\OHZDE\09-Apr-2025\0\\#t hf au
 g-cc-pvdz iop(5/13=1,5/36=2,99/5=2) pseudo=read geom=check guess=(read
 ,tcheck) scf=(maxcycle=1)\\title\\0,1\O,0,1.20838226,-2.90487934,0.644
 01312\C,0,1.12890345,-1.73281544,0.74755755\C,0,-2.09935594,1.27016573
 ,0.33870539\C,0,-0.92000377,0.66776596,0.14508983\O,0,-0.19277276,0.15
 615512,1.20829352\C,0,1.03991599,-0.41058025,0.87893382\H,0,1.97409413
 ,-0.32714954,-2.81540824\H,0,-2.6467519,1.66610267,-0.51294636\H,0,-2.
 52992834,1.37393787,1.3329377\H,0,-0.45802182,0.53621003,-0.83481985\H

 Normal termination of Gaussian 16 at Wed Apr  9 03:14:56 2025.
