 Gaussian 16, Revision C.01,

 ----------------------------------------------------------------------
 #t hf aug-cc-pvdz symm=none int=(grid=ultrafine) guess=(read,tcheck) s
 table=(opt,rrhf)
 ----------------------------------------------------------------------
 -----
 title
 -----
 Symbolic Z-matrix:
 Charge =  0 Multiplicity = 1

 SCF Done:  E(RHF) =  -343.541085905     A.U. after   17 cycles
 Normal termination of Gaussian 16 at Wed Apr  9 03:27:54 2025.
 Gaussian 16:  ES64L-G16RevC.01  3-Jul-2019

 ----------------------------------------------------------------------
 #t hf aug-cc-pvdz iop(5/13=1,5/36=2,99/5=2) pseudo=read geom=check gue
 ss=(read,tcheck) scf=(maxcycle=1)
 ----------------------------------------------------------------------
 -----
 title
 -----
 Structure from the checkpoint file:  "Grambow2020_wb97xd3_006681_forward_mol1.chk"
 Charge =  0 Multiplicity = 1

                         Standard orientation:
 ---------------------------------------------------------------------
 Center     Atomic      Atomic             Coordinates (Angstroms)
 Number     Number       Type             X           Y           Z
 ---------------------------------------------------------------------
      1          6           0       -0.932481   -0.486664    1.172856
      2          6           0       -0.725114    0.146586   -0.095439
      3          8           0       -1.524746   -0.238480   -1.020195
      4          6           0       -0.005363    1.508571   -0.115333
      5          6           0        1.400887    0.947490    0.157778
      6          6           0        0.954678   -0.481207   -0.030415
      7          8           0        1.430715   -1.508836   -0.326364
      8          1           0       -2.639081   -0.346405    0.837221
      9          1           0       -1.064136   -1.561005    1.167047
     10          1           0       -0.581899   -0.049418    2.106059
     11          1           0       -2.589441   -0.353112   -0.061724
     12          1           0       -0.097616    1.939618   -1.109122
     13          1           0       -0.373395    2.217778    0.626410
     14          1           0        2.202782    1.243103   -0.518484
     15          1           0        1.739401    1.079321    1.188381
 ---------------------------------------------------------------------

 SCF Done:  E(RHF) =  -345.157426818     A.U. after    2 cycles

 The electronic state is 1-A.
 Alpha  occ. eigenvalues --  -21.11057 -21.01476 -11.55905 -11.50399 -11.48011
 Alpha  occ. eigenvalues --  -11.44521 -11.39762  -1.76171  -1.69121  -1.30701
 Alpha  occ. eigenvalues --   -1.10079  -0.96859  -0.86682  -0.73122  -0.68544
 Alpha  occ. eigenvalues --   -0.67867  -0.65956  -0.61478  -0.58154  -0.54624
 Alpha  occ. eigenvalues --   -0.52150  -0.48000  -0.46401  -0.43501  -0.34195
 Alpha  occ. eigenvalues --   -0.29116  -0.25868
 Alpha virt. eigenvalues --    0.03208   0.04523   0.04661   0.04909   0.05891
 Alpha virt. eigenvalues --    0.06765   0.07238   0.08670   0.09339   0.09784
 Alpha virt. eigenvalues --    0.11041   0.12464   0.13410   0.13636   0.13937

 Mulliken charges:
               1
     1  C   -3.113088
     2  C    5.032110
     3  O   -3.635354
     4  C   -3.569822
     5  C   -3.179711
     6  C    4.038010
     7  O   -3.433882
     8  H   -0.301145
     9  H    1.206132
    10  H    1.404589
    11  H    0.266680
    12  H    1.335590
    13  H    1.303187
    14  H    1.260238
    15  H    1.386467
 Sum of Mulliken charges =   0.00000

 Dipole moment (field-independent basis, Debye):
    X=              2.7261    Y=              0.8765    Z=              1.3046  Tot=              3.1468

 Test job not archived.
 1\1\GINC-SE059\SP\RHF\Aug-CC-pVDZ\C5H8O2\OHZDE\09-Apr-2025\0\\#t hf au
 g-cc-pvdz iop(5/13=1,5/36=2,99/5=2) pseudo=read geom=check guess=(read
 ,tcheck) scf=(maxcycle=1)\\title\\0,1\C,0,-1.20956268,-0.56022873,-0.4
 3361823\C,0,-0.38883052,0.53822793,-0.01844485\O,0,-0.87261413,1.69499
 46,-0.2843517\C,0,0.6391245,0.2906924,1.1020357\C,0,1.63382341,-0.4969
 7029,0.23191918\C,0,0.90581609,-0.16066909,-1.04581359\O,0,1.14902335,
 -0.07176507,-2.18737626\H,0,-2.56633341,0.39698428,0.10278039\H,0,-1.6
 2485619,-0.51011291,-1.43191438\H,0,-1.11355155,-1.55461839,-0.0012610

 Normal termination of Gaussian 16 at Wed Apr  9 03:28:00 2025.
