 Gaussian 16, Revision C.01,

 ----------------------------------------------------------------------
 #t hf aug-cc-pvdz symm=none int=(grid=ultrafine) guess=(read,tcheck) s
 table=(opt,rrhf)
 ----------------------------------------------------------------------
 -----
 title
 -----
 Symbolic Z-matrix:
 Charge =  0 Multiplicity = 1

 SCF Done:  E(RHF) =  -270.002450152     A.U. after   14 cycles

 1\1\GINC-SE026\Stability\RHF\Aug-CC-pVDZ\C5H10O1\OHZDE\09-Apr-2025\0\\
 #t hf aug-cc-pvdz symm=none int=(grid=ultrafine) guess=(read,tcheck) s
 table=(opt,rrhf)\\title\\0,1\C,0,2.408458,-0.36428269,-0.16505915\C,0,
 1.07818288,0.30227537,-0.51197104\C,0,0.01814709,0.16817635,0.57660153
 \O,0,0.22887592,-0.42307057,1.6314842\C,0,-1.30445485,0.80520503,0.271
 60473\C,0,-2.3336526,0.75226917,1.13474076\H,0,3.13396886,-0.22743429,
 -0.97801544\H,0,2.8279993,0.06022641,0.75585404\H,0,2.27096238,-1.4400
 1012,0.0023346\H,0,0.65386206,-0.11364025,-1.44286458\H,0,1.21039795,1

 Normal termination of Gaussian 16 at Wed Apr  9 16:13:00 2025.
 Gaussian 16:  ES64L-G16RevC.01  3-Jul-2019

 ----------------------------------------------------------------------
 #t hf aug-cc-pvdz iop(5/13=1,5/36=2,99/5=2) pseudo=read geom=check gue
 ss=(read,tcheck) scf=(maxcycle=1)
 ----------------------------------------------------------------------
 -----
 title
 -----
 Structure from the checkpoint file:  "Grambow2020_b97d3_006748_reverse_mol2.chk"
 Charge =  0 Multiplicity = 1

                         Standard orientation:
 ---------------------------------------------------------------------
 Center     Atomic      Atomic             Coordinates (Angstroms)
 Number     Number       Type             X           Y           Z
 ---------------------------------------------------------------------
      1          6           0       -2.495351   -0.068599   -0.012386
      2          6           0       -1.185551    0.615621   -0.400387
      3          6           0        0.059726   -0.196892   -0.060155
      4          8           0        0.000209   -1.299796    0.475399
      5          6           0        1.366665    0.443370   -0.420821
      6          6           0        2.543796   -0.153626   -0.165843
      7          1           0       -3.355368    0.555651   -0.289289
      8          1           0       -2.590218   -1.040254   -0.513575
      9          1           0       -2.531306   -0.252124    1.068882
     10          1           0       -1.086893    1.598519    0.093350
     11          1           0       -1.153617    0.837747   -1.481740
     12          1           0        0.991215    1.901510    2.120039
     13          1           0        1.330183    1.426108   -0.897397
     14          1           0        3.495798    0.310538   -0.423326
     15          1           0        0.598136    2.354620    2.563631
     16          1           0        2.564689   -1.133191    0.313790
 ---------------------------------------------------------------------

 SCF Done:  E(RHF) =  -271.299112329     A.U. after    2 cycles

 The electronic state is 1-A.
 Alpha  occ. eigenvalues --  -21.04376 -11.49634 -11.43450 -11.41735 -11.39367
 Alpha  occ. eigenvalues --  -11.36618  -1.69516  -1.20837  -1.14015  -0.96307
 Alpha  occ. eigenvalues --   -0.85705  -0.72645  -0.67162  -0.63008  -0.61733
 Alpha  occ. eigenvalues --   -0.59650  -0.55993  -0.51071  -0.50568  -0.48105
 Alpha  occ. eigenvalues --   -0.45675  -0.44774  -0.34344  -0.28396
 Alpha virt. eigenvalues --    0.03623   0.04669   0.05239   0.05811   0.06115
 Alpha virt. eigenvalues --    0.06443   0.07233   0.07270   0.08076   0.08785
 Alpha virt. eigenvalues --    0.10647   0.11347   0.12754   0.13767   0.14441

 Mulliken charges:
               1
     1  C   -3.877978
     2  C   -4.076409
     3  C    5.016484
     4  O   -3.564063
     5  C   -1.278532
     6  C   -3.366388
     7  H    1.040833
     8  H    1.279397
     9  H    1.304672
    10  H    1.465437
    11  H    1.495516
    12  H   -0.237643
    13  H    1.583156
    14  H    1.472038
    15  H    0.167223
    16  H    1.576255
 Sum of Mulliken charges =   0.00000

 Dipole moment (field-independent basis, Debye):
    X=              0.4487    Y=              0.9673    Z=             -0.4590  Tot=              1.1609

 Test job not archived.
 1\1\GINC-SE026\SP\RHF\Aug-CC-pVDZ\C5H10O1\OHZDE\09-Apr-2025\0\\#t hf a
 ug-cc-pvdz iop(5/13=1,5/36=2,99/5=2) pseudo=read geom=check guess=(rea
 d,tcheck) scf=(maxcycle=1)\\title\\0,1\C,0,2.408458,-0.36428269,-0.165
 05915\C,0,1.07818288,0.30227537,-0.51197104\C,0,0.01814709,0.16817635,
 0.57660153\O,0,0.22887592,-0.42307057,1.6314842\C,0,-1.30445485,0.8052
 0503,0.27160473\C,0,-2.3336526,0.75226917,1.13474076\H,0,3.13396886,-0
 .22743429,-0.97801544\H,0,2.8279993,0.06022641,0.75585404\H,0,2.270962
 38,-1.44001012,0.0023346\H,0,0.65386206,-0.11364025,-1.44286458\H,0,1.

 Normal termination of Gaussian 16 at Wed Apr  9 16:13:05 2025.
