 Gaussian 16, Revision C.01,

 ----------------------------------------------------------------------
 #t hf aug-cc-pvdz symm=none int=(grid=ultrafine) guess=(read,tcheck) s
 table=(opt,rrhf)
 ----------------------------------------------------------------------
 -----
 title
 -----
 Symbolic Z-matrix:
 Charge =  0 Multiplicity = 1

 SCF Done:  E(RHF) =  -359.485078256     A.U. after   17 cycles
 Normal termination of Gaussian 16 at Wed Apr  9 03:46:37 2025.
 Gaussian 16:  ES64L-G16RevC.01  3-Jul-2019

 ----------------------------------------------------------------------
 #t hf aug-cc-pvdz iop(5/13=1,5/36=2,99/5=2) pseudo=read geom=check gue
 ss=(read,tcheck) scf=(maxcycle=1)
 ----------------------------------------------------------------------
 -----
 title
 -----
 Structure from the checkpoint file:  "Grambow2020_wb97xd3_007889_reverse_mol1.chk"
 Charge =  0 Multiplicity = 1

                         Standard orientation:
 ---------------------------------------------------------------------
 Center     Atomic      Atomic             Coordinates (Angstroms)
 Number     Number       Type             X           Y           Z
 ---------------------------------------------------------------------
      1          6           0       -1.165719    1.579644    0.134281
      2          6           0       -0.386004    0.429442   -0.075828
      3          7           0       -0.846548   -0.872824   -0.118698
      4          8           0       -2.205843   -0.832418    0.131101
      5          6           0        1.110885    0.559230   -0.031043
      6          6           0        1.929708   -0.405037    0.697391
      7          8           0        1.880511   -0.398520   -0.718940
      8          1           0       -2.234551    1.514744    0.254298
      9          1           0       -0.689097    2.546724    0.069701
     10          1           0       -0.750053    0.374343   -1.183654
     11          1           0       -2.502292   -1.709621   -0.124876
     12          1           0        1.461553    1.583413   -0.128797
     13          1           0        2.871306   -0.081505    1.130896
     14          1           0        1.438407   -1.250492    1.167221
 ---------------------------------------------------------------------

 SCF Done:  E(RHF) =  -361.084892596     A.U. after    2 cycles

 The electronic state is 1-A.
 Alpha  occ. eigenvalues --  -21.10097 -21.07088 -15.75969 -11.51628 -11.46409
 Alpha  occ. eigenvalues --  -11.42967 -11.40608  -1.81429  -1.78947  -1.31344
 Alpha  occ. eigenvalues --   -1.05761  -0.99514  -0.92678  -0.77970  -0.72156
 Alpha  occ. eigenvalues --   -0.67239  -0.64823  -0.59724  -0.58912  -0.54672
 Alpha  occ. eigenvalues --   -0.50181  -0.45628  -0.42966  -0.37299  -0.35860
 Alpha  occ. eigenvalues --   -0.31698  -0.22125
 Alpha virt. eigenvalues --    0.03378   0.05129   0.05518   0.05720   0.06292
 Alpha virt. eigenvalues --    0.06509   0.07170   0.08094   0.10711   0.12357
 Alpha virt. eigenvalues --    0.12682   0.13155   0.14019   0.15341   0.15670

 Mulliken charges:
               1
     1  C   -3.619029
     2  C    0.604366
     3  N   -0.502954
     4  O   -2.585855
     5  C    0.956040
     6  C   -2.005726
     7  O   -2.837862
     8  H    1.604408
     9  H    1.514325
    10  H    1.642012
    11  H    0.875734
    12  H    1.425514
    13  H    1.397170
    14  H    1.531857
 Sum of Mulliken charges =   0.00000

 Dipole moment (field-independent basis, Debye):
    X=             -0.0652    Y=             -0.3592    Z=             -0.0752  Tot=              0.3728

 Test job not archived.
 1\1\GINC-SE102\SP\RHF\Aug-CC-pVDZ\C4H7N1O2\OHZDE\09-Apr-2025\0\\#t hf
 aug-cc-pvdz iop(5/13=1,5/36=2,99/5=2) pseudo=read geom=check guess=(re
 ad,tcheck) scf=(maxcycle=1)\\title\\0,1\C,0,-1.36808894,-0.72011768,-0
 .8955968\C,0,-0.41051148,-0.21256333,-0.00089027\N,0,-0.64939477,0.664
 29228,1.04021225\O,0,-1.994404,0.98264882,1.00393721\C,0,1.04454708,-0
 .43921435,-0.3024856\C,0,2.01800969,0.64107451,-0.17503843\O,0,1.95617
 737,-0.41287551,0.77038346\H,0,-2.41033909,-0.4632524,-0.80203558\H,0,
 -1.05877232,-1.45884959,-1.62028974\H,0,-0.76996801,-0.9593993,0.82122

 Normal termination of Gaussian 16 at Wed Apr  9 03:46:41 2025.
