 Gaussian 16, Revision C.01,

 ----------------------------------------------------------------------
 #t hf aug-cc-pvdz symm=none int=(grid=ultrafine) guess=(read,tcheck) s
 table=(opt,rrhf)
 ----------------------------------------------------------------------
 -----
 title
 -----
 Symbolic Z-matrix:
 Charge =  0 Multiplicity = 1

 SCF Done:  E(RHF) =  -268.756824299     A.U. after   16 cycles
 Normal termination of Gaussian 16 at Wed Apr  9 17:16:21 2025.
 Gaussian 16:  ES64L-G16RevC.01  3-Jul-2019

 ----------------------------------------------------------------------
 #t hf aug-cc-pvdz iop(5/13=1,5/36=2,99/5=2) pseudo=read geom=check gue
 ss=(read,tcheck) scf=(maxcycle=1)
 ----------------------------------------------------------------------
 -----
 title
 -----
 Structure from the checkpoint file:  "Grambow2020_b97d3_007085_reverse_mol2.chk"
 Charge =  0 Multiplicity = 1

                         Standard orientation:
 ---------------------------------------------------------------------
 Center     Atomic      Atomic             Coordinates (Angstroms)
 Number     Number       Type             X           Y           Z
 ---------------------------------------------------------------------
      1          6           0       -1.843658   -0.629715    0.125290
      2          6           0       -0.436149   -1.081054   -0.245766
      3          6           0        0.648507   -0.182833    0.349820
      4          8           0        1.892022   -0.604822   -0.194193
      5          6           0       -0.781941    1.917871   -0.221506
      6          6           0        0.349088    1.298296    0.043905
      7          1           0       -2.020321   -0.667485    1.208837
      8          1           0       -2.609001   -1.231696   -0.381996
      9          1           0       -2.012061    0.427382   -0.200123
     10          1           0       -0.307384   -1.074326   -1.337111
     11          1           0       -0.251458   -2.107586    0.103073
     12          1           0        0.650561   -0.281533    1.451998
     13          1           0        2.603372   -0.160666    0.303147
     14          1           0        1.195043    1.999089    0.095267
 ---------------------------------------------------------------------

 SCF Done:  E(RHF) =  -270.018079253     A.U. after    2 cycles

 The electronic state is 1-A.
 Alpha  occ. eigenvalues --  -21.08599 -11.48671 -11.43414 -11.41948 -11.39450
 Alpha  occ. eigenvalues --  -11.36890  -1.73079  -1.23745  -1.10378  -0.97697
 Alpha  occ. eigenvalues --   -0.85258  -0.71642  -0.68180  -0.64241  -0.59447
 Alpha  occ. eigenvalues --   -0.55423  -0.49993  -0.48629  -0.47232  -0.44762
 Alpha  occ. eigenvalues --   -0.41611  -0.36664  -0.33222
 Alpha virt. eigenvalues --    0.03443   0.05183   0.05286   0.05721   0.06088
 Alpha virt. eigenvalues --    0.06387   0.07258   0.07537   0.08519   0.12061
 Alpha virt. eigenvalues --    0.12136   0.12722   0.13125   0.14688   0.14863

 Mulliken charges:
               1
     1  C   -3.562688
     2  C   -3.762688
     3  C    1.103605
     4  O   -3.079407
     5  C   -2.705032
     6  C    1.672854
     7  H    1.232576
     8  H    1.040957
     9  H    1.676818
    10  H    1.299286
    11  H    1.352983
    12  H    1.620533
    13  H    0.648753
    14  H    1.461450
 Sum of Mulliken charges =   0.00000

 Dipole moment (field-independent basis, Debye):
    X=              1.6687    Y=             -1.7509    Z=              1.0432  Tot=              2.6341

 Test job not archived.
 1\1\GINC-SE051\SP\RHF\Aug-CC-pVDZ\C5H8O1\OHZDE\09-Apr-2025\0\\#t hf au
 g-cc-pvdz iop(5/13=1,5/36=2,99/5=2) pseudo=read geom=check guess=(read
 ,tcheck) scf=(maxcycle=1)\\title\\0,1\C,0,-1.34965545,1.00391467,-0.28
 468886\C,0,-0.88725369,-0.38349216,0.14397996\C,0,0.62033788,-0.454119
 96,0.38930008\O,0,0.94702793,-1.81787258,0.62126563\C,0,1.0298156,1.01
 071452,-1.72544393\C,0,1.3892793,0.13539434,-0.80994259\H,0,-1.1613594
 8,1.76202957,0.48765539\H,0,-2.41713889,1.01377941,-0.54130859\H,0,-0.
 80441103,1.32865052,-1.20608024\H,0,-1.13040914,-1.12416615,-0.6305754

 Normal termination of Gaussian 16 at Wed Apr  9 17:16:25 2025.
