 Gaussian 16, Revision C.01,

 ----------------------------------------------------------------------
 #t hf aug-cc-pvdz symm=none int=(grid=ultrafine) guess=(read,tcheck) s
 table=(opt,rrhf)
 ----------------------------------------------------------------------
 -----
 title
 -----
 Symbolic Z-matrix:
 Charge =  0 Multiplicity = 1

 SCF Done:  E(RHF) =  -320.732225471     A.U. after   14 cycles
 Normal termination of Gaussian 16 at Wed Apr  9 17:23:08 2025.
 Gaussian 16:  ES64L-G16RevC.01  3-Jul-2019

 ----------------------------------------------------------------------
 #t hf aug-cc-pvdz iop(5/13=1,5/36=2,99/5=2) pseudo=read geom=check gue
 ss=(read,tcheck) scf=(maxcycle=1)
 ----------------------------------------------------------------------
 -----
 title
 -----
 Structure from the checkpoint file:  "Grambow2020_b97d3_007121_forward_mol2.chk"
 Charge =  0 Multiplicity = 1

                         Standard orientation:
 ---------------------------------------------------------------------
 Center     Atomic      Atomic             Coordinates (Angstroms)
 Number     Number       Type             X           Y           Z
 ---------------------------------------------------------------------
      1          6           0        2.154767   -0.585619   -0.000611
      2          7           0        0.704068   -0.615762    0.000541
      3          6           0       -0.067695    0.502668    0.000532
      4          8           0        0.322442    1.672173    0.000333
      5          6           0       -1.568482    0.183584   -0.000529
      6          8           0       -2.024910   -0.946616    0.000077
      7          1           0        2.458606    0.466127   -0.008567
      8          1           0        2.560060   -1.073830    0.897452
      9          1           0        2.558101   -1.087152   -0.892146
     10          1           0        0.204331   -1.501955    0.002588
     11          1           0       -2.201374    1.098893   -0.002748
 ---------------------------------------------------------------------

 SCF Done:  E(RHF) =  -322.120779596     A.U. after    2 cycles

 The electronic state is 1-A.
 Alpha  occ. eigenvalues --  -21.10514 -21.05142 -15.78143 -11.52982 -11.48773
 Alpha  occ. eigenvalues --  -11.41207  -1.75012  -1.70320  -1.40394  -1.06311
 Alpha  occ. eigenvalues --   -0.94801  -0.79792  -0.72349  -0.63323  -0.59523
 Alpha  occ. eigenvalues --   -0.58410  -0.55729  -0.54192  -0.49680  -0.44704
 Alpha  occ. eigenvalues --   -0.36798  -0.32336  -0.28919
 Alpha virt. eigenvalues --    0.03265   0.05493   0.05672   0.06424   0.07298
 Alpha virt. eigenvalues --    0.09632   0.10122   0.10397   0.12588   0.12724
 Alpha virt. eigenvalues --    0.12962   0.13496   0.14042   0.15959   0.17226

 Mulliken charges:
               1
     1  C   -3.197732
     2  N   -2.796932
     3  C    5.222657
     4  O   -3.307071
     5  C    0.325692
     6  O   -2.686142
     7  H    1.366013
     8  H    1.298749
     9  H    1.298414
    10  H    0.831397
    11  H    1.644955
 Sum of Mulliken charges =   0.00000

 Dipole moment (field-independent basis, Debye):
    X=              0.8518    Y=             -1.8176    Z=             -0.0005  Tot=              2.0073

 Test job not archived.
 1\1\GINC-SE051\SP\RHF\Aug-CC-pVDZ\C3H5N1O2\OHZDE\09-Apr-2025\0\\#t hf
 aug-cc-pvdz iop(5/13=1,5/36=2,99/5=2) pseudo=read geom=check guess=(re
 ad,tcheck) scf=(maxcycle=1)\\title\\0,1\C,0,-1.02766358,1.40523504,-0.
 02433147\N,0,0.09288592,0.48643592,-0.09926152\C,0,-0.0142837,-0.84602
 148,0.14481819\O,0,-1.03547639,-1.46249924,0.45637571\C,0,1.32295753,-
 1.58283176,-0.0070878\O,0,2.37021006,-1.0385321,-0.3115228\H,0,-1.9118
 6817,0.81906843,0.24611499\H,0,-0.85513574,2.17603619,0.74067051\H,0,-
 1.19948912,1.89617642,-0.99309458\H,0,1.02206915,0.82142496,-0.3431465

 Normal termination of Gaussian 16 at Wed Apr  9 17:23:12 2025.
