 Gaussian 16, Revision C.01,

 ----------------------------------------------------------------------
 #t hf aug-cc-pvdz symm=none int=(grid=ultrafine) guess=(read,tcheck) s
 table=(opt,rrhf)
 ----------------------------------------------------------------------
 -----
 title
 -----
 Symbolic Z-matrix:
 Charge =  0 Multiplicity = 1

 SCF Done:  E(RHF) =  -302.230213903     A.U. after   16 cycles
 Normal termination of Gaussian 16 at Wed Apr  9 16:04:10 2025.
 Gaussian 16:  ES64L-G16RevC.01  3-Jul-2019

 ----------------------------------------------------------------------
 #t hf aug-cc-pvdz iop(5/13=1,5/36=2,99/5=2) pseudo=read geom=check gue
 ss=(read,tcheck) scf=(maxcycle=1)
 ----------------------------------------------------------------------
 -----
 title
 -----
 Structure from the checkpoint file:  "Grambow2020_b97d3_006710_reverse_mol2.chk"
 Charge =  0 Multiplicity = 1

                         Standard orientation:
 ---------------------------------------------------------------------
 Center     Atomic      Atomic             Coordinates (Angstroms)
 Number     Number       Type             X           Y           Z
 ---------------------------------------------------------------------
      1          8           0        3.112499   -0.673740    0.002556
      2          6           0        2.115809   -0.063429   -0.000289
      3          6           0        1.003636    0.621416   -0.003971
      4          6           0       -0.096264    1.288390   -0.003312
      5          6           0       -2.735542    0.174791    0.006658
      6          8           0       -2.629025   -1.035370   -0.005013
      7          1           0       -2.777549    0.765554    0.951165
      8          1           0       -2.816079    0.780312   -0.926028
 ---------------------------------------------------------------------

 SCF Done:  E(RHF) =  -303.493507458     A.U. after    2 cycles

 The electronic state is 1-A.
 Alpha  occ. eigenvalues --  -21.20961 -21.07075 -11.63872 -11.49678 -11.47180
 Alpha  occ. eigenvalues --  -11.43289  -1.82951  -1.69837  -1.19009  -0.94038
 Alpha  occ. eigenvalues --   -0.89224  -0.67400  -0.65448  -0.60548  -0.60539
 Alpha  occ. eigenvalues --   -0.52774  -0.49181  -0.43569  -0.39283  -0.38838
 Alpha  occ. eigenvalues --   -0.30064
 Alpha virt. eigenvalues --    0.03611   0.04705   0.04828   0.06005   0.06539
 Alpha virt. eigenvalues --    0.08799   0.09730   0.10768   0.10814   0.12163
 Alpha virt. eigenvalues --    0.12964   0.14487   0.14918   0.16067   0.16896

 Mulliken charges:
               1
     1  O   -2.325978
     2  C    1.863766
     3  C    2.669335
     4  C   -2.195892
     5  C   -0.659254
     6  O   -2.041938
     7  H    1.346653
     8  H    1.343308
 Sum of Mulliken charges =   0.00000

 Dipole moment (field-independent basis, Debye):
    X=              4.2813    Y=             -1.3158    Z=              0.0185  Tot=              4.4790

 Test job not archived.
 1\1\GINC-SE168\SP\RHF\Aug-CC-pVDZ\C4H2O2\OHZDE\09-Apr-2025\0\\#t hf au
 g-cc-pvdz iop(5/13=1,5/36=2,99/5=2) pseudo=read geom=check guess=(read
 ,tcheck) scf=(maxcycle=1)\\title\\0,1\O,0,-3.38314545,-0.72144137,1.42
 271061\C,0,-2.42989606,-0.16070678,1.04486087\C,0,-1.36565426,0.468738
 21,0.62397703\C,0,-0.31585761,1.0814463,0.20308275\C,0,1.96622056,-0.1
 4355423,-1.02063441\O,0,1.77092362,-1.34211429,-1.05645715\H,0,1.65643
 836,0.54095021,-1.84425321\H,0,2.48450785,0.35600595,-0.1692455\\Versi
 on=ES64L-G16RevC.01\State=1-A\HF=-303.4935075\RMSD=4.849e-01\Dipole=-1

 Normal termination of Gaussian 16 at Wed Apr  9 16:04:12 2025.
