 Gaussian 16, Revision C.01,

 ----------------------------------------------------------------------
 #t hf aug-cc-pvdz symm=none int=(grid=ultrafine) guess=(read,tcheck) s
 table=(opt,rrhf)
 ----------------------------------------------------------------------
 -----
 title
 -----
 Symbolic Z-matrix:
 Charge =  0 Multiplicity = 1

 SCF Done:  E(RHF) =  -269.997646927     A.U. after   12 cycles

 1\1\GINC-SE103\Stability\RHF\Aug-CC-pVDZ\C5H10O1\OHZDE\09-Apr-2025\0\\
 #t hf aug-cc-pvdz symm=none int=(grid=ultrafine) guess=(read,tcheck) s
 table=(opt,rrhf)\\title\\0,1\O,0,1.92131828,0.0500147,-0.44147888\C,0,
 1.47140512,-0.96726874,0.42957733\C,0,0.23453958,-1.64781335,-0.075374
 99\C,0,-0.87460527,-1.8056131,0.63046195\C,0,-0.95234704,1.8252922,-1.
 02677523\C,0,-0.74270562,2.07361266,0.25646474\H,0,1.22811503,0.715426
 29,-0.50587111\H,0,2.29137396,-1.68732267,0.49203009\H,0,1.29766394,-0
 .58228917,1.44332582\H,0,0.2902638,-2.018359,-1.09617049\H,0,-0.951522

 Normal termination of Gaussian 16 at Wed Apr  9 17:45:33 2025.
 Gaussian 16:  ES64L-G16RevC.01  3-Jul-2019

 ----------------------------------------------------------------------
 #t hf aug-cc-pvdz iop(5/13=1,5/36=2,99/5=2) pseudo=read geom=check gue
 ss=(read,tcheck) scf=(maxcycle=1)
 ----------------------------------------------------------------------
 -----
 title
 -----
 Structure from the checkpoint file:  "Grambow2020_wb97xd3_006151_reverse_mol2.chk"
 Charge =  0 Multiplicity = 1

                         Standard orientation:
 ---------------------------------------------------------------------
 Center     Atomic      Atomic             Coordinates (Angstroms)
 Number     Number       Type             X           Y           Z
 ---------------------------------------------------------------------
      1          8           0       -0.437628   -1.713490   -0.200764
      2          6           0       -1.378317   -0.818954    0.356853
      3          6           0       -1.476311    0.463064   -0.414369
      4          6           0       -1.366774    1.669240    0.120841
      5          6           0        2.305352    0.296862   -0.632833
      6          6           0        2.218731    0.244732    0.687053
      7          1           0        0.427328   -1.290846   -0.174826
      8          1           0       -2.337322   -1.342637    0.328720
      9          1           0       -1.154954   -0.604108    1.410433
     10          1           0       -1.643900    0.352367   -1.483056
     11          1           0       -1.194731    1.800524    1.184951
     12          1           0       -1.453949    2.569319   -0.475499
     13          1           0        3.073988   -0.242573   -1.174474
     14          1           0        1.607794    0.883382   -1.220488
     15          1           0        1.449163    0.790849    1.221792
     16          1           0        2.911520   -0.338019    1.283286
 ---------------------------------------------------------------------

 SCF Done:  E(RHF) =  -271.292472076     A.U. after    2 cycles

 The electronic state is 1-A.
 Alpha  occ. eigenvalues --  -21.05668 -11.43708 -11.41783 -11.40516 -11.38167
 Alpha  occ. eigenvalues --  -11.37141  -1.70340  -1.17711  -1.14880  -0.95990
 Alpha  occ. eigenvalues --   -0.83205  -0.79851  -0.67261  -0.65330  -0.60049
 Alpha  occ. eigenvalues --   -0.57017  -0.56793  -0.55257  -0.50345  -0.49606
 Alpha  occ. eigenvalues --   -0.41030  -0.36725  -0.35778  -0.30790
 Alpha virt. eigenvalues --    0.03866   0.05097   0.05210   0.05599   0.05771
 Alpha virt. eigenvalues --    0.06196   0.06513   0.07361   0.08279   0.08810
 Alpha virt. eigenvalues --    0.10475   0.11875   0.12585   0.13789   0.14578

 Mulliken charges:
               1
     1  O   -2.691091
     2  C   -1.944003
     3  C   -0.795469
     4  C   -2.844654
     5  C   -2.898500
     6  C   -3.047170
     7  H    1.270398
     8  H    1.295513
     9  H    1.494644
    10  H    1.394217
    11  H    1.594990
    12  H    1.350849
    13  H    1.337257
    14  H    1.522056
    15  H    1.652095
    16  H    1.308869
 Sum of Mulliken charges =  -0.00000

 Dipole moment (field-independent basis, Debye):
    X=              0.4232    Y=              0.6246    Z=              0.1390  Tot=              0.7671

 Test job not archived.
 1\1\GINC-SE103\SP\RHF\Aug-CC-pVDZ\C5H10O1\OHZDE\09-Apr-2025\0\\#t hf a
 ug-cc-pvdz iop(5/13=1,5/36=2,99/5=2) pseudo=read geom=check guess=(rea
 d,tcheck) scf=(maxcycle=1)\\title\\0,1\O,0,1.92131828,0.0500147,-0.441
 47888\C,0,1.47140512,-0.96726874,0.42957733\C,0,0.23453958,-1.64781335
 ,-0.07537499\C,0,-0.87460527,-1.8056131,0.63046195\C,0,-0.95234704,1.8
 252922,-1.02677523\C,0,-0.74270562,2.07361266,0.25646474\H,0,1.2281150
 3,0.71542629,-0.50587111\H,0,2.29137396,-1.68732267,0.49203009\H,0,1.2
 9766394,-0.58228917,1.44332582\H,0,0.2902638,-2.018359,-1.09617049\H,0

 Normal termination of Gaussian 16 at Wed Apr  9 17:45:38 2025.
