 Gaussian 16, Revision C.01,

 ----------------------------------------------------------------------
 #t hf aug-cc-pvdz symm=none int=(grid=ultrafine) guess=(read,tcheck) s
 table=(opt,rrhf)
 ----------------------------------------------------------------------
 -----
 title
 -----
 Symbolic Z-matrix:
 Charge =  0 Multiplicity = 1

 SCF Done:  E(RHF) =  -269.482832657     A.U. after   16 cycles
 Normal termination of Gaussian 16 at Wed Apr  9 03:58:47 2025.
 Gaussian 16:  ES64L-G16RevC.01  3-Jul-2019

 ----------------------------------------------------------------------
 #t hf aug-cc-pvdz iop(5/13=1,5/36=2,99/5=2) pseudo=read geom=check gue
 ss=(read,tcheck) scf=(maxcycle=1)
 ----------------------------------------------------------------------
 -----
 title
 -----
 Structure from the checkpoint file:  "Grambow2020_wb97xd3_008708_reverse_mol1.chk"
 Charge =  0 Multiplicity = 1

                         Standard orientation:
 ---------------------------------------------------------------------
 Center     Atomic      Atomic             Coordinates (Angstroms)
 Number     Number       Type             X           Y           Z
 ---------------------------------------------------------------------
      1          6           0       -1.409639    1.291585   -0.017655
      2          6           0       -0.605212   -0.000604    0.002331
      3          6           0       -1.450050   -1.232017   -0.288941
      4          6           0        0.639827    0.067900   -0.748963
      5          6           0        1.862031    0.113975   -0.920474
      6          6           0        0.231066   -0.160883    1.298788
      7          6           0        1.494329   -0.114834    0.874347
      8          1           0       -0.774165    2.154086    0.181643
      9          1           0       -2.160218    1.236044    0.771747
     10          1           0       -1.914530    1.433161   -0.976038
     11          1           0       -1.967968   -1.143903   -1.246703
     12          1           0       -0.840440   -2.135097   -0.293990
     13          1           0       -2.190395   -1.329432    0.505944
     14          1           0        2.790827    0.192931   -1.439485
     15          1           0        2.482783   -0.198528    1.300286
 ---------------------------------------------------------------------

 SCF Done:  E(RHF) =  -270.814350270     A.U. after    2 cycles

 The electronic state is 1-A.
 Alpha  occ. eigenvalues --  -11.51507 -11.46817 -11.45066 -11.41535 -11.39773
 Alpha  occ. eigenvalues --  -11.37998 -11.34222  -1.39897  -1.16442  -1.01821
 Alpha  occ. eigenvalues --   -1.01626  -0.90771  -0.76907  -0.72612  -0.64878
 Alpha  occ. eigenvalues --   -0.60350  -0.60008  -0.54696  -0.54589  -0.50578
 Alpha  occ. eigenvalues --   -0.50457  -0.43410  -0.42529  -0.31524  -0.26749
 Alpha virt. eigenvalues --    0.02833   0.04505   0.05393   0.05594   0.06010
 Alpha virt. eigenvalues --    0.06845   0.07006   0.07986   0.08021   0.09390
 Alpha virt. eigenvalues --    0.10331   0.11622   0.12843   0.13644   0.13695

 Mulliken charges:
               1
     1  C   -4.274632
     2  C    0.045719
     3  C   -4.289554
     4  C    4.829454
     5  C   -3.772380
     6  C   -1.560176
     7  C   -0.273968
     8  H    1.238918
     9  H    1.263233
    10  H    1.192030
    11  H    1.202437
    12  H    1.235174
    13  H    1.239203
    14  H    0.608040
    15  H    1.316502
 Sum of Mulliken charges =  -0.00000

 Dipole moment (field-independent basis, Debye):
    X=              1.4271    Y=              0.5258    Z=             -4.2022  Tot=              4.4690

 Test job not archived.
 1\1\GINC-SE393\SP\RHF\Aug-CC-pVDZ\C7H8\OHZDE\09-Apr-2025\0\\#t hf aug-
 cc-pvdz iop(5/13=1,5/36=2,99/5=2) pseudo=read geom=check guess=(read,t
 check) scf=(maxcycle=1)\\title\\0,1\C,0,-1.1487505,-0.736963,-1.056614
 91\C,0,-0.35578951,-0.00813279,0.01915203\C,0,-1.10944251,0.11177487,1
 .33543384\C,0,1.01932995,-0.46728612,0.1513702\C,0,2.24972814,-0.41001
 548,0.06102562\C,0,0.18877735,1.36028475,-0.46740062\C,0,1.51278587,1.
 20233583,-0.45490139\H,0,-0.57713729,-0.81692704,-1.98090893\H,0,-2.04
 877653,-0.15744073,-1.26570004\H,0,-1.44076028,-1.73738677,-0.72899066

 Normal termination of Gaussian 16 at Wed Apr  9 03:58:53 2025.
