 Gaussian 16, Revision C.01,

 ----------------------------------------------------------------------
 #t hf aug-cc-pvdz symm=none int=(grid=ultrafine) guess=(read,tcheck) s
 table=(opt,rrhf)
 ----------------------------------------------------------------------
 -----
 title
 -----
 Symbolic Z-matrix:
 Charge =  0 Multiplicity = 1

 SCF Done:  E(RHF) =  -324.867280292     A.U. after   16 cycles
 Normal termination of Gaussian 16 at Wed Apr  9 04:05:02 2025.
 Gaussian 16:  ES64L-G16RevC.01  3-Jul-2019

 ----------------------------------------------------------------------
 #t hf aug-cc-pvdz iop(5/13=1,5/36=2,99/5=2) pseudo=read geom=check gue
 ss=(read,tcheck) scf=(maxcycle=1)
 ----------------------------------------------------------------------
 -----
 title
 -----
 Structure from the checkpoint file:  "Grambow2020_wb97xd3_009232_forward_mol1.chk"
 Charge =  0 Multiplicity = 1

                         Standard orientation:
 ---------------------------------------------------------------------
 Center     Atomic      Atomic             Coordinates (Angstroms)
 Number     Number       Type             X           Y           Z
 ---------------------------------------------------------------------
      1          6           0       -2.516476   -0.719620    0.239756
      2          8           0       -1.517750   -0.205735   -0.614363
      3          6           0       -0.819843    0.846385   -0.087310
      4          6           0        0.683252    0.280231    0.967434
      5          7           0        1.922754    0.170548    0.341320
      6          6           0        2.116172   -1.093021   -0.313218
      7          6           0        0.441641    1.139782   -0.619839
      8          1           0       -2.999643   -1.537733   -0.290347
      9          1           0       -3.264660    0.046892    0.473606
     10          1           0       -2.093066   -1.099622    1.175255
     11          1           0       -1.359706    1.547379    0.539761
     12          1           0        0.646167    1.040871    1.746926
     13          1           0        0.185357   -0.657078    1.264876
     14          1           0        1.660605   -1.163162   -1.321353
     15          1           0        1.702186   -1.938479    0.264942
     16          1           0        3.185925   -1.266555   -0.446559
     17          1           0        0.743155    0.627639   -1.527681
     18          1           0        0.847922    2.129359   -0.474702
 ---------------------------------------------------------------------

 SCF Done:  E(RHF) =  -326.434081405     A.U. after    2 cycles

 The electronic state is 1-A.
 Alpha  occ. eigenvalues --  -21.07401 -15.64360 -11.51247 -11.45608 -11.42349
 Alpha  occ. eigenvalues --  -11.41576 -11.34931  -1.79130  -1.38421  -1.15593
 Alpha  occ. eigenvalues --   -1.01165  -0.96691  -0.88315  -0.79456  -0.70687
 Alpha  occ. eigenvalues --   -0.65543  -0.62994  -0.61272  -0.59522  -0.58335
 Alpha  occ. eigenvalues --   -0.55632  -0.52886  -0.49116  -0.46793  -0.41046
 Alpha  occ. eigenvalues --   -0.36423  -0.32165  -0.19179
 Alpha virt. eigenvalues --    0.03649   0.04864   0.05009   0.05344   0.05467
 Alpha virt. eigenvalues --    0.06248   0.06356   0.06986   0.07828   0.08391
 Alpha virt. eigenvalues --    0.09676   0.11181   0.12191   0.12924   0.13586

 Mulliken charges:
               1
     1  C   -3.033423
     2  O   -3.633227
     3  C    1.599674
     4  C   -1.628810
     5  N   -2.165754
     6  C   -3.262444
     7  C   -2.856212
     8  H    1.237713
     9  H    1.295029
    10  H    1.377722
    11  H    1.650099
    12  H    1.181450
    13  H    1.813245
    14  H    1.467339
    15  H    1.231587
    16  H    1.213039
    17  H    1.361503
    18  H    1.151471
 Sum of Mulliken charges =  -0.00000

 Dipole moment (field-independent basis, Debye):
    X=             -2.7634    Y=              0.8650    Z=              0.1168  Tot=              2.8979

 Test job not archived.
 1\1\GINC-SE460\SP\RHF\Aug-CC-pVDZ\C5H11N1O1\OHZDE\09-Apr-2025\0\\#t hf
  aug-cc-pvdz iop(5/13=1,5/36=2,99/5=2) pseudo=read geom=check guess=(r
 ead,tcheck) scf=(maxcycle=1)\\title\\0,1\C,0,2.36901837,0.81196572,0.5
 1324498\O,0,1.24133781,1.060899,-0.29756979\C,0,0.82032821,-0.02433283
 ,-1.01648458\C,0,-0.40523091,-1.13033658,-0.03308675\N,0,-1.76980603,-
 0.89124194,-0.17863401\C,0,-2.25953116,0.14031899,0.69227833\C,0,-0.49
 846104,-0.03792707,-1.48724948\H,0,2.6078132,1.74340161,1.02233443\H,0
 ,3.22862448,0.50541194,-0.09429779\H,0,2.16767505,0.0370776,1.26013511

 Normal termination of Gaussian 16 at Wed Apr  9 04:05:08 2025.
