 Gaussian 16, Revision C.01,

 ----------------------------------------------------------------------
 #t hf aug-cc-pvdz symm=none int=(grid=ultrafine) guess=(read,tcheck) s
 table=(opt,rrhf)
 ----------------------------------------------------------------------
 -----
 title
 -----
 Symbolic Z-matrix:
 Charge =  0 Multiplicity = 1

 SCF Done:  E(RHF) =  -308.947816648     A.U. after   15 cycles

 1\1\GINC-SE162\Stability\RHF\Aug-CC-pVDZ\C6H12O1\OHZDE\09-Apr-2025\0\\
 #t hf aug-cc-pvdz symm=none int=(grid=ultrafine) guess=(read,tcheck) s
 table=(opt,rrhf)\\title\\0,1\C,0,1.77991437,-0.22015382,-1.21281974\C,
 0,1.04959028,0.09500406,0.02509087\O,0,0.47261792,2.00834988,-0.748110
 16\C,0,-0.37783211,1.58911849,0.1523604\C,0,-0.2975917,-0.2084383,0.29
 966816\C,0,-0.71268128,-0.54869052,1.71137213\C,0,-1.14904032,-0.82993
 214,-0.78253792\H,0,2.63230188,0.43867869,-1.35097951\H,0,2.13470461,-
 1.25551512,-1.1010583\H,0,1.13384998,-0.17589335,-2.08488635\H,0,1.651

 Normal termination of Gaussian 16 at Wed Apr  9 18:05:05 2025.
 Gaussian 16:  ES64L-G16RevC.01  3-Jul-2019

 ----------------------------------------------------------------------
 #t hf aug-cc-pvdz iop(5/13=1,5/36=2,99/5=2) pseudo=read geom=check gue
 ss=(read,tcheck) scf=(maxcycle=1)
 ----------------------------------------------------------------------
 -----
 title
 -----
 Structure from the checkpoint file:  "Grambow2020_wb97xd3_006576_forward_mol1.chk"
 Charge =  0 Multiplicity = 1

                         Standard orientation:
 ---------------------------------------------------------------------
 Center     Atomic      Atomic             Coordinates (Angstroms)
 Number     Number       Type             X           Y           Z
 ---------------------------------------------------------------------
      1          6           0       -1.677438   -1.196359   -0.358864
      2          6           0       -0.547595   -0.334497   -0.740663
      3          8           0       -1.371986    1.310629    0.357322
      4          6           0       -0.073571    1.421153    0.248835
      5          6           0        0.669551   -0.197495   -0.046289
      6          6           0        1.945375    0.043159   -0.817869
      7          6           0        0.848179   -0.906064    1.275986
      8          1           0       -2.610253   -0.844116   -0.789555
      9          1           0       -1.446403   -2.194984   -0.758500
     10          1           0       -1.776293   -1.277863    0.719766
     11          1           0       -0.585036    0.091802   -1.739368
     12          1           0        0.504575    1.752627    1.141854
     13          1           0        0.331562    1.936116   -0.643382
     14          1           0        1.755334    0.440109   -1.816035
     15          1           0        2.517997   -0.882021   -0.926575
     16          1           0        2.579919    0.758116   -0.285016
     17          1           0        1.002790   -1.981818    1.150810
     18          1           0       -0.010824   -0.754972    1.930828
     19          1           0        1.725521   -0.507402    1.789777
 ---------------------------------------------------------------------

 SCF Done:  E(RHF) =  -310.470149135     A.U. after    2 cycles

 The electronic state is 1-A.
 Alpha  occ. eigenvalues --  -20.93414 -11.53820 -11.44111 -11.42337 -11.41047
 Alpha  occ. eigenvalues --  -11.40299 -11.38002  -1.61874  -1.30108  -1.12948
 Alpha  occ. eigenvalues --   -1.02816  -0.97283  -0.87933  -0.77548  -0.65862
 Alpha  occ. eigenvalues --   -0.63789  -0.63246  -0.59030  -0.57795  -0.54930
 Alpha  occ. eigenvalues --   -0.54696  -0.53506  -0.50998  -0.46277  -0.44430
 Alpha  occ. eigenvalues --   -0.40852  -0.23196  -0.20909
 Alpha virt. eigenvalues --    0.03327   0.04325   0.04634   0.04937   0.05321
 Alpha virt. eigenvalues --    0.05428   0.06222   0.07060   0.07443   0.08479
 Alpha virt. eigenvalues --    0.08846   0.09510   0.09698   0.12368   0.12872

 Mulliken charges:
               1
     1  C   -4.002435
     2  C   -0.334691
     3  O   -2.720621
     4  C    0.271647
     5  C    1.260899
     6  C   -4.661859
     7  C   -4.843287
     8  H    1.130371
     9  H    1.116272
    10  H    1.299373
    11  H    1.726685
    12  H    1.280870
    13  H    1.191553
    14  H    1.260626
    15  H    1.198594
    16  H    1.226843
    17  H    1.107773
    18  H    1.299613
    19  H    1.191774
 Sum of Mulliken charges =  -0.00000

 Dipole moment (field-independent basis, Debye):
    X=              0.9773    Y=             -2.6148    Z=             -1.4800  Tot=              3.1596

 Test job not archived.
 1\1\GINC-SE162\SP\RHF\Aug-CC-pVDZ\C6H12O1\OHZDE\09-Apr-2025\0\\#t hf a
 ug-cc-pvdz iop(5/13=1,5/36=2,99/5=2) pseudo=read geom=check guess=(rea
 d,tcheck) scf=(maxcycle=1)\\title\\0,1\C,0,1.77991437,-0.22015382,-1.2
 1281974\C,0,1.04959028,0.09500406,0.02509087\O,0,0.47261792,2.00834988
 ,-0.74811016\C,0,-0.37783211,1.58911849,0.1523604\C,0,-0.2975917,-0.20
 84383,0.29966816\C,0,-0.71268128,-0.54869052,1.71137213\C,0,-1.1490403
 2,-0.82993214,-0.78253792\H,0,2.63230188,0.43867869,-1.35097951\H,0,2.
 13470461,-1.25551512,-1.1010583\H,0,1.13384998,-0.17589335,-2.08488635

 Normal termination of Gaussian 16 at Wed Apr  9 18:05:13 2025.
