 Gaussian 16, Revision C.01,

 ----------------------------------------------------------------------
 #t hf aug-cc-pvdz symm=none int=(grid=ultrafine) guess=(read,tcheck) s
 table=(opt,rrhf)
 ----------------------------------------------------------------------
 -----
 title
 -----
 Symbolic Z-matrix:
 Charge =  0 Multiplicity = 1

 SCF Done:  E(RHF) =  -270.710942123     A.U. after   16 cycles
 Normal termination of Gaussian 16 at Wed Apr  9 19:12:14 2025.
 Gaussian 16:  ES64L-G16RevC.01  3-Jul-2019

 ----------------------------------------------------------------------
 #t hf aug-cc-pvdz iop(5/13=1,5/36=2,99/5=2) pseudo=read geom=check gue
 ss=(read,tcheck) scf=(maxcycle=1)
 ----------------------------------------------------------------------
 -----
 title
 -----
 Structure from the checkpoint file:  "Grambow2020_wb97xd3_008381_forward_mol1.chk"
 Charge =  0 Multiplicity = 1

                         Standard orientation:
 ---------------------------------------------------------------------
 Center     Atomic      Atomic             Coordinates (Angstroms)
 Number     Number       Type             X           Y           Z
 ---------------------------------------------------------------------
      1          6           0       -2.122734    0.171644   -0.175364
      2          6           0       -0.630825    0.014706    0.020519
      3          6           0        0.187257   -0.897457   -0.920028
      4          6           0        1.413248   -0.633017   -0.050747
      5          6           0       -0.254496   -0.746221    1.311295
      6          6           0        1.485192    0.879755   -0.027982
      7          6           0        0.226387    1.293503   -0.050423
      8          1           0       -2.562495    0.762018    0.632485
      9          1           0       -2.344784    0.675830   -1.118324
     10          1           0       -2.611890   -0.802837   -0.178569
     11          1           0        0.294966   -0.548792   -1.947982
     12          1           0       -0.154266   -1.931955   -0.883199
     13          1           0        2.331576   -1.212057   -0.152335
     14          1           0        0.014731   -0.019143    2.094433
     15          1           0        0.956783   -1.181051    0.991686
     16          1           0        2.400562    1.452565   -0.014886
     17          1           0       -0.149362    2.307946   -0.066934
 ---------------------------------------------------------------------

 SCF Done:  E(RHF) =  -272.080710993     A.U. after    2 cycles

 The electronic state is 1-A.
 Alpha  occ. eigenvalues --  -11.48988 -11.44091 -11.42174 -11.40863 -11.39079
 Alpha  occ. eigenvalues --  -11.38324 -11.35450  -1.42600  -1.10777  -1.05972
 Alpha  occ. eigenvalues --   -0.95350  -0.93925  -0.78060  -0.75678  -0.68651
 Alpha  occ. eigenvalues --   -0.65310  -0.58687  -0.56296  -0.54439  -0.50459
 Alpha  occ. eigenvalues --   -0.48714  -0.45983  -0.43187  -0.42044  -0.37110
 Alpha  occ. eigenvalues --   -0.26319
 Alpha virt. eigenvalues --    0.03883   0.04648   0.05056   0.05146   0.05365
 Alpha virt. eigenvalues --    0.06026   0.06795   0.07396   0.08068   0.08766
 Alpha virt. eigenvalues --    0.09692   0.11030   0.11778   0.12127   0.13410

 Mulliken charges:
               1
     1  C   -4.972248
     2  C    2.397834
     3  C   -2.825084
     4  C   -3.438545
     5  C   -2.751656
     6  C    0.072677
     7  C   -2.005954
     8  H    1.287623
     9  H    1.297505
    10  H    1.347365
    11  H    1.435921
    12  H    1.305300
    13  H    1.350113
    14  H    1.349499
    15  H    1.506131
    16  H    1.308561
    17  H    1.334958
 Sum of Mulliken charges =   0.00000

 Dipole moment (field-independent basis, Debye):
    X=              1.4271    Y=              1.5291    Z=             -1.6975  Tot=              2.6937

 Test job not archived.
 1\1\GINC-SE207\SP\RHF\Aug-CC-pVDZ\C7H10\OHZDE\09-Apr-2025\0\\#t hf aug
 -cc-pvdz iop(5/13=1,5/36=2,99/5=2) pseudo=read geom=check guess=(read,
 tcheck) scf=(maxcycle=1)\\title\\0,1\C,0,2.01950292,0.01830109,0.09334
 731\C,0,0.51362236,-0.0001719,-0.05079348\C,0,-0.35098689,-0.84787977,
 0.90825233\C,0,-1.57719002,-0.46120882,0.08633908\C,0,0.02521588,-0.70
 543544,-1.33562844\C,0,-1.51200621,1.05203716,0.08289783\C,0,-0.220770
 36,1.34980905,0.06489314\H,0,2.48291349,0.57791701,-0.72312788\H,0,2.3
 1897894,0.4868243,1.03328537\H,0,2.41782755,-0.99639426,0.06828063\H,0

 Normal termination of Gaussian 16 at Wed Apr  9 19:12:20 2025.
