 Gaussian 16, Revision C.01,

 ----------------------------------------------------------------------
 #t hf aug-cc-pvdz symm=none int=(grid=ultrafine) guess=(read,tcheck) s
 table=(opt,rrhf)
 ----------------------------------------------------------------------
 -----
 title
 -----
 Symbolic Z-matrix:
 Charge =  0 Multiplicity = 1

 SCF Done:  E(RHF) =  -299.579151842     A.U. after   20 cycles
 Normal termination of Gaussian 16 at Wed Apr  9 17:33:22 2025.
 Gaussian 16:  ES64L-G16RevC.01  3-Jul-2019

 ----------------------------------------------------------------------
 #t hf aug-cc-pvdz iop(5/13=1,5/36=2,99/5=2) pseudo=read geom=check gue
 ss=(read,tcheck) scf=(maxcycle=1)
 ----------------------------------------------------------------------
 -----
 title
 -----
 Structure from the checkpoint file:  "Grambow2020_b97d3_007181_forward_mol1.chk"
 Charge =  0 Multiplicity = 1

                         Standard orientation:
 ---------------------------------------------------------------------
 Center     Atomic      Atomic             Coordinates (Angstroms)
 Number     Number       Type             X           Y           Z
 ---------------------------------------------------------------------
      1          6           0        2.243068   -0.274454    0.249108
      2          6           0        0.862526    0.191221   -0.076304
      3          7           0        0.311745    1.294933   -0.242512
      4          8           0       -2.105642    0.392418    0.300237
      5          6           0       -1.437460   -0.599539    0.001293
      6          7           0       -0.167703   -0.753012   -0.393729
      7          1           0        2.917100    0.572276    0.415132
      8          1           0        2.196851   -0.900353    1.150474
      9          1           0        2.611758   -0.890839   -0.581019
     10          1           0       -1.897665   -1.617247    0.022623
 ---------------------------------------------------------------------

 SCF Done:  E(RHF) =  -300.875355404     A.U. after    2 cycles

 The electronic state is 1-A.
 Alpha  occ. eigenvalues --  -21.02748 -15.87850 -15.76499 -11.53467 -11.47208
 Alpha  occ. eigenvalues --  -11.44593  -1.68426  -1.48473  -1.23959  -1.13468
 Alpha  occ. eigenvalues --   -0.88242  -0.74109  -0.66217  -0.64513  -0.59541
 Alpha  occ. eigenvalues --   -0.59248  -0.55582  -0.52823  -0.46124  -0.39604
 Alpha  occ. eigenvalues --   -0.31403  -0.27966
 Alpha virt. eigenvalues --    0.01625   0.04046   0.05442   0.05528   0.05773
 Alpha virt. eigenvalues --    0.08688   0.10935   0.11339   0.11927   0.12064
 Alpha virt. eigenvalues --    0.12909   0.13647   0.14568   0.15373   0.15632

 Mulliken charges:
               1
     1  C   -3.902655
     2  C    3.875643
     3  N   -2.277180
     4  O   -2.427524
     5  C    2.081604
     6  N   -2.588803
     7  H    1.252684
     8  H    1.200168
     9  H    1.226600
    10  H    1.559464
 Sum of Mulliken charges =   0.00000

 Dipole moment (field-independent basis, Debye):
    X=              4.0407    Y=             -0.3871    Z=              0.7330  Tot=              4.1248

 Test job not archived.
 1\1\GINC-SE454\SP\RHF\Aug-CC-pVDZ\C3H4N2O1\OHZDE\09-Apr-2025\0\\#t hf
 aug-cc-pvdz iop(5/13=1,5/36=2,99/5=2) pseudo=read geom=check guess=(re
 ad,tcheck) scf=(maxcycle=1)\\title\\0,1\C,0,-1.70172598,0.10172246,0.0
 9496578\C,0,-0.33017977,-0.17587336,-0.42507524\N,0,0.15891695,-0.9269
 3427,-1.28870559\O,0,2.56582814,-0.92417445,-0.21183797\C,0,1.99873468
 ,0.07562191,0.23383696\N,0,0.78754927,0.60349072,0.0187481\H,0,-2.4442
 6926,-0.54576507,-0.38276339\H,0,-1.70304962,-0.0625332,1.1809514\H,0,
 -1.94411236,1.15527487,-0.09542617\H,0,2.52192396,0.7446874,0.95950813

 Normal termination of Gaussian 16 at Wed Apr  9 17:33:25 2025.
