 Gaussian 16, Revision C.01,

 ----------------------------------------------------------------------
 #t hf aug-cc-pvdz symm=none int=(grid=ultrafine) guess=(read,tcheck) s
 table=(opt,rrhf)
 ----------------------------------------------------------------------
 -----
 title
 -----
 Symbolic Z-matrix:
 Charge =  0 Multiplicity = 1

 SCF Done:  E(RHF) =  -358.409887928     A.U. after   15 cycles
 Normal termination of Gaussian 16 at Wed Apr  9 18:13:58 2025.
 Gaussian 16:  ES64L-G16RevC.01  3-Jul-2019

 ----------------------------------------------------------------------
 #t hf aug-cc-pvdz iop(5/13=1,5/36=2,99/5=2) pseudo=read geom=check gue
 ss=(read,tcheck) scf=(maxcycle=1)
 ----------------------------------------------------------------------
 -----
 title
 -----
 Structure from the checkpoint file:  "Grambow2020_wb97xd3_006789_reverse_mol1.chk"
 Charge =  0 Multiplicity = 1

                         Standard orientation:
 ---------------------------------------------------------------------
 Center     Atomic      Atomic             Coordinates (Angstroms)
 Number     Number       Type             X           Y           Z
 ---------------------------------------------------------------------
      1          8           0        2.474746   -0.206581   -0.090931
      2          6           0        1.454032    0.282979    0.094930
      3          6           0       -0.091342   -0.710840   -0.534368
      4          6           0       -0.753060   -1.182788    0.713282
      5          7           0       -1.572334   -0.528205   -0.273792
      6          6           0       -0.990280    0.750684   -0.460952
      7          8           0       -0.573811    1.549261    0.452780
      8          1           0        0.625669    1.213343    0.521751
      9          1           0        0.168891   -1.346187   -1.370675
     10          1           0       -0.522743   -0.660404    1.638871
     11          1           0       -0.968991   -2.239252    0.806251
     12          1           0       -1.220067    1.148278   -1.451790
 ---------------------------------------------------------------------

 SCF Done:  E(RHF) =  -360.013051365     A.U. after    2 cycles

 The electronic state is 1-A.
 Alpha  occ. eigenvalues --  -21.14853 -21.04047 -15.77358 -11.52937 -11.51752
 Alpha  occ. eigenvalues --  -11.48655 -11.42900  -1.79357  -1.75071  -1.51982
 Alpha  occ. eigenvalues --   -1.04260  -0.95329  -0.82927  -0.82157  -0.73578
 Alpha  occ. eigenvalues --   -0.65015  -0.63099  -0.56945  -0.55984  -0.53439
 Alpha  occ. eigenvalues --   -0.52451  -0.47681  -0.40560  -0.34959  -0.32504
 Alpha  occ. eigenvalues --   -0.30031
 Alpha virt. eigenvalues --    0.03826   0.05060   0.05454   0.06400   0.07210
 Alpha virt. eigenvalues --    0.09276   0.10194   0.10562   0.11354   0.12372
 Alpha virt. eigenvalues --    0.12962   0.13244   0.13545   0.14669   0.15110

 Mulliken charges:
               1
     1  O   -2.594590
     2  C    1.348521
     3  C   -0.917778
     4  C   -2.469718
     5  N   -1.931389
     6  C    2.341006
     7  O   -3.303920
     8  H    2.068028
     9  H    1.217691
    10  H    1.274583
    11  H    1.403411
    12  H    1.564156
 Sum of Mulliken charges =  -0.00000

 Dipole moment (field-independent basis, Debye):
    X=              1.3369    Y=             -1.4390    Z=             -0.1327  Tot=              1.9687

 Test job not archived.
 1\1\GINC-SE103\SP\RHF\Aug-CC-pVDZ\C4H5N1O2\OHZDE\09-Apr-2025\0\\#t hf
 aug-cc-pvdz iop(5/13=1,5/36=2,99/5=2) pseudo=read geom=check guess=(re
 ad,tcheck) scf=(maxcycle=1)\\title\\0,1\O,0,2.51199212,-0.17038165,-0.
 78673801\C,0,1.39653864,-0.4364159,-0.81927871\C,0,0.32780198,0.201564
 02,0.67157911\C,0,-0.51732518,1.27540912,0.08009469\N,0,-1.17228598,0.
 26640416,0.87188986\C,0,-0.85737619,-0.96721452,0.24868025\O,0,-0.8810
 8275,-1.22410624,-1.00811067\H,0,0.30177915,-0.97398622,-1.31572464\H,
 0,0.93121002,0.31445114,1.5626188\H,0,-0.65835612,1.27436102,-0.998216

 Normal termination of Gaussian 16 at Wed Apr  9 18:14:02 2025.
