 Gaussian 16, Revision C.01,

 ----------------------------------------------------------------------
 #t hf aug-cc-pvdz symm=none int=(grid=ultrafine) guess=(read,tcheck) s
 table=(opt,rrhf)
 ----------------------------------------------------------------------
 -----
 title
 -----
 Symbolic Z-matrix:
 Charge =  0 Multiplicity = 1

 SCF Done:  E(RHF) =  -304.693881325     A.U. after   14 cycles
 Normal termination of Gaussian 16 at Wed Apr  9 17:40:30 2025.
 Gaussian 16:  ES64L-G16RevC.01  3-Jul-2019

 ----------------------------------------------------------------------
 #t hf aug-cc-pvdz iop(5/13=1,5/36=2,99/5=2) pseudo=read geom=check gue
 ss=(read,tcheck) scf=(maxcycle=1)
 ----------------------------------------------------------------------
 -----
 title
 -----
 Structure from the checkpoint file:  "Grambow2020_wb97xd3_006106_reverse_mol2.chk"
 Charge =  0 Multiplicity = 1

                         Standard orientation:
 ---------------------------------------------------------------------
 Center     Atomic      Atomic             Coordinates (Angstroms)
 Number     Number       Type             X           Y           Z
 ---------------------------------------------------------------------
      1          6           0       -1.267582    0.736316   -0.171600
      2          8           0       -1.362100   -0.602028   -0.336120
      3          6           0       -0.184205   -1.162622    0.270519
      4          6           0        0.806915   -0.005169    0.472046
      5          8           0        1.866530    0.018242   -0.472170
      6          6           0       -0.119055    1.171883    0.335801
      7          1           0        1.513226    0.348098   -1.302499
      8          1           0       -2.140654    1.294034   -0.481858
      9          1           0       -0.483633   -1.599590    1.226069
     10          1           0        0.213060   -1.937359   -0.383706
     11          1           0        1.297709   -0.076493    1.443006
     12          1           0        0.148417    2.199154    0.524717
 ---------------------------------------------------------------------

 SCF Done:  E(RHF) =  -306.049809264     A.U. after    2 cycles

 The electronic state is 1-A.
 Alpha  occ. eigenvalues --  -21.07516 -21.06837 -11.49235 -11.45422 -11.41588
 Alpha  occ. eigenvalues --  -11.37421  -1.81426  -1.70511  -1.16349  -1.06993
 Alpha  occ. eigenvalues --   -0.85252  -0.80465  -0.73051  -0.66312  -0.58809
 Alpha  occ. eigenvalues --   -0.53696  -0.52332  -0.51750  -0.46791  -0.43979
 Alpha  occ. eigenvalues --   -0.40427  -0.31007  -0.26588
 Alpha virt. eigenvalues --    0.03551   0.05133   0.05510   0.05953   0.06658
 Alpha virt. eigenvalues --    0.06842   0.10427   0.10692   0.11293   0.13338
 Alpha virt. eigenvalues --    0.13916   0.14353   0.14585   0.14989   0.16076

 Mulliken charges:
               1
     1  C    1.332206
     2  O   -3.356128
     3  C   -1.778459
     4  C    0.282183
     5  O   -3.103274
     6  C   -1.299871
     7  H    0.848845
     8  H    1.467290
     9  H    1.412236
    10  H    1.369892
    11  H    1.597648
    12  H    1.227432
 Sum of Mulliken charges =   0.00000

 Dipole moment (field-independent basis, Debye):
    X=             -0.5973    Y=              0.0103    Z=             -0.0032  Tot=              0.5974

 Test job not archived.
 1\1\GINC-SE174\SP\RHF\Aug-CC-pVDZ\C4H6O2\OHZDE\09-Apr-2025\0\\#t hf au
 g-cc-pvdz iop(5/13=1,5/36=2,99/5=2) pseudo=read geom=check guess=(read
 ,tcheck) scf=(maxcycle=1)\\title\\0,1\C,0,-1.21035465,-0.44122707,-0.7
 3557635\O,0,-0.87656444,0.84257648,-0.99556943\C,0,0.46352934,1.014217
 64,-0.50119999\C,0,0.75395092,-0.17968459,0.42231614\O,0,0.69764717,0.
 13367918,1.80561298\C,0,-0.33559696,-1.12424934,-0.00443554\H,0,-0.227
 6857,0.21266826,2.05177323\H,0,-2.15815036,-0.75617595,-1.15037123\H,0
 ,1.13332603,1.0203913,-1.36433812\H,0,0.52516125,1.96665652,0.02330824

 Normal termination of Gaussian 16 at Wed Apr  9 17:40:34 2025.
