 Gaussian 16, Revision C.01,

 ----------------------------------------------------------------------
 #t hf aug-cc-pvdz symm=none int=(grid=ultrafine) guess=(read,tcheck) s
 table=(opt,rrhf)
 ----------------------------------------------------------------------
 -----
 title
 -----
 Symbolic Z-matrix:
 Charge =  0 Multiplicity = 1

 SCF Done:  E(RHF) =  -285.997558370     A.U. after   14 cycles
 Normal termination of Gaussian 16 at Wed Apr  9 03:21:08 2025.
 Gaussian 16:  ES64L-G16RevC.01  3-Jul-2019

 ----------------------------------------------------------------------
 #t hf aug-cc-pvdz iop(5/13=1,5/36=2,99/5=2) pseudo=read geom=check gue
 ss=(read,tcheck) scf=(maxcycle=1)
 ----------------------------------------------------------------------
 -----
 title
 -----
 Structure from the checkpoint file:  "Grambow2020_wb97xd3_006067_reverse_mol1.chk"
 Charge =  0 Multiplicity = 1

                         Standard orientation:
 ---------------------------------------------------------------------
 Center     Atomic      Atomic             Coordinates (Angstroms)
 Number     Number       Type             X           Y           Z
 ---------------------------------------------------------------------
      1          6           0        2.739680   -0.080666    0.015187
      2          6           0        1.318635    0.293999   -0.379169
      3          6           0        0.271553   -0.508745    0.392006
      4          6           0       -1.116241   -0.051938    0.094460
      5          8           0       -1.470693    1.181463    0.145650
      6          7           0       -2.170640   -0.737780   -0.241946
      7          1           0        3.468357    0.496755   -0.555478
      8          1           0        2.939829   -1.139693   -0.165583
      9          1           0        2.917206    0.116075    1.075223
     10          1           0        1.140403    1.355825   -0.199666
     11          1           0        1.172507    0.132511   -1.451063
     12          1           0        0.362164   -1.576860    0.183100
     13          1           0        0.423595   -0.373701    1.467485
     14          1           0       -2.199155   -1.737044   -0.368018
     15          1           0       -2.546638    0.522995   -0.192475
 ---------------------------------------------------------------------

 SCF Done:  E(RHF) =  -287.367874056     A.U. after    2 cycles

 The electronic state is 1-A.
 Alpha  occ. eigenvalues --  -21.03241 -15.73320 -11.51024 -11.42969 -11.39926
 Alpha  occ. eigenvalues --  -11.36250  -1.75468  -1.29995  -1.22877  -1.04968
 Alpha  occ. eigenvalues --   -0.87553  -0.78020  -0.73663  -0.66165  -0.59355
 Alpha  occ. eigenvalues --   -0.57600  -0.55343  -0.50574  -0.49600  -0.46634
 Alpha  occ. eigenvalues --   -0.46033  -0.42746  -0.33507  -0.29738
 Alpha virt. eigenvalues --    0.03543   0.04819   0.05405   0.05718   0.06048
 Alpha virt. eigenvalues --    0.06721   0.07218   0.07314   0.08753   0.10736
 Alpha virt. eigenvalues --    0.12226   0.13372   0.13477   0.14612   0.15902

 Mulliken charges:
               1
     1  C   -3.879459
     2  C   -2.713345
     3  C   -3.815111
     4  C    6.040938
     5  O   -2.972621
     6  N   -3.457650
     7  H    1.075631
     8  H    1.262999
     9  H    1.231372
    10  H    1.519311
    11  H    1.440147
    12  H    1.424220
    13  H    1.455128
    14  H    0.755295
    15  H    0.633143
 Sum of Mulliken charges =  -0.00000

 Dipole moment (field-independent basis, Debye):
    X=              1.7230    Y=             -1.0959    Z=              0.0906  Tot=              2.0440

 Test job not archived.
 1\1\GINC-SE338\SP\RHF\Aug-CC-pVDZ\C4H9N1O1\OHZDE\09-Apr-2025\0\\#t hf
 aug-cc-pvdz iop(5/13=1,5/36=2,99/5=2) pseudo=read geom=check guess=(re
 ad,tcheck) scf=(maxcycle=1)\\title\\0,1\C,0,2.20419217,-0.05362405,-0.
 49353638\C,0,0.73971884,0.3424687,-0.61053095\C,0,-0.1222315,-0.292905
 42,0.47980498\C,0,-1.53036587,0.19548016,0.43719543\O,0,-1.83518516,1.
 44228107,0.39129895\N,0,-2.64926783,-0.47033908,0.44424607\H,0,2.79671
 661,0.40263189,-1.28775825\H,0,2.33330338,-1.13657933,-0.56291384\H,0,
 2.62323718,0.27166761,0.46170476\H,0,0.63171751,1.42683221,-0.54764919

 Normal termination of Gaussian 16 at Wed Apr  9 03:21:13 2025.
