 Gaussian 16, Revision C.01,

 ----------------------------------------------------------------------
 #t hf aug-cc-pvdz symm=none int=(grid=ultrafine) guess=(read,tcheck) s
 table=(opt,rrhf)
 ----------------------------------------------------------------------
 -----
 title
 -----
 Symbolic Z-matrix:
 Charge =  0 Multiplicity = 1

 SCF Done:  E(RHF) =  -376.876128509     A.U. after   13 cycles
 Normal termination of Gaussian 16 at Wed Apr  9 03:58:44 2025.
 Gaussian 16:  ES64L-G16RevC.01  3-Jul-2019

 ----------------------------------------------------------------------
 #t hf aug-cc-pvdz iop(5/13=1,5/36=2,99/5=2) pseudo=read geom=check gue
 ss=(read,tcheck) scf=(maxcycle=1)
 ----------------------------------------------------------------------
 -----
 title
 -----
 Structure from the checkpoint file:  "Grambow2020_wb97xd3_008746_forward_mol1.chk"
 Charge =  0 Multiplicity = 1

                         Standard orientation:
 ---------------------------------------------------------------------
 Center     Atomic      Atomic             Coordinates (Angstroms)
 Number     Number       Type             X           Y           Z
 ---------------------------------------------------------------------
      1          7           0        2.506706   -0.067506   -0.302554
      2          6           0        1.238394    0.033155    0.011399
      3          8           0        0.860062   -1.157577    0.371623
      4          7           0        0.407026    1.079768   -0.009422
      5          6           0       -0.975171    1.046135    0.458661
      6          6           0       -1.926974    0.213371   -0.396510
      7          8           0       -1.914510   -1.155363   -0.094666
      8          1           0        3.117588    0.704873   -0.508672
      9          1           0        2.096509   -1.270652    0.098673
     10          1           0        0.772714    1.948186   -0.350613
     11          1           0       -1.315123    2.082717    0.470059
     12          1           0       -1.005394    0.677190    1.487105
     13          1           0       -1.703552    0.398205   -1.457562
     14          1           0       -2.946781    0.561018   -0.211369
     15          1           0       -0.993999   -1.439817   -0.000746
 ---------------------------------------------------------------------

 SCF Done:  E(RHF) =  -378.579682893     A.U. after    2 cycles

 The electronic state is 1-A.
 Alpha  occ. eigenvalues --  -21.04581 -21.04405 -15.78671 -15.72694 -11.52115
 Alpha  occ. eigenvalues --  -11.45835 -11.39590  -1.78291  -1.69689  -1.42789
 Alpha  occ. eigenvalues --   -1.28879  -1.09342  -0.90667  -0.82150  -0.77043
 Alpha  occ. eigenvalues --   -0.68957  -0.65189  -0.61454  -0.58871  -0.53899
 Alpha  occ. eigenvalues --   -0.52807  -0.50041  -0.49259  -0.41898  -0.35823
 Alpha  occ. eigenvalues --   -0.34071  -0.31196  -0.30064
 Alpha virt. eigenvalues --    0.02991   0.04364   0.05204   0.05772   0.06131
 Alpha virt. eigenvalues --    0.06912   0.07675   0.09184   0.10694   0.11276
 Alpha virt. eigenvalues --    0.12591   0.13677   0.14265   0.14993   0.15405

 Mulliken charges:
               1
     1  N   -3.047230
     2  C    5.489371
     3  O   -2.531121
     4  N   -2.230907
     5  C   -2.519620
     6  C   -0.826764
     7  O   -2.850418
     8  H    0.745042
     9  H    0.253593
    10  H    0.547247
    11  H    1.440466
    12  H    1.523542
    13  H    1.528523
    14  H    1.289578
    15  H    1.188699
 Sum of Mulliken charges =  -0.00000

 Dipole moment (field-independent basis, Debye):
    X=             -0.1775    Y=              3.1780    Z=              0.0828  Tot=              3.1841

 Test job not archived.
 1\1\GINC-SE070\SP\RHF\Aug-CC-pVDZ\C3H8N2O2\OHZDE\09-Apr-2025\0\\#t hf
 aug-cc-pvdz iop(5/13=1,5/36=2,99/5=2) pseudo=read geom=check guess=(re
 ad,tcheck) scf=(maxcycle=1)\\title\\0,1\N,0,2.35496053,1.17429376,-0.2
 0507475\C,0,1.11900305,0.74383977,-0.1384974\O,0,0.46180065,1.63688655
 ,0.54068836\N,0,0.54665963,-0.36581475,-0.61609155\C,0,-0.88003427,-0.
 66213236,-0.52982334\C,0,-1.39728017,-0.94514005,0.87840438\O,0,-1.711
 42954,0.20702338,1.61224771\H,0,3.08398398,0.76422774,-0.76418093\H,0,
 1.64870234,2.08570186,0.46376078\H,0,1.14164211,-1.02317171,-1.0831736

 Normal termination of Gaussian 16 at Wed Apr  9 03:58:48 2025.
