 Gaussian 16, Revision C.01,

 ----------------------------------------------------------------------
 #t hf aug-cc-pvdz symm=none int=(grid=ultrafine) guess=(read,tcheck) s
 table=(opt,rrhf)
 ----------------------------------------------------------------------
 -----
 title
 -----
 Symbolic Z-matrix:
 Charge =  0 Multiplicity = 1

 SCF Done:  E(RHF) =  -321.328282248     A.U. after   17 cycles
 Normal termination of Gaussian 16 at Wed Apr  9 03:40:12 2025.
 Gaussian 16:  ES64L-G16RevC.01  3-Jul-2019

 ----------------------------------------------------------------------
 #t hf aug-cc-pvdz iop(5/13=1,5/36=2,99/5=2) pseudo=read geom=check gue
 ss=(read,tcheck) scf=(maxcycle=1)
 ----------------------------------------------------------------------
 -----
 title
 -----
 Structure from the checkpoint file:  "Grambow2020_wb97xd3_007496_forward_mol1.chk"
 Charge =  0 Multiplicity = 1

                         Standard orientation:
 ---------------------------------------------------------------------
 Center     Atomic      Atomic             Coordinates (Angstroms)
 Number     Number       Type             X           Y           Z
 ---------------------------------------------------------------------
      1          8           0       -0.204039    1.807245   -0.023470
      2          6           0       -0.713382    0.742209   -0.012665
      3          6           0       -1.982030    0.110680   -0.080011
      4          6           0       -1.922061   -1.189667    0.007915
      5          6           0        0.572715   -0.493683    0.096437
      6          6           0        1.854422   -0.431038   -0.702778
      7          7           0        1.707060   -0.387022    0.724862
      8          1           0       -2.713612   -1.927696    0.009309
      9          1           0       -0.829866   -1.582297    0.103171
     10          1           0        2.037224    0.496024   -1.237475
     11          1           0        2.291749   -1.333550   -1.110817
     12          1           0        2.039412    0.167708    1.496149
 ---------------------------------------------------------------------

 SCF Done:  E(RHF) =  -322.806309162     A.U. after    2 cycles

 The electronic state is 1-A.
 Alpha  occ. eigenvalues --  -21.09868 -15.83863 -11.53235 -11.52797 -11.46569
 Alpha  occ. eigenvalues --  -11.40136 -11.34537  -1.75452  -1.54274  -1.18250
 Alpha  occ. eigenvalues --   -1.00435  -0.90708  -0.86954  -0.76679  -0.69882
 Alpha  occ. eigenvalues --   -0.63944  -0.59682  -0.57403  -0.54204  -0.50782
 Alpha  occ. eigenvalues --   -0.47857  -0.44293  -0.33743  -0.32973  -0.29405
 Alpha virt. eigenvalues --    0.03086   0.04172   0.05051   0.05251   0.06116
 Alpha virt. eigenvalues --    0.07293   0.09257   0.10253   0.10904   0.11361
 Alpha virt. eigenvalues --    0.11808   0.12933   0.13439   0.14362   0.15054

 Mulliken charges:
               1
     1  O   -2.844514
     2  C    3.478811
     3  C   -1.740120
     4  C   -1.817128
     5  C    1.204226
     6  C   -2.379957
     7  N   -2.517057
     8  H    1.381635
     9  H    1.736166
    10  H    1.430817
    11  H    1.330867
    12  H    0.736254
 Sum of Mulliken charges =  -0.00000

 Dipole moment (field-independent basis, Debye):
    X=              6.4103    Y=             -0.6112    Z=              0.9097  Tot=              6.5033

 Test job not archived.
 1\1\GINC-SE331\SP\RHF\Aug-CC-pVDZ\C5H5N1O1\OHZDE\09-Apr-2025\0\\#t hf
 aug-cc-pvdz iop(5/13=1,5/36=2,99/5=2) pseudo=read geom=check guess=(re
 ad,tcheck) scf=(maxcycle=1)\\title\\0,1\O,0,0.09357948,-0.22794987,2.1
 3613262\C,0,0.7455297,-0.11776552,1.15803827\C,0,2.08388749,-0.1957576
 2,0.69376699\C,0,2.20975431,0.06233385,-0.57893664\C,0,-0.34879989,0.2
 4227956,-0.20804668\C,0,-1.66866685,-0.46290948,-0.42275534\N,0,-1.450
 80967,0.93274694,-0.16490002\H,0,3.09488789,0.10072568,-1.20047196\H,0
 ,1.18944691,0.28642315,-1.09360123\H,0,-2.0073068,-1.09733943,0.390621

 Normal termination of Gaussian 16 at Wed Apr  9 03:40:16 2025.
