 Gaussian 16, Revision C.01,

 ----------------------------------------------------------------------
 #t hf aug-cc-pvdz symm=none int=(grid=ultrafine) guess=(read,tcheck) s
 table=(opt,rrhf)
 ----------------------------------------------------------------------
 -----
 title
 -----
 Symbolic Z-matrix:
 Charge =  0 Multiplicity = 1

 SCF Done:  E(RHF) =  -227.819258027     A.U. after   13 cycles
 Normal termination of Gaussian 16 at Wed Apr  9 17:29:13 2025.
 Gaussian 16:  ES64L-G16RevC.01  3-Jul-2019

 ----------------------------------------------------------------------
 #t hf aug-cc-pvdz iop(5/13=1,5/36=2,99/5=2) pseudo=read geom=check gue
 ss=(read,tcheck) scf=(maxcycle=1)
 ----------------------------------------------------------------------
 -----
 title
 -----
 Structure from the checkpoint file:  "Grambow2020_b97d3_007157_forward_mol2.chk"
 Charge =  0 Multiplicity = 1

                         Standard orientation:
 ---------------------------------------------------------------------
 Center     Atomic      Atomic             Coordinates (Angstroms)
 Number     Number       Type             X           Y           Z
 ---------------------------------------------------------------------
      1          6           0       -1.373021   -0.410662   -0.000141
      2          8           0       -0.486289    0.734982    0.000049
      3          6           0        0.832575    0.437616    0.000201
      4          8           0        1.316687   -0.673896   -0.000067
      5          1           0       -1.221658   -1.012262    0.904099
      6          1           0       -1.192403   -1.035181   -0.882958
      7          1           0       -2.382379    0.008609   -0.021226
      8          1           0        1.395935    1.388415   -0.000128
 ---------------------------------------------------------------------

 SCF Done:  E(RHF) =  -228.795304544     A.U. after    2 cycles

 The electronic state is 1-A.
 Alpha  occ. eigenvalues --  -21.10407 -21.06469 -11.50901 -11.42167  -1.83587
 Alpha  occ. eigenvalues --   -1.66429  -1.03403  -0.83074  -0.69173  -0.63323
 Alpha  occ. eigenvalues --   -0.56658  -0.56132  -0.50787  -0.43174  -0.32834
 Alpha  occ. eigenvalues --   -0.31331
 Alpha virt. eigenvalues --    0.03393   0.05420   0.06169   0.06579   0.10035
 Alpha virt. eigenvalues --    0.10976   0.11213   0.14176   0.14545   0.16110
 Alpha virt. eigenvalues --    0.16991   0.18245   0.18313   0.20541   0.26039

 Mulliken charges:
               1
     1  C   -2.806638
     2  O   -2.606581
     3  C    2.409664
     4  O   -2.369702
     5  H    1.264238
     6  H    1.266747
     7  H    1.262541
     8  H    1.579730
 Sum of Mulliken charges =  -0.00000

 Dipole moment (field-independent basis, Debye):
    X=             -1.3514    Y=              0.4729    Z=             -0.0014  Tot=              1.4318

 Test job not archived.
 1\1\GINC-SE174\SP\RHF\Aug-CC-pVDZ\C2H4O2\OHZDE\09-Apr-2025\0\\#t hf au
 g-cc-pvdz iop(5/13=1,5/36=2,99/5=2) pseudo=read geom=check guess=(read
 ,tcheck) scf=(maxcycle=1)\\title\\0,1\C,0,-1.03062212,-0.1456019,-0.03
 34532\O,0,0.28221766,-0.75674682,-0.07525511\C,0,1.31817456,0.10503034
 ,0.03411687\O,0,1.23932228,1.30821271,0.16043944\H,0,-1.15581423,0.550
 63014,-0.87135065\H,0,-1.17160455,0.39598391,0.90931996\H,0,-1.7360324
 5,-0.97695487,-0.11272848\H,0,2.25435884,-0.48055351,-0.01108883\\Vers
 ion=ES64L-G16RevC.01\State=1-A\HF=-228.7953045\RMSD=5.638e-02\Dipole=-

 Normal termination of Gaussian 16 at Wed Apr  9 17:29:15 2025.
