 Gaussian 16, Revision C.01,

 ----------------------------------------------------------------------
 #t hf aug-cc-pvdz symm=none int=(grid=ultrafine) guess=(read,tcheck) s
 table=(opt,rrhf)
 ----------------------------------------------------------------------
 -----
 title
 -----
 Symbolic Z-matrix:
 Charge =  0 Multiplicity = 1

 SCF Done:  E(RHF) =  -324.976370864     A.U. after   14 cycles
 Normal termination of Gaussian 16 at Wed Apr  9 19:07:02 2025.
 Gaussian 16:  ES64L-G16RevC.01  3-Jul-2019

 ----------------------------------------------------------------------
 #t hf aug-cc-pvdz iop(5/13=1,5/36=2,99/5=2) pseudo=read geom=check gue
 ss=(read,tcheck) scf=(maxcycle=1)
 ----------------------------------------------------------------------
 -----
 title
 -----
 Structure from the checkpoint file:  "Grambow2020_wb97xd3_008115_reverse_mol1.chk"
 Charge =  0 Multiplicity = 1

                         Standard orientation:
 ---------------------------------------------------------------------
 Center     Atomic      Atomic             Coordinates (Angstroms)
 Number     Number       Type             X           Y           Z
 ---------------------------------------------------------------------
      1          6           0        2.927449    0.085818    0.111969
      2          7           0        1.635114    0.649605   -0.250125
      3          6           0        0.478215    0.017526   -0.154347
      4          8           0        0.539878   -1.173413    0.296033
      5          6           0       -1.692001    0.140768   -0.464478
      6          6           0       -2.035760   -1.135628   -0.065121
      7          6           0       -2.013757    1.349991    0.368266
      8          1           0        2.955052   -0.161733    1.173866
      9          1           0        3.708147    0.812732   -0.105558
     10          1           0        3.118108   -0.824657   -0.456884
     11          1           0        1.608479    1.589712   -0.598702
     12          1           0       -1.581785    0.335718   -1.525556
     13          1           0       -2.217342   -1.903045   -0.809156
     14          1           0       -2.494924   -1.282954    0.907791
     15          1           0       -0.509271   -1.453218    0.267353
     16          1           0       -3.055834    1.639222    0.200442
     17          1           0       -1.899103    1.135087    1.432034
     18          1           0       -1.381226    2.202353    0.119241
 ---------------------------------------------------------------------

 SCF Done:  E(RHF) =  -326.569722443     A.U. after    2 cycles

 The electronic state is 1-A.
 Alpha  occ. eigenvalues --  -21.06468 -15.76831 -11.44857 -11.41262 -11.39873
 Alpha  occ. eigenvalues --  -11.37265 -11.32305  -1.75825  -1.38785  -1.19326
 Alpha  occ. eigenvalues --   -1.01861  -0.98433  -0.81557  -0.78141  -0.66908
 Alpha  occ. eigenvalues --   -0.62655  -0.61524  -0.59967  -0.58479  -0.55195
 Alpha  occ. eigenvalues --   -0.54185  -0.52089  -0.48782  -0.48260  -0.45779
 Alpha  occ. eigenvalues --   -0.33156  -0.32185  -0.27306
 Alpha virt. eigenvalues --    0.03410   0.04817   0.05029   0.05666   0.06249
 Alpha virt. eigenvalues --    0.06496   0.06680   0.06826   0.07303   0.08404
 Alpha virt. eigenvalues --    0.09205   0.11739   0.11849   0.13224   0.14099

 Mulliken charges:
               1
     1  C   -3.559253
     2  N   -2.787495
     3  C    4.348975
     4  O   -3.572829
     5  C   -2.099850
     6  C   -3.045625
     7  C   -4.307076
     8  H    1.378026
     9  H    1.322243
    10  H    1.377130
    11  H    0.651594
    12  H    1.469702
    13  H    1.271201
    14  H    1.361732
    15  H    2.263882
    16  H    1.236047
    17  H    1.317583
    18  H    1.374014
 Sum of Mulliken charges =   0.00000

 Dipole moment (field-independent basis, Debye):
    X=              2.9231    Y=              1.5801    Z=             -0.2301  Tot=              3.3308

 Test job not archived.
 1\1\GINC-SE340\SP\RHF\Aug-CC-pVDZ\C5H11N1O1\OHZDE\09-Apr-2025\0\\#t hf
  aug-cc-pvdz iop(5/13=1,5/36=2,99/5=2) pseudo=read geom=check guess=(r
 ead,tcheck) scf=(maxcycle=1)\\title\\0,1\C,0,3.01444009,0.51982406,0.1
 974374\N,0,1.69695435,0.67292894,-0.40246784\C,0,0.6309562,-0.04070275
 ,-0.08389201\O,0,0.80967077,-0.91782885,0.82368213\C,0,-1.49876022,-0.
 40242509,-0.47717723\C,0,-1.70404668,-1.44183,0.40845217\C,0,-2.053877
 88,0.9730336,-0.2339366\H,0,2.97766429,0.73480553,1.26612777\H,0,3.707
 66205,1.20907327,-0.28172066\H,0,3.37617188,-0.5003244,0.06569201\H,0,

 Normal termination of Gaussian 16 at Wed Apr  9 19:07:07 2025.
