 Gaussian 16, Revision C.01,

 ----------------------------------------------------------------------
 #t hf aug-cc-pvdz symm=none int=(grid=ultrafine) guess=(read,tcheck) s
 table=(opt,rrhf)
 ----------------------------------------------------------------------
 -----
 title
 -----
 Symbolic Z-matrix:
 Charge =  0 Multiplicity = 1

 SCF Done:  E(RHF) =  -344.667938637     A.U. after   17 cycles

 1\1\GINC-SE105\Stability\RHF\Aug-CC-pVDZ\C5H10O2\OHZDE\09-Apr-2025\0\\
 #t hf aug-cc-pvdz symm=none int=(grid=ultrafine) guess=(read,tcheck) s
 table=(opt,rrhf)\\title\\0,1\C,0,2.14482201,0.11860882,-0.09447819\O,0
 ,1.06562075,-0.03590423,0.80236469\C,0,-0.21570076,0.00028611,0.282694
 57\C,0,-0.49834186,0.76558015,-0.87568241\C,0,-1.19139964,-0.10832243,
 1.32973696\C,0,-0.62168789,-1.5914068,-0.10819772\O,0,-1.54773777,-2.0
 1105241,-0.71831643\H,0,2.06925053,-0.56006123,-0.95125512\H,0,3.04274
 053,-0.12363624,0.47040297\H,0,2.22089972,1.14678079,-0.45787586\H,0,0

 Normal termination of Gaussian 16 at Wed Apr  9 19:12:16 2025.
 Gaussian 16:  ES64L-G16RevC.01  3-Jul-2019

 ----------------------------------------------------------------------
 #t hf aug-cc-pvdz iop(5/13=1,5/36=2,99/5=2) pseudo=read geom=check gue
 ss=(read,tcheck) scf=(maxcycle=1)
 ----------------------------------------------------------------------
 -----
 title
 -----
 Structure from the checkpoint file:  "Grambow2020_wb97xd3_008393_forward_mol1.chk"
 Charge =  0 Multiplicity = 1

                         Standard orientation:
 ---------------------------------------------------------------------
 Center     Atomic      Atomic             Coordinates (Angstroms)
 Number     Number       Type             X           Y           Z
 ---------------------------------------------------------------------
      1          6           0       -2.178326   -0.706632    0.056226
      2          8           0       -1.212112    0.008386   -0.684082
      3          6           0       -0.054296    0.392903   -0.032346
      4          6           0       -0.070131    0.662602    1.358485
      5          6           0        0.788676    1.159717   -0.904972
      6          6           0        1.056447   -0.861067   -0.244291
      7          8           0        2.112052   -1.035108    0.266907
      8          1           0       -1.743270   -1.563265    0.582797
      9          1           0       -2.905176   -1.068730   -0.668071
     10          1           0       -2.687554   -0.063363    0.778636
     11          1           0       -0.833703    0.240659    1.997933
     12          1           0       -0.185435    2.412281    0.794238
     13          1           0        0.891109    0.828114    1.828531
     14          1           0        0.096309    2.616617    0.039143
     15          1           0        1.779546    1.419735   -0.562636
     16          1           0        0.613104    1.097357   -1.971565
     17          1           0        0.521335   -1.590768   -0.880220
 ---------------------------------------------------------------------

 SCF Done:  E(RHF) =  -346.287529942     A.U. after    2 cycles

 The electronic state is 1-A.
 Alpha  occ. eigenvalues --  -21.07805 -21.07462 -11.52625 -11.49554 -11.42814
 Alpha  occ. eigenvalues --  -11.42348 -11.39866  -1.80628  -1.72901  -1.23557
 Alpha  occ. eigenvalues --   -1.02994  -0.98931  -0.90237  -0.77370  -0.69009
 Alpha  occ. eigenvalues --   -0.68094  -0.64981  -0.62836  -0.57731  -0.56084
 Alpha  occ. eigenvalues --   -0.55786  -0.51810  -0.51153  -0.47266  -0.40669
 Alpha  occ. eigenvalues --   -0.35854  -0.28216  -0.25032
 Alpha virt. eigenvalues --    0.03586   0.04608   0.04640   0.05445   0.05711
 Alpha virt. eigenvalues --    0.06299   0.06575   0.06979   0.07774   0.08998
 Alpha virt. eigenvalues --    0.09840   0.10266   0.11504   0.12984   0.13073

 Mulliken charges:
               1
     1  C   -3.219684
     2  O   -4.295458
     3  C    5.907535
     4  C   -3.872860
     5  C   -3.862209
     6  C    1.528391
     7  O   -3.009530
     8  H    1.374333
     9  H    1.348296
    10  H    1.432529
    11  H    1.375236
    12  H    0.215337
    13  H    1.205170
    14  H   -0.163910
    15  H    1.285899
    16  H    1.307567
    17  H    1.443360
 Sum of Mulliken charges =   0.00000

 Dipole moment (field-independent basis, Debye):
    X=             -0.3960    Y=             -1.7748    Z=             -0.6300  Tot=              1.9244

 Test job not archived.
 1\1\GINC-SE105\SP\RHF\Aug-CC-pVDZ\C5H10O2\OHZDE\09-Apr-2025\0\\#t hf a
 ug-cc-pvdz iop(5/13=1,5/36=2,99/5=2) pseudo=read geom=check guess=(rea
 d,tcheck) scf=(maxcycle=1)\\title\\0,1\C,0,2.14482201,0.11860882,-0.09
 447819\O,0,1.06562075,-0.03590423,0.80236469\C,0,-0.21570076,0.0002861
 1,0.28269457\C,0,-0.49834186,0.76558015,-0.87568241\C,0,-1.19139964,-0
 .10832243,1.32973696\C,0,-0.62168789,-1.5914068,-0.10819772\O,0,-1.547
 73777,-2.01105241,-0.71831643\H,0,2.06925053,-0.56006123,-0.95125512\H
 ,0,3.04274053,-0.12363624,0.47040297\H,0,2.22089972,1.14678079,-0.4578

 Normal termination of Gaussian 16 at Wed Apr  9 19:12:22 2025.
