 Gaussian 16, Revision C.01,

 ----------------------------------------------------------------------
 #t hf aug-cc-pvdz symm=none int=(grid=ultrafine) guess=(read,tcheck) s
 table=(opt,rrhf)
 ----------------------------------------------------------------------
 -----
 title
 -----
 Symbolic Z-matrix:
 Charge =  0 Multiplicity = 1

 SCF Done:  E(RHF) =  -394.312645908     A.U. after   15 cycles
 Normal termination of Gaussian 16 at Wed Apr  9 04:04:59 2025.
 Gaussian 16:  ES64L-G16RevC.01  3-Jul-2019

 ----------------------------------------------------------------------
 #t hf aug-cc-pvdz iop(5/13=1,5/36=2,99/5=2) pseudo=read geom=check gue
 ss=(read,tcheck) scf=(maxcycle=1)
 ----------------------------------------------------------------------
 -----
 title
 -----
 Structure from the checkpoint file:  "Grambow2020_wb97xd3_009239_forward_mol1.chk"
 Charge =  0 Multiplicity = 1

                         Standard orientation:
 ---------------------------------------------------------------------
 Center     Atomic      Atomic             Coordinates (Angstroms)
 Number     Number       Type             X           Y           Z
 ---------------------------------------------------------------------
      1          6           0       -2.542133   -0.500973   -0.001410
      2          6           0       -1.292736    0.230626    0.002383
      3          7           0       -0.560017    1.155501    0.000844
      4          8           0        0.707602    1.256717   -0.000460
      5          6           0        1.294617   -0.421143    0.000065
      6          8           0        2.469474   -0.391218   -0.001490
      7          8           0        0.290134   -1.104225    0.001884
      8          1           0       -2.617130   -1.115585    0.894650
      9          1           0       -3.361675    0.219220   -0.019731
     10          1           0       -2.597233   -1.133396   -0.886530
 ---------------------------------------------------------------------

 SCF Done:  E(RHF) =  -396.013446304     A.U. after    2 cycles

 The electronic state is 1-A.
 Alpha  occ. eigenvalues --  -21.09778 -21.09052 -21.07106 -15.87343 -11.57450
 Alpha  occ. eigenvalues --  -11.55652 -11.47672  -1.89009  -1.76421  -1.68188
 Alpha  occ. eigenvalues --   -1.32864  -1.15479  -0.80025  -0.74124  -0.70315
 Alpha  occ. eigenvalues --   -0.68310  -0.63972  -0.60974  -0.59603  -0.55212
 Alpha  occ. eigenvalues --   -0.54080  -0.51241  -0.34980  -0.34923  -0.30796
 Alpha  occ. eigenvalues --   -0.27919
 Alpha virt. eigenvalues --    0.01564   0.04682   0.05121   0.06928   0.09463
 Alpha virt. eigenvalues --    0.10472   0.11168   0.11233   0.11833   0.12512
 Alpha virt. eigenvalues --    0.13607   0.14751   0.15106   0.15345   0.17610

 Mulliken charges:
               1
     1  C   -3.775089
     2  C    3.013087
     3  N   -0.396016
     4  O   -2.582230
     5  C    5.264928
     6  O   -2.765183
     7  O   -2.301258
     8  H    1.218583
     9  H    1.107316
    10  H    1.215862
 Sum of Mulliken charges =   0.00000

 Dipole moment (field-independent basis, Debye):
    X=             -4.9609    Y=             -0.4621    Z=             -0.0059  Tot=              4.9824

 Test job not archived.
 1\1\GINC-SE060\SP\RHF\Aug-CC-pVDZ\C3H3N1O3\OHZDE\09-Apr-2025\0\\#t hf
 aug-cc-pvdz iop(5/13=1,5/36=2,99/5=2) pseudo=read geom=check guess=(re
 ad,tcheck) scf=(maxcycle=1)\\title\\0,1\C,0,-1.724007,0.1775508,0.0209
 9546\C,0,-0.44352545,-0.44080685,0.29347588\N,0,0.33542667,-1.28854234
 ,0.55203232\O,0,1.59715793,-1.28689403,0.71057267\C,0,2.08258059,0.403
 482,0.45212739\O,0,3.2482715,0.46766452,0.5871529\O,0,1.04825164,0.992
 7052,0.21011277\H,0,-1.72448962,0.60908667,-0.97904047\H,0,-2.49697864
 ,-0.58972108,0.08785355\H,0,-1.92268762,0.95547511,0.75706053\\Version

 Normal termination of Gaussian 16 at Wed Apr  9 04:05:03 2025.
