 Gaussian 16, Revision C.01,

 ----------------------------------------------------------------------
 #t hf aug-cc-pvdz symm=none int=(grid=ultrafine) guess=(read,tcheck) s
 table=(opt,rrhf)
 ----------------------------------------------------------------------
 -----
 title
 -----
 Symbolic Z-matrix:
 Charge =  0 Multiplicity = 1

 SCF Done:  E(RHF) =  -322.746949227     A.U. after   14 cycles
 Normal termination of Gaussian 16 at Wed Apr  9 19:10:55 2025.
 Gaussian 16:  ES64L-G16RevC.01  3-Jul-2019

 ----------------------------------------------------------------------
 #t hf aug-cc-pvdz iop(5/13=1,5/36=2,99/5=2) pseudo=read geom=check gue
 ss=(read,tcheck) scf=(maxcycle=1)
 ----------------------------------------------------------------------
 -----
 title
 -----
 Structure from the checkpoint file:  "Grambow2020_wb97xd3_008262_reverse_mol2.chk"
 Charge =  0 Multiplicity = 1

                         Standard orientation:
 ---------------------------------------------------------------------
 Center     Atomic      Atomic             Coordinates (Angstroms)
 Number     Number       Type             X           Y           Z
 ---------------------------------------------------------------------
      1          6           0        1.912038   -0.992189    0.041220
      2          6           0        0.648980   -0.582143   -0.044488
      3          7           0       -0.518544   -1.313354   -0.187853
      4          6           0       -1.692654   -0.532030    0.191454
      5          6           0       -1.268845    0.902553   -0.112153
      6          6           0        0.246896    0.863965   -0.020212
      7          8           0        0.984223    1.806945    0.058578
      8          1           0       -2.563383   -0.847877   -0.383544
      9          1           0        2.190248   -2.038192    0.035772
     10          1           0        2.691597   -0.246140    0.107623
     11          1           0       -0.500959   -2.284940    0.069444
     12          1           0       -1.930561   -0.641345    1.256943
     13          1           0       -1.683909    1.649501    0.561377
     14          1           0       -1.525490    1.185983   -1.136199
 ---------------------------------------------------------------------

 SCF Done:  E(RHF) =  -324.226790463     A.U. after    2 cycles

 The electronic state is 1-A.
 Alpha  occ. eigenvalues --  -21.05556 -15.74997 -11.51078 -11.45606 -11.43192
 Alpha  occ. eigenvalues --  -11.39043 -11.37727  -1.71509  -1.46138  -1.15243
 Alpha  occ. eigenvalues --   -1.10856  -0.95284  -0.86814  -0.72371  -0.68679
 Alpha  occ. eigenvalues --   -0.67622  -0.61142  -0.55574  -0.54055  -0.52760
 Alpha  occ. eigenvalues --   -0.51626  -0.49394  -0.47773  -0.39874  -0.28352
 Alpha  occ. eigenvalues --   -0.28020
 Alpha virt. eigenvalues --    0.03442   0.04747   0.05225   0.05498   0.06299
 Alpha virt. eigenvalues --    0.06572   0.07559   0.09289   0.10014   0.11193
 Alpha virt. eigenvalues --    0.11804   0.13305   0.13623   0.14042   0.14660

 Mulliken charges:
               1
     1  C   -3.963439
     2  C    2.945557
     3  N   -3.045737
     4  C   -2.659420
     5  C   -3.474212
     6  C    4.874578
     7  O   -3.820528
     8  H    1.441725
     9  H    1.445691
    10  H    1.490348
    11  H    0.609984
    12  H    1.426667
    13  H    1.347266
    14  H    1.381521
 Sum of Mulliken charges =  -0.00000

 Dipole moment (field-independent basis, Debye):
    X=             -2.1010    Y=             -1.4688    Z=              0.3927  Tot=              2.5934

 Test job not archived.
 1\1\GINC-SE219\SP\RHF\Aug-CC-pVDZ\C5H7N1O1\OHZDE\09-Apr-2025\0\\#t hf
 aug-cc-pvdz iop(5/13=1,5/36=2,99/5=2) pseudo=read geom=check guess=(re
 ad,tcheck) scf=(maxcycle=1)\\title\\0,1\C,0,-1.9581251,-1.04566926,-0.
 3777384\C,0,-0.85215226,-0.35496115,-0.11213174\N,0,-0.3734733,0.13421
 793,1.09198881\C,0,1.05176913,0.44425428,1.01825255\C,0,1.25513016,0.7
 9851043,-0.45245063\C,0,0.13282375,0.06345194,-1.16486249\O,0,0.047889
 32,-0.14576759,-2.34303179\H,0,1.29892253,1.26602723,1.69067743\H,0,-2
 .65543597,-1.35365223,0.39067343\H,0,-2.17191038,-1.29848699,-1.406859

 Normal termination of Gaussian 16 at Wed Apr  9 19:10:59 2025.
