 Gaussian 16, Revision C.01,

 ----------------------------------------------------------------------
 #t hf aug-cc-pvdz symm=none int=(grid=ultrafine) guess=(read,tcheck) s
 table=(opt,rrhf)
 ----------------------------------------------------------------------
 -----
 title
 -----
 Symbolic Z-matrix:
 Charge =  0 Multiplicity = 1

 SCF Done:  E(RHF) =  -320.229804122     A.U. after   17 cycles
 Normal termination of Gaussian 16 at Wed Apr  9 19:33:32 2025.
 Gaussian 16:  ES64L-G16RevC.01  3-Jul-2019

 ----------------------------------------------------------------------
 #t hf aug-cc-pvdz iop(5/13=1,5/36=2,99/5=2) pseudo=read geom=check gue
 ss=(read,tcheck) scf=(maxcycle=1)
 ----------------------------------------------------------------------
 -----
 title
 -----
 Structure from the checkpoint file:  "Grambow2020_wb97xd3_009382_reverse_mol1.chk"
 Charge =  0 Multiplicity = 1

                         Standard orientation:
 ---------------------------------------------------------------------
 Center     Atomic      Atomic             Coordinates (Angstroms)
 Number     Number       Type             X           Y           Z
 ---------------------------------------------------------------------
      1          8           0       -0.385288   -1.041929    0.022647
      2          6           0        0.312813    0.054711   -0.007812
      3          6           0       -0.568319    1.166866   -0.018047
      4          6           0       -1.980370    0.642610   -0.105683
      5          6           0       -1.727721   -0.702339   -0.006386
      6          6           0        1.728214   -0.025823   -0.008632
      7          7           0        2.877061   -0.034653   -0.011664
      8          1           0       -0.248406    2.174136   -0.247298
      9          1           0       -1.029039    1.157663    1.042775
     10          1           0       -2.367380   -1.569942   -0.015642
 ---------------------------------------------------------------------

 SCF Done:  E(RHF) =  -321.657400802     A.U. after    2 cycles

 The electronic state is 1-A.
 Alpha  occ. eigenvalues --  -21.20923 -15.81630 -11.58001 -11.48626 -11.46453
 Alpha  occ. eigenvalues --  -11.44833 -11.38283  -1.93453  -1.35879  -1.26301
 Alpha  occ. eigenvalues --   -1.13286  -0.92305  -0.83072  -0.77324  -0.68810
 Alpha  occ. eigenvalues --   -0.65155  -0.57028  -0.56716  -0.52371  -0.51057
 Alpha  occ. eigenvalues --   -0.48119  -0.46344  -0.34323  -0.33871
 Alpha virt. eigenvalues --    0.02143   0.04589   0.05726   0.06294   0.08219
 Alpha virt. eigenvalues --    0.08770   0.09698   0.09992   0.10757   0.11554
 Alpha virt. eigenvalues --    0.12243   0.13054   0.13713   0.14079   0.15141

 Mulliken charges:
               1
     1  O   -3.942788
     2  C    4.242223
     3  C   -3.332690
     4  C   -1.434703
     5  C    0.665028
     6  C    2.032235
     7  N   -2.616997
     8  H    1.327243
     9  H    1.403466
    10  H    1.656983
 Sum of Mulliken charges =   0.00000

 Dipole moment (field-independent basis, Debye):
    X=              0.5442    Y=             -1.1628    Z=              0.3868  Tot=              1.3409

 Test job not archived.
 1\1\GINC-SE159\SP\RHF\Aug-CC-pVDZ\C5H3N1O1\OHZDE\09-Apr-2025\0\\#t hf
 aug-cc-pvdz iop(5/13=1,5/36=2,99/5=2) pseudo=read geom=check guess=(re
 ad,tcheck) scf=(maxcycle=1)\\title\\0,1\O,0,0.21712778,0.67336585,0.98
 708222\C,0,-0.5140694,0.44793071,-0.06430866\C,0,0.04782251,-0.6276262
 4,-0.799727\C,0,1.34459858,-1.01977302,-0.13564614\C,0,1.29064386,-0.2
 0147101,0.96437732\C,0,-1.67201955,1.23586277,-0.28376892\N,0,-2.61939
 29,1.84541657,-0.50929599\H,0,-0.24930789,-0.87371698,-1.80999776\H,0,
 -0.14245402,-1.54684553,-0.1240636\H,0,1.95940502,-0.04748412,1.795658

 Normal termination of Gaussian 16 at Wed Apr  9 19:33:36 2025.
