 Gaussian 16, Revision C.01,

 ----------------------------------------------------------------------
 #t hf aug-cc-pvdz symm=none int=(grid=ultrafine) guess=(read,tcheck) s
 table=(opt,rrhf)
 ----------------------------------------------------------------------
 -----
 title
 -----
 Symbolic Z-matrix:
 Charge =  0 Multiplicity = 1

 SCF Done:  E(RHF) =  -281.215671402     A.U. after   16 cycles
 Normal termination of Gaussian 16 at Wed Apr  9 03:05:19 2025.
 Gaussian 16:  ES64L-G16RevC.01  3-Jul-2019

 ----------------------------------------------------------------------
 #t hf aug-cc-pvdz iop(5/13=1,5/36=2,99/5=2) pseudo=read geom=check gue
 ss=(read,tcheck) scf=(maxcycle=1)
 ----------------------------------------------------------------------
 -----
 title
 -----
 Structure from the checkpoint file:  "Grambow2020_b97d3_006505_reverse_mol1.chk"
 Charge =  0 Multiplicity = 1

                         Standard orientation:
 ---------------------------------------------------------------------
 Center     Atomic      Atomic             Coordinates (Angstroms)
 Number     Number       Type             X           Y           Z
 ---------------------------------------------------------------------
      1          8           0       -0.002428    1.708450    0.000451
      2          6           0        0.002745    0.485553   -0.000768
      3          6           0        1.208776   -0.324593   -0.001507
      4          6           0        2.234878   -1.090680    0.000657
      5          6           0       -1.236196   -0.308729   -0.000276
      6          7           0       -2.239223   -0.913884    0.000574
      7          1           0        2.432772    0.160283    0.003735
 ---------------------------------------------------------------------

 SCF Done:  E(RHF) =  -282.404099942     A.U. after    2 cycles

 The electronic state is 1-A.
 Alpha  occ. eigenvalues --  -21.14403 -15.83578 -11.62239 -11.49690 -11.48971
 Alpha  occ. eigenvalues --  -11.48168  -1.78576  -1.35647  -1.25288  -1.06372
 Alpha  occ. eigenvalues --   -0.84453  -0.64565  -0.60648  -0.60227  -0.56023
 Alpha  occ. eigenvalues --   -0.51260  -0.48002  -0.47800  -0.41364  -0.37916
 Alpha virt. eigenvalues --    0.02264   0.04032   0.07183   0.08102   0.09049
 Alpha virt. eigenvalues --    0.09620   0.10927   0.11170   0.11664   0.12354
 Alpha virt. eigenvalues --    0.12669   0.13716   0.14880   0.15171   0.15431

 Mulliken charges:
               1
     1  O   -2.941209
     2  C    3.481793
     3  C    1.261943
     4  C   -2.452477
     5  C    1.396607
     6  N   -2.231982
     7  H    1.485324
 Sum of Mulliken charges =  -0.00000

 Dipole moment (field-independent basis, Debye):
    X=              0.6831    Y=              2.3575    Z=              0.0007  Tot=              2.4545

 Test job not archived.
 1\1\GINC-SE092\SP\RHF\Aug-CC-pVDZ\C4H1N1O1\OHZDE\09-Apr-2025\0\\#t hf
 aug-cc-pvdz iop(5/13=1,5/36=2,99/5=2) pseudo=read geom=check guess=(re
 ad,tcheck) scf=(maxcycle=1)\\title\\0,1\O,0,-0.50632525,-1.7047562,0.2
 5784213\C,0,-0.39919346,-0.49734987,0.09598427\C,0,0.86629923,0.190601
 12,-0.09401643\C,0,1.94916696,0.8514187,-0.26865171\C,0,-1.56366748,0.
 40232746,0.07502347\N,0,-2.50960081,1.09322123,0.06264816\H,0,2.041249
 81,-0.40283944,-0.1188639\\Version=ES64L-G16RevC.01\State=1-A\HF=-282.
 4040999\RMSD=4.350e-01\Dipole=0.1896357,-0.9410622,0.1046405\Quadrupol

 Normal termination of Gaussian 16 at Wed Apr  9 03:05:22 2025.
