 Gaussian 16, Revision C.01,

 ----------------------------------------------------------------------
 #t hf aug-cc-pvdz symm=none int=(grid=ultrafine) guess=(read,tcheck) s
 table=(opt,rrhf)
 ----------------------------------------------------------------------
 -----
 title
 -----
 Symbolic Z-matrix:
 Charge =  0 Multiplicity = 1

 SCF Done:  E(RHF) =  -358.358355625     A.U. after   16 cycles
 Normal termination of Gaussian 16 at Wed Apr  9 18:40:18 2025.
 Gaussian 16:  ES64L-G16RevC.01  3-Jul-2019

 ----------------------------------------------------------------------
 #t hf aug-cc-pvdz iop(5/13=1,5/36=2,99/5=2) pseudo=read geom=check gue
 ss=(read,tcheck) scf=(maxcycle=1)
 ----------------------------------------------------------------------
 -----
 title
 -----
 Structure from the checkpoint file:  "Grambow2020_wb97xd3_007458_forward_mol1.chk"
 Charge =  0 Multiplicity = 1

                         Standard orientation:
 ---------------------------------------------------------------------
 Center     Atomic      Atomic             Coordinates (Angstroms)
 Number     Number       Type             X           Y           Z
 ---------------------------------------------------------------------
      1          8           0       -2.484147   -0.344371   -0.228424
      2          6           0       -1.569696    0.573487    0.312605
      3          6           0       -0.139129    0.311774   -0.122534
      4          7           0        0.315364   -1.012758    0.053273
      5          8           0        1.589896   -0.917630    0.080284
      6          6           0        2.010708    0.396237   -0.010040
      7          6           0        0.976672    1.286934   -0.088391
      8          1           0       -2.279983   -1.221615    0.103095
      9          1           0       -1.851364    1.565119   -0.036244
     10          1           0       -1.599397    0.583953    1.407643
     11          1           0        3.085194    0.479267    0.039792
     12          1           0       -0.079316    0.368002   -1.251916
 ---------------------------------------------------------------------

 SCF Done:  E(RHF) =  -359.944854102     A.U. after    2 cycles

 The electronic state is 1-A.
 Alpha  occ. eigenvalues --  -21.23115 -21.09005 -15.86649 -11.47898 -11.44837
 Alpha  occ. eigenvalues --  -11.42887 -11.37375  -2.00586  -1.73643  -1.30742
 Alpha  occ. eigenvalues --   -1.17953  -1.01915  -0.84163  -0.81446  -0.73265
 Alpha  occ. eigenvalues --   -0.69859  -0.64166  -0.58483  -0.55138  -0.54337
 Alpha  occ. eigenvalues --   -0.49779  -0.44703  -0.41830  -0.36531  -0.33981
 Alpha  occ. eigenvalues --   -0.33296
 Alpha virt. eigenvalues --    0.02907   0.04900   0.05716   0.06319   0.06521
 Alpha virt. eigenvalues --    0.07252   0.09829   0.10029   0.10129   0.12424
 Alpha virt. eigenvalues --    0.12857   0.13241   0.13730   0.15157   0.15885

 Mulliken charges:
               1
     1  O   -2.670238
     2  C   -0.901383
     3  C    1.057545
     4  N   -0.119286
     5  O   -2.911212
     6  C    1.014036
     7  C   -1.937582
     8  H    0.769737
     9  H    1.234498
    10  H    1.272664
    11  H    1.518841
    12  H    1.672381
 Sum of Mulliken charges =   0.00000

 Dipole moment (field-independent basis, Debye):
    X=              0.2064    Y=             -2.6808    Z=              0.4942  Tot=              2.7338

 Test job not archived.
 1\1\GINC-SE219\SP\RHF\Aug-CC-pVDZ\C4H5N1O2\OHZDE\09-Apr-2025\0\\#t hf
 aug-cc-pvdz iop(5/13=1,5/36=2,99/5=2) pseudo=read geom=check guess=(re
 ad,tcheck) scf=(maxcycle=1)\\title\\0,1\O,0,-2.32846145,0.53069303,0.1
 0610117\C,0,-1.3935631,-0.51649927,0.07870071\C,0,0.04127105,-0.033453
 22,0.18951697\N,0,0.40752818,0.99030519,-0.71027804\O,0,1.68197812,0.9
 1963171,-0.78094971\C,0,2.18284061,-0.12534686,-0.02686525\C,0,1.20828
 442,-0.84909401,0.60173566\H,0,-2.1943394,1.08987463,-0.66232029\H,0,-
 1.5973258,-1.16364011,0.92961614\H,0,-1.48322981,-1.12175979,-0.829989

 Normal termination of Gaussian 16 at Wed Apr  9 18:40:23 2025.
