 Gaussian 16, Revision C.01,

 ----------------------------------------------------------------------
 #t hf aug-cc-pvdz symm=none int=(grid=ultrafine) guess=(read,tcheck) s
 table=(opt,rrhf)
 ----------------------------------------------------------------------
 -----
 title
 -----
 Symbolic Z-matrix:
 Charge =  0 Multiplicity = 1

 SCF Done:  E(RHF) =  -227.672751589     A.U. after   15 cycles
 Normal termination of Gaussian 16 at Wed Apr  9 17:29:13 2025.
 Gaussian 16:  ES64L-G16RevC.01  3-Jul-2019

 ----------------------------------------------------------------------
 #t hf aug-cc-pvdz iop(5/13=1,5/36=2,99/5=2) pseudo=read geom=check gue
 ss=(read,tcheck) scf=(maxcycle=1)
 ----------------------------------------------------------------------
 -----
 title
 -----
 Structure from the checkpoint file:  "Grambow2020_b97d3_007158_forward_mol1.chk"
 Charge =  0 Multiplicity = 1

                         Standard orientation:
 ---------------------------------------------------------------------
 Center     Atomic      Atomic             Coordinates (Angstroms)
 Number     Number       Type             X           Y           Z
 ---------------------------------------------------------------------
      1          6           0       -1.484382   -0.474918    0.072460
      2          8           0       -0.730183    0.696192   -0.196982
      3          6           0        1.108624    0.484118    0.121804
      4          8           0        1.607882   -0.553408   -0.074510
      5          1           0       -0.842256   -1.326320    0.369763
      6          1           0       -2.029582   -0.774736   -0.837289
      7          1           0       -2.221219   -0.294924    0.873697
      8          1           0        0.326010    1.198504    0.600180
 ---------------------------------------------------------------------

 SCF Done:  E(RHF) =  -228.675018014     A.U. after    2 cycles

 The electronic state is 1-A.
 Alpha  occ. eigenvalues --  -21.18157 -21.01600 -11.57497 -11.38685  -1.80650
 Alpha  occ. eigenvalues --   -1.64915  -0.98461  -0.85073  -0.64392  -0.60779
 Alpha  occ. eigenvalues --   -0.57941  -0.54394  -0.52362  -0.43170  -0.30987
 Alpha  occ. eigenvalues --   -0.26863
 Alpha virt. eigenvalues --    0.03817   0.05826   0.06550   0.07009   0.08702
 Alpha virt. eigenvalues --    0.09540   0.10745   0.12887   0.13977   0.15194
 Alpha virt. eigenvalues --    0.15933   0.16355   0.17648   0.20934   0.21612

 Mulliken charges:
               1
     1  C   -2.384027
     2  O   -2.081437
     3  C    0.619151
     4  O   -1.785020
     5  H    1.282430
     6  H    1.233311
     7  H    1.207709
     8  H    1.907883
 Sum of Mulliken charges =  -0.00000

 Dipole moment (field-independent basis, Debye):
    X=              0.4340    Y=             -0.8151    Z=              0.4169  Tot=              1.0132

 Test job not archived.
 1\1\GINC-SE220\SP\RHF\Aug-CC-pVDZ\C2H4O2\OHZDE\09-Apr-2025\0\\#t hf au
 g-cc-pvdz iop(5/13=1,5/36=2,99/5=2) pseudo=read geom=check guess=(read
 ,tcheck) scf=(maxcycle=1)\\title\\0,1\C,0,-0.98494242,-0.22695248,0.06
 040523\O,0,0.2738572,-0.67825078,0.53439532\C,0,1.70786843,0.39441338,
 -0.03201016\O,0,1.54580634,1.54345415,-0.16504653\H,0,-0.90153494,0.71
 517917,-0.51494734\H,0,-1.64892569,-0.03201692,0.91825403\H,0,-1.46206
 024,-0.98799653,-0.5802799\H,0,1.46993232,-0.72783099,-0.22077064\\Ver
 sion=ES64L-G16RevC.01\State=1-A\HF=-228.675018\RMSD=5.919e-02\Dipole=-

 Normal termination of Gaussian 16 at Wed Apr  9 17:29:15 2025.
