 Gaussian 16, Revision C.01,

 ----------------------------------------------------------------------
 #t hf aug-cc-pvdz symm=none int=(grid=ultrafine) guess=(read,tcheck) s
 table=(opt,rrhf)
 ----------------------------------------------------------------------
 -----
 title
 -----
 Symbolic Z-matrix:
 Charge =  0 Multiplicity = 1

 SCF Done:  E(RHF) =  -355.801933392     A.U. after   16 cycles
 Normal termination of Gaussian 16 at Wed Apr  9 03:58:41 2025.
 Gaussian 16:  ES64L-G16RevC.01  3-Jul-2019

 ----------------------------------------------------------------------
 #t hf aug-cc-pvdz iop(5/13=1,5/36=2,99/5=2) pseudo=read geom=check gue
 ss=(read,tcheck) scf=(maxcycle=1)
 ----------------------------------------------------------------------
 -----
 title
 -----
 Structure from the checkpoint file:  "Grambow2020_wb97xd3_008712_forward_mol1.chk"
 Charge =  0 Multiplicity = 1

                         Standard orientation:
 ---------------------------------------------------------------------
 Center     Atomic      Atomic             Coordinates (Angstroms)
 Number     Number       Type             X           Y           Z
 ---------------------------------------------------------------------
      1          6           0        2.330832   -0.867987   -0.138145
      2          7           0        0.970687   -0.768475    0.338476
      3          6           0        0.310314    0.278103    0.061024
      4          7           0        0.798290    1.478641   -0.441293
      5          6           0       -1.321566    0.092558   -0.245136
      6          8           0       -0.983000    0.441980    0.957880
      7          7           0       -2.378329   -0.682998   -0.403019
      8          1           0        3.040339   -0.476301    0.601502
      9          1           0        2.498602   -0.329606   -1.078456
     10          1           0        2.582317   -1.918937   -0.289199
     11          1           0        0.079866    2.153355   -0.646232
     12          1           0        1.529322    1.865197    0.137784
     13          1           0       -2.640236   -1.000290   -1.317081
     14          1           0       -2.878227   -1.035479    0.403032
 ---------------------------------------------------------------------

 SCF Done:  E(RHF) =  -357.438277794     A.U. after    2 cycles

 The electronic state is 1-A.
 Alpha  occ. eigenvalues --  -21.08463 -15.80354 -15.76103 -15.67746 -11.54544
 Alpha  occ. eigenvalues --  -11.45568 -11.36550  -1.82131  -1.40828  -1.36313
 Alpha  occ. eigenvalues --   -1.27254  -0.99401  -0.85612  -0.80492  -0.72217
 Alpha  occ. eigenvalues --   -0.70485  -0.64810  -0.59832  -0.59223  -0.55666
 Alpha  occ. eigenvalues --   -0.52027  -0.50390  -0.44028  -0.38163  -0.33826
 Alpha  occ. eigenvalues --   -0.33505  -0.25238
 Alpha virt. eigenvalues --    0.03365   0.04885   0.05753   0.05846   0.06385
 Alpha virt. eigenvalues --    0.07275   0.07708   0.10612   0.11496   0.12099
 Alpha virt. eigenvalues --    0.13623   0.14002   0.14113   0.14565   0.15632

 Mulliken charges:
               1
     1  C   -3.514642
     2  N   -3.366928
     3  C    6.089739
     4  N   -2.780856
     5  C    2.419335
     6  O   -2.361784
     7  N   -2.789782
     8  H    1.287802
     9  H    1.172255
    10  H    1.315754
    11  H    0.621779
    12  H    0.642738
    13  H    0.744582
    14  H    0.520008
 Sum of Mulliken charges =  -0.00000

 Dipole moment (field-independent basis, Debye):
    X=             -2.3495    Y=              1.1402    Z=             -0.0431  Tot=              2.6119

 Test job not archived.
 1\1\GINC-SE329\SP\RHF\Aug-CC-pVDZ\C3H7N3O1\OHZDE\09-Apr-2025\0\\#t hf
 aug-cc-pvdz iop(5/13=1,5/36=2,99/5=2) pseudo=read geom=check guess=(re
 ad,tcheck) scf=(maxcycle=1)\\title\\0,1\C,0,2.06479441,0.49022947,-0.5
 7934667\N,0,0.66953261,0.21802554,-0.83666661\C,0,0.00141123,-0.393224
 14,0.05124397\N,0,0.49042879,-1.07077817,1.16188203\C,0,-1.59564102,0.
 0556049,0.24915594\O,0,-1.36163371,-0.97683464,-0.50136278\N,0,-2.6132
 7774,0.83958165,-0.0557352\H,0,2.70297893,-0.31988377,-0.95395921\H,0,
 2.28842314,0.62526195,0.48552082\H,0,2.35865361,1.39479607,-1.11410207

 Normal termination of Gaussian 16 at Wed Apr  9 03:58:45 2025.
