 Gaussian 16, Revision C.01,

 ----------------------------------------------------------------------
 #t hf aug-cc-pvdz symm=none int=(grid=ultrafine) guess=(read,tcheck) s
 table=(opt,rrhf)
 ----------------------------------------------------------------------
 -----
 title
 -----
 Symbolic Z-matrix:
 Charge =  0 Multiplicity = 1

 SCF Done:  E(RHF) =  -338.564790328     A.U. after   17 cycles
 Normal termination of Gaussian 16 at Wed Apr  9 03:59:40 2025.
 Gaussian 16:  ES64L-G16RevC.01  3-Jul-2019

 ----------------------------------------------------------------------
 #t hf aug-cc-pvdz iop(5/13=1,5/36=2,99/5=2) pseudo=read geom=check gue
 ss=(read,tcheck) scf=(maxcycle=1)
 ----------------------------------------------------------------------
 -----
 title
 -----
 Structure from the checkpoint file:  "Grambow2020_wb97xd3_008808_reverse_mol1.chk"
 Charge =  0 Multiplicity = 1

                         Standard orientation:
 ---------------------------------------------------------------------
 Center     Atomic      Atomic             Coordinates (Angstroms)
 Number     Number       Type             X           Y           Z
 ---------------------------------------------------------------------
      1          7           0       -2.179226   -0.059773   -0.188765
      2          6           0       -0.853460    0.235051   -0.197725
      3          6           0        0.195528   -0.756338   -0.380501
      4          8           0        0.461133   -1.495008    0.649864
      5          7           0        1.358443   -0.074273   -0.740548
      6          6           0        1.240542    0.967493    0.233787
      7          6           0       -0.154862    1.319821    0.252716
      8          1           0       -2.412994   -1.038970   -0.193829
      9          1           0       -2.788588    0.523127    0.357206
     10          1           0        1.061564   -0.408073    1.203656
     11          1           0        2.158713   -0.672694   -0.589452
     12          1           0        2.024598    1.714618    0.315672
     13          1           0       -0.553366    2.184208    0.763359
 ---------------------------------------------------------------------

 SCF Done:  E(RHF) =  -340.145324132     A.U. after    2 cycles

 The electronic state is 1-A.
 Alpha  occ. eigenvalues --  -21.06991 -15.78036 -15.75590 -11.51758 -11.45393
 Alpha  occ. eigenvalues --  -11.44903 -11.38925  -1.75825  -1.45246  -1.36177
 Alpha  occ. eigenvalues --   -1.13432  -0.99488  -0.84166  -0.77730  -0.72271
 Alpha  occ. eigenvalues --   -0.67664  -0.64082  -0.60514  -0.55122  -0.51954
 Alpha  occ. eigenvalues --   -0.50985  -0.47412  -0.38423  -0.34065  -0.31563
 Alpha  occ. eigenvalues --   -0.26037
 Alpha virt. eigenvalues --    0.03622   0.04979   0.05096   0.06310   0.06925
 Alpha virt. eigenvalues --    0.07819   0.08743   0.10305   0.11021   0.11486
 Alpha virt. eigenvalues --    0.11915   0.13173   0.13893   0.15347   0.15600

 Mulliken charges:
               1
     1  N   -3.479373
     2  C    3.638222
     3  C    2.124720
     4  O   -2.576856
     5  N   -2.110902
     6  C   -2.206451
     7  C   -0.448143
     8  H    0.731474
     9  H    0.607690
    10  H    0.614080
    11  H    0.509107
    12  H    1.134701
    13  H    1.461731
 Sum of Mulliken charges =   0.00000

 Dipole moment (field-independent basis, Debye):
    X=             -1.1916    Y=              0.6418    Z=              0.8194  Tot=              1.5822

 Test job not archived.
 1\1\GINC-SE437\SP\RHF\Aug-CC-pVDZ\C4H6N2O1\OHZDE\09-Apr-2025\0\\#t hf
 aug-cc-pvdz iop(5/13=1,5/36=2,99/5=2) pseudo=read geom=check guess=(re
 ad,tcheck) scf=(maxcycle=1)\\title\\0,1\N,0,-1.84838562,1.00722329,-0.
 51697213\C,0,-0.59205673,0.51714318,-0.35537294\C,0,-0.22252694,-0.865
 84526,-0.61503948\O,0,-0.57409829,-1.7243193,0.28898\N,0,1.16617485,-0
 .91126619,-0.74411764\C,0,1.45851331,-0.07992481,0.38367518\C,0,0.4887
 659,0.98274878,0.33939017\H,0,-2.56439549,0.32779497,-0.71498229\H,0,-
 2.13466202,1.77342806,0.06625575\H,0,0.40892984,-1.21262037,1.07666685

 Normal termination of Gaussian 16 at Wed Apr  9 03:59:45 2025.
