 Gaussian 16, Revision C.01,

 ----------------------------------------------------------------------
 #t hf aug-cc-pvdz symm=none int=(grid=ultrafine) guess=(read,tcheck) s
 table=(opt,rrhf)
 ----------------------------------------------------------------------
 -----
 title
 -----
 Symbolic Z-matrix:
 Charge =  0 Multiplicity = 1

 SCF Done:  E(RHF) =  -317.586286576     A.U. after   17 cycles
 Normal termination of Gaussian 16 at Wed Apr  9 19:04:41 2025.
 Gaussian 16:  ES64L-G16RevC.01  3-Jul-2019

 ----------------------------------------------------------------------
 #t hf aug-cc-pvdz iop(5/13=1,5/36=2,99/5=2) pseudo=read geom=check gue
 ss=(read,tcheck) scf=(maxcycle=1)
 ----------------------------------------------------------------------
 -----
 title
 -----
 Structure from the checkpoint file:  "Grambow2020_wb97xd3_008066_forward_mol1.chk"
 Charge =  0 Multiplicity = 1

                         Standard orientation:
 ---------------------------------------------------------------------
 Center     Atomic      Atomic             Coordinates (Angstroms)
 Number     Number       Type             X           Y           Z
 ---------------------------------------------------------------------
      1          7           0       -2.551700   -0.475982   -0.658992
      2          6           0       -1.690495   -0.033196   -0.038076
      3          6           0       -0.611335    0.555750    0.720301
      4          6           0        0.782539   -1.403360    0.393972
      5          7           0        1.622794   -0.615573   -0.223671
      6          6           0        1.915922    0.485000   -0.574303
      7          7           0        0.117384    1.534866    0.265191
      8          1           0       -0.604607    0.344883    1.783248
      9          1           0        0.999390   -1.631022    1.429692
     10          1           0        0.244775   -2.129477   -0.202345
     11          1           0        2.805425    0.912731   -1.012371
     12          1           0       -0.144111    1.774540   -0.687290
 ---------------------------------------------------------------------

 SCF Done:  E(RHF) =  -319.062910338     A.U. after    2 cycles

 The electronic state is 1-A.
 Alpha  occ. eigenvalues --  -15.84025 -15.76439 -15.75338 -11.47508 -11.46587
 Alpha  occ. eigenvalues --  -11.43733 -11.42070  -1.46860  -1.36393  -1.27736
 Alpha  occ. eigenvalues --   -1.07449  -0.95568  -0.80204  -0.74367  -0.68323
 Alpha  occ. eigenvalues --   -0.66953  -0.63071  -0.60622  -0.53352  -0.48664
 Alpha  occ. eigenvalues --   -0.47472  -0.44269  -0.40853  -0.37561  -0.30053
 Alpha virt. eigenvalues --    0.02954   0.04573   0.05952   0.06124   0.06519
 Alpha virt. eigenvalues --    0.08885   0.09168   0.09856   0.10330   0.11772
 Alpha virt. eigenvalues --    0.12002   0.12759   0.13258   0.14047   0.14493

 Mulliken charges:
               1
     1  N   -2.527241
     2  C    2.396165
     3  C    0.438056
     4  C   -1.906029
     5  N   -2.448329
     6  C   -0.096796
     7  N   -2.629804
     8  H    1.625386
     9  H    1.440040
    10  H    1.520105
    11  H    1.519680
    12  H    0.668767
 Sum of Mulliken charges =  -0.00000

 Dipole moment (field-independent basis, Debye):
    X=              4.2668    Y=             -0.3838    Z=              0.4623  Tot=              4.3089

 Test job not archived.
 1\1\GINC-SE117\SP\RHF\Aug-CC-pVDZ\C4H5N3\OHZDE\09-Apr-2025\0\\#t hf au
 g-cc-pvdz iop(5/13=1,5/36=2,99/5=2) pseudo=read geom=check guess=(read
 ,tcheck) scf=(maxcycle=1)\\title\\0,1\N,0,2.55074352,-1.10963715,0.912
 69495\C,0,1.86238657,-0.49614519,0.22490007\C,0,1.00864676,0.30677846,
 -0.61950711\C,0,-0.87901511,-1.16869918,-0.23586199\N,0,-1.48712231,-0
 .13832831,0.29012441\C,0,-1.47588595,1.02327547,0.55597637\N,0,0.56493
 03,1.47828064,-0.26240472\H,0,0.9740328,0.02769285,-1.66606286\H,0,-1.
 12094324,-1.40463059,-1.26415001\H,0,-0.57874285,-1.9676879,0.43008421

 Normal termination of Gaussian 16 at Wed Apr  9 19:04:45 2025.
