 Gaussian 16, Revision C.01,

 ----------------------------------------------------------------------
 #t hf aug-cc-pvdz symm=none int=(grid=ultrafine) guess=(read,tcheck) s
 table=(opt,rrhf)
 ----------------------------------------------------------------------
 -----
 title
 -----
 Symbolic Z-matrix:
 Charge =  0 Multiplicity = 1

 SCF Done:  E(RHF) =  -354.528863251     A.U. after   17 cycles
 Normal termination of Gaussian 16 at Wed Apr  9 18:36:15 2025.
 Gaussian 16:  ES64L-G16RevC.01  3-Jul-2019

 ----------------------------------------------------------------------
 #t hf aug-cc-pvdz iop(5/13=1,5/36=2,99/5=2) pseudo=read geom=check gue
 ss=(read,tcheck) scf=(maxcycle=1)
 ----------------------------------------------------------------------
 -----
 title
 -----
 Structure from the checkpoint file:  "Grambow2020_wb97xd3_007316_reverse_mol1.chk"
 Charge =  0 Multiplicity = 1

                         Standard orientation:
 ---------------------------------------------------------------------
 Center     Atomic      Atomic             Coordinates (Angstroms)
 Number     Number       Type             X           Y           Z
 ---------------------------------------------------------------------
      1          8           0       -2.454206   -0.312280    0.116754
      2          6           0       -1.504267    0.594681    0.073835
      3          6           0       -0.200491    0.306043   -0.280391
      4          7           0        0.193334   -0.986226   -0.339122
      5          7           0        1.423501   -0.885743    0.061651
      6          6           0        1.827584    0.433255    0.102273
      7          7           0        0.839751    1.205110   -0.179165
      8          1           0       -2.056255   -1.185379   -0.019172
      9          1           0        0.742145   -0.264328    2.116900
     10          1           0       -1.824880    1.606884    0.279346
     11          1           0        1.994545   -1.706716    0.184459
     12          1           0        2.845038    0.711914    0.326586
 ---------------------------------------------------------------------

 SCF Done:  E(RHF) =  -356.099887650     A.U. after    2 cycles

 The electronic state is 1-A.
 Alpha  occ. eigenvalues --  -21.17277 -15.88597 -15.81223 -15.75691 -11.55363
 Alpha  occ. eigenvalues --  -11.48005 -11.45022  -1.83591  -1.70502  -1.36351
 Alpha  occ. eigenvalues --   -1.24649  -1.04349  -0.90560  -0.84899  -0.80251
 Alpha  occ. eigenvalues --   -0.69765  -0.67482  -0.64406  -0.60891  -0.53673
 Alpha  occ. eigenvalues --   -0.51073  -0.48266  -0.43958  -0.41200  -0.35520
 Alpha  occ. eigenvalues --   -0.24253
 Alpha virt. eigenvalues --    0.01989   0.03800   0.04885   0.05184   0.05820
 Alpha virt. eigenvalues --    0.08857   0.10011   0.10584   0.11011   0.11696
 Alpha virt. eigenvalues --    0.12137   0.13330   0.13576   0.15123   0.16050

 Mulliken charges:
               1
     1  O   -3.381654
     2  C    1.361864
     3  C    2.744613
     4  N   -1.751738
     5  N   -1.267971
     6  C    1.236929
     7  N   -3.078305
     8  H    1.030425
     9  H   -0.720504
    10  H    1.608318
    11  H    0.953687
    12  H    1.264336
 Sum of Mulliken charges =  -0.00000

 Dipole moment (field-independent basis, Debye):
    X=             -1.6484    Y=             -1.4394    Z=             -4.9625  Tot=              5.4236

 Test job not archived.
 1\1\GINC-SE104\SP\RHF\Aug-CC-pVDZ\C3H5N3O1\OHZDE\09-Apr-2025\0\\#t hf
 aug-cc-pvdz iop(5/13=1,5/36=2,99/5=2) pseudo=read geom=check guess=(re
 ad,tcheck) scf=(maxcycle=1)\\title\\0,1\O,0,-2.42635121,0.93243727,-0.
 41149197\C,0,-1.70147434,0.09933922,0.30076208\C,0,-0.32609415,0.18739
 045,0.39665589\N,0,0.34234055,0.98770151,-0.46427663\N,0,1.43863713,0.
 31230246,-0.62550823\C,0,1.53527173,-0.70786127,0.2989476\N,0,0.463723
 96,-0.76447267,1.00560249\H,0,-1.83202093,1.50432726,-0.92027044\H,0,0
 .31083779,-1.34340575,-1.65562889\H,0,-2.26292166,-0.63467455,0.862529

 Normal termination of Gaussian 16 at Wed Apr  9 18:36:19 2025.
