 Gaussian 16, Revision C.01,

 ----------------------------------------------------------------------
 #t hf aug-cc-pvdz symm=none int=(grid=ultrafine) guess=(read,tcheck) s
 table=(opt,rrhf)
 ----------------------------------------------------------------------
 -----
 title
 -----
 Symbolic Z-matrix:
 Charge =  0 Multiplicity = 1

 SCF Done:  E(RHF) =  -359.607828557     A.U. after   17 cycles
 Normal termination of Gaussian 16 at Wed Apr  9 19:10:59 2025.
 Gaussian 16:  ES64L-G16RevC.01  3-Jul-2019

 ----------------------------------------------------------------------
 #t hf aug-cc-pvdz iop(5/13=1,5/36=2,99/5=2) pseudo=read geom=check gue
 ss=(read,tcheck) scf=(maxcycle=1)
 ----------------------------------------------------------------------
 -----
 title
 -----
 Structure from the checkpoint file:  "Grambow2020_wb97xd3_008269_reverse_mol1.chk"
 Charge =  0 Multiplicity = 1

                         Standard orientation:
 ---------------------------------------------------------------------
 Center     Atomic      Atomic             Coordinates (Angstroms)
 Number     Number       Type             X           Y           Z
 ---------------------------------------------------------------------
      1          6           0       -2.074809   -0.451215    0.719447
      2          6           0       -1.282658   -0.206042   -0.540586
      3          6           0       -0.168659    1.628726    0.131355
      4          7           0        1.102278    1.294214    0.036244
      5          6           0        1.413399   -0.419908   -0.141681
      6          8           0        2.035188   -1.089938    0.541898
      7          8           0       -0.373280   -0.986315   -0.879122
      8          1           0       -1.415366   -0.741559    1.538760
      9          1           0       -2.761677   -1.282064    0.536167
     10          1           0       -2.664718    0.418400    1.011043
     11          1           0       -1.768011    0.392430   -1.323781
     12          1           0       -0.620149    1.569336    1.113786
     13          1           0       -0.622221    2.281638   -0.605376
     14          1           0        1.517290    1.602970   -0.837733
 ---------------------------------------------------------------------

 SCF Done:  E(RHF) =  -361.258971027     A.U. after    2 cycles

 The electronic state is 1-A.
 Alpha  occ. eigenvalues --  -21.11867 -21.06018 -15.79829 -11.49361 -11.47268
 Alpha  occ. eigenvalues --  -11.41268 -11.38765  -1.76658  -1.70816  -1.37680
 Alpha  occ. eigenvalues --   -1.11605  -0.93982  -0.83087  -0.75791  -0.69223
 Alpha  occ. eigenvalues --   -0.63648  -0.61409  -0.59784  -0.57045  -0.55732
 Alpha  occ. eigenvalues --   -0.52983  -0.49808  -0.48251  -0.41645  -0.36245
 Alpha  occ. eigenvalues --   -0.30007  -0.29175
 Alpha virt. eigenvalues --    0.03505   0.04767   0.04992   0.05483   0.06108
 Alpha virt. eigenvalues --    0.06699   0.07126   0.10413   0.11141   0.11504
 Alpha virt. eigenvalues --    0.12285   0.12573   0.12913   0.13412   0.14375

 Mulliken charges:
               1
     1  C   -3.778843
     2  C    1.385243
     3  C   -1.715112
     4  N   -2.223594
     5  C    2.529053
     6  O   -2.197305
     7  O   -2.845580
     8  H    1.270655
     9  H    1.141307
    10  H    1.288430
    11  H    1.552911
    12  H    1.507477
    13  H    1.337749
    14  H    0.747610
 Sum of Mulliken charges =   0.00000

 Dipole moment (field-independent basis, Debye):
    X=             -0.2242    Y=              0.6748    Z=              0.0036  Tot=              0.7110

 Test job not archived.
 1\1\GINC-SE117\SP\RHF\Aug-CC-pVDZ\C4H7N1O2\OHZDE\09-Apr-2025\0\\#t hf
 aug-cc-pvdz iop(5/13=1,5/36=2,99/5=2) pseudo=read geom=check guess=(re
 ad,tcheck) scf=(maxcycle=1)\\title\\0,1\C,0,-1.48029205,-1.03300162,0.
 01438503\C,0,-0.33178539,-0.58365755,-0.85412961\C,0,0.08192773,1.3848
 2261,0.15224889\N,0,1.33293676,1.29087925,0.55520734\C,0,2.00251393,-0
 .32721825,0.54546778\O,0,2.4333864,-0.90841638,1.42830356\O,0,0.766548
 13,-1.16811525,-0.80439879\H,0,-1.13747048,-1.24152623,1.02899334\H,0,
 -1.87876228,-1.96364361,-0.39891577\H,0,-2.28786535,-0.3006297,0.04097

 Normal termination of Gaussian 16 at Wed Apr  9 19:11:03 2025.
