 Gaussian 16, Revision C.01,

 ----------------------------------------------------------------------
 #t hf aug-cc-pvdz symm=none int=(grid=ultrafine) guess=(read,tcheck) s
 table=(opt,rrhf)
 ----------------------------------------------------------------------
 -----
 title
 -----
 Symbolic Z-matrix:
 Charge =  0 Multiplicity = 1

 SCF Done:  E(RHF) =  -284.698159382     A.U. after   16 cycles
 Normal termination of Gaussian 16 at Wed Apr  9 03:06:51 2025.
 Gaussian 16:  ES64L-G16RevC.01  3-Jul-2019

 ----------------------------------------------------------------------
 #t hf aug-cc-pvdz iop(5/13=1,5/36=2,99/5=2) pseudo=read geom=check gue
 ss=(read,tcheck) scf=(maxcycle=1)
 ----------------------------------------------------------------------
 -----
 title
 -----
 Structure from the checkpoint file:  "Grambow2020_b97d3_006543_reverse_mol1.chk"
 Charge =  0 Multiplicity = 1

                         Standard orientation:
 ---------------------------------------------------------------------
 Center     Atomic      Atomic             Coordinates (Angstroms)
 Number     Number       Type             X           Y           Z
 ---------------------------------------------------------------------
      1          6           0       -0.734268    1.075053    0.334824
      2          6           0        0.715778    1.175889   -0.182670
      3          8           0        1.463210   -0.065697   -0.039781
      4          6           0        0.704837   -1.176653    0.171180
      5          7           0       -0.569309   -1.243030   -0.045481
      6          6           0       -1.250647   -0.147550   -0.407312
      7          1           0       -0.703699    0.945047    1.427980
      8          1           0       -1.278486    1.997355    0.093977
      9          1           0        0.745902    1.445531   -1.246566
     10          1           0        1.272455    1.923085    0.395072
     11          1           0        1.308671   -2.039749    0.443615
     12          1           0       -3.097889   -0.332131    0.380811
     13          1           0       -2.581668   -0.272790   -0.354406
 ---------------------------------------------------------------------

 SCF Done:  E(RHF) =  -286.014938396     A.U. after    2 cycles

 The electronic state is 1-A.
 Alpha  occ. eigenvalues --  -21.10153 -15.74725 -11.48261 -11.46522 -11.43907
 Alpha  occ. eigenvalues --  -11.39331  -1.81410  -1.40180  -1.18511  -0.94543
 Alpha  occ. eigenvalues --   -0.93972  -0.76404  -0.70591  -0.65335  -0.63417
 Alpha  occ. eigenvalues --   -0.60347  -0.55553  -0.53895  -0.51950  -0.43836
 Alpha  occ. eigenvalues --   -0.37525  -0.35861  -0.26009
 Alpha virt. eigenvalues --    0.02546   0.05191   0.05255   0.05744   0.06016
 Alpha virt. eigenvalues --    0.06176   0.07813   0.09616   0.10409   0.10727
 Alpha virt. eigenvalues --    0.12282   0.12606   0.13594   0.13883   0.14580

 Mulliken charges:
               1
     1  C   -3.217161
     2  C   -1.246810
     3  O   -2.961212
     4  C    1.938075
     5  N   -2.746126
     6  C   -0.072076
     7  H    1.291743
     8  H    1.381808
     9  H    1.446531
    10  H    1.305682
    11  H    1.779831
    12  H    0.881353
    13  H    0.218363
 Sum of Mulliken charges =  -0.00000

 Dipole moment (field-independent basis, Debye):
    X=              2.8162    Y=              1.6865    Z=              0.8320  Tot=              3.3864

 Test job not archived.
 1\1\GINC-SE023\SP\RHF\Aug-CC-pVDZ\C4H7N1O1\OHZDE\09-Apr-2025\0\\#t hf
 aug-cc-pvdz iop(5/13=1,5/36=2,99/5=2) pseudo=read geom=check guess=(re
 ad,tcheck) scf=(maxcycle=1)\\title\\0,1\C,0,0.51183942,-0.72266969,0.3
 8778494\C,0,-0.92048088,-1.03276763,-0.09481212\O,0,-1.770547,0.147605
 25,-0.1634673\C,0,-1.10974754,1.33801832,-0.15259054\N,0,0.15601958,1.
 47278853,-0.38597639\C,0,0.92970866,0.39245759,-0.55775614\H,0,0.46179
 263,-0.40894333,1.44225039\H,0,1.13340776,-1.62367723,0.30618244\H,0,-
 0.91942811,-1.48357881,-1.0959399\H,0,-1.41708209,-1.71309379,0.606985

 Normal termination of Gaussian 16 at Wed Apr  9 03:06:55 2025.
