 Gaussian 16, Revision C.01,

 ----------------------------------------------------------------------
 #t hf aug-cc-pvdz symm=none int=(grid=ultrafine) guess=(read,tcheck) s
 table=(opt,rrhf)
 ----------------------------------------------------------------------
 -----
 title
 -----
 Symbolic Z-matrix:
 Charge =  0 Multiplicity = 1

 SCF Done:  E(RHF) =  -322.476605974     A.U. after   17 cycles
 Normal termination of Gaussian 16 at Wed Apr  9 18:26:26 2025.
 Gaussian 16:  ES64L-G16RevC.01  3-Jul-2019

 ----------------------------------------------------------------------
 #t hf aug-cc-pvdz iop(5/13=1,5/36=2,99/5=2) pseudo=read geom=check gue
 ss=(read,tcheck) scf=(maxcycle=1)
 ----------------------------------------------------------------------
 -----
 title
 -----
 Structure from the checkpoint file:  "Grambow2020_wb97xd3_007139_forward_mol1.chk"
 Charge =  0 Multiplicity = 1

                         Standard orientation:
 ---------------------------------------------------------------------
 Center     Atomic      Atomic             Coordinates (Angstroms)
 Number     Number       Type             X           Y           Z
 ---------------------------------------------------------------------
      1          7           0        2.284973   -0.431945   -0.147304
      2          6           0        1.099953   -0.064631    0.009884
      3          8           0       -0.502863   -1.539389    0.190893
      4          6           0       -1.544358   -0.848594   -0.133668
      5          6           0       -1.131483    0.796016   -0.204390
      6          6           0       -0.284112    1.349000    0.729979
      7          6           0        0.314692    1.008084   -0.587981
      8          1           0        2.603413   -1.079050    0.565387
      9          1           0       -2.368122   -0.832926    0.600477
     10          1           0       -1.921818   -0.994789   -1.158322
     11          1           0       -1.964093    1.339760   -0.626794
     12          1           0        0.472420   -0.232004    1.016581
     13          1           0       -0.189548    2.010870    1.574269
     14          1           0        0.667682    1.687622   -1.350550
 ---------------------------------------------------------------------

 SCF Done:  E(RHF) =  -323.990995468     A.U. after    2 cycles

 The electronic state is 1-A.
 Alpha  occ. eigenvalues --  -20.98957 -15.71978 -11.52923 -11.51101 -11.47567
 Alpha  occ. eigenvalues --  -11.42991 -11.42085  -1.65602  -1.42139  -1.29041
 Alpha  occ. eigenvalues --   -1.00671  -0.92196  -0.85651  -0.81009  -0.73115
 Alpha  occ. eigenvalues --   -0.65547  -0.63086  -0.59678  -0.54768  -0.49452
 Alpha  occ. eigenvalues --   -0.47732  -0.43045  -0.38227  -0.36831  -0.25892
 Alpha  occ. eigenvalues --   -0.25123
 Alpha virt. eigenvalues --    0.02837   0.03340   0.04605   0.04896   0.05635
 Alpha virt. eigenvalues --    0.06487   0.06794   0.08536   0.09665   0.11144
 Alpha virt. eigenvalues --    0.11915   0.12822   0.13207   0.13725   0.14096

 Mulliken charges:
               1
     1  N   -3.459558
     2  C    2.467610
     3  O   -2.353712
     4  C   -0.708346
     5  C   -1.550251
     6  C   -0.866285
     7  C   -1.362789
     8  H    0.593127
     9  H    1.175751
    10  H    1.192154
    11  H    1.319405
    12  H    1.393456
    13  H    0.892265
    14  H    1.267174
 Sum of Mulliken charges =  -0.00000

 Dipole moment (field-independent basis, Debye):
    X=             -2.2370    Y=              2.4953    Z=              0.8679  Tot=              3.4617

 Test job not archived.
 1\1\GINC-SE117\SP\RHF\Aug-CC-pVDZ\C5H7N1O1\OHZDE\09-Apr-2025\0\\#t hf
 aug-cc-pvdz iop(5/13=1,5/36=2,99/5=2) pseudo=read geom=check guess=(re
 ad,tcheck) scf=(maxcycle=1)\\title\\0,1\N,0,1.53431946,-1.97987711,-0.
 11033231\C,0,0.70850245,-1.07523417,-0.36241507\O,0,1.3659903,0.808718
 26,-1.25411311\C,0,0.40571613,1.60997309,-0.9329999\C,0,-0.89277127,0.
 71332273,-0.30837312\C,0,-1.24966328,-0.49225133,-0.87059317\C,0,-0.43
 751614,-0.55597299,0.37365948\H,0,2.09220312,-2.25022624,-0.91267572\H
 ,0,-0.08238511,2.14546274,-1.76535279\H,0,0.60046315,2.28194744,-0.081

 Normal termination of Gaussian 16 at Wed Apr  9 18:26:30 2025.
