 Gaussian 16, Revision C.01,

 ----------------------------------------------------------------------
 #t hf aug-cc-pvdz symm=none int=(grid=ultrafine) guess=(read,tcheck) s
 table=(opt,rrhf)
 ----------------------------------------------------------------------
 -----
 title
 -----
 Symbolic Z-matrix:
 Charge =  0 Multiplicity = 1

 SCF Done:  E(RHF) =  -322.597376044     A.U. after   18 cycles
 Normal termination of Gaussian 16 at Wed Apr  9 18:38:36 2025.
 Gaussian 16:  ES64L-G16RevC.01  3-Jul-2019

 ----------------------------------------------------------------------
 #t hf aug-cc-pvdz iop(5/13=1,5/36=2,99/5=2) pseudo=read geom=check gue
 ss=(read,tcheck) scf=(maxcycle=1)
 ----------------------------------------------------------------------
 -----
 title
 -----
 Structure from the checkpoint file:  "Grambow2020_wb97xd3_007350_forward_mol1.chk"
 Charge =  0 Multiplicity = 1

                         Standard orientation:
 ---------------------------------------------------------------------
 Center     Atomic      Atomic             Coordinates (Angstroms)
 Number     Number       Type             X           Y           Z
 ---------------------------------------------------------------------
      1          8           0        2.301636    0.260502   -0.122755
      2          6           0        1.116434    0.173113    0.098694
      3          6           0        0.410486   -1.194339    0.420795
      4          7           0       -0.495837   -0.991507   -0.621718
      5          6           0       -1.729396   -0.405766   -0.120353
      6          6           0       -1.327968    1.008835    0.280753
      7          6           0        0.104460    1.140464   -0.134679
      8          1           0        1.136500   -1.977771    0.221002
      9          1           0        0.001628   -1.245471    1.434230
     10          1           0       -2.120849   -1.008300    0.708300
     11          1           0       -2.471026   -0.396223   -0.917902
     12          1           0       -1.489362    1.306640    1.324825
     13          1           0       -1.910128    1.707778   -0.320383
     14          1           0        0.466903    2.136039   -0.387263
 ---------------------------------------------------------------------

 SCF Done:  E(RHF) =  -324.087973160     A.U. after    2 cycles

 The electronic state is 1-A.
 Alpha  occ. eigenvalues --  -21.01900 -15.78789 -11.50194 -11.49053 -11.44589
 Alpha  occ. eigenvalues --  -11.42306 -11.40463  -1.69180  -1.46033  -1.17727
 Alpha  occ. eigenvalues --   -1.10176  -0.93917  -0.85936  -0.76520  -0.70516
 Alpha  occ. eigenvalues --   -0.66934  -0.60398  -0.58770  -0.55713  -0.53904
 Alpha  occ. eigenvalues --   -0.49864  -0.46603  -0.44546  -0.40574  -0.27934
 Alpha  occ. eigenvalues --   -0.24837
 Alpha virt. eigenvalues --    0.02803   0.04410   0.05004   0.05070   0.05370
 Alpha virt. eigenvalues --    0.06001   0.06251   0.06870   0.09883   0.10776
 Alpha virt. eigenvalues --    0.11676   0.13001   0.13136   0.14086   0.14345

 Mulliken charges:
               1
     1  O   -3.671716
     2  C    5.043011
     3  C   -2.998737
     4  N   -1.644103
     5  C   -2.163285
     6  C   -3.097720
     7  C   -0.765934
     8  H    1.234406
     9  H    1.576346
    10  H    1.452507
    11  H    1.286645
    12  H    1.187155
    13  H    1.246682
    14  H    1.314743
 Sum of Mulliken charges =  -0.00000

 Dipole moment (field-independent basis, Debye):
    X=             -2.9322    Y=              0.4877    Z=              1.5003  Tot=              3.3296

 Test job not archived.
 1\1\GINC-SE131\SP\RHF\Aug-CC-pVDZ\C5H7N1O1\OHZDE\09-Apr-2025\0\\#t hf
 aug-cc-pvdz iop(5/13=1,5/36=2,99/5=2) pseudo=read geom=check guess=(re
 ad,tcheck) scf=(maxcycle=1)\\title\\0,1\O,0,1.98757078,0.4819751,-1.84
 102833\C,0,1.13747551,0.36929422,-0.98895993\C,0,1.43626234,-0.2222418
 ,0.43682009\N,0,0.42665998,-1.17260789,0.27279679\C,0,-0.81117228,-0.7
 1461684,0.8844708\C,0,-1.25882511,0.43608448,-0.00918436\C,0,-0.271209
 01,0.46331266,-1.13418711\H,0,2.43858933,-0.6402988,0.40010035\H,0,1.3
 1072569,0.50433603,1.2450004\H,0,-0.6292877,-0.42333223,1.92611296\H,0

 Normal termination of Gaussian 16 at Wed Apr  9 18:38:40 2025.
