 Gaussian 16, Revision C.01,

 ----------------------------------------------------------------------
 #t hf aug-cc-pvdz symm=none int=(grid=ultrafine) guess=(read,tcheck) s
 table=(opt,rrhf)
 ----------------------------------------------------------------------
 -----
 title
 -----
 Symbolic Z-matrix:
 Charge =  0 Multiplicity = 1

 SCF Done:  E(RHF) =  -340.491095214     A.U. after   14 cycles
 Normal termination of Gaussian 16 at Wed Apr  9 03:20:20 2025.
 Gaussian 16:  ES64L-G16RevC.01  3-Jul-2019

 ----------------------------------------------------------------------
 #t hf aug-cc-pvdz iop(5/13=1,5/36=2,99/5=2) pseudo=read geom=check gue
 ss=(read,tcheck) scf=(maxcycle=1)
 ----------------------------------------------------------------------
 -----
 title
 -----
 Structure from the checkpoint file:  "Grambow2020_wb97xd3_006041_reverse_mol2.chk"
 Charge =  0 Multiplicity = 1

                         Standard orientation:
 ---------------------------------------------------------------------
 Center     Atomic      Atomic             Coordinates (Angstroms)
 Number     Number       Type             X           Y           Z
 ---------------------------------------------------------------------
      1          8           0       -0.534113    1.515411   -0.244448
      2          6           0       -0.977103    0.426962   -0.097124
      3          8           0        1.705320   -0.807452   -0.083189
      4          6           0        2.374407    0.172870    0.090242
      5          6           0       -1.432677   -0.870969   -0.522345
      6          8           0       -1.426411   -0.332226    0.882775
      7          1           0        1.931202    1.183704    0.086898
      8          1           0        3.464410    0.101345    0.261313
      9          1           0       -2.428915   -1.000593   -0.929605
     10          1           0       -0.712823   -1.663499   -0.684354
 ---------------------------------------------------------------------

 SCF Done:  E(RHF) =  -341.915077065     A.U. after    2 cycles

 The electronic state is 1-A.
 Alpha  occ. eigenvalues --  -21.11537 -21.08436 -21.07652 -11.55213 -11.48134
 Alpha  occ. eigenvalues --  -11.47644  -1.86261  -1.72402  -1.69460  -1.02622
 Alpha  occ. eigenvalues --   -0.90235  -0.79885  -0.70175  -0.67243  -0.61652
 Alpha  occ. eigenvalues --   -0.55545  -0.54299  -0.49912  -0.46100  -0.44481
 Alpha  occ. eigenvalues --   -0.33905  -0.31774  -0.28936
 Alpha virt. eigenvalues --    0.03382   0.04667   0.06291   0.07142   0.08815
 Alpha virt. eigenvalues --    0.09338   0.10286   0.12233   0.12522   0.13605
 Alpha virt. eigenvalues --    0.14653   0.15533   0.15979   0.16493   0.17924

 Mulliken charges:
               1
     1  O   -2.778991
     2  C    4.182683
     3  O   -2.241765
     4  C   -0.661653
     5  C   -2.161141
     6  O   -2.311433
     7  H    1.496098
     8  H    1.456012
     9  H    1.446855
    10  H    1.573335
 Sum of Mulliken charges =   0.00000

 Dipole moment (field-independent basis, Debye):
    X=              0.2337    Y=             -1.2014    Z=              0.0033  Tot=              1.2239

 Test job not archived.
 1\1\GINC-SE021\SP\RHF\Aug-CC-pVDZ\C3H4O3\OHZDE\09-Apr-2025\0\\#t hf au
 g-cc-pvdz iop(5/13=1,5/36=2,99/5=2) pseudo=read geom=check guess=(read
 ,tcheck) scf=(maxcycle=1)\\title\\0,1\O,0,1.22285575,0.30941557,1.2976
 4294\C,0,0.94323383,-0.63289351,0.636938\O,0,-1.12929267,0.85646428,-0
 .84825818\C,0,-0.81948305,1.97684053,-0.55234929\C,0,0.18251067,-1.800
 64833,0.27550551\O,0,1.3897239,-1.25357805,-0.43723342\H,0,-0.02888042
 ,2.18138316,0.19017076\H,0,-1.31519756,2.85069456,-1.0140127\H,0,0.364
 47725,-2.7513082,0.76365157\H,0,-0.73769671,-1.68709902,-0.28383919\\V

 Normal termination of Gaussian 16 at Wed Apr  9 03:20:23 2025.
