 Gaussian 16, Revision C.01,

 ----------------------------------------------------------------------
 #t hf aug-cc-pvdz symm=none int=(grid=ultrafine) guess=(read,tcheck) s
 table=(opt,rrhf)
 ----------------------------------------------------------------------
 -----
 title
 -----
 Symbolic Z-matrix:
 Charge =  0 Multiplicity = 1

 SCF Done:  E(RHF) =  -307.682315475     A.U. after   17 cycles

 1\1\GINC-SE173\Stability\RHF\Aug-CC-pVDZ\C6H10O1\OHZDE\09-Apr-2025\0\\
 #t hf aug-cc-pvdz symm=none int=(grid=ultrafine) guess=(read,tcheck) s
 table=(opt,rrhf)\\title\\0,1\C,0,2.09785378,0.38911627,-0.16120798\C,0
 ,0.91073737,-0.50837477,-0.09909064\C,0,-0.01769278,-0.6587512,1.20700
 389\C,0,-1.24764912,-0.24852646,0.52723986\O,0,-2.22122553,-1.14789878
 ,0.36346554\C,0,-1.11202045,0.9622091,-0.27161316\C,0,-0.00516076,0.24
 728897,-1.07613294\H,0,3.09861606,-0.011322,0.01705139\H,0,1.95523479,
 1.33131161,0.37318558\H,0,1.16719457,0.84760296,-1.31741236\H,0,1.1296

 Normal termination of Gaussian 16 at Wed Apr  9 19:19:21 2025.
 Gaussian 16:  ES64L-G16RevC.01  3-Jul-2019

 ----------------------------------------------------------------------
 #t hf aug-cc-pvdz iop(5/13=1,5/36=2,99/5=2) pseudo=read geom=check gue
 ss=(read,tcheck) scf=(maxcycle=1)
 ----------------------------------------------------------------------
 -----
 title
 -----
 Structure from the checkpoint file:  "Grambow2020_wb97xd3_008610_reverse_mol1.chk"
 Charge =  0 Multiplicity = 1

                         Standard orientation:
 ---------------------------------------------------------------------
 Center     Atomic      Atomic             Coordinates (Angstroms)
 Number     Number       Type             X           Y           Z
 ---------------------------------------------------------------------
      1          6           0        2.394441   -0.062100    0.066422
      2          6           0        1.044069   -0.420383   -0.450031
      3          6           0       -0.055911   -1.209167    0.420798
      4          6           0       -1.070143   -0.159122    0.311737
      5          8           0       -2.185010   -0.412604   -0.378453
      6          6           0       -0.574777    1.180474    0.599026
      7          6           0        0.446672    0.993444   -0.543410
      8          1           0        3.253807   -0.699171   -0.155578
      9          1           0        2.390196    0.232273    1.118551
     10          1           0        1.741927    1.280817   -0.362464
     11          1           0        1.084476   -0.904893   -1.425280
     12          1           0        0.293478   -1.352876    1.440470
     13          1           0       -0.379102   -2.157880   -0.002345
     14          1           0       -2.696790    0.394115   -0.490763
     15          1           0       -1.286234    1.987895    0.428289
     16          1           0       -0.101357    1.295682    1.575661
     17          1           0        0.073577    1.286002   -1.526173
 ---------------------------------------------------------------------

 SCF Done:  E(RHF) =  -309.187028164     A.U. after    2 cycles

 The electronic state is 1-A.
 Alpha  occ. eigenvalues --  -21.16411 -11.53847 -11.47288 -11.42558 -11.39309
 Alpha  occ. eigenvalues --  -11.35258 -11.31023  -1.82086  -1.35378  -1.09847
 Alpha  occ. eigenvalues --   -1.06341  -0.88101  -0.82758  -0.77328  -0.71212
 Alpha  occ. eigenvalues --   -0.67936  -0.62802  -0.58600  -0.56125  -0.53442
 Alpha  occ. eigenvalues --   -0.49788  -0.47250  -0.45954  -0.42416  -0.41013
 Alpha  occ. eigenvalues --   -0.36389  -0.19062
 Alpha virt. eigenvalues --    0.02922   0.04588   0.04783   0.05284   0.05802
 Alpha virt. eigenvalues --    0.06629   0.06788   0.07051   0.07866   0.08932
 Alpha virt. eigenvalues --    0.09549   0.10600   0.12355   0.12734   0.13478

 Mulliken charges:
               1
     1  C   -3.168813
     2  C   -0.792525
     3  C   -3.815343
     4  C    4.569326
     5  O   -3.751283
     6  C   -3.324140
     7  C   -2.291119
     8  H    1.145019
     9  H    1.140267
    10  H    1.608576
    11  H    1.348894
    12  H    1.335519
    13  H    1.338835
    14  H    0.737925
    15  H    1.368894
    16  H    1.336176
    17  H    1.213791
 Sum of Mulliken charges =   0.00000

 Dipole moment (field-independent basis, Debye):
    X=             -5.8731    Y=             -0.4945    Z=              0.3461  Tot=              5.9040

 Test job not archived.
 1\1\GINC-SE173\SP\RHF\Aug-CC-pVDZ\C6H10O1\OHZDE\09-Apr-2025\0\\#t hf a
 ug-cc-pvdz iop(5/13=1,5/36=2,99/5=2) pseudo=read geom=check guess=(rea
 d,tcheck) scf=(maxcycle=1)\\title\\0,1\C,0,2.09785378,0.38911627,-0.16
 120798\C,0,0.91073737,-0.50837477,-0.09909064\C,0,-0.01769278,-0.65875
 12,1.20700389\C,0,-1.24764912,-0.24852646,0.52723986\O,0,-2.22122553,-
 1.14789878,0.36346554\C,0,-1.11202045,0.9622091,-0.27161316\C,0,-0.005
 16076,0.24728897,-1.07613294\H,0,3.09861606,-0.011322,0.01705139\H,0,1
 .95523479,1.33131161,0.37318558\H,0,1.16719457,0.84760296,-1.31741236\

 Normal termination of Gaussian 16 at Wed Apr  9 19:19:27 2025.
