 Gaussian 16, Revision C.01,

 ----------------------------------------------------------------------
 #t hf aug-cc-pvdz symm=none int=(grid=ultrafine) guess=(read,tcheck) s
 table=(opt,rrhf)
 ----------------------------------------------------------------------
 -----
 title
 -----
 Symbolic Z-matrix:
 Charge =  0 Multiplicity = 1

 SCF Done:  E(RHF) =  -381.699922286     A.U. after   15 cycles

 1\1\GINC-SE145\Stability\RHF\Aug-CC-pVDZ\C4H10O3\OHZDE\09-Apr-2025\0\\
 #t hf aug-cc-pvdz symm=none int=(grid=ultrafine) guess=(read,tcheck) s
 table=(opt,rrhf)\\title\\0,1\C,0,1.75003024,0.85325582,-0.19551245\O,0
 ,1.10773329,-0.39096594,0.00581325\C,0,0.58664943,-1.07710824,-1.21369
 825\C,0,-0.61417704,-0.70897832,0.5479459\O,0,-0.48867626,-0.00507454,
 1.71931119\C,0,-1.7804604,-0.10496855,-0.19969446\O,0,-1.55681124,1.23
 821933,-0.55230642\H,0,2.03932644,1.26237545,0.77501942\H,0,1.08938368
 ,1.55003591,-0.7158888\H,0,2.63975127,0.6699564,-0.80703004\H,0,0.3479

 Normal termination of Gaussian 16 at Wed Apr  9 19:25:23 2025.
 Gaussian 16:  ES64L-G16RevC.01  3-Jul-2019

 ----------------------------------------------------------------------
 #t hf aug-cc-pvdz iop(5/13=1,5/36=2,99/5=2) pseudo=read geom=check gue
 ss=(read,tcheck) scf=(maxcycle=1)
 ----------------------------------------------------------------------
 -----
 title
 -----
 Structure from the checkpoint file:  "Grambow2020_wb97xd3_008926_forward_mol1.chk"
 Charge =  0 Multiplicity = 1

                         Standard orientation:
 ---------------------------------------------------------------------
 Center     Atomic      Atomic             Coordinates (Angstroms)
 Number     Number       Type             X           Y           Z
 ---------------------------------------------------------------------
      1          6           0       -1.780444    0.085007    1.031799
      2          8           0       -1.240497    0.229629   -0.267704
      3          6           0       -1.029412   -1.027376   -1.045463
      4          6           0        0.511589    0.462877   -0.753302
      5          8           0        0.679759    1.599214   -0.002447
      6          6           0        1.571649   -0.516158   -0.304109
      7          8           0        1.422319   -0.891146    1.043330
      8          1           0       -1.839711    1.069518    1.501084
      9          1           0       -1.162409   -0.583101    1.635465
     10          1           0       -2.782988   -0.342776    0.926625
     11          1           0       -0.854030   -1.826454   -0.317924
     12          1           0       -1.959293   -1.230664   -1.588442
     13          1           0        0.404829    0.629765   -1.814255
     14          1           0        0.077501    2.279308   -0.313854
     15          1           0        2.537196   -0.009628   -0.458942
     16          1           0        1.527518   -1.412168   -0.909935
     17          1           0        1.518444   -0.101481    1.581195
 ---------------------------------------------------------------------

 SCF Done:  E(RHF) =  -383.443915937     A.U. after    2 cycles

 The electronic state is 1-A.
 Alpha  occ. eigenvalues --  -21.12228 -21.08305 -21.05670 -11.55360 -11.43645
 Alpha  occ. eigenvalues --  -11.39871 -11.30642  -1.82021  -1.73511  -1.71616
 Alpha  occ. eigenvalues --   -1.10164  -1.00185  -0.87567  -0.85157  -0.74107
 Alpha  occ. eigenvalues --   -0.68134  -0.61712  -0.60991  -0.59599  -0.56524
 Alpha  occ. eigenvalues --   -0.54440  -0.52143  -0.49941  -0.44623  -0.41976
 Alpha  occ. eigenvalues --   -0.36887  -0.33629  -0.32035  -0.22718
 Alpha virt. eigenvalues --    0.03630   0.04629   0.04932   0.05114   0.05418
 Alpha virt. eigenvalues --    0.06298   0.06842   0.07443   0.08882   0.09687
 Alpha virt. eigenvalues --    0.10998   0.12761   0.13399   0.13670   0.13939

 Mulliken charges:
               1
     1  C   -2.964323
     2  O   -2.521881
     3  C   -2.390693
     4  C    0.992661
     5  O   -2.991372
     6  C   -0.383920
     7  O   -2.431000
     8  H    1.390205
     9  H    1.454813
    10  H    1.354255
    11  H    1.427242
    12  H    1.136185
    13  H    1.821771
    14  H    0.702510
    15  H    1.231941
    16  H    1.524404
    17  H    0.647202
 Sum of Mulliken charges =  -0.00000

 Dipole moment (field-independent basis, Debye):
    X=              0.8218    Y=              2.9744    Z=              1.5847  Tot=              3.4689

 Test job not archived.
 1\1\GINC-SE145\SP\RHF\Aug-CC-pVDZ\C4H10O3\OHZDE\09-Apr-2025\0\\#t hf a
 ug-cc-pvdz iop(5/13=1,5/36=2,99/5=2) pseudo=read geom=check guess=(rea
 d,tcheck) scf=(maxcycle=1)\\title\\0,1\C,0,1.75003024,0.85325582,-0.19
 551245\O,0,1.10773329,-0.39096594,0.00581325\C,0,0.58664943,-1.0771082
 4,-1.21369825\C,0,-0.61417704,-0.70897832,0.5479459\O,0,-0.48867626,-0
 .00507454,1.71931119\C,0,-1.7804604,-0.10496855,-0.19969446\O,0,-1.556
 81124,1.23821933,-0.55230642\H,0,2.03932644,1.26237545,0.77501942\H,0,
 1.08938368,1.55003591,-0.7158888\H,0,2.63975127,0.6699564,-0.80703004\

 Normal termination of Gaussian 16 at Wed Apr  9 19:25:29 2025.
