 Gaussian 16, Revision C.01,

 ----------------------------------------------------------------------
 #t hf aug-cc-pvdz symm=none int=(grid=ultrafine) guess=(read,tcheck) s
 table=(opt,rrhf)
 ----------------------------------------------------------------------
 -----
 title
 -----
 Symbolic Z-matrix:
 Charge =  0 Multiplicity = 1

 SCF Done:  E(RHF) =  -316.586387614     A.U. after   15 cycles
 Normal termination of Gaussian 16 at Wed Apr  9 18:33:08 2025.
 Gaussian 16:  ES64L-G16RevC.01  3-Jul-2019

 ----------------------------------------------------------------------
 #t hf aug-cc-pvdz iop(5/13=1,5/36=2,99/5=2) pseudo=read geom=check gue
 ss=(read,tcheck) scf=(maxcycle=1)
 ----------------------------------------------------------------------
 -----
 title
 -----
 Structure from the checkpoint file:  "Grambow2020_wb97xd3_007262_forward_mol2.chk"
 Charge =  0 Multiplicity = 1

                         Standard orientation:
 ---------------------------------------------------------------------
 Center     Atomic      Atomic             Coordinates (Angstroms)
 Number     Number       Type             X           Y           Z
 ---------------------------------------------------------------------
      1          7           0       -2.874644    0.007733    0.001709
      2          6           0       -1.728867   -0.061785   -0.000346
      3          6           0       -0.302619   -0.093571   -0.001702
      4          7           0        0.448018   -1.166094   -0.000936
      5          6           0        1.729964   -0.704812    0.000595
      6          6           0        1.748738    0.662573    0.000692
      7          7           0        0.441280    1.044930   -0.001027
      8          1           0        2.571186   -1.379143    0.003354
      9          1           0        2.557073    1.374024    0.004659
     10          1           0        0.085870    1.984706   -0.001673
 ---------------------------------------------------------------------

 SCF Done:  E(RHF) =  -318.010401988     A.U. after    2 cycles

 The electronic state is 1-A.
 Alpha  occ. eigenvalues --  -15.83784 -15.78105 -15.75718 -11.50893 -11.47053
 Alpha  occ. eigenvalues --  -11.44955 -11.40659  -1.61164  -1.32413  -1.31021
 Alpha  occ. eigenvalues --   -1.13408  -0.91809  -0.86102  -0.82070  -0.65112
 Alpha  occ. eigenvalues --   -0.64863  -0.60254  -0.58830  -0.53279  -0.48755
 Alpha  occ. eigenvalues --   -0.46198  -0.42204  -0.40172  -0.32734
 Alpha virt. eigenvalues --    0.02561   0.04686   0.04941   0.08701   0.09766
 Alpha virt. eigenvalues --    0.10048   0.10456   0.11518   0.12179   0.13214
 Alpha virt. eigenvalues --    0.13265   0.14018   0.14518   0.14621   0.15215

 Mulliken charges:
               1
     1  N   -2.640278
     2  C    1.663352
     3  C    4.132684
     4  N   -3.400287
     5  C    0.280462
     6  C   -0.062386
     7  N   -3.296439
     8  H    1.337672
     9  H    1.187825
    10  H    0.797395
 Sum of Mulliken charges =   0.00000

 Dipole moment (field-independent basis, Debye):
    X=              3.7232    Y=              3.3516    Z=              0.0029  Tot=              5.0095

 Test job not archived.
 1\1\GINC-SE173\SP\RHF\Aug-CC-pVDZ\C4H3N3\OHZDE\09-Apr-2025\0\\#t hf au
 g-cc-pvdz iop(5/13=1,5/36=2,99/5=2) pseudo=read geom=check guess=(read
 ,tcheck) scf=(maxcycle=1)\\title\\0,1\N,0,3.3094303,-0.49341065,0.0114
 6754\C,0,2.16276312,-0.44509644,0.03297662\C,0,0.74075306,-0.33172226,
 0.04805996\N,0,-0.11133642,-1.30329275,0.25724241\C,0,-1.34145325,-0.7
 2358522,0.17405705\C,0,-1.22589867,0.61351224,-0.08845514\N,0,0.112422
 91,0.85505486,-0.16718784\H,0,-2.24462164,-1.2975548,0.30532221\H,0,-1
 .96033882,1.38917086,-0.22460038\H,0,0.55827941,1.73692417,-0.34888243

 Normal termination of Gaussian 16 at Wed Apr  9 18:33:12 2025.
