 Gaussian 16, Revision C.01,

 ----------------------------------------------------------------------
 #t hf aug-cc-pvdz symm=none int=(grid=ultrafine) guess=(read,tcheck) s
 table=(opt,rrhf)
 ----------------------------------------------------------------------
 -----
 title
 -----
 Symbolic Z-matrix:
 Charge =  0 Multiplicity = 1

 SCF Done:  E(RHF) =  -302.724853865     A.U. after   15 cycles
 Normal termination of Gaussian 16 at Wed Apr  9 18:23:48 2025.
 Gaussian 16:  ES64L-G16RevC.01  3-Jul-2019

 ----------------------------------------------------------------------
 #t hf aug-cc-pvdz iop(5/13=1,5/36=2,99/5=2) pseudo=read geom=check gue
 ss=(read,tcheck) scf=(maxcycle=1)
 ----------------------------------------------------------------------
 -----
 title
 -----
 Structure from the checkpoint file:  "Grambow2020_wb97xd3_006961_reverse_mol1.chk"
 Charge =  0 Multiplicity = 1

                         Standard orientation:
 ---------------------------------------------------------------------
 Center     Atomic      Atomic             Coordinates (Angstroms)
 Number     Number       Type             X           Y           Z
 ---------------------------------------------------------------------
      1          6           0        1.290312    1.294670    0.129028
      2          6           0        0.568759   -0.022974    0.102204
      3          6           0        1.333197   -1.135385   -0.562260
      4          7           0       -0.168728   -0.390870    1.255502
      5          6           0       -1.242762   -0.584611    0.335573
      6          6           0       -1.987716    0.496867   -0.391784
      7          7           0       -0.838777    0.433691   -0.946673
      8          1           0        1.594918    1.573285   -0.879231
      9          1           0        2.184120    1.188869    0.751882
     10          1           0        0.664048    2.087191    0.534490
     11          1           0        2.321187   -1.206515   -0.100806
     12          1           0        0.835392   -2.095953   -0.450064
     13          1           0        1.461655   -0.919081   -1.622734
     14          1           0       -0.337667    0.393165    1.875773
     15          1           0       -1.441862   -1.612112    0.052324
 ---------------------------------------------------------------------

 SCF Done:  E(RHF) =  -304.183110048     A.U. after    2 cycles

 The electronic state is 1-A.
 Alpha  occ. eigenvalues --  -15.76936 -15.74930 -11.52633 -11.47848 -11.42091
 Alpha  occ. eigenvalues --  -11.39201 -11.38769  -1.57151  -1.32416  -1.18083
 Alpha  occ. eigenvalues --   -1.05431  -0.91168  -0.85753  -0.73679  -0.68568
 Alpha  occ. eigenvalues --   -0.66432  -0.62239  -0.58511  -0.57379  -0.54831
 Alpha  occ. eigenvalues --   -0.52386  -0.50516  -0.42510  -0.39900  -0.38977
 Alpha  occ. eigenvalues --   -0.28686
 Alpha virt. eigenvalues --    0.03443   0.05145   0.05273   0.05496   0.06114
 Alpha virt. eigenvalues --    0.06315   0.07058   0.07596   0.09150   0.10618
 Alpha virt. eigenvalues --    0.10888   0.12094   0.13346   0.13873   0.13953

 Mulliken charges:
               1
     1  C   -4.140787
     2  C    4.097252
     3  C   -4.307312
     4  N   -3.302670
     5  C   -0.318797
     6  C   -0.400453
     7  N   -1.363511
     8  H    1.240967
     9  H    1.169476
    10  H    1.286621
    11  H    1.154861
    12  H    1.348586
    13  H    1.238190
    14  H    0.553126
    15  H    1.744451
 Sum of Mulliken charges =  -0.00000

 Dipole moment (field-independent basis, Debye):
    X=              3.9928    Y=             -0.8244    Z=              1.4286  Tot=              4.3201

 Test job not archived.
 1\1\GINC-SE045\SP\RHF\Aug-CC-pVDZ\C5H8N2\OHZDE\09-Apr-2025\0\\#t hf au
 g-cc-pvdz iop(5/13=1,5/36=2,99/5=2) pseudo=read geom=check guess=(read
 ,tcheck) scf=(maxcycle=1)\\title\\0,1\C,0,-0.62386026,1.43269422,-0.33
 653252\C,0,-0.13261062,0.03145685,-0.1068545\C,0,-1.07039233,-0.831372
 15,0.69278702\N,0,0.52984751,-0.61581983,-1.17994148\C,0,1.55891325,-0
 .85039918,-0.21903005\C,0,2.47613503,0.18593215,0.36262291\N,0,1.33432
 489,0.39468902,0.89614387\H,0,-0.8748467,1.90021638,0.61500533\H,0,-1.
 52448523,1.38794962,-0.95694188\H,0,0.1249378,2.04364974,-0.83726214\H

 Normal termination of Gaussian 16 at Wed Apr  9 18:23:53 2025.
