 Gaussian 16, Revision C.01,

 ----------------------------------------------------------------------
 #t hf aug-cc-pvdz symm=none int=(grid=ultrafine) guess=(read,tcheck) s
 table=(opt,rrhf)
 ----------------------------------------------------------------------
 -----
 title
 -----
 Symbolic Z-matrix:
 Charge =  0 Multiplicity = 1

 SCF Done:  E(RHF) =  -271.885475504     A.U. after   14 cycles
 Normal termination of Gaussian 16 at Wed Apr  9 03:39:45 2025.
 Gaussian 16:  ES64L-G16RevC.01  3-Jul-2019

 ----------------------------------------------------------------------
 #t hf aug-cc-pvdz iop(5/13=1,5/36=2,99/5=2) pseudo=read geom=check gue
 ss=(read,tcheck) scf=(maxcycle=1)
 ----------------------------------------------------------------------
 -----
 title
 -----
 Structure from the checkpoint file:  "Grambow2020_wb97xd3_007432_reverse_mol1.chk"
 Charge =  0 Multiplicity = 1

                         Standard orientation:
 ---------------------------------------------------------------------
 Center     Atomic      Atomic             Coordinates (Angstroms)
 Number     Number       Type             X           Y           Z
 ---------------------------------------------------------------------
      1          6           0       -2.678292    0.060834    0.154183
      2          6           0       -1.384079   -0.740648    0.090329
      3          6           0       -0.238047    0.029888   -0.551630
      4          6           0        0.196361    1.307171    0.173747
      5          6           0        2.045330    0.524498   -0.228576
      6          6           0        1.837399   -0.623460    0.708617
      7          6           0        1.116298   -0.626427   -0.599689
      8          1           0       -3.483548   -0.517864    0.608766
      9          1           0       -3.006529    0.359982   -0.844456
     10          1           0       -2.555336    0.971859    0.746239
     11          1           0       -1.086919   -1.050190    1.097390
     12          1           0       -1.542633   -1.662234   -0.478282
     13          1           0       -0.527935    0.304632   -1.570505
     14          1           0        0.079656    1.317614    1.255208
     15          1           0       -0.135071    2.245571   -0.269943
     16          1           0        1.490069    1.580633   -0.065151
     17          1           0        2.712788   -1.261510    0.763635
     18          1           0        1.302707   -0.540918    1.647562
     19          1           0        1.382937   -1.338702   -1.372349
 ---------------------------------------------------------------------

 SCF Done:  E(RHF) =  -273.282084974     A.U. after    2 cycles

 The electronic state is 1-A.
 Alpha  occ. eigenvalues --  -11.48590 -11.42405 -11.41935 -11.40162 -11.38837
 Alpha  occ. eigenvalues --  -11.36895 -11.35534  -1.39364  -1.18494  -1.06591
 Alpha  occ. eigenvalues --   -0.97203  -0.87477  -0.82084  -0.75480  -0.69223
 Alpha  occ. eigenvalues --   -0.64888  -0.60734  -0.59908  -0.55817  -0.53165
 Alpha  occ. eigenvalues --   -0.51971  -0.47943  -0.47459  -0.43517  -0.40411
 Alpha  occ. eigenvalues --   -0.36416  -0.27282
 Alpha virt. eigenvalues --    0.03953   0.04725   0.04991   0.05107   0.05520
 Alpha virt. eigenvalues --    0.05899   0.06161   0.06638   0.07174   0.08248
 Alpha virt. eigenvalues --    0.08796   0.09124   0.11030   0.12358   0.12981

 Mulliken charges:
               1
     1  C   -4.063302
     2  C   -3.501406
     3  C   -0.336832
     4  C   -3.993699
     5  C   -1.590493
     6  C   -2.700250
     7  C   -0.458376
     8  H    1.072438
     9  H    1.267246
    10  H    1.423225
    11  H    1.421176
    12  H    1.424990
    13  H    1.634780
    14  H    1.475967
    15  H    1.294904
    16  H    1.783397
    17  H    1.330039
    18  H    1.335055
    19  H    1.181140
 Sum of Mulliken charges =   0.00000

 Dipole moment (field-independent basis, Debye):
    X=             -2.6054    Y=             -0.1470    Z=              0.6372  Tot=              2.6862

 Test job not archived.
 1\1\GINC-SE365\SP\RHF\Aug-CC-pVDZ\C7H12\OHZDE\09-Apr-2025\0\\#t hf aug
 -cc-pvdz iop(5/13=1,5/36=2,99/5=2) pseudo=read geom=check guess=(read,
 tcheck) scf=(maxcycle=1)\\title\\0,1\C,0,2.33725611,0.44505539,-0.6005
 0643\C,0,1.11328315,-0.45917827,-0.67594944\C,0,0.17781119,-0.29489482
 ,0.51448275\C,0,-0.44415959,1.0941488,0.68781651\C,0,-2.11123535,-0.04
 600872,1.02549332\C,0,-2.15629796,-0.52037764,-0.39306846\C,0,-1.10924
 746,-1.0764222,0.51586474\H,0,2.99385343,0.29965628,-1.45940874\H,0,2.
 92060027,0.24459584,0.3017322\H,0,2.05347125,1.50083862,-0.58043568\H,

 Normal termination of Gaussian 16 at Wed Apr  9 03:39:52 2025.
