 Gaussian 16, Revision C.01,

 ----------------------------------------------------------------------
 #t hf aug-cc-pvdz symm=none int=(grid=ultrafine) guess=(read,tcheck) s
 table=(opt,rrhf)
 ----------------------------------------------------------------------
 -----
 title
 -----
 Symbolic Z-matrix:
 Charge =  0 Multiplicity = 1

 SCF Done:  E(RHF) =  -264.993692680     A.U. after   13 cycles
 Normal termination of Gaussian 16 at Wed Apr  9 03:08:54 2025.
 Gaussian 16:  ES64L-G16RevC.01  3-Jul-2019

 ----------------------------------------------------------------------
 #t hf aug-cc-pvdz iop(5/13=1,5/36=2,99/5=2) pseudo=read geom=check gue
 ss=(read,tcheck) scf=(maxcycle=1)
 ----------------------------------------------------------------------
 -----
 title
 -----
 Structure from the checkpoint file:  "Grambow2020_b97d3_006631_reverse_mol2.chk"
 Charge =  0 Multiplicity = 1

                         Standard orientation:
 ---------------------------------------------------------------------
 Center     Atomic      Atomic             Coordinates (Angstroms)
 Number     Number       Type             X           Y           Z
 ---------------------------------------------------------------------
      1          6           0        1.546665    0.582890   -0.019886
      2          6           0        0.136779    1.181649   -0.024164
      3          6           0       -0.768855   -0.015234    0.401571
      4          7           0       -2.104774    0.087404   -0.204732
      5          6           0        0.004395   -1.304800    0.087409
      6          7           0        1.231209   -0.881188   -0.138510
      7          1           0        2.085149    0.766294    0.922299
      8          1           0        2.184997    0.906140   -0.853415
      9          1           0        1.991801   -1.527297   -0.352623
     10          1           0        0.036934    2.050313    0.635607
     11          1           0       -0.141031    1.496496   -1.040295
     12          1           0       -0.904014   -0.002451    1.497996
     13          1           0       -1.995200   -0.092553   -1.209134
     14          1           0       -2.657578   -0.707481    0.132678
 ---------------------------------------------------------------------

 SCF Done:  E(RHF) =  -266.267886595     A.U. after    2 cycles

 The electronic state is 1-A.
 Alpha  occ. eigenvalues --  -15.77935 -15.72563 -11.46811 -11.41946 -11.38213
 Alpha  occ. eigenvalues --  -11.35805  -1.46903  -1.30287  -1.11268  -1.01479
 Alpha  occ. eigenvalues --   -0.85295  -0.78568  -0.68333  -0.65905  -0.62840
 Alpha  occ. eigenvalues --   -0.55410  -0.54083  -0.50712  -0.49777  -0.45048
 Alpha  occ. eigenvalues --   -0.40155  -0.35748  -0.31223
 Alpha virt. eigenvalues --    0.03583   0.05340   0.05607   0.05862   0.06167
 Alpha virt. eigenvalues --    0.06417   0.06540   0.08320   0.10160   0.11817
 Alpha virt. eigenvalues --    0.12392   0.13597   0.13819   0.14464   0.14686

 Mulliken charges:
               1
     1  C   -2.298250
     2  C   -2.989653
     3  C    1.543366
     4  N   -2.796382
     5  C   -0.516917
     6  N   -2.002121
     7  H    1.401509
     8  H    1.378174
     9  H    0.742691
    10  H    1.265769
    11  H    1.403947
    12  H    1.819897
    13  H    0.473596
    14  H    0.574375
 Sum of Mulliken charges =  -0.00000

 Dipole moment (field-independent basis, Debye):
    X=              2.5998    Y=              1.4901    Z=             -0.3441  Tot=              3.0162

 Test job not archived.
 1\1\GINC-SE273\SP\RHF\Aug-CC-pVDZ\C4H8N2\OHZDE\09-Apr-2025\0\\#t hf au
 g-cc-pvdz iop(5/13=1,5/36=2,99/5=2) pseudo=read geom=check guess=(read
 ,tcheck) scf=(maxcycle=1)\\title\\0,1\C,0,-1.48989712,0.31572911,0.098
 55588\C,0,-0.46438012,-0.80249634,0.30878684\C,0,0.89919237,-0.0451641
 7,0.34149559\N,0,1.98707429,-0.88693636,-0.17883911\C,0,0.69306858,1.2
 939664,-0.38227108\N,0,-0.61699961,1.39339859,-0.47918689\H,0,-1.93382
 189,0.67016756,1.0412221\H,0,-2.30332291,0.06756672,-0.59677368\H,0,-1
 .06420237,2.20802659,-0.90131533\H,0,-0.64960162,-1.39065072,1.2141102

 Normal termination of Gaussian 16 at Wed Apr  9 03:08:59 2025.
