 Gaussian 16, Revision C.01,

 ----------------------------------------------------------------------
 #t hf aug-cc-pvdz symm=none int=(grid=ultrafine) guess=(read,tcheck) s
 table=(opt,rrhf)
 ----------------------------------------------------------------------
 -----
 title
 -----
 Symbolic Z-matrix:
 Charge =  0 Multiplicity = 1

 SCF Done:  E(RHF) =  -306.967705341     A.U. after   13 cycles

 1\1\GINC-SE174\Stability\RHF\Aug-CC-pVDZ\C4H10O2\OHZDE\09-Apr-2025\0\\
 #t hf aug-cc-pvdz symm=none int=(grid=ultrafine) guess=(read,tcheck) s
 table=(opt,rrhf)\\title\\0,1\C,0,-2.13628764,-0.98850582,-0.32504742\C
 ,0,-1.21100501,0.0413199,-0.90785765\C,0,0.12909588,-0.09726176,-0.947
 23018\O,0,0.94215063,0.79889459,-1.58042507\C,0,0.59694598,1.28112483,
 1.46021617\O,0,1.74646253,1.42927326,1.07188229\H,0,-2.80515776,-1.410
 57421,-1.09238338\H,0,-1.57782252,-1.82197639,0.12456509\H,0,-2.782654
 68,-0.55215332,0.45313769\H,0,-1.6469265,0.93357683,-1.36271776\H,0,0.

 Normal termination of Gaussian 16 at Wed Apr  9 17:20:29 2025.
 Gaussian 16:  ES64L-G16RevC.01  3-Jul-2019

 ----------------------------------------------------------------------
 #t hf aug-cc-pvdz iop(5/13=1,5/36=2,99/5=2) pseudo=read geom=check gue
 ss=(read,tcheck) scf=(maxcycle=1)
 ----------------------------------------------------------------------
 -----
 title
 -----
 Structure from the checkpoint file:  "Grambow2020_b97d3_007105_reverse_mol2.chk"
 Charge =  0 Multiplicity = 1

                         Standard orientation:
 ---------------------------------------------------------------------
 Center     Atomic      Atomic             Coordinates (Angstroms)
 Number     Number       Type             X           Y           Z
 ---------------------------------------------------------------------
      1          6           0        2.500808   -0.698241    0.340492
      2          6           0        1.504113    0.161585   -0.383149
      3          6           0        0.458233    0.760148    0.220575
      4          8           0       -0.370687    1.626138   -0.433674
      5          6           0       -1.370257   -1.304449   -0.335025
      6          8           0       -2.253051   -0.482704   -0.136152
      7          1           0        3.510022   -0.256571    0.313159
      8          1           0        2.224540   -0.832040    1.396182
      9          1           0        2.579123   -1.695818   -0.120455
     10          1           0        1.655310    0.347917   -1.448732
     11          1           0        0.256644    0.597149    1.285629
     12          1           0       -2.236259    0.773085    2.869229
     13          1           0       -1.289369    1.426225   -0.155205
     14          1           0       -0.995133   -1.532578   -1.356162
     15          1           0       -0.910424   -1.896257    0.487062
     16          1           0       -2.361925    0.407157    2.230541
 ---------------------------------------------------------------------

 SCF Done:  E(RHF) =  -308.383970514     A.U. after    2 cycles

 The electronic state is 1-A.
 Alpha  occ. eigenvalues --  -21.08192 -21.08090 -11.49019 -11.45457 -11.40368
 Alpha  occ. eigenvalues --  -11.37021  -1.73483  -1.71193  -1.17743  -0.96975
 Alpha  occ. eigenvalues --   -0.91112  -0.79280  -0.67376  -0.65952  -0.61342
 Alpha  occ. eigenvalues --   -0.60234  -0.57277  -0.54445  -0.52933  -0.50529
 Alpha  occ. eigenvalues --   -0.47595  -0.43119  -0.39073  -0.31930  -0.28577
 Alpha virt. eigenvalues --    0.03460   0.04977   0.05148   0.05436   0.06049
 Alpha virt. eigenvalues --    0.06285   0.07123   0.07854   0.08264   0.09948
 Alpha virt. eigenvalues --    0.11138   0.11871   0.12274   0.13038   0.14498

 Mulliken charges:
               1
     1  C   -4.023004
     2  C   -0.448808
     3  C    0.153730
     4  O   -3.294864
     5  C   -0.876748
     6  O   -2.079645
     7  H    1.186174
     8  H    1.275993
     9  H    1.197704
    10  H    1.454905
    11  H    1.578111
    12  H    0.170771
    13  H    0.960201
    14  H    1.477021
    15  H    1.518953
    16  H   -0.250494
 Sum of Mulliken charges =  -0.00000

 Dipole moment (field-independent basis, Debye):
    X=              0.3082    Y=             -1.0343    Z=              0.0364  Tot=              1.0798

 Test job not archived.
 1\1\GINC-SE174\SP\RHF\Aug-CC-pVDZ\C4H10O2\OHZDE\09-Apr-2025\0\\#t hf a
 ug-cc-pvdz iop(5/13=1,5/36=2,99/5=2) pseudo=read geom=check guess=(rea
 d,tcheck) scf=(maxcycle=1)\\title\\0,1\C,0,-2.13628764,-0.98850582,-0.
 32504742\C,0,-1.21100501,0.0413199,-0.90785765\C,0,0.12909588,-0.09726
 176,-0.94723018\O,0,0.94215063,0.79889459,-1.58042507\C,0,0.59694598,1
 .28112483,1.46021617\O,0,1.74646253,1.42927326,1.07188229\H,0,-2.80515
 776,-1.41057421,-1.09238338\H,0,-1.57782252,-1.82197639,0.12456509\H,0
 ,-2.78265468,-0.55215332,0.45313769\H,0,-1.6469265,0.93357683,-1.36271

 Normal termination of Gaussian 16 at Wed Apr  9 17:20:33 2025.
