 Gaussian 16, Revision C.01,

 ----------------------------------------------------------------------
 #t hf aug-cc-pvdz symm=none int=(grid=ultrafine) guess=(read,tcheck) s
 table=(opt,rrhf)
 ----------------------------------------------------------------------
 -----
 title
 -----
 Symbolic Z-matrix:
 Charge =  0 Multiplicity = 1

 SCF Done:  E(RHF) =  -358.407625075     A.U. after   16 cycles
 Normal termination of Gaussian 16 at Wed Apr  9 18:14:26 2025.
 Gaussian 16:  ES64L-G16RevC.01  3-Jul-2019

 ----------------------------------------------------------------------
 #t hf aug-cc-pvdz iop(5/13=1,5/36=2,99/5=2) pseudo=read geom=check gue
 ss=(read,tcheck) scf=(maxcycle=1)
 ----------------------------------------------------------------------
 -----
 title
 -----
 Structure from the checkpoint file:  "Grambow2020_wb97xd3_006798_reverse_mol1.chk"
 Charge =  0 Multiplicity = 1

                         Standard orientation:
 ---------------------------------------------------------------------
 Center     Atomic      Atomic             Coordinates (Angstroms)
 Number     Number       Type             X           Y           Z
 ---------------------------------------------------------------------
      1          8           0       -2.649888   -0.415579    0.107063
      2          6           0       -1.413999   -0.642045    0.247263
      3          6           0       -0.726196    0.403392   -0.439868
      4          6           0        0.170395    1.313605    0.396300
      5          7           0        0.704163    0.467290   -0.610936
      6          6           0        1.601573   -0.550742   -0.364485
      7          8           0        2.480065   -0.508594    0.455153
      8          1           0       -1.084677   -1.530231    0.788845
      9          1           0       -2.270747    0.483349   -0.587546
     10          1           0        0.402515    1.052362    1.424690
     11          1           0        0.127462    2.372173    0.172665
     12          1           0        1.464253   -1.400569   -1.055080
 ---------------------------------------------------------------------

 SCF Done:  E(RHF) =  -359.998350056     A.U. after    2 cycles

 The electronic state is 1-A.
 Alpha  occ. eigenvalues --  -21.13181 -21.05842 -15.76485 -11.54489 -11.49158
 Alpha  occ. eigenvalues --  -11.47305 -11.40127  -1.81801  -1.72569  -1.49582
 Alpha  occ. eigenvalues --   -1.07238  -0.99778  -0.87398  -0.82186  -0.74266
 Alpha  occ. eigenvalues --   -0.67950  -0.59853  -0.57152  -0.54654  -0.52909
 Alpha  occ. eigenvalues --   -0.49605  -0.46172  -0.43365  -0.35944  -0.32127
 Alpha  occ. eigenvalues --   -0.27612
 Alpha virt. eigenvalues --    0.03409   0.05195   0.05324   0.05842   0.06380
 Alpha virt. eigenvalues --    0.07723   0.09368   0.09950   0.11067   0.11579
 Alpha virt. eigenvalues --    0.12520   0.13343   0.14097   0.14287   0.14518

 Mulliken charges:
               1
     1  O   -2.874187
     2  C    1.330467
     3  C   -0.345682
     4  C   -2.040005
     5  N   -2.369790
     6  C    1.968214
     7  O   -2.553191
     8  H    1.377129
     9  H    1.135670
    10  H    1.434209
    11  H    1.302364
    12  H    1.634803
 Sum of Mulliken charges =  -0.00000

 Dipole moment (field-independent basis, Debye):
    X=             -2.2209    Y=             -0.9997    Z=              1.3568  Tot=              2.7880

 Test job not archived.
 1\1\GINC-SE103\SP\RHF\Aug-CC-pVDZ\C4H5N1O2\OHZDE\09-Apr-2025\0\\#t hf
 aug-cc-pvdz iop(5/13=1,5/36=2,99/5=2) pseudo=read geom=check guess=(re
 ad,tcheck) scf=(maxcycle=1)\\title\\0,1\O,0,2.59173719,0.17187011,-0.1
 4570812\C,0,1.43858576,-0.28135296,-0.39709795\C,0,0.55949715,0.271260
 71,0.5826897\C,0,-0.56762155,1.16974774,0.07884241\N,0,-0.83504076,-0.
 07030128,0.71637387\C,0,-1.47849584,-1.12643296,0.1056158\O,0,-2.38258
 399,-1.0187064,-0.67946342\H,0,1.30087613,-0.98330213,-1.22107625\H,0,
 2.04711871,0.66237376,0.80144413\H,0,-0.7834829,1.22692775,-0.98410069

 Normal termination of Gaussian 16 at Wed Apr  9 18:14:30 2025.
