 Gaussian 16, Revision C.01,

 ----------------------------------------------------------------------
 #t hf aug-cc-pvdz symm=none int=(grid=ultrafine) guess=(read,tcheck) s
 table=(opt,rrhf)
 ----------------------------------------------------------------------
 -----
 title
 -----
 Symbolic Z-matrix:
 Charge =  0 Multiplicity = 1

 SCF Done:  E(RHF) =  -373.120916009     A.U. after   21 cycles
 Normal termination of Gaussian 16 at Wed Apr  9 04:04:27 2025.
 Gaussian 16:  ES64L-G16RevC.01  3-Jul-2019

 ----------------------------------------------------------------------
 #t hf aug-cc-pvdz iop(5/13=1,5/36=2,99/5=2) pseudo=read geom=check gue
 ss=(read,tcheck) scf=(maxcycle=1)
 ----------------------------------------------------------------------
 -----
 title
 -----
 Structure from the checkpoint file:  "Grambow2020_wb97xd3_009220_forward_mol1.chk"
 Charge =  0 Multiplicity = 1

                         Standard orientation:
 ---------------------------------------------------------------------
 Center     Atomic      Atomic             Coordinates (Angstroms)
 Number     Number       Type             X           Y           Z
 ---------------------------------------------------------------------
      1          7           0       -2.587398   -0.419389   -0.044928
      2          6           0       -1.453685    0.018687    0.004583
      3          8           0        0.449866   -1.002151    0.041064
      4          6           0        1.234870    0.049919    0.395712
      5          8           0        2.115451   -0.558219   -0.341576
      6          6           0       -0.627585    1.111616   -0.125420
      7          7           0        0.559544    1.364551   -0.075067
      8          1           0       -2.687741   -1.415129    0.132150
      9          1           0        1.438593    0.200622    1.462666
 ---------------------------------------------------------------------

 SCF Done:  E(RHF) =  -374.700680243     A.U. after    2 cycles

 The electronic state is 1-A.
 Alpha  occ. eigenvalues --  -21.17523 -21.15106 -15.81903 -15.79862 -11.52482
 Alpha  occ. eigenvalues --  -11.51746 -11.47639  -1.94323  -1.55368  -1.42927
 Alpha  occ. eigenvalues --   -1.37776  -1.02307  -0.91735  -0.75401  -0.73125
 Alpha  occ. eigenvalues --   -0.66722  -0.59489  -0.57201  -0.54698  -0.48007
 Alpha  occ. eigenvalues --   -0.44757  -0.41815  -0.39976  -0.36829  -0.29716
 Alpha virt. eigenvalues --    0.03078   0.04212   0.04931   0.07180   0.08834
 Alpha virt. eigenvalues --    0.10337   0.10820   0.10843   0.11533   0.12519
 Alpha virt. eigenvalues --    0.12974   0.13869   0.14318   0.15853   0.17793

 Mulliken charges:
               1
     1  N   -3.194654
     2  C    3.201792
     3  O   -1.839757
     4  C    2.868532
     5  O   -2.034081
     6  C    0.915497
     7  N   -2.414334
     8  H    0.853513
     9  H    1.643492
 Sum of Mulliken charges =   0.00000

 Dipole moment (field-independent basis, Debye):
    X=             -0.2190    Y=             -2.1290    Z=              0.9736  Tot=              2.3513

 Test job not archived.
 1\1\GINC-SE343\SP\RHF\Aug-CC-pVDZ\C3H2N2O2\OHZDE\09-Apr-2025\0\\#t hf
 aug-cc-pvdz iop(5/13=1,5/36=2,99/5=2) pseudo=read geom=check guess=(re
 ad,tcheck) scf=(maxcycle=1)\\title\\0,1\N,0,-2.12263146,-1.21306215,0.
 22472588\C,0,-1.22900276,-0.38784855,0.21392448\O,0,0.74144028,-0.4577
 6768,-0.66891964\C,0,1.27649837,0.62915105,-0.05152359\O,0,1.93300667,
 0.74631922,-1.16692319\C,0,-0.85734318,0.91980544,0.42780892\N,0,0.134
 99922,1.61198447,0.31857739\H,0,-1.86532832,-2.15137477,-0.06902418\H,
 0,1.82783718,0.46823297,0.88267992\\Version=ES64L-G16RevC.01\State=1-A

 Normal termination of Gaussian 16 at Wed Apr  9 04:04:29 2025.
