 Gaussian 16, Revision C.01,

 ----------------------------------------------------------------------
 #t hf aug-cc-pvdz symm=none int=(grid=ultrafine) guess=(read,tcheck) s
 table=(opt,rrhf)
 ----------------------------------------------------------------------
 -----
 title
 -----
 Symbolic Z-matrix:
 Charge =  0 Multiplicity = 1

 SCF Done:  E(RHF) =  -302.804154457     A.U. after   16 cycles
 Normal termination of Gaussian 16 at Wed Apr  9 18:32:33 2025.
 Gaussian 16:  ES64L-G16RevC.01  3-Jul-2019

 ----------------------------------------------------------------------
 #t hf aug-cc-pvdz iop(5/13=1,5/36=2,99/5=2) pseudo=read geom=check gue
 ss=(read,tcheck) scf=(maxcycle=1)
 ----------------------------------------------------------------------
 -----
 title
 -----
 Structure from the checkpoint file:  "Grambow2020_wb97xd3_007238_forward_mol1.chk"
 Charge =  0 Multiplicity = 1

                         Standard orientation:
 ---------------------------------------------------------------------
 Center     Atomic      Atomic             Coordinates (Angstroms)
 Number     Number       Type             X           Y           Z
 ---------------------------------------------------------------------
      1          6           0       -1.522978   -1.150972    0.604530
      2          7           0       -1.293668    0.242742   -0.621257
      3          6           0       -0.807024    1.307944    0.037694
      4          7           0        0.485679    1.233461    0.352913
      5          6           0        0.906906    0.036696   -0.085356
      6          6           0        2.301681   -0.456170    0.103476
      7          6           0       -0.174505   -0.620749   -0.670067
      8          1           0       -1.074627   -0.783115    1.520533
      9          1           0       -2.593835   -0.992812    0.567421
     10          1           0       -1.301848   -2.200677    0.428246
     11          1           0       -1.431788    2.152032    0.290956
     12          1           0        2.474067   -0.764979    1.137546
     13          1           0        2.507403   -1.310277   -0.542999
     14          1           0        3.017557    0.333197   -0.125852
     15          1           0       -0.165484   -1.467288   -1.339107
 ---------------------------------------------------------------------

 SCF Done:  E(RHF) =  -304.273333072     A.U. after    2 cycles

 The electronic state is 1-A.
 Alpha  occ. eigenvalues --  -15.74548 -15.72143 -11.46826 -11.45002 -11.40563
 Alpha  occ. eigenvalues --  -11.38752 -11.36561  -1.55693  -1.27016  -1.13438
 Alpha  occ. eigenvalues --   -1.02962  -0.98786  -0.80774  -0.76405  -0.68681
 Alpha  occ. eigenvalues --   -0.63352  -0.61240  -0.58439  -0.55048  -0.54669
 Alpha  occ. eigenvalues --   -0.52629  -0.49425  -0.40469  -0.38174  -0.36994
 Alpha  occ. eigenvalues --   -0.28345
 Alpha virt. eigenvalues --    0.03177   0.04670   0.05188   0.05652   0.06170
 Alpha virt. eigenvalues --    0.06350   0.06839   0.07274   0.10275   0.11097
 Alpha virt. eigenvalues --    0.11397   0.11992   0.12995   0.13436   0.13643

 Mulliken charges:
               1
     1  C   -3.510513
     2  N   -2.639703
     3  C    1.480011
     4  N   -3.634857
     5  C    5.175891
     6  C   -5.051349
     7  C   -2.000338
     8  H    1.359963
     9  H    1.080409
    10  H    1.232403
    11  H    1.720864
    12  H    1.114919
    13  H    1.204438
    14  H    1.193620
    15  H    1.274242
 Sum of Mulliken charges =  -0.00000

 Dipole moment (field-independent basis, Debye):
    X=             -0.9828    Y=             -2.8464    Z=              0.3395  Tot=              3.0304

 Test job not archived.
 1\1\GINC-SE108\SP\RHF\Aug-CC-pVDZ\C5H8N2\OHZDE\09-Apr-2025\0\\#t hf au
 g-cc-pvdz iop(5/13=1,5/36=2,99/5=2) pseudo=read geom=check guess=(read
 ,tcheck) scf=(maxcycle=1)\\title\\0,1\C,0,-1.78379203,-0.26649131,-0.5
 9669854\N,0,-1.19196988,0.47456661,1.01518076\C,0,-0.50275261,-0.46563
 737,1.68352955\N,0,0.7246656,-0.70054922,1.22065317\C,0,0.87941,0.0998
 639,0.15427952\C,0,2.11586161,0.11781881,-0.67928904\C,0,-0.29836911,0
 .82418598,-0.02393858\H,0,-1.30160065,-1.23643348,-0.64255459\H,0,-2.7
 8781974,-0.31463986,-0.19329015\H,0,-1.80096158,0.23298906,-1.56214105

 Normal termination of Gaussian 16 at Wed Apr  9 18:32:39 2025.
