 Gaussian 16, Revision C.01,

 ----------------------------------------------------------------------
 #t hf aug-cc-pvdz symm=none int=(grid=ultrafine) guess=(read,tcheck) s
 table=(opt,rrhf)
 ----------------------------------------------------------------------
 -----
 title
 -----
 Symbolic Z-matrix:
 Charge =  0 Multiplicity = 1

 SCF Done:  E(RHF) =  -288.041312649     A.U. after   13 cycles

 1\1\GINC-SE108\Stability\RHF\Aug-CC-pVDZ\C6H11N1\OHZDE\09-Apr-2025\0\\
 #t hf aug-cc-pvdz symm=none int=(grid=ultrafine) guess=(read,tcheck) s
 table=(opt,rrhf)\\title\\0,1\C,0,1.15739469,0.18281464,1.33351347\C,0,
 0.43832225,0.79982609,0.17111108\C,0,1.2259442,1.19048874,-1.05448982\
 C,0,0.20773785,-0.64995712,0.52561835\C,0,-1.08504922,-1.10981817,1.15
 127788\C,0,-1.93500925,-0.24679967,-2.29953165\N,0,-2.69757517,-0.3778
 9249,-3.14226329\H,0,-1.21880298,-0.12357712,-1.51046862\H,0,0.8509556
 4,0.45815929,2.33502275\H,0,2.2199501,0.00492101,1.22315757\H,0,-0.370

 Normal termination of Gaussian 16 at Wed Apr  9 18:58:07 2025.
 Gaussian 16:  ES64L-G16RevC.01  3-Jul-2019

 ----------------------------------------------------------------------
 #t hf aug-cc-pvdz iop(5/13=1,5/36=2,99/5=2) pseudo=read geom=check gue
 ss=(read,tcheck) scf=(maxcycle=1)
 ----------------------------------------------------------------------
 -----
 title
 -----
 Structure from the checkpoint file:  "Grambow2020_wb97xd3_007876_reverse_mol2.chk"
 Charge =  0 Multiplicity = 1

                         Standard orientation:
 ---------------------------------------------------------------------
 Center     Atomic      Atomic             Coordinates (Angstroms)
 Number     Number       Type             X           Y           Z
 ---------------------------------------------------------------------
      1          6           0       -2.267884    0.035055   -0.003904
      2          6           0       -0.987345   -0.600024    0.449795
      3          6           0       -0.621842   -1.967076   -0.072353
      4          6           0       -0.958030    0.615122   -0.446463
      5          6           0       -0.536357    1.965931    0.074811
      6          6           0        2.521808   -0.038389   -0.000338
      7          7           0        3.665549   -0.011114   -0.000858
      8          1           0        1.449416   -0.065440   -0.000611
      9          1           0       -2.846242    0.601409    0.715460
     10          1           0       -2.862019   -0.507089   -0.729116
     11          1           0       -0.721302   -0.418961    1.487499
     12          1           0       -1.150016   -2.748713    0.477554
     13          1           0        0.447795   -2.175177    0.014053
     14          1           0       -0.892293   -2.063050   -1.126256
     15          1           0       -0.691812    0.420554   -1.481759
     16          1           0        0.541157    2.127506   -0.010615
     17          1           0       -1.031268    2.767321   -0.477542
     18          1           0       -0.804359    2.075720    1.128050
 ---------------------------------------------------------------------

 SCF Done:  E(RHF) =  -289.472210267     A.U. after    2 cycles

 The electronic state is 1-A.
 Alpha  occ. eigenvalues --  -15.77660 -11.45141 -11.43778 -11.43549 -11.39826
 Alpha  occ. eigenvalues --  -11.38691 -11.36614  -1.35147  -1.30965  -1.09133
 Alpha  occ. eigenvalues --   -1.02249  -0.84831  -0.82211  -0.81783  -0.66719
 Alpha  occ. eigenvalues --   -0.63712  -0.58571  -0.57259  -0.55117  -0.53971
 Alpha  occ. eigenvalues --   -0.53754  -0.49434  -0.48137  -0.46445  -0.46425
 Alpha  occ. eigenvalues --   -0.38823  -0.37907
 Alpha virt. eigenvalues --    0.03778   0.04960   0.05137   0.05429   0.05460
 Alpha virt. eigenvalues --    0.05585   0.06174   0.06862   0.07036   0.08405
 Alpha virt. eigenvalues --    0.09547   0.11391   0.12321   0.12813   0.12939

 Mulliken charges:
               1
     1  C   -3.606011
     2  C   -0.395304
     3  C   -4.715344
     4  C   -0.402070
     5  C   -4.704837
     6  C    0.597670
     7  N   -2.711234
     8  H    2.342861
     9  H    1.371278
    10  H    1.359372
    11  H    1.630412
    12  H    1.143070
    13  H    1.374543
    14  H    1.286086
    15  H    1.625277
    16  H    1.375188
    17  H    1.142329
    18  H    1.286715
 Sum of Mulliken charges =  -0.00000

 Dipole moment (field-independent basis, Debye):
    X=             -3.4373    Y=             -0.0422    Z=              0.0024  Tot=              3.4376

 Test job not archived.
 1\1\GINC-SE108\SP\RHF\Aug-CC-pVDZ\C6H11N1\OHZDE\09-Apr-2025\0\\#t hf a
 ug-cc-pvdz iop(5/13=1,5/36=2,99/5=2) pseudo=read geom=check guess=(rea
 d,tcheck) scf=(maxcycle=1)\\title\\0,1\C,0,1.15739469,0.18281464,1.333
 51347\C,0,0.43832225,0.79982609,0.17111108\C,0,1.2259442,1.19048874,-1
 .05448982\C,0,0.20773785,-0.64995712,0.52561835\C,0,-1.08504922,-1.109
 81817,1.15127788\C,0,-1.93500925,-0.24679967,-2.29953165\N,0,-2.697575
 17,-0.37789249,-3.14226329\H,0,-1.21880298,-0.12357712,-1.51046862\H,0
 ,0.85095564,0.45815929,2.33502275\H,0,2.2199501,0.00492101,1.22315757\

 Normal termination of Gaussian 16 at Wed Apr  9 18:58:14 2025.
