 Gaussian 16, Revision C.01,

 ----------------------------------------------------------------------
 #t hf aug-cc-pvdz symm=none int=(grid=ultrafine) guess=(read,tcheck) s
 table=(opt,rrhf)
 ----------------------------------------------------------------------
 -----
 title
 -----
 Symbolic Z-matrix:
 Charge =  0 Multiplicity = 1

 SCF Done:  E(RHF) =  -306.589103603     A.U. after   14 cycles
 Normal termination of Gaussian 16 at Wed Apr  9 03:51:43 2025.
 Gaussian 16:  ES64L-G16RevC.01  3-Jul-2019

 ----------------------------------------------------------------------
 #t hf aug-cc-pvdz iop(5/13=1,5/36=2,99/5=2) pseudo=read geom=check gue
 ss=(read,tcheck) scf=(maxcycle=1)
 ----------------------------------------------------------------------
 -----
 title
 -----
 Structure from the checkpoint file:  "Grambow2020_wb97xd3_008214_forward_mol1.chk"
 Charge =  0 Multiplicity = 1

                         Standard orientation:
 ---------------------------------------------------------------------
 Center     Atomic      Atomic             Coordinates (Angstroms)
 Number     Number       Type             X           Y           Z
 ---------------------------------------------------------------------
      1          6           0       -1.486448    0.652357   -0.362809
      2          8           0       -1.402507   -0.782248   -0.383546
      3          6           0       -0.338833   -0.775477    0.585577
      4          6           0        0.890357   -1.334906   -0.116450
      5          6           0        1.679347   -0.188505   -0.349227
      6          6           0        1.044950    1.162057   -0.023316
      7          6           0       -0.298592    0.777238    0.595433
      8          1           0       -1.350154    1.082002   -1.360180
      9          1           0       -2.445211    0.984315    0.045341
     10          1           0       -0.612018   -1.300797    1.503847
     11          1           0        2.012582   -0.803105    0.628565
     12          1           0        2.576255   -0.237345   -0.964097
     13          1           0        1.668775    1.754745    0.647852
     14          1           0        0.933686    1.740251   -0.944028
     15          1           0       -0.508539    1.281329    1.535818
 ---------------------------------------------------------------------

 SCF Done:  E(RHF) =  -308.023516693     A.U. after    2 cycles

 The electronic state is 1-A.
 Alpha  occ. eigenvalues --  -21.03849 -11.49792 -11.45432 -11.44512 -11.41039
 Alpha  occ. eigenvalues --  -11.39389 -11.36878  -1.77778  -1.31664  -1.11044
 Alpha  occ. eigenvalues --   -1.01155  -0.96908  -0.79798  -0.75348  -0.71211
 Alpha  occ. eigenvalues --   -0.64010  -0.60827  -0.58974  -0.56392  -0.50342
 Alpha  occ. eigenvalues --   -0.47212  -0.45496  -0.42855  -0.35165  -0.31674
 Alpha  occ. eigenvalues --   -0.29197
 Alpha virt. eigenvalues --    0.03218   0.04745   0.05029   0.05088   0.05385
 Alpha virt. eigenvalues --    0.06027   0.06943   0.07912   0.09150   0.10948
 Alpha virt. eigenvalues --    0.11558   0.12009   0.13537   0.13824   0.14507

 Mulliken charges:
               1
     1  C   -1.294107
     2  O   -2.761531
     3  C    1.250996
     4  C   -1.921948
     5  C   -0.576510
     6  C   -3.869109
     7  C   -2.338506
     8  H    1.510646
     9  H    1.454516
    10  H    1.649680
    11  H    1.532231
    12  H    1.394387
    13  H    1.281024
    14  H    1.393930
    15  H    1.294302
 Sum of Mulliken charges =  -0.00000

 Dipole moment (field-independent basis, Debye):
    X=              0.5219    Y=              3.2870    Z=              0.7968  Tot=              3.4222

 Test job not archived.
 1\1\GINC-SE116\SP\RHF\Aug-CC-pVDZ\C6H8O1\OHZDE\09-Apr-2025\0\\#t hf au
 g-cc-pvdz iop(5/13=1,5/36=2,99/5=2) pseudo=read geom=check guess=(read
 ,tcheck) scf=(maxcycle=1)\\title\\0,1\C,0,-1.55462841,-0.39906784,-0.6
 5651731\O,0,-0.8629897,-1.64637878,-0.47926437\C,0,-0.06871993,-1.1016
 9995,0.5898974\C,0,1.3739183,-1.10853435,0.10465459\C,0,1.62218835,0.2
 4882408,-0.19007709\C,0,0.42904981,1.19934878,-0.11511732\C,0,-0.69860
 895,0.30533722,0.39983064\H,0,-1.4626041,-0.02523095,-1.68106428\H,0,-
 2.61363345,-0.49696562,-0.40169774\H,0,-0.22947321,-1.62718628,1.53426

 Normal termination of Gaussian 16 at Wed Apr  9 03:51:48 2025.
