 Gaussian 16, Revision C.01,

 ----------------------------------------------------------------------
 #t hf aug-cc-pvdz symm=none int=(grid=ultrafine) guess=(read,tcheck) s
 table=(opt,rrhf)
 ----------------------------------------------------------------------
 -----
 title
 -----
 Symbolic Z-matrix:
 Charge =  0 Multiplicity = 1

 SCF Done:  E(RHF) =  -316.483059147     A.U. after   17 cycles
 Normal termination of Gaussian 16 at Wed Apr  9 18:33:26 2025.
 Gaussian 16:  ES64L-G16RevC.01  3-Jul-2019

 ----------------------------------------------------------------------
 #t hf aug-cc-pvdz iop(5/13=1,5/36=2,99/5=2) pseudo=read geom=check gue
 ss=(read,tcheck) scf=(maxcycle=1)
 ----------------------------------------------------------------------
 -----
 title
 -----
 Structure from the checkpoint file:  "Grambow2020_wb97xd3_007267_reverse_mol2.chk"
 Charge =  0 Multiplicity = 1

                         Standard orientation:
 ---------------------------------------------------------------------
 Center     Atomic      Atomic             Coordinates (Angstroms)
 Number     Number       Type             X           Y           Z
 ---------------------------------------------------------------------
      1          7           0       -2.863563   -0.053810    0.001216
      2          6           0       -1.719717    0.016260   -0.000579
      3          6           0       -0.278884    0.080853   -0.001053
      4          7           0        0.398526    1.226140   -0.000574
      5          6           0        1.734124    0.932285    0.000840
      6          6           0        1.825493   -0.570638    0.000839
      7          7           0        0.441124   -1.023225   -0.000861
      8          1           0        2.361525   -0.918808    0.888096
      9          1           0        2.363432   -0.916924   -0.886101
     10          1           0        0.076334   -1.960560   -0.000747
 ---------------------------------------------------------------------

 SCF Done:  E(RHF) =  -317.889688190     A.U. after    2 cycles

 The electronic state is 1-A.
 Alpha  occ. eigenvalues --  -15.83693 -15.81958 -15.74445 -11.57113 -11.48004
 Alpha  occ. eigenvalues --  -11.44947 -11.39382  -1.60394  -1.35288  -1.31336
 Alpha  occ. eigenvalues --   -1.14663  -0.94760  -0.82612  -0.80503  -0.69624
 Alpha  occ. eigenvalues --   -0.64028  -0.58809  -0.56787  -0.56028  -0.49457
 Alpha  occ. eigenvalues --   -0.47138  -0.42426  -0.39785  -0.32439
 Alpha virt. eigenvalues --    0.02209   0.04490   0.04576   0.05446   0.06846
 Alpha virt. eigenvalues --    0.09141   0.09804   0.11482   0.11711   0.12175
 Alpha virt. eigenvalues --    0.12457   0.13335   0.13361   0.14527   0.14968

 Mulliken charges:
               1
     1  N   -2.468691
     2  C    1.629402
     3  C    4.893369
     4  N   -2.777115
     5  C   -0.406863
     6  C   -1.952688
     7  N   -2.958273
     8  H    1.592769
     9  H    1.593128
    10  H    0.854962
 Sum of Mulliken charges =  -0.00000

 Dipole moment (field-independent basis, Debye):
    X=              0.3044    Y=             -5.6618    Z=             -0.0027  Tot=              5.6699

 Test job not archived.
 1\1\GINC-SE168\SP\RHF\Aug-CC-pVDZ\C4H3N3\OHZDE\09-Apr-2025\0\\#t hf au
 g-cc-pvdz iop(5/13=1,5/36=2,99/5=2) pseudo=read geom=check guess=(read
 ,tcheck) scf=(maxcycle=1)\\title\\0,1\N,0,3.09045792,-1.01936749,0.563
 86838\C,0,2.01782916,-0.76581458,0.25006161\C,0,0.66624917,-0.43178854
 ,-0.12654312\N,0,0.02276964,-1.02324592,-1.12987667\C,0,-1.22826544,-0
 .47757957,-1.21551326\C,0,-1.30345678,0.55465993,-0.12191722\N,0,-0.00
 136749,0.4972276,0.52814412\H,0,-2.11158402,0.31291352,0.57397501\H,0,
 -1.49781764,1.54314036,-0.54745915\H,0,0.34726147,1.0305617,1.30639928

 Normal termination of Gaussian 16 at Wed Apr  9 18:33:30 2025.
