 Gaussian 16, Revision C.01,

 ----------------------------------------------------------------------
 #t hf aug-cc-pvdz symm=none int=(grid=ultrafine) guess=(read,tcheck) s
 table=(opt,rrhf)
 ----------------------------------------------------------------------
 -----
 title
 -----
 Symbolic Z-matrix:
 Charge =  0 Multiplicity = 1

 SCF Done:  E(RHF) =  -316.490327410     A.U. after   15 cycles
 Normal termination of Gaussian 16 at Wed Apr  9 18:33:08 2025.
 Gaussian 16:  ES64L-G16RevC.01  3-Jul-2019

 ----------------------------------------------------------------------
 #t hf aug-cc-pvdz iop(5/13=1,5/36=2,99/5=2) pseudo=read geom=check gue
 ss=(read,tcheck) scf=(maxcycle=1)
 ----------------------------------------------------------------------
 -----
 title
 -----
 Structure from the checkpoint file:  "Grambow2020_wb97xd3_007263_reverse_mol2.chk"
 Charge =  0 Multiplicity = 1

                         Standard orientation:
 ---------------------------------------------------------------------
 Center     Atomic      Atomic             Coordinates (Angstroms)
 Number     Number       Type             X           Y           Z
 ---------------------------------------------------------------------
      1          7           0       -2.782711    0.769196    0.162161
      2          6           0       -1.790695    0.204065    0.049162
      3          6           0       -0.562225   -0.489597   -0.029597
      4          7           0        0.049330   -1.297606   -0.754742
      5          6           0        0.750152   -0.786746    0.500977
      6          6           0        1.850585    0.193830    0.309293
      7          7           0        1.642313    1.247207   -0.352488
      8          1           0        0.860542   -1.514982    1.297680
      9          1           0        2.811056   -0.065493    0.765885
     10          1           0        2.478979    1.819588   -0.427094
 ---------------------------------------------------------------------

 SCF Done:  E(RHF) =  -317.898544364     A.U. after    2 cycles

 The electronic state is 1-A.
 Alpha  occ. eigenvalues --  -15.81424 -15.80291 -15.76670 -11.54814 -11.49934
 Alpha  occ. eigenvalues --  -11.47199 -11.45150  -1.53243  -1.35434  -1.33458
 Alpha  occ. eigenvalues --   -1.03090  -0.96935  -0.83199  -0.74898  -0.67089
 Alpha  occ. eigenvalues --   -0.62528  -0.58360  -0.55321  -0.51637  -0.50337
 Alpha  occ. eigenvalues --   -0.45783  -0.42178  -0.40415  -0.37965
 Alpha virt. eigenvalues --    0.03037   0.04857   0.05438   0.07754   0.08395
 Alpha virt. eigenvalues --    0.08901   0.10353   0.11125   0.11644   0.11967
 Alpha virt. eigenvalues --    0.12718   0.13543   0.13872   0.14273   0.14584

 Mulliken charges:
               1
     1  N   -2.867403
     2  C    1.618391
     3  C    3.939429
     4  N   -1.965324
     5  C   -1.587231
     6  C    0.354072
     7  N   -2.974378
     8  H    1.230490
     9  H    1.516727
    10  H    0.735227
 Sum of Mulliken charges =  -0.00000

 Dipole moment (field-independent basis, Debye):
    X=              3.3431    Y=             -0.9377    Z=              1.5159  Tot=              3.7886

 Test job not archived.
 1\1\GINC-SE028\SP\RHF\Aug-CC-pVDZ\C4H3N3\OHZDE\09-Apr-2025\0\\#t hf au
 g-cc-pvdz iop(5/13=1,5/36=2,99/5=2) pseudo=read geom=check guess=(read
 ,tcheck) scf=(maxcycle=1)\\title\\0,1\N,0,3.04744799,-1.42768177,-0.49
 307479\C,0,1.98085499,-1.22714968,-0.12104875\C,0,0.64711999,-0.989665
 76,0.28052535\N,0,-0.086755,-1.04719921,1.28592584\C,0,-0.6990981,-0.5
 5635303,-0.02291586\C,0,-0.98754805,0.89774682,-0.13070038\N,0,-0.0711
 9913,1.7358662,0.0901917\H,0,-1.39616674,-1.24205961,-0.49318253\H,0,-
 2.01379305,1.16592493,-0.40112527\H,0,-0.4039149,2.6925291,0.0047997\\

 Normal termination of Gaussian 16 at Wed Apr  9 18:33:11 2025.
