 Gaussian 16, Revision C.01,

 ----------------------------------------------------------------------
 #t hf aug-cc-pvdz symm=none int=(grid=ultrafine) guess=(read,tcheck) s
 table=(opt,rrhf)
 ----------------------------------------------------------------------
 -----
 title
 -----
 Symbolic Z-matrix:
 Charge =  0 Multiplicity = 1

 SCF Done:  E(RHF) =  -359.583885000     A.U. after   15 cycles
 Normal termination of Gaussian 16 at Wed Apr  9 18:06:46 2025.
 Gaussian 16:  ES64L-G16RevC.01  3-Jul-2019

 ----------------------------------------------------------------------
 #t hf aug-cc-pvdz iop(5/13=1,5/36=2,99/5=2) pseudo=read geom=check gue
 ss=(read,tcheck) scf=(maxcycle=1)
 ----------------------------------------------------------------------
 -----
 title
 -----
 Structure from the checkpoint file:  "Grambow2020_wb97xd3_006593_reverse_mol1.chk"
 Charge =  0 Multiplicity = 1

                         Standard orientation:
 ---------------------------------------------------------------------
 Center     Atomic      Atomic             Coordinates (Angstroms)
 Number     Number       Type             X           Y           Z
 ---------------------------------------------------------------------
      1          6           0        2.618970   -0.259179    0.189149
      2          7           0        1.558363    0.508934   -0.417938
      3          6           0        0.373296    0.287165    0.017109
      4          6           0       -0.784917    1.148329    0.018505
      5          8           0       -1.924747    0.587149   -0.021322
      6          6           0       -1.634933   -0.907203    0.124674
      7          8           0       -0.371353   -1.074762   -0.270643
      8          1           0        2.574477   -1.324657   -0.072487
      9          1           0        3.582236    0.121050   -0.153309
     10          1           0        2.611577   -0.192097    1.290727
     11          1           0       -0.739099    2.222320    0.161445
     12          1           0        0.180557    0.376250    1.228762
     13          1           0       -2.371113   -1.420569   -0.492696
     14          1           0       -1.812873   -1.058603    1.202229
 ---------------------------------------------------------------------

 SCF Done:  E(RHF) =  -361.197779747     A.U. after    2 cycles

 The electronic state is 1-A.
 Alpha  occ. eigenvalues --  -21.16627 -21.06170 -15.64093 -11.57644 -11.50540
 Alpha  occ. eigenvalues --  -11.48836 -11.34953  -1.92860  -1.71695  -1.34174
 Alpha  occ. eigenvalues --   -1.12887  -0.97463  -0.91705  -0.85113  -0.72881
 Alpha  occ. eigenvalues --   -0.69025  -0.63260  -0.61159  -0.56454  -0.55430
 Alpha  occ. eigenvalues --   -0.52304  -0.49680  -0.46464  -0.40499  -0.33148
 Alpha  occ. eigenvalues --   -0.31056  -0.24990
 Alpha virt. eigenvalues --    0.03001   0.04518   0.05004   0.05764   0.06213
 Alpha virt. eigenvalues --    0.07108   0.07669   0.08043   0.08589   0.10654
 Alpha virt. eigenvalues --    0.11475   0.13141   0.13635   0.14299   0.14693

 Mulliken charges:
               1
     1  C   -3.496452
     2  N   -3.198115
     3  C    2.423378
     4  C    1.393965
     5  O   -3.162389
     6  C   -0.656488
     7  O   -2.712056
     8  H    1.292987
     9  H    1.276057
    10  H    1.179120
    11  H    1.523181
    12  H    0.991997
    13  H    1.523839
    14  H    1.620977
 Sum of Mulliken charges =   0.00000

 Dipole moment (field-independent basis, Debye):
    X=             -5.3339    Y=              0.4238    Z=              0.9206  Tot=              5.4294

 Test job not archived.
 1\1\GINC-SE229\SP\RHF\Aug-CC-pVDZ\C4H7N1O2\OHZDE\09-Apr-2025\0\\#t hf
 aug-cc-pvdz iop(5/13=1,5/36=2,99/5=2) pseudo=read geom=check guess=(re
 ad,tcheck) scf=(maxcycle=1)\\title\\0,1\C,0,2.33400822,-0.15612782,-0.
 52738684\N,0,1.23466744,0.72597216,-0.83849682\C,0,0.0879007,0.3935316
 2,-0.3724065\C,0,-1.056669,1.21713453,-0.06467277\O,0,-2.20186934,0.67
 125413,-0.14373502\C,0,-1.91712936,-0.81088401,-0.38987841\O,0,-0.6930
 403,-0.86497057,-0.91871345\H,0,2.25613425,-1.12653252,-1.0352523\H,0,
 3.26925564,0.30534901,-0.84689102\H,0,2.41972512,-0.35869805,0.5541151

 Normal termination of Gaussian 16 at Wed Apr  9 18:06:51 2025.
