 Gaussian 16, Revision C.01,

 ----------------------------------------------------------------------
 #t hf aug-cc-pvdz symm=none int=(grid=ultrafine) guess=(read,tcheck) s
 table=(opt,rrhf)
 ----------------------------------------------------------------------
 -----
 title
 -----
 Symbolic Z-matrix:
 Charge =  0 Multiplicity = 1

 SCF Done:  E(RHF) =  -337.408237532     A.U. after   16 cycles
 Normal termination of Gaussian 16 at Wed Apr  9 04:04:29 2025.
 Gaussian 16:  ES64L-G16RevC.01  3-Jul-2019

 ----------------------------------------------------------------------
 #t hf aug-cc-pvdz iop(5/13=1,5/36=2,99/5=2) pseudo=read geom=check gue
 ss=(read,tcheck) scf=(maxcycle=1)
 ----------------------------------------------------------------------
 -----
 title
 -----
 Structure from the checkpoint file:  "Grambow2020_wb97xd3_009189_forward_mol1.chk"
 Charge =  0 Multiplicity = 1

                         Standard orientation:
 ---------------------------------------------------------------------
 Center     Atomic      Atomic             Coordinates (Angstroms)
 Number     Number       Type             X           Y           Z
 ---------------------------------------------------------------------
      1          8           0       -1.877140   -0.398742   -0.272921
      2          6           0       -0.590156   -0.507564   -0.072083
      3          6           0       -0.986703    0.680071    0.582549
      4          6           0        0.018175    1.189097   -0.310200
      5          7           0        1.333138    0.718688   -0.031307
      6          6           0        1.492293   -0.607675    0.104332
      7          7           0        0.430421   -1.364966   -0.035148
      8          1           0       -1.460823    0.860573    1.534571
      9          1           0       -0.062493    2.001073   -1.024766
     10          1           0        2.120860    1.341838   -0.002830
     11          1           0        2.473011   -1.013179    0.313992
 ---------------------------------------------------------------------

 SCF Done:  E(RHF) =  -338.921964934     A.U. after    2 cycles

 The electronic state is 1-A.
 Alpha  occ. eigenvalues --  -21.07663 -15.80930 -15.74174 -11.51895 -11.48292
 Alpha  occ. eigenvalues --  -11.46626 -11.42060  -1.79576  -1.54250  -1.31434
 Alpha  occ. eigenvalues --   -1.15349  -0.94529  -0.85959  -0.80038  -0.73735
 Alpha  occ. eigenvalues --   -0.65340  -0.63063  -0.60443  -0.57282  -0.49235
 Alpha  occ. eigenvalues --   -0.45778  -0.42502  -0.35168  -0.31296  -0.25457
 Alpha virt. eigenvalues --    0.02982   0.04828   0.04910   0.05732   0.09367
 Alpha virt. eigenvalues --    0.09780   0.10253   0.11011   0.11636   0.12582
 Alpha virt. eigenvalues --    0.13304   0.13427   0.14210   0.15188   0.15602

 Mulliken charges:
               1
     1  O   -2.880870
     2  C    4.819425
     3  C   -0.986034
     4  C   -0.464521
     5  N   -2.755171
     6  C    1.208955
     7  N   -3.341203
     8  H    1.050529
     9  H    1.073930
    10  H    0.776302
    11  H    1.498658
 Sum of Mulliken charges =  -0.00000

 Dipole moment (field-independent basis, Debye):
    X=              2.4000    Y=              2.0008    Z=              0.5452  Tot=              3.1718

 Test job not archived.
 1\1\GINC-SE252\SP\RHF\Aug-CC-pVDZ\C4H4N2O1\OHZDE\09-Apr-2025\0\\#t hf
 aug-cc-pvdz iop(5/13=1,5/36=2,99/5=2) pseudo=read geom=check guess=(re
 ad,tcheck) scf=(maxcycle=1)\\title\\0,1\O,0,2.16216177,-0.23978976,0.6
 5578511\C,0,0.9614057,-0.59924983,0.28500322\C,0,1.21405044,0.63335127
 ,-0.35775135\C,0,0.01385858,0.95022864,0.36682913\N,0,-1.13417123,0.22
 955688,-0.07003808\C,0,-1.0171525,-1.10425836,-0.17108009\N,0,0.138424
 66,-1.63891846,0.14403137\H,0,1.7760052,0.88892209,-1.24240295\H,0,-0.
 16411536,1.7724861,1.05139781\H,0,-2.01377289,0.68744525,-0.23212323\H

 Normal termination of Gaussian 16 at Wed Apr  9 04:04:33 2025.
