 Gaussian 16, Revision C.01,

 ----------------------------------------------------------------------
 #t hf aug-cc-pvdz symm=none int=(grid=ultrafine) guess=(read,tcheck) s
 table=(opt,rrhf)
 ----------------------------------------------------------------------
 -----
 title
 -----
 Symbolic Z-matrix:
 Charge =  0 Multiplicity = 1

 SCF Done:  E(RHF) =  -344.746688918     A.U. after   15 cycles

 1\1\GINC-SE232\Stability\RHF\Aug-CC-pVDZ\C5H10O2\OHZDE\09-Apr-2025\0\\
 #t hf aug-cc-pvdz symm=none int=(grid=ultrafine) guess=(read,tcheck) s
 table=(opt,rrhf)\\title\\0,1\C,0,-0.90676581,-1.35056009,0.18542144\C,
 0,-0.87805242,0.1478263,0.01482803\C,0,0.45369715,0.82018067,0.0079299
 \C,0,1.50417248,0.39390237,0.85909494\O,0,2.43007638,-0.46431691,-0.46
 603578\C,0,-1.9909671,0.79154606,-0.67842393\O,0,-1.9214763,0.82870263
 ,0.73705242\H,0,-0.32432028,-1.84288622,-0.59542647\H,0,-0.4953883,-1.
 64790014,1.15218559\H,0,-1.93376893,-1.71212866,0.14180186\H,0,0.42996

 Normal termination of Gaussian 16 at Wed Apr  9 18:44:50 2025.
 Gaussian 16:  ES64L-G16RevC.01  3-Jul-2019

 ----------------------------------------------------------------------
 #t hf aug-cc-pvdz iop(5/13=1,5/36=2,99/5=2) pseudo=read geom=check gue
 ss=(read,tcheck) scf=(maxcycle=1)
 ----------------------------------------------------------------------
 -----
 title
 -----
 Structure from the checkpoint file:  "Grambow2020_wb97xd3_007593_reverse_mol1.chk"
 Charge =  0 Multiplicity = 1

                         Standard orientation:
 ---------------------------------------------------------------------
 Center     Atomic      Atomic             Coordinates (Angstroms)
 Number     Number       Type             X           Y           Z
 ---------------------------------------------------------------------
      1          6           0        0.623825    1.562034    0.146501
      2          6           0        0.777729    0.074514   -0.050187
      3          6           0       -0.462567   -0.754131   -0.076226
      4          6           0       -1.559962   -0.473664    0.776273
      5          8           0       -2.578539    0.289507   -0.538977
      6          6           0        1.962935   -0.417007   -0.748216
      7          8           0        1.893537   -0.487620    0.665991
      8          1           0       -0.011332    1.993985   -0.628964
      9          1           0        0.176044    1.789963    1.115942
     10          1           0        1.599514    2.046188    0.114932
     11          1           0       -0.309518   -1.799664   -0.326519
     12          1           0       -1.512119   -0.185233   -0.896579
     13          1           0       -1.558753    0.381327    1.440519
     14          1           0       -2.218129   -1.277912    1.083975
     15          1           0       -3.350365   -0.230414   -0.796527
     16          1           0        2.687884    0.289613   -1.146897
     17          1           0        1.925033   -1.373426   -1.264864
 ---------------------------------------------------------------------

 SCF Done:  E(RHF) =  -346.367970431     A.U. after    2 cycles

 The electronic state is 1-A.
 Alpha  occ. eigenvalues --  -21.05966 -21.03669 -11.50377 -11.47963 -11.41524
 Alpha  occ. eigenvalues --  -11.38346 -11.35801  -1.76931  -1.66698  -1.19569
 Alpha  occ. eigenvalues --   -1.07440  -0.95480  -0.90400  -0.78587  -0.69944
 Alpha  occ. eigenvalues --   -0.68087  -0.63277  -0.58251  -0.56872  -0.53872
 Alpha  occ. eigenvalues --   -0.52902  -0.46479  -0.45577  -0.42325  -0.40033
 Alpha  occ. eigenvalues --   -0.35478  -0.29838  -0.23549
 Alpha virt. eigenvalues --    0.03586   0.04834   0.04996   0.05457   0.05921
 Alpha virt. eigenvalues --    0.06423   0.06915   0.07856   0.08442   0.09289
 Alpha virt. eigenvalues --    0.11007   0.11621   0.12984   0.13342   0.14654

 Mulliken charges:
               1
     1  C   -4.985282
     2  C    4.930365
     3  C   -3.274972
     4  C   -2.297923
     5  O   -1.942131
     6  C   -2.897611
     7  O   -3.069961
     8  H    1.187111
     9  H    1.151746
    10  H    1.334345
    11  H    1.115717
    12  H    2.001936
    13  H    1.566885
    14  H    1.333708
    15  H    0.899435
    16  H    1.463656
    17  H    1.482976
 Sum of Mulliken charges =  -0.00000

 Dipole moment (field-independent basis, Debye):
    X=             -2.0473    Y=             -0.1666    Z=              0.4477  Tot=              2.1023

 Test job not archived.
 1\1\GINC-SE232\SP\RHF\Aug-CC-pVDZ\C5H10O2\OHZDE\09-Apr-2025\0\\#t hf a
 ug-cc-pvdz iop(5/13=1,5/36=2,99/5=2) pseudo=read geom=check guess=(rea
 d,tcheck) scf=(maxcycle=1)\\title\\0,1\C,0,-0.90676581,-1.35056009,0.1
 8542144\C,0,-0.87805242,0.1478263,0.01482803\C,0,0.45369715,0.82018067
 ,0.0079299\C,0,1.50417248,0.39390237,0.85909494\O,0,2.43007638,-0.4643
 1691,-0.46603578\C,0,-1.9909671,0.79154606,-0.67842393\O,0,-1.9214763,
 0.82870263,0.73705242\H,0,-0.32432028,-1.84288622,-0.59542647\H,0,-0.4
 953883,-1.64790014,1.15218559\H,0,-1.93376893,-1.71212866,0.14180186\H

 Normal termination of Gaussian 16 at Wed Apr  9 18:44:56 2025.
