 Gaussian 16, Revision C.01,

 ----------------------------------------------------------------------
 #t hf aug-cc-pvdz symm=none int=(grid=ultrafine) guess=(read,tcheck) s
 table=(opt,rrhf)
 ----------------------------------------------------------------------
 -----
 title
 -----
 Symbolic Z-matrix:
 Charge =  0 Multiplicity = 1

 SCF Done:  E(RHF) =  -320.752917175     A.U. after   13 cycles
 Normal termination of Gaussian 16 at Wed Apr  9 17:25:09 2025.
 Gaussian 16:  ES64L-G16RevC.01  3-Jul-2019

 ----------------------------------------------------------------------
 #t hf aug-cc-pvdz iop(5/13=1,5/36=2,99/5=2) pseudo=read geom=check gue
 ss=(read,tcheck) scf=(maxcycle=1)
 ----------------------------------------------------------------------
 -----
 title
 -----
 Structure from the checkpoint file:  "Grambow2020_b97d3_007133_forward_mol2.chk"
 Charge =  0 Multiplicity = 1

                         Standard orientation:
 ---------------------------------------------------------------------
 Center     Atomic      Atomic             Coordinates (Angstroms)
 Number     Number       Type             X           Y           Z
 ---------------------------------------------------------------------
      1          8           0        2.076496   -0.019089    0.037445
      2          6           0        0.867322   -0.005393   -0.014506
      3          7           0        0.024445    1.086819   -0.194927
      4          6           0       -1.345584    0.744843    0.157976
      5          6           0       -1.300054   -0.772038   -0.113795
      6          8           0        0.079204   -1.139719    0.085523
      7          1           0        0.411650    1.992740    0.046146
      8          1           0       -1.576555    0.963773    1.214855
      9          1           0       -2.079564    1.255697   -0.478701
     10          1           0       -1.580927   -0.997900   -1.152664
     11          1           0       -1.921418   -1.356051    0.573056
 ---------------------------------------------------------------------

 SCF Done:  E(RHF) =  -322.148049739     A.U. after    2 cycles

 The electronic state is 1-A.
 Alpha  occ. eigenvalues --  -21.09272 -21.03814 -15.77387 -11.52079 -11.48452
 Alpha  occ. eigenvalues --  -11.42028  -1.84666  -1.66560  -1.40012  -1.10858
 Alpha  occ. eigenvalues --   -0.91071  -0.83031  -0.71343  -0.69593  -0.60606
 Alpha  occ. eigenvalues --   -0.57960  -0.55226  -0.53803  -0.49633  -0.43046
 Alpha  occ. eigenvalues --   -0.35623  -0.31746  -0.29784
 Alpha virt. eigenvalues --    0.02995   0.04889   0.05010   0.05341   0.05631
 Alpha virt. eigenvalues --    0.09511   0.10901   0.11536   0.12209   0.13191
 Alpha virt. eigenvalues --    0.13688   0.14190   0.14446   0.16957   0.17284

 Mulliken charges:
               1
     1  O   -3.099120
     2  C    5.862923
     3  N   -2.247150
     4  C   -2.450765
     5  C   -1.536834
     6  O   -2.764116
     7  H    0.651372
     8  H    1.385480
     9  H    1.361623
    10  H    1.431481
    11  H    1.405107
 Sum of Mulliken charges =   0.00000

 Dipole moment (field-independent basis, Debye):
    X=             -3.4290    Y=              1.0817    Z=              0.3891  Tot=              3.6166

 Test job not archived.
 1\1\GINC-SE112\SP\RHF\Aug-CC-pVDZ\C3H5N1O2\OHZDE\09-Apr-2025\0\\#t hf
 aug-cc-pvdz iop(5/13=1,5/36=2,99/5=2) pseudo=read geom=check guess=(re
 ad,tcheck) scf=(maxcycle=1)\\title\\0,1\O,0,2.64948849,0.04785102,-0.2
 2445092\C,0,1.44498314,0.10535583,-0.12029972\N,0,0.60340609,-0.718248
 99,0.62087678\C,0,-0.78088635,-0.550461,0.20368467\C,0,-0.70640903,0.8
 9552635,-0.32587603\O,0,0.66299099,1.064079,-0.74253075\H,0,0.96829866
 ,-1.63615589,0.85117244\H,0,-1.07212573,-1.261296,-0.58888298\H,0,-1.4
 8308764,-0.6466391,1.04196826\H,0,-0.92713923,1.6216549,0.46984132\H,0

 Normal termination of Gaussian 16 at Wed Apr  9 17:25:12 2025.
