 Gaussian 16, Revision C.01,

 ----------------------------------------------------------------------
 #t hf aug-cc-pvdz symm=none int=(grid=ultrafine) guess=(read,tcheck) s
 table=(opt,rrhf)
 ----------------------------------------------------------------------
 -----
 title
 -----
 Symbolic Z-matrix:
 Charge =  0 Multiplicity = 1

 SCF Done:  E(RHF) =  -342.561101496     A.U. after   15 cycles
 Normal termination of Gaussian 16 at Wed Apr  9 03:59:38 2025.
 Gaussian 16:  ES64L-G16RevC.01  3-Jul-2019

 ----------------------------------------------------------------------
 #t hf aug-cc-pvdz iop(5/13=1,5/36=2,99/5=2) pseudo=read geom=check gue
 ss=(read,tcheck) scf=(maxcycle=1)
 ----------------------------------------------------------------------
 -----
 title
 -----
 Structure from the checkpoint file:  "Grambow2020_wb97xd3_008770_reverse_mol2.chk"
 Charge =  0 Multiplicity = 1

                         Standard orientation:
 ---------------------------------------------------------------------
 Center     Atomic      Atomic             Coordinates (Angstroms)
 Number     Number       Type             X           Y           Z
 ---------------------------------------------------------------------
      1          8           0       -2.380211    0.313327   -0.389328
      2          6           0       -1.496751   -0.479049   -0.228677
      3          6           0       -0.282257   -0.213368    0.648844
      4          8           0        0.730487   -1.172326    0.317945
      5          6           0        1.674316   -0.495984   -0.403078
      6          6           0        1.521650    0.818348   -0.424694
      7          6           0        0.326391    1.178846    0.419553
      8          1           0       -1.512896   -1.482665   -0.699280
      9          1           0       -0.587018   -0.387744    1.683959
     10          1           0        2.435200   -1.120165   -0.848147
     11          1           0        2.174073    1.519677   -0.919496
     12          1           0       -0.394418    1.832452   -0.073951
     13          1           0        0.622749    1.657680    1.356299
 ---------------------------------------------------------------------

 SCF Done:  E(RHF) =  -344.081605419     A.U. after    2 cycles

 The electronic state is 1-A.
 Alpha  occ. eigenvalues --  -21.07976 -21.07362 -11.50243 -11.48321 -11.44934
 Alpha  occ. eigenvalues --  -11.41715 -11.37817  -1.81864  -1.71738  -1.20748
 Alpha  occ. eigenvalues --   -1.11008  -0.93071  -0.80786  -0.80434  -0.72911
 Alpha  occ. eigenvalues --   -0.68108  -0.58793  -0.54438  -0.53378  -0.51242
 Alpha  occ. eigenvalues --   -0.49597  -0.47355  -0.43195  -0.41479  -0.30994
 Alpha  occ. eigenvalues --   -0.26720
 Alpha virt. eigenvalues --    0.03357   0.04926   0.05093   0.05923   0.06542
 Alpha virt. eigenvalues --    0.06998   0.09851   0.10554   0.10695   0.11931
 Alpha virt. eigenvalues --    0.12667   0.13449   0.13731   0.14184   0.14759

 Mulliken charges:
               1
     1  O   -2.821548
     2  C    1.320403
     3  C    0.109582
     4  O   -3.446656
     5  C    0.669121
     6  C   -0.860783
     7  C   -3.388838
     8  H    1.591514
     9  H    1.523529
    10  H    1.452649
    11  H    1.288086
    12  H    1.328906
    13  H    1.234036
 Sum of Mulliken charges =   0.00000

 Dipole moment (field-independent basis, Debye):
    X=              1.0183    Y=             -0.1524    Z=              0.4673  Tot=              1.1307

 Test job not archived.
 1\1\GINC-SE226\SP\RHF\Aug-CC-pVDZ\C5H6O2\OHZDE\09-Apr-2025\0\\#t hf au
 g-cc-pvdz iop(5/13=1,5/36=2,99/5=2) pseudo=read geom=check guess=(read
 ,tcheck) scf=(maxcycle=1)\\title\\0,1\O,0,1.79279472,1.85468086,-0.559
 07115\C,0,1.67764292,0.76648022,-0.07252201\C,0,0.65123557,-0.25554639
 ,-0.5389717\O,0,0.52302554,-1.25993302,0.47567802\C,0,-0.67089652,-1.0
 2294933,1.09738024\C,0,-1.43830888,-0.12300164,0.50373512\C,0,-0.74452
 012,0.35271165,-0.74674967\H,0,2.33353297,0.41658031,0.7498836\H,0,1.0
 5415596,-0.73184209,-1.43649496\H,0,-0.8431129,-1.61462424,1.98445153\

 Normal termination of Gaussian 16 at Wed Apr  9 03:59:42 2025.
