 Gaussian 16, Revision C.01,

 ----------------------------------------------------------------------
 #t hf aug-cc-pvdz symm=none int=(grid=ultrafine) guess=(read,tcheck) s
 table=(opt,rrhf)
 ----------------------------------------------------------------------
 -----
 title
 -----
 Symbolic Z-matrix:
 Charge =  0 Multiplicity = 1

 SCF Done:  E(RHF) =  -307.871429428     A.U. after   13 cycles

 1\1\GINC-SE109\Stability\RHF\Aug-CC-pVDZ\C6H10O1\OHZDE\09-Apr-2025\0\\
 #t hf aug-cc-pvdz symm=none int=(grid=ultrafine) guess=(read,tcheck) s
 table=(opt,rrhf)\\title\\0,1\C,0,1.81405142,-0.18127135,0.27274505\C,0
 ,0.85184462,0.935003,0.58385165\C,0,0.25791324,1.7497321,-0.52455588\C
 ,0,-0.62736107,0.84914971,0.29423833\C,0,-1.27347501,-0.33926252,-0.32
 367483\C,0,-1.17721902,-1.56918742,0.16539861\O,0,-1.77016783,-2.68391
 092,-0.32894362\H,0,1.53504851,-0.70638981,-0.64112524\H,0,2.82292207,
 0.21536534,0.1376034\H,0,1.85261563,-0.91630933,1.08055079\H,0,1.09566

 Normal termination of Gaussian 16 at Wed Apr  9 03:45:55 2025.
 Gaussian 16:  ES64L-G16RevC.01  3-Jul-2019

 ----------------------------------------------------------------------
 #t hf aug-cc-pvdz iop(5/13=1,5/36=2,99/5=2) pseudo=read geom=check gue
 ss=(read,tcheck) scf=(maxcycle=1)
 ----------------------------------------------------------------------
 -----
 title
 -----
 Structure from the checkpoint file:  "Grambow2020_wb97xd3_007822_reverse_mol2.chk"
 Charge =  0 Multiplicity = 1

                         Standard orientation:
 ---------------------------------------------------------------------
 Center     Atomic      Atomic             Coordinates (Angstroms)
 Number     Number       Type             X           Y           Z
 ---------------------------------------------------------------------
      1          6           0        1.307038    1.596847    0.226882
      2          6           0        1.625952    0.258187   -0.385475
      3          6           0        1.801955   -0.947489    0.486577
      4          6           0        0.628383   -0.873017   -0.452767
      5          6           0       -0.757750   -0.775431    0.077058
      6          6           0       -1.621248    0.165290   -0.284314
      7          8           0       -2.905583    0.286533    0.133244
      8          1           0        0.639528    1.495910    1.083033
      9          1           0        2.222685    2.083677    0.570380
     10          1           0        0.826862    2.264565   -0.492772
     11          1           0        2.292715    0.312502   -1.239674
     12          1           0        1.591233   -0.818706    1.542254
     13          1           0        2.596996   -1.648889    0.269167
     14          1           0        0.725192   -1.500595   -1.333777
     15          1           0       -1.082716   -1.551158    0.769625
     16          1           0       -1.359506    0.960517   -0.972930
     17          1           0       -3.114306   -0.436413    0.730974
 ---------------------------------------------------------------------

 SCF Done:  E(RHF) =  -309.348616503     A.U. after    2 cycles

 The electronic state is 1-A.
 Alpha  occ. eigenvalues --  -21.09953 -11.45620 -11.42697 -11.41643 -11.38050
 Alpha  occ. eigenvalues --  -11.37566 -11.35262  -1.74933  -1.33295  -1.10474
 Alpha  occ. eigenvalues --   -1.03594  -0.87092  -0.83001  -0.77726  -0.68254
 Alpha  occ. eigenvalues --   -0.62791  -0.61812  -0.56340  -0.54396  -0.53482
 Alpha  occ. eigenvalues --   -0.50513  -0.48473  -0.46781  -0.43125  -0.37769
 Alpha  occ. eigenvalues --   -0.36876  -0.27353
 Alpha virt. eigenvalues --    0.03980   0.05158   0.05425   0.05623   0.05897
 Alpha virt. eigenvalues --    0.05979   0.06365   0.06542   0.07565   0.08736
 Alpha virt. eigenvalues --    0.11813   0.11959   0.13053   0.13876   0.14316

 Mulliken charges:
               1
     1  C   -4.703227
     2  C   -0.599321
     3  C   -2.780468
     4  C   -0.726440
     5  C   -1.861624
     6  C    1.276829
     7  O   -3.578492
     8  H    1.550388
     9  H    1.064408
    10  H    1.234907
    11  H    1.324400
    12  H    1.482929
    13  H    1.192795
    14  H    1.203280
    15  H    1.300909
    16  H    1.703049
    17  H    0.915676
 Sum of Mulliken charges =   0.00000

 Dipole moment (field-independent basis, Debye):
    X=             -0.1969    Y=             -0.1447    Z=              0.1414  Tot=              0.2823

 Test job not archived.
 1\1\GINC-SE109\SP\RHF\Aug-CC-pVDZ\C6H10O1\OHZDE\09-Apr-2025\0\\#t hf a
 ug-cc-pvdz iop(5/13=1,5/36=2,99/5=2) pseudo=read geom=check guess=(rea
 d,tcheck) scf=(maxcycle=1)\\title\\0,1\C,0,1.81405142,-0.18127135,0.27
 274505\C,0,0.85184462,0.935003,0.58385165\C,0,0.25791324,1.7497321,-0.
 52455588\C,0,-0.62736107,0.84914971,0.29423833\C,0,-1.27347501,-0.3392
 6252,-0.32367483\C,0,-1.17721902,-1.56918742,0.16539861\O,0,-1.7701678
 3,-2.68391092,-0.32894362\H,0,1.53504851,-0.70638981,-0.64112524\H,0,2
 .82292207,0.21536534,0.1376034\H,0,1.85261563,-0.91630933,1.08055079\H

 Normal termination of Gaussian 16 at Wed Apr  9 03:46:05 2025.
