 Gaussian 16, Revision C.01,

 ----------------------------------------------------------------------
 #t hf aug-cc-pvdz symm=none int=(grid=ultrafine) guess=(read,tcheck) s
 table=(opt,rrhf)
 ----------------------------------------------------------------------
 -----
 title
 -----
 Symbolic Z-matrix:
 Charge =  0 Multiplicity = 1

 SCF Done:  E(RHF) =  -271.985777572     A.U. after   15 cycles
 Normal termination of Gaussian 16 at Wed Apr  9 03:39:52 2025.
 Gaussian 16:  ES64L-G16RevC.01  3-Jul-2019

 ----------------------------------------------------------------------
 #t hf aug-cc-pvdz iop(5/13=1,5/36=2,99/5=2) pseudo=read geom=check gue
 ss=(read,tcheck) scf=(maxcycle=1)
 ----------------------------------------------------------------------
 -----
 title
 -----
 Structure from the checkpoint file:  "Grambow2020_wb97xd3_007421_reverse_mol2.chk"
 Charge =  0 Multiplicity = 1

                         Standard orientation:
 ---------------------------------------------------------------------
 Center     Atomic      Atomic             Coordinates (Angstroms)
 Number     Number       Type             X           Y           Z
 ---------------------------------------------------------------------
      1          6           0        2.582246   -0.460439    0.226346
      2          6           0        1.216269   -0.012237   -0.260913
      3          6           0        0.033883   -0.973552   -0.057561
      4          6           0       -1.176500   -0.099361   -0.379654
      5          6           0       -2.493553   -0.553460    0.226600
      6          6           0       -0.682549    1.275446    0.102664
      7          6           0        0.788861    1.372055    0.025205
      8          1           0        2.562896   -0.615297    1.307297
      9          1           0        2.885341   -1.400373   -0.239494
     10          1           0        3.332664    0.299714    0.010574
     11          1           0        1.283612    0.192373   -1.358723
     12          1           0        0.099522   -1.875025   -0.669780
     13          1           0        0.002367   -1.292723    0.991505
     14          1           0       -1.288212   -0.051535   -1.470133
     15          1           0       -2.421333   -0.605429    1.316782
     16          1           0       -2.779775   -1.543378   -0.135021
     17          1           0       -3.303533    0.136469   -0.020176
     18          1           0       -1.234010    2.152303   -0.240881
     19          1           0       -0.751488    1.312197    1.211928
 ---------------------------------------------------------------------

 SCF Done:  E(RHF) =  -273.363386439     A.U. after    2 cycles

 The electronic state is 1-A.
 Alpha  occ. eigenvalues --  -11.45349 -11.43748 -11.39940 -11.39460 -11.38343
 Alpha  occ. eigenvalues --  -11.37133 -11.34303  -1.36580  -1.14353  -1.06133
 Alpha  occ. eigenvalues --   -1.00195  -0.91511  -0.81734  -0.71180  -0.66603
 Alpha  occ. eigenvalues --   -0.61038  -0.60386  -0.56636  -0.55275  -0.54147
 Alpha  occ. eigenvalues --   -0.53508  -0.48791  -0.44792  -0.44368  -0.41539
 Alpha  occ. eigenvalues --   -0.41313  -0.30412
 Alpha virt. eigenvalues --    0.03933   0.04847   0.05005   0.05347   0.05534
 Alpha virt. eigenvalues --    0.05868   0.06031   0.06869   0.07190   0.08205
 Alpha virt. eigenvalues --    0.08445   0.09239   0.10031   0.11396   0.12896

 Mulliken charges:
               1
     1  C   -4.513145
     2  C    0.456064
     3  C   -3.855509
     4  C   -0.331685
     5  C   -4.421326
     6  C   -2.652949
     7  C   -1.140881
     8  H    1.280768
     9  H    1.228347
    10  H    1.243119
    11  H    1.617331
    12  H    1.302201
    13  H    1.505076
    14  H    1.614233
    15  H    1.297098
    16  H    1.210654
    17  H    1.202838
    18  H    1.349755
    19  H    1.608013
 Sum of Mulliken charges =   0.00000

 Dipole moment (field-independent basis, Debye):
    X=             -1.3948    Y=             -1.9214    Z=             -0.4143  Tot=              2.4102

 Test job not archived.
 1\1\GINC-SE292\SP\RHF\Aug-CC-pVDZ\C7H12\OHZDE\09-Apr-2025\0\\#t hf aug
 -cc-pvdz iop(5/13=1,5/36=2,99/5=2) pseudo=read geom=check guess=(read,
 tcheck) scf=(maxcycle=1)\\title\\0,1\C,0,-2.65582105,-0.19956355,0.077
 64719\C,0,-1.25557095,0.37384574,-0.04360448\C,0,-0.13695396,-0.292449
 47,0.77386879\C,0,1.12978836,0.33144975,0.19155171\C,0,2.40433879,-0.4
 734978,0.38117625\C,0,0.70818134,0.53931758,-1.2732867\C,0,-0.75291033
 ,0.7190234,-1.38859091\H,0,-2.66873143,-1.23496183,-0.26961797\H,0,-3.
 00420148,-0.1908796,1.11249265\H,0,-3.35501014,0.3679518,-0.53601293\H

 Normal termination of Gaussian 16 at Wed Apr  9 03:39:59 2025.
