 Gaussian 16, Revision C.01,

 ----------------------------------------------------------------------
 #t hf aug-cc-pvdz symm=none int=(grid=ultrafine) guess=(read,tcheck) s
 table=(opt,rrhf)
 ----------------------------------------------------------------------
 -----
 title
 -----
 Symbolic Z-matrix:
 Charge =  0 Multiplicity = 1

 SCF Done:  E(RHF) =  -338.626783599     A.U. after   17 cycles
 Normal termination of Gaussian 16 at Wed Apr  9 03:28:16 2025.
 Gaussian 16:  ES64L-G16RevC.01  3-Jul-2019

 ----------------------------------------------------------------------
 #t hf aug-cc-pvdz iop(5/13=1,5/36=2,99/5=2) pseudo=read geom=check gue
 ss=(read,tcheck) scf=(maxcycle=1)
 ----------------------------------------------------------------------
 -----
 title
 -----
 Structure from the checkpoint file:  "Grambow2020_wb97xd3_006697_forward_mol1.chk"
 Charge =  0 Multiplicity = 1

                         Standard orientation:
 ---------------------------------------------------------------------
 Center     Atomic      Atomic             Coordinates (Angstroms)
 Number     Number       Type             X           Y           Z
 ---------------------------------------------------------------------
      1          6           0        2.679537   -0.060776    0.030851
      2          6           0        1.076540   -0.214263   -0.024764
      3          6           0        0.949702    1.072899    0.334419
      4          7           0       -1.475901    1.446301   -0.202265
      5          6           0       -1.891690    0.381760   -0.041144
      6          7           0       -2.353620   -0.861117    0.081495
      7          8           0        0.545606   -1.289125   -0.193647
      8          1           0        2.994476   -0.455386   -0.934711
      9          1           0        3.102719    0.934006    0.174255
     10          1           0        2.996965   -0.694212    0.854843
     11          1           0        1.059917    1.903816   -0.349698
     12          1           0       -1.603416   -1.539735    0.008722
     13          1           0       -2.993396   -1.009495    0.844987
 ---------------------------------------------------------------------

 SCF Done:  E(RHF) =  -340.151592791     A.U. after    2 cycles

 The electronic state is 1-A.
 Alpha  occ. eigenvalues --  -21.05123 -15.81063 -15.74736 -11.50787 -11.46681
 Alpha  occ. eigenvalues --  -11.44066 -11.41094  -1.71366  -1.41939  -1.26608
 Alpha  occ. eigenvalues --   -1.20661  -0.97540  -0.77267  -0.74737  -0.71667
 Alpha  occ. eigenvalues --   -0.63472  -0.60563  -0.57725  -0.55363  -0.53366
 Alpha  occ. eigenvalues --   -0.52364  -0.47784  -0.44134  -0.37521  -0.32289
 Alpha  occ. eigenvalues --   -0.29355
 Alpha virt. eigenvalues --    0.03044   0.04535   0.05815   0.06121   0.06612
 Alpha virt. eigenvalues --    0.07428   0.09111   0.10374   0.10835   0.11883
 Alpha virt. eigenvalues --    0.12390   0.12984   0.13490   0.14043   0.14950

 Mulliken charges:
               1
     1  C   -4.388901
     2  C    4.295464
     3  C   -1.705714
     4  N   -2.284291
     5  C    3.434057
     6  N   -2.569719
     7  O   -3.181627
     8  H    1.136831
     9  H    1.154574
    10  H    1.186372
    11  H    1.375346
    12  H    0.820215
    13  H    0.727394
 Sum of Mulliken charges =  -0.00000

 Dipole moment (field-independent basis, Debye):
    X=              0.2007    Y=             -2.2761    Z=              0.1654  Tot=              2.2909

 Test job not archived.
 1\1\GINC-SE173\SP\RHF\Aug-CC-pVDZ\C4H6N2O1\OHZDE\09-Apr-2025\0\\#t hf
 aug-cc-pvdz iop(5/13=1,5/36=2,99/5=2) pseudo=read geom=check guess=(re
 ad,tcheck) scf=(maxcycle=1)\\title\\0,1\C,0,-2.24168372,0.41094728,0.0
 332314\C,0,-0.64480813,0.29834717,-0.14997044\C,0,-0.72959893,-1.03216
 672,0.00632765\N,0,1.54663818,-1.72000335,-0.80400372\C,0,2.15834081,-
 0.78017238,-0.5308244\N,0,2.84506042,0.33145167,-0.27417093\O,0,0.0596
 2649,1.28107943,-0.21119851\H,0,-2.54386183,1.00106691,-0.83144247\H,0
 ,-2.82758957,-0.50804238,0.07078798\H,0,-2.38309889,0.9501566,0.966086

 Normal termination of Gaussian 16 at Wed Apr  9 03:28:19 2025.
