 Gaussian 16, Revision C.01,

 ----------------------------------------------------------------------
 #t hf aug-cc-pvdz symm=none int=(grid=ultrafine) guess=(read,tcheck) s
 table=(opt,rrhf)
 ----------------------------------------------------------------------
 -----
 title
 -----
 Symbolic Z-matrix:
 Charge =  0 Multiplicity = 1

 SCF Done:  E(RHF) =  -360.904543538     A.U. after   13 cycles
 Normal termination of Gaussian 16 at Wed Apr  9 18:09:17 2025.
 Gaussian 16:  ES64L-G16RevC.01  3-Jul-2019

 ----------------------------------------------------------------------
 #t hf aug-cc-pvdz iop(5/13=1,5/36=2,99/5=2) pseudo=read geom=check gue
 ss=(read,tcheck) scf=(maxcycle=1)
 ----------------------------------------------------------------------
 -----
 title
 -----
 Structure from the checkpoint file:  "Grambow2020_wb97xd3_006618_reverse_mol2.chk"
 Charge =  0 Multiplicity = 1

                         Standard orientation:
 ---------------------------------------------------------------------
 Center     Atomic      Atomic             Coordinates (Angstroms)
 Number     Number       Type             X           Y           Z
 ---------------------------------------------------------------------
      1          6           0       -1.288592    1.517464    0.364581
      2          6           0       -1.886639    0.258331   -0.196282
      3          8           0        2.264714    0.544180   -0.809417
      4          6           0       -1.625041   -1.065251    0.402023
      5          7           0       -0.971151   -0.675633   -0.848982
      6          6           0        1.865772   -0.461185   -0.026814
      7          8           0        1.654757   -0.361958    1.148300
      8          1           0       -1.972454    1.984390    1.076632
      9          1           0       -1.082411    2.236712   -0.431298
     10          1           0       -0.355259    1.294546    0.883229
     11          1           0       -2.859125    0.380624   -0.666453
     12          1           0        2.310222    1.337026   -0.258546
     13          1           0       -0.953389   -1.136688    1.250316
     14          1           0       -2.407939   -1.814389    0.364314
     15          1           0       -1.415430   -1.121325   -1.641141
     16          1           0        1.785073   -1.385396   -0.606295
 ---------------------------------------------------------------------

 SCF Done:  E(RHF) =  -362.528597986     A.U. after    2 cycles

 The electronic state is 1-A.
 Alpha  occ. eigenvalues --  -21.12244 -21.04983 -15.72860 -11.50326 -11.45934
 Alpha  occ. eigenvalues --  -11.39252 -11.36660  -1.82339  -1.65082  -1.45054
 Alpha  occ. eigenvalues --   -1.07816  -0.92231  -0.87815  -0.82840  -0.71448
 Alpha  occ. eigenvalues --   -0.64947  -0.59863  -0.59495  -0.56941  -0.54935
 Alpha  occ. eigenvalues --   -0.53777  -0.48637  -0.46463  -0.43626  -0.42510
 Alpha  occ. eigenvalues --   -0.34905  -0.33430  -0.30168
 Alpha virt. eigenvalues --    0.04032   0.05205   0.05348   0.05472   0.05906
 Alpha virt. eigenvalues --    0.06642   0.06738   0.07733   0.08916   0.11047
 Alpha virt. eigenvalues --    0.11376   0.13514   0.13752   0.14317   0.14581

 Mulliken charges:
               1
     1  C   -4.538472
     2  C    0.332793
     3  O   -2.463542
     4  C   -2.584744
     5  N   -1.970300
     6  C    2.508091
     7  O   -2.384289
     8  H    1.182879
     9  H    1.244477
    10  H    1.250653
    11  H    1.402289
    12  H    0.759180
    13  H    1.667614
    14  H    1.257771
    15  H    0.679276
    16  H    1.656324
 Sum of Mulliken charges =  -0.00000

 Dipole moment (field-independent basis, Debye):
    X=             -1.2784    Y=              0.1222    Z=             -1.0975  Tot=              1.6893

 Test job not archived.
 1\1\GINC-SE454\SP\RHF\Aug-CC-pVDZ\C4H9N1O2\OHZDE\09-Apr-2025\0\\#t hf
 aug-cc-pvdz iop(5/13=1,5/36=2,99/5=2) pseudo=read geom=check guess=(re
 ad,tcheck) scf=(maxcycle=1)\\title\\0,1\C,0,-1.54309119,-0.60693003,-0
 .37753345\C,0,-0.45088682,-1.3672054,0.32011569\O,0,0.95918592,1.93496
 566,-1.8704868\C,0,0.27574479,-0.80728714,1.47630358\N,0,0.91229144,-0
 .86506865,0.15878497\C,0,1.13716136,2.00172671,-0.54902917\O,0,0.31226
 777,2.39350717,0.22642249\H,0,-2.51876742,-0.86495309,0.03982041\H,0,-
 1.55687197,-0.83975013,-1.44470553\H,0,-1.39311286,0.46674257,-0.25699

 Normal termination of Gaussian 16 at Wed Apr  9 18:09:22 2025.
