 Gaussian 16, Revision C.01,

 ----------------------------------------------------------------------
 #t hf aug-cc-pvdz symm=none int=(grid=ultrafine) guess=(read,tcheck) s
 table=(opt,rrhf)
 ----------------------------------------------------------------------
 -----
 title
 -----
 Symbolic Z-matrix:
 Charge =  0 Multiplicity = 1

 SCF Done:  E(RHF) =  -342.382281555     A.U. after   18 cycles
 Normal termination of Gaussian 16 at Wed Apr  9 19:17:01 2025.
 Gaussian 16:  ES64L-G16RevC.01  3-Jul-2019

 ----------------------------------------------------------------------
 #t hf aug-cc-pvdz iop(5/13=1,5/36=2,99/5=2) pseudo=read geom=check gue
 ss=(read,tcheck) scf=(maxcycle=1)
 ----------------------------------------------------------------------
 -----
 title
 -----
 Structure from the checkpoint file:  "Grambow2020_wb97xd3_008526_forward_mol1.chk"
 Charge =  0 Multiplicity = 1

                         Standard orientation:
 ---------------------------------------------------------------------
 Center     Atomic      Atomic             Coordinates (Angstroms)
 Number     Number       Type             X           Y           Z
 ---------------------------------------------------------------------
      1          8           0        2.120145    0.106815   -0.442566
      2          6           0        0.994553   -0.094387   -0.038613
      3          6           0        0.471120   -1.209696    0.711579
      4          8           0       -1.335919   -1.141123   -0.114499
      5          6           0       -1.338261   -0.051414   -0.682440
      6          6           0       -0.539490    1.538863    0.812108
      7          6           0       -0.189361    0.849941   -0.411360
      8          1           0       -0.021065   -1.101866    1.662366
      9          1           0        0.867300   -2.190997    0.479560
     10          1           0       -2.161182    0.238331   -1.336155
     11          1           0       -0.939354    0.993572    1.654306
     12          1           0       -0.493347    2.615689    0.872187
     13          1           0        0.082474    1.519893   -1.223394
 ---------------------------------------------------------------------

 SCF Done:  E(RHF) =  -343.915369128     A.U. after    2 cycles

 The electronic state is 1-A.
 Alpha  occ. eigenvalues --  -21.12102 -21.05446 -11.53038 -11.51682 -11.48676
 Alpha  occ. eigenvalues --  -11.43271 -11.36277  -1.79365  -1.70317  -1.24563
 Alpha  occ. eigenvalues --   -1.11051  -0.92353  -0.86459  -0.78405  -0.71194
 Alpha  occ. eigenvalues --   -0.68128  -0.59672  -0.58845  -0.57172  -0.52608
 Alpha  occ. eigenvalues --   -0.51078  -0.47107  -0.41944  -0.38016  -0.30556
 Alpha  occ. eigenvalues --   -0.19940
 Alpha virt. eigenvalues --    0.02793   0.04631   0.05099   0.05821   0.06268
 Alpha virt. eigenvalues --    0.06645   0.07220   0.09375   0.10101   0.11006
 Alpha virt. eigenvalues --    0.12283   0.12662   0.13366   0.14136   0.14478

 Mulliken charges:
               1
     1  O   -3.516005
     2  C    5.001627
     3  C   -3.314167
     4  O   -2.666399
     5  C    2.029037
     6  C   -2.422562
     7  C   -3.814248
     8  H    1.511209
     9  H    1.392852
    10  H    1.666941
    11  H    1.351071
    12  H    1.374943
    13  H    1.405702
 Sum of Mulliken charges =  -0.00000

 Dipole moment (field-independent basis, Debye):
    X=             -1.8024    Y=             -3.0439    Z=             -1.0967  Tot=              3.7036

 Test job not archived.
 1\1\GINC-SE100\SP\RHF\Aug-CC-pVDZ\C5H6O2\OHZDE\09-Apr-2025\0\\#t hf au
 g-cc-pvdz iop(5/13=1,5/36=2,99/5=2) pseudo=read geom=check guess=(read
 ,tcheck) scf=(maxcycle=1)\\title\\0,1\O,0,0.87413151,2.14897986,0.5376
 7076\C,0,0.67202658,0.98374159,0.26935684\C,0,1.60575421,-0.10943932,0
 .15191592\O,0,0.58989046,-1.05239625,-1.27333798\C,0,-0.49965274,-0.48
 436349,-1.25714723\C,0,-1.20300122,-0.34328821,0.95330316\C,0,-0.74140
 185,0.47370874,-0.14829569\H,0,1.52883537,-1.01513726,0.72781767\H,0,2
 .57708688,0.11361165,-0.27294303\H,0,-1.25426085,-0.69733856,-2.014579

 Normal termination of Gaussian 16 at Wed Apr  9 19:17:05 2025.
