 Gaussian 16, Revision C.01,

 ----------------------------------------------------------------------
 #t hf aug-cc-pvdz symm=none int=(grid=ultrafine) guess=(read,tcheck) s
 table=(opt,rrhf)
 ----------------------------------------------------------------------
 -----
 title
 -----
 Symbolic Z-matrix:
 Charge =  0 Multiplicity = 1

 SCF Done:  E(RHF) =  -354.570350004     A.U. after   16 cycles
 Normal termination of Gaussian 16 at Wed Apr  9 18:36:15 2025.
 Gaussian 16:  ES64L-G16RevC.01  3-Jul-2019

 ----------------------------------------------------------------------
 #t hf aug-cc-pvdz iop(5/13=1,5/36=2,99/5=2) pseudo=read geom=check gue
 ss=(read,tcheck) scf=(maxcycle=1)
 ----------------------------------------------------------------------
 -----
 title
 -----
 Structure from the checkpoint file:  "Grambow2020_wb97xd3_007320_forward_mol1.chk"
 Charge =  0 Multiplicity = 1

                         Standard orientation:
 ---------------------------------------------------------------------
 Center     Atomic      Atomic             Coordinates (Angstroms)
 Number     Number       Type             X           Y           Z
 ---------------------------------------------------------------------
      1          8           0       -2.559770   -0.073898   -0.223921
      2          6           0       -1.602817    0.237095    0.617554
      3          6           0        0.013946   -0.725348   -0.359289
      4          7           0        1.189288   -1.192229    0.070832
      5          7           0        1.975895   -0.097766    0.193981
      6          6           0        1.315283    1.014370   -0.085667
      7          7           0        0.083650    0.686229   -0.460455
      8          1           0       -2.356225   -0.968496   -0.542114
      9          1           0       -1.332533   -0.454779    1.405002
     10          1           0       -1.636067    1.281903    0.898320
     11          1           0        2.955413   -0.199919    0.401430
     12          1           0        1.747271    2.002132   -0.037363
 ---------------------------------------------------------------------

 SCF Done:  E(RHF) =  -356.169926626     A.U. after    2 cycles

 The electronic state is 1-A.
 Alpha  occ. eigenvalues --  -21.13763 -15.82090 -15.71613 -15.71506 -11.53052
 Alpha  occ. eigenvalues --  -11.44146 -11.32746  -1.80230  -1.62743  -1.29442
 Alpha  occ. eigenvalues --   -1.17338  -0.99518  -0.85967  -0.78435  -0.74562
 Alpha  occ. eigenvalues --   -0.71715  -0.63804  -0.61285  -0.58497  -0.52195
 Alpha  occ. eigenvalues --   -0.45598  -0.42542  -0.36416  -0.35775  -0.31969
 Alpha  occ. eigenvalues --   -0.29546
 Alpha virt. eigenvalues --    0.03061   0.04440   0.05403   0.06059   0.06784
 Alpha virt. eigenvalues --    0.09189   0.09786   0.09956   0.10857   0.12739
 Alpha virt. eigenvalues --    0.13310   0.13894   0.14220   0.15569   0.15955

 Mulliken charges:
               1
     1  O   -2.690462
     2  C   -0.381925
     3  C    0.959774
     4  N   -1.517097
     5  N   -1.976296
     6  C    1.579691
     7  N   -1.996898
     8  H    0.896676
     9  H    1.356760
    10  H    1.360008
    11  H    0.902631
    12  H    1.507139
 Sum of Mulliken charges =  -0.00000

 Dipole moment (field-independent basis, Debye):
    X=              0.3493    Y=              2.9701    Z=              2.3829  Tot=              3.8238

 Test job not archived.
 1\1\GINC-SE114\SP\RHF\Aug-CC-pVDZ\C3H5N3O1\OHZDE\09-Apr-2025\0\\#t hf
 aug-cc-pvdz iop(5/13=1,5/36=2,99/5=2) pseudo=read geom=check guess=(re
 ad,tcheck) scf=(maxcycle=1)\\title\\0,1\O,0,-2.52066381,0.4431187,0.14
 655307\C,0,-1.59590749,-0.43712091,-0.15438185\C,0,-0.005536,0.8970169
 6,-0.58477228\N,0,1.0984403,0.78719193,-1.32880454\N,0,1.96280608,0.07
 569588,-0.56827035\C,0,1.41426642,-0.29928087,0.57626087\N,0,0.1857273
 9,0.20294794,0.6356087\H,0,-2.37158883,1.2002377,-0.44296462\H,0,-1.43
 292791,-0.71472324,-1.18791551\H,0,-1.56095235,-1.24699654,0.56286178\

 Normal termination of Gaussian 16 at Wed Apr  9 18:36:19 2025.
