 Gaussian 16, Revision C.01,

 ----------------------------------------------------------------------
 #t hf aug-cc-pvdz symm=none int=(grid=ultrafine) guess=(read,tcheck) s
 table=(opt,rrhf)
 ----------------------------------------------------------------------
 -----
 title
 -----
 Symbolic Z-matrix:
 Charge =  0 Multiplicity = 1

 SCF Done:  E(RHF) =  -320.503769085     A.U. after   17 cycles
 Normal termination of Gaussian 16 at Wed Apr  9 17:27:49 2025.
 Gaussian 16:  ES64L-G16RevC.01  3-Jul-2019

 ----------------------------------------------------------------------
 #t hf aug-cc-pvdz iop(5/13=1,5/36=2,99/5=2) pseudo=read geom=check gue
 ss=(read,tcheck) scf=(maxcycle=1)
 ----------------------------------------------------------------------
 -----
 title
 -----
 Structure from the checkpoint file:  "Grambow2020_b97d3_007145_forward_mol1.chk"
 Charge =  0 Multiplicity = 1

                         Standard orientation:
 ---------------------------------------------------------------------
 Center     Atomic      Atomic             Coordinates (Angstroms)
 Number     Number       Type             X           Y           Z
 ---------------------------------------------------------------------
      1          8           0        1.642200    0.131473    0.507318
      2          6           0        0.767669    0.238234   -0.454022
      3          7           0       -0.262000    1.195993   -0.340294
      4          6           0       -1.435386    0.368908    0.206788
      5          6           0       -0.753749   -0.964763    0.410755
      6          8           0        0.217801   -0.996043   -0.646272
      7          1           0        0.030587    1.934424    0.302222
      8          1           0       -1.883031    0.779364    1.121199
      9          1           0       -2.197432    0.350160   -0.587644
     10          1           0       -1.354670   -1.874426    0.495248
     11          1           0        0.887329   -0.499181    1.181540
 ---------------------------------------------------------------------

 SCF Done:  E(RHF) =  -321.922834582     A.U. after    2 cycles

 The electronic state is 1-A.
 Alpha  occ. eigenvalues --  -21.10896 -21.10069 -15.77595 -11.55265 -11.46923
 Alpha  occ. eigenvalues --  -11.40659  -1.90600  -1.68799  -1.38530  -1.08771
 Alpha  occ. eigenvalues --   -0.86885  -0.82571  -0.73588  -0.69316  -0.60421
 Alpha  occ. eigenvalues --   -0.58048  -0.56760  -0.52705  -0.45895  -0.41883
 Alpha  occ. eigenvalues --   -0.37213  -0.34268  -0.25863
 Alpha virt. eigenvalues --    0.03080   0.04018   0.05353   0.05685   0.06083
 Alpha virt. eigenvalues --    0.07346   0.09500   0.10609   0.10956   0.11850
 Alpha virt. eigenvalues --    0.13226   0.14083   0.14265   0.15686   0.17774

 Mulliken charges:
               1
     1  O   -2.332401
     2  C    4.891863
     3  N   -1.897398
     4  C   -2.302523
     5  C   -0.894461
     6  O   -2.495080
     7  H    0.551803
     8  H    1.373029
     9  H    1.331788
    10  H    1.271153
    11  H    0.502227
 Sum of Mulliken charges =  -0.00000

 Dipole moment (field-independent basis, Debye):
    X=             -1.2800    Y=              0.3356    Z=              0.5165  Tot=              1.4205

 Test job not archived.
 1\1\GINC-SE229\SP\RHF\Aug-CC-pVDZ\C3H5N1O2\OHZDE\09-Apr-2025\0\\#t hf
 aug-cc-pvdz iop(5/13=1,5/36=2,99/5=2) pseudo=read geom=check guess=(re
 ad,tcheck) scf=(maxcycle=1)\\title\\0,1\O,0,1.75970642,0.27045432,-1.0
 8636957\C,0,1.33193483,0.24598451,0.1452104\N,0,0.65887655,-0.90190582
 ,0.61403469\C,0,-0.8197013,-0.52166022,0.44250029\C,0,-0.6761883,0.819
 50045,-0.23985027\O,0,0.53705777,1.34088872,0.32440192\H,0,0.92516691,
 -1.70767943,0.0452341\H,0,-1.40388848,-1.24967512,-0.13519059\H,0,-1.2
 4025279,-0.44975064,1.45746485\H,0,-1.51269144,1.52374849,-0.23450584\

 Normal termination of Gaussian 16 at Wed Apr  9 17:27:52 2025.
