 Gaussian 16, Revision C.01,

 ----------------------------------------------------------------------
 #t hf aug-cc-pvdz symm=none int=(grid=ultrafine) guess=(read,tcheck) s
 table=(opt,rrhf)
 ----------------------------------------------------------------------
 -----
 title
 -----
 Symbolic Z-matrix:
 Charge =  0 Multiplicity = 1

 SCF Done:  E(RHF) =  -324.988987331     A.U. after   15 cycles
 Normal termination of Gaussian 16 at Wed Apr  9 19:10:04 2025.
 Gaussian 16:  ES64L-G16RevC.01  3-Jul-2019

 ----------------------------------------------------------------------
 #t hf aug-cc-pvdz iop(5/13=1,5/36=2,99/5=2) pseudo=read geom=check gue
 ss=(read,tcheck) scf=(maxcycle=1)
 ----------------------------------------------------------------------
 -----
 title
 -----
 Structure from the checkpoint file:  "Grambow2020_wb97xd3_008229_forward_mol1.chk"
 Charge =  0 Multiplicity = 1

                         Standard orientation:
 ---------------------------------------------------------------------
 Center     Atomic      Atomic             Coordinates (Angstroms)
 Number     Number       Type             X           Y           Z
 ---------------------------------------------------------------------
      1          6           0        2.014743    1.208401   -0.262133
      2          6           0        1.972834   -0.309490   -0.368002
      3          6           0        1.034357   -0.980963    0.569489
      4          7           0       -0.682004    0.265827    1.159083
      5          6           0       -1.256538   -0.062502    0.047707
      6          8           0       -0.619910   -0.841961   -0.711608
      7          6           0       -2.612391    0.427172   -0.392923
      8          1           0        2.801385    1.615413   -0.899204
      9          1           0        1.061976    1.636377   -0.572272
     10          1           0        2.204421    1.528813    0.764097
     11          1           0        1.775253   -0.620951   -1.391845
     12          1           0        2.958290   -0.713726   -0.086444
     13          1           0        0.812549   -2.021304    0.381056
     14          1           0        1.206704   -0.766592    1.612506
     15          1           0       -1.161092    0.909043    1.776763
     16          1           0       -2.506173    0.963139   -1.336501
     17          1           0       -3.079405    1.080321    0.341766
     18          1           0       -3.258628   -0.431347   -0.575469
 ---------------------------------------------------------------------

 SCF Done:  E(RHF) =  -326.551572760     A.U. after    2 cycles

 The electronic state is 1-A.
 Alpha  occ. eigenvalues --  -20.98636 -15.68308 -11.51030 -11.45315 -11.41670
 Alpha  occ. eigenvalues --  -11.36623 -11.36523  -1.68673  -1.26240  -1.21890
 Alpha  occ. eigenvalues --   -1.06090  -1.00161  -0.84943  -0.73660  -0.66901
 Alpha  occ. eigenvalues --   -0.64515  -0.61488  -0.58972  -0.57930  -0.55810
 Alpha  occ. eigenvalues --   -0.50215  -0.49359  -0.48239  -0.44777  -0.44116
 Alpha  occ. eigenvalues --   -0.36160  -0.27408  -0.26502
 Alpha virt. eigenvalues --    0.03787   0.04912   0.05187   0.05462   0.05659
 Alpha virt. eigenvalues --    0.06110   0.06415   0.07010   0.07377   0.08099
 Alpha virt. eigenvalues --    0.09138   0.11160   0.11976   0.13228   0.13967

 Mulliken charges:
               1
     1  C   -3.691662
     2  C   -3.388102
     3  C   -2.375333
     4  N   -2.637806
     5  C    5.768434
     6  O   -3.068448
     7  C   -4.624770
     8  H    1.110785
     9  H    1.446221
    10  H    1.364468
    11  H    1.529468
    12  H    1.338571
    13  H    1.262417
    14  H    1.438744
    15  H    0.723215
    16  H    1.256511
    17  H    1.297846
    18  H    1.249444
 Sum of Mulliken charges =   0.00000

 Dipole moment (field-independent basis, Debye):
    X=              1.3363    Y=             -0.1476    Z=              0.0715  Tot=              1.3463

 Test job not archived.
 1\1\GINC-SE340\SP\RHF\Aug-CC-pVDZ\C5H11N1O1\OHZDE\09-Apr-2025\0\\#t hf
  aug-cc-pvdz iop(5/13=1,5/36=2,99/5=2) pseudo=read geom=check guess=(r
 ead,tcheck) scf=(maxcycle=1)\\title\\0,1\C,0,-1.9914244,-0.18104179,-0
 .67571738\C,0,-1.61179929,1.04162225,0.14764972\C,0,-0.68678496,0.7758
 6831,1.28088833\N,0,0.62733039,-0.96335975,0.97074769\C,0,1.40350522,-
 0.20604035,0.26571918\O,0,1.05691315,0.99932938,0.13777346\C,0,2.66996
 75,-0.66861749,-0.40834934\H,0,-2.75352698,0.07513647,-1.4132111\H,0,-
 1.11935239,-0.57053558,-1.20002516\H,0,-2.38207377,-0.97959499,-0.0420

 Normal termination of Gaussian 16 at Wed Apr  9 19:10:09 2025.
