 Gaussian 16, Revision C.01,

 ----------------------------------------------------------------------
 #t hf aug-cc-pvdz symm=none int=(grid=ultrafine) guess=(read,tcheck) s
 table=(opt,rrhf)
 ----------------------------------------------------------------------
 -----
 title
 -----
 Symbolic Z-matrix:
 Charge =  0 Multiplicity = 1

 SCF Done:  E(RHF) =  -318.774588376     A.U. after   15 cycles
 Normal termination of Gaussian 16 at Wed Apr  9 18:21:20 2025.
 Gaussian 16:  ES64L-G16RevC.01  3-Jul-2019

 ----------------------------------------------------------------------
 #t hf aug-cc-pvdz iop(5/13=1,5/36=2,99/5=2) pseudo=read geom=check gue
 ss=(read,tcheck) scf=(maxcycle=1)
 ----------------------------------------------------------------------
 -----
 title
 -----
 Structure from the checkpoint file:  "Grambow2020_wb97xd3_006926_reverse_mol1.chk"
 Charge =  0 Multiplicity = 1

                         Standard orientation:
 ---------------------------------------------------------------------
 Center     Atomic      Atomic             Coordinates (Angstroms)
 Number     Number       Type             X           Y           Z
 ---------------------------------------------------------------------
      1          7           0       -2.453674   -0.485434    0.014705
      2          6           0       -1.068626   -0.239978   -0.012111
      3          6           0       -0.009484   -1.096221    0.071903
      4          6           0        1.109961   -0.171504    0.099791
      5          7           0        2.470622   -0.502145   -0.059622
      6          6           0        0.636937    1.202082    0.011421
      7          7           0       -0.693646    1.110779   -0.058395
      8          1           0       -2.899911   -0.284736   -0.871187
      9          1           0       -2.596985   -1.462013    0.229158
     10          1           0        0.965024    0.386767    1.185800
     11          1           0        2.840192   -0.171288   -0.938073
     12          1           0        2.557956   -1.508270   -0.019437
     13          1           0        1.183118    2.133419    0.001505
     14          1           0       -1.325236    1.877449    0.109394
 ---------------------------------------------------------------------

 SCF Done:  E(RHF) =  -320.280977300     A.U. after    2 cycles

 The electronic state is 1-A.
 Alpha  occ. eigenvalues --  -15.80633 -15.74922 -15.73963 -11.50931 -11.44210
 Alpha  occ. eigenvalues --  -11.41049 -11.30170  -1.55216  -1.34977  -1.30330
 Alpha  occ. eigenvalues --   -1.11218  -1.02665  -0.81457  -0.77692  -0.73744
 Alpha  occ. eigenvalues --   -0.67596  -0.66143  -0.62609  -0.55462  -0.53917
 Alpha  occ. eigenvalues --   -0.53262  -0.44539  -0.41798  -0.33460  -0.28569
 Alpha  occ. eigenvalues --   -0.27247
 Alpha virt. eigenvalues --    0.02838   0.04741   0.04878   0.05702   0.06334
 Alpha virt. eigenvalues --    0.07398   0.07574   0.09327   0.11513   0.12474
 Alpha virt. eigenvalues --    0.12599   0.13181   0.13707   0.14386   0.15138

 Mulliken charges:
               1
     1  N   -3.097337
     2  C    4.341364
     3  C   -3.064292
     4  C    3.148322
     5  N   -3.479890
     6  C   -0.507287
     7  N   -3.291383
     8  H    0.519365
     9  H    0.566114
    10  H    1.571853
    11  H    0.492175
    12  H    0.705008
    13  H    1.255859
    14  H    0.840130
 Sum of Mulliken charges =  -0.00000

 Dipole moment (field-independent basis, Debye):
    X=              0.1576    Y=              5.0664    Z=             -1.4779  Tot=              5.2799

 Test job not archived.
 1\1\GINC-SE104\SP\RHF\Aug-CC-pVDZ\C4H7N3\OHZDE\09-Apr-2025\0\\#t hf au
 g-cc-pvdz iop(5/13=1,5/36=2,99/5=2) pseudo=read geom=check guess=(read
 ,tcheck) scf=(maxcycle=1)\\title\\0,1\N,0,-2.52546844,-0.40756145,-0.0
 8388577\C,0,-1.12988898,-0.23419715,-0.04353153\C,0,-0.12413986,-1.137
 38607,0.14278114\C,0,1.03990366,-0.27027208,0.1891736\N,0,2.38762904,-
 0.67714738,0.12418641\C,0,0.64643014,1.11902708,0.00661979\N,0,-0.6813
 4413,1.091632,-0.13454447\H,0,-2.91139978,-0.2308737,-1.00260726\H,0,-
 2.73220242,-1.36317278,0.16969394\H,0,0.86600863,0.35031236,1.23641994

 Normal termination of Gaussian 16 at Wed Apr  9 18:21:24 2025.
