 Gaussian 16, Revision C.01,

 ----------------------------------------------------------------------
 #t hf aug-cc-pvdz symm=none int=(grid=ultrafine) guess=(read,tcheck) s
 table=(opt,rrhf)
 ----------------------------------------------------------------------
 -----
 title
 -----
 Symbolic Z-matrix:
 Charge =  0 Multiplicity = 1

 SCF Done:  E(RHF) =  -338.598093023     A.U. after   16 cycles
 Normal termination of Gaussian 16 at Wed Apr  9 19:14:57 2025.
 Gaussian 16:  ES64L-G16RevC.01  3-Jul-2019

 ----------------------------------------------------------------------
 #t hf aug-cc-pvdz iop(5/13=1,5/36=2,99/5=2) pseudo=read geom=check gue
 ss=(read,tcheck) scf=(maxcycle=1)
 ----------------------------------------------------------------------
 -----
 title
 -----
 Structure from the checkpoint file:  "Grambow2020_wb97xd3_008478_reverse_mol1.chk"
 Charge =  0 Multiplicity = 1

                         Standard orientation:
 ---------------------------------------------------------------------
 Center     Atomic      Atomic             Coordinates (Angstroms)
 Number     Number       Type             X           Y           Z
 ---------------------------------------------------------------------
      1          7           0       -0.689480    1.927293   -0.164387
      2          6           0       -0.206435    0.725325    0.123865
      3          6           0        0.849883   -0.140452    0.122097
      4          8           0        2.167235    0.209886   -0.072959
      5          6           0        0.302793   -1.464835   -0.102627
      6          6           0       -1.041335   -1.441055   -0.139502
      7          7           0       -1.437282   -0.070930    0.151249
      8          1           0       -1.755492    1.010807   -0.402314
      9          1           0       -0.064620    2.700072   -0.322276
     10          1           0        2.641758    0.125470    0.755511
     11          1           0        0.909720   -2.345551   -0.265636
     12          1           0       -1.774476   -2.226500   -0.198898
     13          1           0       -1.836875   -0.011828    1.086260
 ---------------------------------------------------------------------

 SCF Done:  E(RHF) =  -340.154100696     A.U. after    2 cycles

 The electronic state is 1-A.
 Alpha  occ. eigenvalues --  -21.08386 -15.79772 -15.70049 -11.48880 -11.45038
 Alpha  occ. eigenvalues --  -11.41163 -11.38211  -1.72999  -1.53908  -1.27166
 Alpha  occ. eigenvalues --   -1.13988  -0.99891  -0.84472  -0.78911  -0.70929
 Alpha  occ. eigenvalues --   -0.70125  -0.58728  -0.57740  -0.55191  -0.51461
 Alpha  occ. eigenvalues --   -0.50152  -0.42461  -0.41374  -0.37142  -0.32517
 Alpha  occ. eigenvalues --   -0.22516
 Alpha virt. eigenvalues --    0.03404   0.05118   0.05523   0.05640   0.06525
 Alpha virt. eigenvalues --    0.07304   0.10562   0.11009   0.11205   0.12886
 Alpha virt. eigenvalues --    0.13813   0.14089   0.14217   0.15098   0.15337

 Mulliken charges:
               1
     1  N   -3.266276
     2  C    2.549520
     3  C    4.392179
     4  O   -3.784492
     5  C   -1.265343
     6  C   -0.589865
     7  N   -3.056537
     8  H    0.533842
     9  H    0.757280
    10  H    0.449224
    11  H    1.475729
    12  H    1.131949
    13  H    0.672789
 Sum of Mulliken charges =   0.00000

 Dipole moment (field-independent basis, Debye):
    X=             -1.0306    Y=             -1.4591    Z=              1.0368  Tot=              2.0654

 Test job not archived.
 1\1\GINC-SE224\SP\RHF\Aug-CC-pVDZ\C4H6N2O1\OHZDE\09-Apr-2025\0\\#t hf
 aug-cc-pvdz iop(5/13=1,5/36=2,99/5=2) pseudo=read geom=check guess=(re
 ad,tcheck) scf=(maxcycle=1)\\title\\0,1\N,0,1.92672453,0.78071881,-0.0
 9594085\C,0,0.76181088,0.19235087,0.14478588\C,0,0.03576971,-0.9589342
 ,0.25786569\O,0,0.56316892,-2.22557662,0.37477251\C,0,-1.29933982,-0.6
 585095,-0.22278793\C,0,-1.42962679,0.64476305,-0.52793202\N,0,-0.17023
 715,1.27991387,-0.16866445\H,0,0.93313297,1.64161409,-0.64782283\H,0,2
 .78237064,0.25470686,-0.03473294\H,0,0.42017832,-2.54536237,1.26693379

 Normal termination of Gaussian 16 at Wed Apr  9 19:15:01 2025.
