 Gaussian 16, Revision C.01,

 ----------------------------------------------------------------------
 #t hf aug-cc-pvdz symm=none int=(grid=ultrafine) guess=(read,tcheck) s
 table=(opt,rrhf)
 ----------------------------------------------------------------------
 -----
 title
 -----
 Symbolic Z-matrix:
 Charge =  0 Multiplicity = 1

 SCF Done:  E(RHF) =  -318.777257909     A.U. after   16 cycles
 Normal termination of Gaussian 16 at Wed Apr  9 18:21:20 2025.
 Gaussian 16:  ES64L-G16RevC.01  3-Jul-2019

 ----------------------------------------------------------------------
 #t hf aug-cc-pvdz iop(5/13=1,5/36=2,99/5=2) pseudo=read geom=check gue
 ss=(read,tcheck) scf=(maxcycle=1)
 ----------------------------------------------------------------------
 -----
 title
 -----
 Structure from the checkpoint file:  "Grambow2020_wb97xd3_006925_reverse_mol1.chk"
 Charge =  0 Multiplicity = 1

                         Standard orientation:
 ---------------------------------------------------------------------
 Center     Atomic      Atomic             Coordinates (Angstroms)
 Number     Number       Type             X           Y           Z
 ---------------------------------------------------------------------
      1          7           0       -2.063497   -0.665493    0.441964
      2          6           0       -0.975961   -0.174111   -0.204875
      3          6           0        0.222043   -1.006485   -0.498663
      4          6           0        1.096870   -0.108603    0.007308
      5          7           0        2.426410   -0.154656    0.250616
      6          6           0        0.279985    1.083029    0.353960
      7          7           0       -0.871430    1.101316   -0.676427
      8          1           0       -2.763468   -0.031553    0.787004
      9          1           0       -1.924098   -1.505873    0.976604
     10          1           0        0.305744   -1.874558   -1.138027
     11          1           0        2.894726    0.727874    0.355344
     12          1           0        2.966103   -0.928992   -0.091847
     13          1           0       -0.051142    1.166665    1.387506
     14          1           0       -1.605866    1.715284   -0.336027
 ---------------------------------------------------------------------

 SCF Done:  E(RHF) =  -320.282457200     A.U. after    2 cycles

 The electronic state is 1-A.
 Alpha  occ. eigenvalues --  -15.79146 -15.76231 -15.74627 -11.52907 -11.46376
 Alpha  occ. eigenvalues --  -11.36421 -11.34783  -1.53302  -1.36024  -1.30914
 Alpha  occ. eigenvalues --   -1.12230  -0.93373  -0.83877  -0.76060  -0.71132
 Alpha  occ. eigenvalues --   -0.70402  -0.68282  -0.60874  -0.55324  -0.52766
 Alpha  occ. eigenvalues --   -0.49068  -0.45142  -0.44264  -0.38941  -0.29170
 Alpha  occ. eigenvalues --   -0.21756
 Alpha virt. eigenvalues --    0.03233   0.05033   0.05457   0.05840   0.06655
 Alpha virt. eigenvalues --    0.07026   0.07329   0.10024   0.11690   0.12622
 Alpha virt. eigenvalues --    0.12993   0.13367   0.14559   0.15265   0.15318

 Mulliken charges:
               1
     1  N   -3.521022
     2  C    4.699863
     3  C   -2.109257
     4  C    4.922660
     5  N   -3.706321
     6  C   -3.097809
     7  N   -2.909292
     8  H    0.639587
     9  H    0.579563
    10  H    1.205456
    11  H    0.796124
    12  H    0.729061
    13  H    1.074552
    14  H    0.696835
 Sum of Mulliken charges =   0.00000

 Dipole moment (field-independent basis, Debye):
    X=             -1.5446    Y=             -1.8647    Z=              1.1003  Tot=              2.6596

 Test job not archived.
 1\1\GINC-SE174\SP\RHF\Aug-CC-pVDZ\C4H7N3\OHZDE\09-Apr-2025\0\\#t hf au
 g-cc-pvdz iop(5/13=1,5/36=2,99/5=2) pseudo=read geom=check guess=(read
 ,tcheck) scf=(maxcycle=1)\\title\\0,1\N,0,-2.16908252,-0.15439425,0.34
 489391\C,0,-0.98380649,-0.08606372,-0.31316573\C,0,0.06823526,-1.12919
 576,-0.1736803\C,0,1.0572621,-0.24342979,0.08080795\N,0,2.34626991,-0.
 38734685,0.46387939\C,0,0.43880192,1.0962426,-0.09308778\N,0,-0.641413
 21,0.90796732,-1.18188371\H,0,-2.7671127,0.65331485,0.3741959\H,0,-2.2
 0055115,-0.75883015,1.14812311\H,0,0.03419678,-2.17092717,-0.46174372\

 Normal termination of Gaussian 16 at Wed Apr  9 18:21:25 2025.
