 Gaussian 16, Revision C.01,

 ----------------------------------------------------------------------
 #t hf aug-cc-pvdz symm=none int=(grid=ultrafine) guess=(read,tcheck) s
 table=(opt,rrhf)
 ----------------------------------------------------------------------
 -----
 title
 -----
 Symbolic Z-matrix:
 Charge =  0 Multiplicity = 1

 SCF Done:  E(RHF) =  -360.779194855     A.U. after   15 cycles
 Normal termination of Gaussian 16 at Wed Apr  9 18:13:23 2025.
 Gaussian 16:  ES64L-G16RevC.01  3-Jul-2019

 ----------------------------------------------------------------------
 #t hf aug-cc-pvdz iop(5/13=1,5/36=2,99/5=2) pseudo=read geom=check gue
 ss=(read,tcheck) scf=(maxcycle=1)
 ----------------------------------------------------------------------
 -----
 title
 -----
 Structure from the checkpoint file:  "Grambow2020_wb97xd3_006774_forward_mol1.chk"
 Charge =  0 Multiplicity = 1

                         Standard orientation:
 ---------------------------------------------------------------------
 Center     Atomic      Atomic             Coordinates (Angstroms)
 Number     Number       Type             X           Y           Z
 ---------------------------------------------------------------------
      1          6           0       -2.174499   -1.044597    0.265584
      2          7           0       -1.914879    0.340165    0.028725
      3          6           0       -1.288614    1.279826   -0.218730
      4          8           0        0.780223    1.284283   -0.451006
      5          6           0        1.340764    0.653115    0.645902
      6          6           0        1.890727   -0.710617    0.224044
      7          8           0        0.942689   -1.358591   -0.606746
      8          1           0       -1.249679   -1.604329    0.113473
      9          1           0       -2.533042   -1.156363    1.287349
     10          1           0       -2.951674   -1.374916   -0.421008
     11          1           0       -0.579377    2.119043   -0.338650
     12          1           0        2.152236    1.245500    1.096616
     13          1           0        0.594965    0.486207    1.452501
     14          1           0        2.832342   -0.575164   -0.323059
     15          1           0        2.080529   -1.354595    1.085819
     16          1           0        0.664283   -0.638442   -1.192899
 ---------------------------------------------------------------------

 SCF Done:  E(RHF) =  -362.424725128     A.U. after    2 cycles

 The electronic state is 1-A.
 Alpha  occ. eigenvalues --  -21.03362 -20.93992 -15.83968 -11.54470 -11.45440
 Alpha  occ. eigenvalues --  -11.40616 -11.34798  -1.69406  -1.58552  -1.45740
 Alpha  occ. eigenvalues --   -1.11076  -1.02466  -0.85028  -0.79520  -0.70948
 Alpha  occ. eigenvalues --   -0.66693  -0.66173  -0.62970  -0.59870  -0.53537
 Alpha  occ. eigenvalues --   -0.52471  -0.50140  -0.48118  -0.39507  -0.37474
 Alpha  occ. eigenvalues --   -0.29840  -0.24899  -0.22758
 Alpha virt. eigenvalues --    0.02645   0.04756   0.05216   0.06014   0.06417
 Alpha virt. eigenvalues --    0.07033   0.07227   0.07766   0.08930   0.09928
 Alpha virt. eigenvalues --    0.10629   0.11184   0.13043   0.13343   0.13746

 Mulliken charges:
               1
     1  C   -3.484404
     2  N   -2.809698
     3  C    1.091979
     4  O   -2.316212
     5  C   -1.456080
     6  C   -0.880580
     7  O   -2.681180
     8  H    1.552360
     9  H    1.443084
    10  H    1.383424
    11  H    1.566707
    12  H    1.106654
    13  H    1.656268
    14  H    1.330180
    15  H    1.410055
    16  H    1.087443
 Sum of Mulliken charges =  -0.00000

 Dipole moment (field-independent basis, Debye):
    X=             -4.3702    Y=             -0.9977    Z=              0.7238  Tot=              4.5407

 Test job not archived.
 1\1\GINC-SE117\SP\RHF\Aug-CC-pVDZ\C4H9N1O2\OHZDE\09-Apr-2025\0\\#t hf
 aug-cc-pvdz iop(5/13=1,5/36=2,99/5=2) pseudo=read geom=check guess=(re
 ad,tcheck) scf=(maxcycle=1)\\title\\0,1\C,0,1.8222101,-0.37007298,-1.6
 1252832\N,0,1.90048841,0.53964279,-0.51372886\C,0,1.57883498,1.0492235
 1,0.47281692\O,0,-0.20767951,0.65882479,1.46781024\C,0,-1.24346462,0.7
 6330815,0.55565871\C,0,-1.79725345,-0.62969983,0.250643\O,0,-0.7181402
 1,-1.52768013,0.05569911\H,0,0.95233012,-1.01433983,-1.47125677\H,0,1.
 73288755,0.20802895,-2.53060657\H,0,2.74117438,-0.95210656,-1.64802858

 Normal termination of Gaussian 16 at Wed Apr  9 18:13:29 2025.
