 Gaussian 16, Revision C.01,

 ----------------------------------------------------------------------
 #t hf aug-cc-pvdz symm=none int=(grid=ultrafine) guess=(read,tcheck) s
 table=(opt,rrhf)
 ----------------------------------------------------------------------
 -----
 title
 -----
 Symbolic Z-matrix:
 Charge =  0 Multiplicity = 1

 SCF Done:  E(RHF) =  -337.603707400     A.U. after   15 cycles
 Normal termination of Gaussian 16 at Wed Apr  9 04:04:31 2025.
 Gaussian 16:  ES64L-G16RevC.01  3-Jul-2019

 ----------------------------------------------------------------------
 #t hf aug-cc-pvdz iop(5/13=1,5/36=2,99/5=2) pseudo=read geom=check gue
 ss=(read,tcheck) scf=(maxcycle=1)
 ----------------------------------------------------------------------
 -----
 title
 -----
 Structure from the checkpoint file:  "Grambow2020_wb97xd3_009173_forward_mol2.chk"
 Charge =  0 Multiplicity = 1

                         Standard orientation:
 ---------------------------------------------------------------------
 Center     Atomic      Atomic             Coordinates (Angstroms)
 Number     Number       Type             X           Y           Z
 ---------------------------------------------------------------------
      1          8           0       -2.281293   -0.032469   -0.000847
      2          6           0       -1.073123   -0.023150    0.000146
      3          6           0       -0.289256    1.218044    0.000793
      4          6           0        1.048143    1.174169   -0.000043
      5          7           0        1.684306   -0.041133   -0.000752
      6          6           0        0.939631   -1.179884    0.000116
      7          7           0       -0.336593   -1.227903    0.000761
      8          1           0       -0.820677    2.158719    0.001274
      9          1           0        1.683441    2.050210   -0.000287
     10          1           0        2.686545   -0.097352   -0.000707
     11          1           0        1.514676   -2.103650    0.000369
 ---------------------------------------------------------------------

 SCF Done:  E(RHF) =  -339.098316942     A.U. after    2 cycles

 The electronic state is 1-A.
 Alpha  occ. eigenvalues --  -21.01501 -15.82692 -15.73313 -11.49800 -11.48656
 Alpha  occ. eigenvalues --  -11.48027 -11.39860  -1.69562  -1.53542  -1.32295
 Alpha  occ. eigenvalues --   -1.17029  -0.94666  -0.90710  -0.79727  -0.69056
 Alpha  occ. eigenvalues --   -0.66682  -0.62665  -0.62063  -0.57439  -0.48554
 Alpha  occ. eigenvalues --   -0.47500  -0.41846  -0.38798  -0.28127  -0.27062
 Alpha virt. eigenvalues --    0.01849   0.03870   0.04543   0.06582   0.09064
 Alpha virt. eigenvalues --    0.09424   0.09694   0.10405   0.11728   0.12952
 Alpha virt. eigenvalues --    0.13145   0.13643   0.14462   0.14854   0.15514

 Mulliken charges:
               1
     1  O   -3.411668
     2  C    3.871758
     3  C   -0.914454
     4  C    0.116975
     5  N   -3.153182
     6  C    1.253168
     7  N   -3.093093
     8  H    1.428220
     9  H    1.428568
    10  H    0.786682
    11  H    1.687025
 Sum of Mulliken charges =   0.00000

 Dipole moment (field-independent basis, Debye):
    X=              6.3088    Y=              1.4250    Z=             -0.0005  Tot=              6.4678

 Test job not archived.
 1\1\GINC-SE058\SP\RHF\Aug-CC-pVDZ\C4H4N2O1\OHZDE\09-Apr-2025\0\\#t hf
 aug-cc-pvdz iop(5/13=1,5/36=2,99/5=2) pseudo=read geom=check guess=(re
 ad,tcheck) scf=(maxcycle=1)\\title\\0,1\O,0,2.38392651,-1.31059661,-0.
 07076784\C,0,1.28860142,-0.80157282,-0.04042702\C,0,1.09001718,0.65264
 95,-0.01192916\C,0,-0.14489286,1.16677413,0.02320504\N,0,-1.22748767,0
 .32440823,0.03170349\C,0,-1.02211983,-1.02032946,0.00343561\N,0,0.1190
 4146,-1.59273522,-0.03057936\H,0,1.96346945,1.2884982,-0.01944931\H,0,
 -0.35967869,2.22714753,0.04614258\H,0,-2.16261174,0.6884626,0.0571943\

 Normal termination of Gaussian 16 at Wed Apr  9 04:04:35 2025.
