 Gaussian 16, Revision C.01,

 ----------------------------------------------------------------------
 #t hf aug-cc-pvdz symm=none int=(grid=ultrafine) guess=(read,tcheck) s
 table=(opt,rrhf)
 ----------------------------------------------------------------------
 -----
 title
 -----
 Symbolic Z-matrix:
 Charge =  0 Multiplicity = 1

 SCF Done:  E(RHF) =  -306.895803240     A.U. after   16 cycles

 1\1\GINC-SE105\Stability\RHF\Aug-CC-pVDZ\C4H10O2\OHZDE\09-Apr-2025\0\\
 #t hf aug-cc-pvdz symm=none int=(grid=ultrafine) guess=(read,tcheck) s
 table=(opt,rrhf)\\title\\0,1\C,0,2.38640378,-1.02970238,-0.37898467\O,
 0,1.85224667,0.05406201,0.3758582\C,0,-0.01294935,0.78188904,-0.590033
 29\C,0,-1.05123506,0.60276925,0.44443059\C,0,-2.46852871,0.36227458,-0
 .0857014\O,0,-0.45199238,-0.56185937,0.94133213\H,0,1.59381207,-1.7103
 9754,-0.7309639\H,0,2.93132146,-0.62664192,-1.24381234\H,0,3.09574288,
 -1.6052535,0.23894173\H,0,-0.0152772,0.07467962,-1.41774873\H,0,0.6408

 Normal termination of Gaussian 16 at Wed Apr  9 03:07:44 2025.
 Gaussian 16:  ES64L-G16RevC.01  3-Jul-2019

 ----------------------------------------------------------------------
 #t hf aug-cc-pvdz iop(5/13=1,5/36=2,99/5=2) pseudo=read geom=check gue
 ss=(read,tcheck) scf=(maxcycle=1)
 ----------------------------------------------------------------------
 -----
 title
 -----
 Structure from the checkpoint file:  "Grambow2020_b97d3_006571_reverse_mol1.chk"
 Charge =  0 Multiplicity = 1

                         Standard orientation:
 ---------------------------------------------------------------------
 Center     Atomic      Atomic             Coordinates (Angstroms)
 Number     Number       Type             X           Y           Z
 ---------------------------------------------------------------------
      1          6           0       -2.510252   -0.058863    0.539118
      2          8           0       -1.684809    0.057723   -0.616178
      3          6           0        0.244468    1.009283   -0.055766
      4          6           0        1.263647    0.003777   -0.416968
      5          6           0        2.546386    0.042321    0.420107
      6          8           0        0.425917   -1.066784   -0.078631
      7          1           0       -1.930073   -0.366479    1.424670
      8          1           0       -2.987443    0.911316    0.734976
      9          1           0       -3.303152   -0.804527    0.361497
     10          1           0        0.026525    1.130871    1.003942
     11          1           0       -0.180651    1.736835   -0.742026
     12          1           0        1.521162    0.051668   -1.494589
     13          1           0        3.120983   -0.872047    0.215201
     14          1           0        2.297371    0.057362    1.490058
     15          1           0        3.170469    0.915682    0.179421
     16          1           0       -0.929549   -0.667299   -0.533616
 ---------------------------------------------------------------------

 SCF Done:  E(RHF) =  -308.322471188     A.U. after    2 cycles

 The electronic state is 1-A.
 Alpha  occ. eigenvalues --  -21.03343 -20.96748 -11.53497 -11.43879 -11.39314
 Alpha  occ. eigenvalues --  -11.37832  -1.70241  -1.60855  -1.14317  -1.02377
 Alpha  occ. eigenvalues --   -0.96166  -0.83278  -0.69957  -0.64945  -0.61321
 Alpha  occ. eigenvalues --   -0.58818  -0.57480  -0.54641  -0.51915  -0.50783
 Alpha  occ. eigenvalues --   -0.44211  -0.38529  -0.33919  -0.25640  -0.22183
 Alpha virt. eigenvalues --    0.02750   0.04547   0.05112   0.05238   0.05631
 Alpha virt. eigenvalues --    0.06101   0.06293   0.07168   0.07846   0.08571
 Alpha virt. eigenvalues --    0.10966   0.12479   0.12713   0.13434   0.14425

 Mulliken charges:
               1
     1  C   -2.621793
     2  O   -2.396997
     3  C   -2.718951
     4  C    0.400859
     5  C   -3.653137
     6  O   -2.727193
     7  H    1.256916
     8  H    1.239545
     9  H    1.278499
    10  H    1.605972
    11  H    1.358760
    12  H    1.574815
    13  H    1.145550
    14  H    1.212729
    15  H    1.213179
    16  H    1.831248
 Sum of Mulliken charges =  -0.00000

 Dipole moment (field-independent basis, Debye):
    X=             -0.3839    Y=              2.3828    Z=              0.2707  Tot=              2.4287

 Test job not archived.
 1\1\GINC-SE105\SP\RHF\Aug-CC-pVDZ\C4H10O2\OHZDE\09-Apr-2025\0\\#t hf a
 ug-cc-pvdz iop(5/13=1,5/36=2,99/5=2) pseudo=read geom=check guess=(rea
 d,tcheck) scf=(maxcycle=1)\\title\\0,1\C,0,2.38640378,-1.02970238,-0.3
 7898467\O,0,1.85224667,0.05406201,0.3758582\C,0,-0.01294935,0.78188904
 ,-0.59003329\C,0,-1.05123506,0.60276925,0.44443059\C,0,-2.46852871,0.3
 6227458,-0.0857014\O,0,-0.45199238,-0.56185937,0.94133213\H,0,1.593812
 07,-1.71039754,-0.7309639\H,0,2.93132146,-0.62664192,-1.24381234\H,0,3
 .09574288,-1.6052535,0.23894173\H,0,-0.0152772,0.07467962,-1.41774873\

 Normal termination of Gaussian 16 at Wed Apr  9 03:07:48 2025.
