 Gaussian 16, Revision C.01,

 ----------------------------------------------------------------------
 #t hf aug-cc-pvdz symm=none int=(grid=ultrafine) guess=(read,tcheck) s
 table=(opt,rrhf)
 ----------------------------------------------------------------------
 -----
 title
 -----
 Symbolic Z-matrix:
 Charge =  0 Multiplicity = 1

 SCF Done:  E(RHF) =  -359.543803479     A.U. after   14 cycles
 Normal termination of Gaussian 16 at Wed Apr  9 03:46:31 2025.
 Gaussian 16:  ES64L-G16RevC.01  3-Jul-2019

 ----------------------------------------------------------------------
 #t hf aug-cc-pvdz iop(5/13=1,5/36=2,99/5=2) pseudo=read geom=check gue
 ss=(read,tcheck) scf=(maxcycle=1)
 ----------------------------------------------------------------------
 -----
 title
 -----
 Structure from the checkpoint file:  "Grambow2020_wb97xd3_007891_forward_mol1.chk"
 Charge =  0 Multiplicity = 1

                         Standard orientation:
 ---------------------------------------------------------------------
 Center     Atomic      Atomic             Coordinates (Angstroms)
 Number     Number       Type             X           Y           Z
 ---------------------------------------------------------------------
      1          6           0       -0.983383    1.621926   -0.045609
      2          6           0       -0.360464    0.289476    0.185037
      3          7           0       -1.046811   -0.776639    0.106708
      4          8           0       -2.393725   -0.828850   -0.181612
      5          6           0        1.085346    0.182430    0.514638
      6          6           0        1.914542   -0.908360    0.021829
      7          8           0        1.983181    0.379858   -0.568835
      8          1           0       -2.018054    1.500648   -0.360162
      9          1           0       -0.955679    2.215207    0.871663
     10          1           0       -0.422082    2.162541   -0.809525
     11          1           0       -1.566973   -1.771805    0.078528
     12          1           0        1.383319    0.694453    1.428339
     13          1           0        2.791352   -1.206983    0.588132
     14          1           0        1.463900   -1.678476   -0.595721
 ---------------------------------------------------------------------

 SCF Done:  E(RHF) =  -361.160645496     A.U. after    2 cycles

 The electronic state is 1-A.
 Alpha  occ. eigenvalues --  -21.08239 -21.02101 -15.81753 -11.52184 -11.47862
 Alpha  occ. eigenvalues --  -11.43960 -11.39118  -1.81354  -1.76539  -1.29722
 Alpha  occ. eigenvalues --   -1.07703  -1.01237  -0.94413  -0.81950  -0.74494
 Alpha  occ. eigenvalues --   -0.68866  -0.61692  -0.59319  -0.58480  -0.54068
 Alpha  occ. eigenvalues --   -0.52144  -0.48351  -0.44245  -0.39487  -0.32843
 Alpha  occ. eigenvalues --   -0.28021  -0.26735
 Alpha virt. eigenvalues --    0.03453   0.04811   0.05336   0.05728   0.06402
 Alpha virt. eigenvalues --    0.07376   0.07916   0.09677   0.10507   0.11671
 Alpha virt. eigenvalues --    0.12838   0.13068   0.13765   0.14266   0.15375

 Mulliken charges:
               1
     1  C   -3.881831
     2  C    1.872674
     3  N   -1.780011
     4  O   -1.857898
     5  C    0.887649
     6  C   -1.917196
     7  O   -2.495670
     8  H    1.463799
     9  H    1.201955
    10  H    1.280452
    11  H    0.860963
    12  H    1.527909
    13  H    1.421391
    14  H    1.415815
 Sum of Mulliken charges =  -0.00000

 Dipole moment (field-independent basis, Debye):
    X=              1.1458    Y=              0.4396    Z=              0.4400  Tot=              1.3037

 Test job not archived.
 1\1\GINC-SE179\SP\RHF\Aug-CC-pVDZ\C4H7N1O2\OHZDE\09-Apr-2025\0\\#t hf
 aug-cc-pvdz iop(5/13=1,5/36=2,99/5=2) pseudo=read geom=check guess=(re
 ad,tcheck) scf=(maxcycle=1)\\title\\0,1\C,0,-1.35899662,-1.18776155,-0
 .23387433\C,0,-0.44626715,-0.01999257,-0.09284956\N,0,-0.8540752,1.072
 86042,0.41031379\O,0,-2.13592542,1.30445867,0.86115136\C,0,0.9678008,-
 0.11243253,-0.54266128\C,0,2.05384976,0.54183613,0.17335453\O,0,1.8379
 6691,-0.85471034,0.30044834\H,0,-2.32031626,-0.96761112,0.22611811\H,0
 ,-1.51306714,-1.42075477,-1.29033816\H,0,-0.9109484,-2.06336529,0.2388

 Normal termination of Gaussian 16 at Wed Apr  9 03:46:36 2025.
