 Gaussian 16, Revision C.01,

 ----------------------------------------------------------------------
 #t hf aug-cc-pvdz symm=none int=(grid=ultrafine) guess=(read,tcheck) s
 table=(opt,rrhf)
 ----------------------------------------------------------------------
 -----
 title
 -----
 Symbolic Z-matrix:
 Charge =  0 Multiplicity = 1

 SCF Done:  E(RHF) =  -271.928284563     A.U. after   15 cycles
 Normal termination of Gaussian 16 at Wed Apr  9 03:39:58 2025.
 Gaussian 16:  ES64L-G16RevC.01  3-Jul-2019

 ----------------------------------------------------------------------
 #t hf aug-cc-pvdz iop(5/13=1,5/36=2,99/5=2) pseudo=read geom=check gue
 ss=(read,tcheck) scf=(maxcycle=1)
 ----------------------------------------------------------------------
 -----
 title
 -----
 Structure from the checkpoint file:  "Grambow2020_wb97xd3_007435_reverse_mol1.chk"
 Charge =  0 Multiplicity = 1

                         Standard orientation:
 ---------------------------------------------------------------------
 Center     Atomic      Atomic             Coordinates (Angstroms)
 Number     Number       Type             X           Y           Z
 ---------------------------------------------------------------------
      1          6           0        2.650204    0.164205   -0.173283
      2          6           0        1.394770   -0.698625   -0.164694
      3          6           0        0.242474   -0.038035    0.576485
      4          6           0       -0.384793    1.251682   -0.013676
      5          6           0       -1.865003    0.798998   -0.027195
      6          6           0       -1.781699   -0.525834   -0.728241
      7          6           0       -1.091579   -0.784328    0.591510
      8          1           0        3.468932   -0.328029   -0.700139
      9          1           0        2.988234    0.376517    0.843948
     10          1           0        2.467307    1.122240   -0.665758
     11          1           0        1.095974   -0.923303   -1.192888
     12          1           0        1.611293   -1.662429    0.309050
     13          1           0        0.561983    0.161281    1.603236
     14          1           0       -0.058668    1.467654   -1.036419
     15          1           0       -0.211794    2.140474    0.590703
     16          1           0       -1.758540    0.001289    1.226370
     17          1           0       -2.724485   -1.049055   -0.857422
     18          1           0       -1.140080   -0.597457   -1.602282
     19          1           0       -1.286404   -1.717559    1.116168
 ---------------------------------------------------------------------

 SCF Done:  E(RHF) =  -273.326547349     A.U. after    2 cycles

 The electronic state is 1-A.
 Alpha  occ. eigenvalues --  -11.48550 -11.43517 -11.42054 -11.40349 -11.39073
 Alpha  occ. eigenvalues --  -11.36795 -11.34970  -1.41165  -1.17888  -1.03873
 Alpha  occ. eigenvalues --   -0.97681  -0.89451  -0.81256  -0.76241  -0.69275
 Alpha  occ. eigenvalues --   -0.62807  -0.60758  -0.57038  -0.54713  -0.52226
 Alpha  occ. eigenvalues --   -0.51099  -0.49479  -0.47444  -0.44443  -0.42183
 Alpha  occ. eigenvalues --   -0.39708  -0.28519
 Alpha virt. eigenvalues --    0.04117   0.04544   0.04958   0.05323   0.05615
 Alpha virt. eigenvalues --    0.05791   0.06238   0.06737   0.07454   0.08294
 Alpha virt. eigenvalues --    0.08620   0.09218   0.11047   0.12156   0.13260

 Mulliken charges:
               1
     1  C   -3.999208
     2  C   -3.586218
     3  C    0.033154
     4  C   -3.086366
     5  C   -0.608752
     6  C   -3.305017
     7  C   -1.767638
     8  H    1.069770
     9  H    1.273528
    10  H    1.431553
    11  H    1.432261
    12  H    1.325558
    13  H    1.618110
    14  H    1.648478
    15  H    1.405049
    16  H    1.122758
    17  H    1.399715
    18  H    1.396240
    19  H    1.197023
 Sum of Mulliken charges =  -0.00000

 Dipole moment (field-independent basis, Debye):
    X=              2.0098    Y=             -1.8199    Z=             -0.0586  Tot=              2.7120

 Test job not archived.
 1\1\GINC-SE336\SP\RHF\Aug-CC-pVDZ\C7H12\OHZDE\09-Apr-2025\0\\#t hf aug
 -cc-pvdz iop(5/13=1,5/36=2,99/5=2) pseudo=read geom=check guess=(read,
 tcheck) scf=(maxcycle=1)\\title\\0,1\C,0,2.33571984,0.36145316,-0.6414
 4856\C,0,1.08364257,-0.50622598,-0.65142234\C,0,0.16985771,-0.21888044
 ,0.53007771\C,0,-0.52562133,1.16446192,0.61838881\C,0,-1.98394577,0.67
 514242,0.79155228\C,0,-2.12553054,-0.29746163,-0.34316472\C,0,-1.15210
 294,-0.98441594,0.58708331\H,0,2.98397019,0.13610304,-1.48949031\H,0,2
 .91505584,0.2051094,0.27180138\H,0,2.08084499,1.42274383,-0.69159737\H

 Normal termination of Gaussian 16 at Wed Apr  9 03:40:06 2025.
