 Gaussian 16, Revision C.01,

 ----------------------------------------------------------------------
 #t hf aug-cc-pvdz symm=none int=(grid=ultrafine) guess=(read,tcheck) s
 table=(opt,rrhf)
 ----------------------------------------------------------------------
 -----
 title
 -----
 Symbolic Z-matrix:
 Charge =  0 Multiplicity = 1

 SCF Done:  E(RHF) =  -338.622582055     A.U. after   15 cycles
 Normal termination of Gaussian 16 at Wed Apr  9 03:40:26 2025.
 Gaussian 16:  ES64L-G16RevC.01  3-Jul-2019

 ----------------------------------------------------------------------
 #t hf aug-cc-pvdz iop(5/13=1,5/36=2,99/5=2) pseudo=read geom=check gue
 ss=(read,tcheck) scf=(maxcycle=1)
 ----------------------------------------------------------------------
 -----
 title
 -----
 Structure from the checkpoint file:  "Grambow2020_wb97xd3_007480_reverse_mol2.chk"
 Charge =  0 Multiplicity = 1

                         Standard orientation:
 ---------------------------------------------------------------------
 Center     Atomic      Atomic             Coordinates (Angstroms)
 Number     Number       Type             X           Y           Z
 ---------------------------------------------------------------------
      1          6           0        2.510901    0.330629   -0.164705
      2          8           0        1.459911   -0.644199    0.000048
      3          6           0        0.272535   -0.278806    0.082933
      4          6           0       -0.262049    1.100096    0.033096
      5          7           0       -1.705723    0.940436   -0.049493
      6          6           0       -1.931019   -0.310105   -0.043146
      7          7           0       -0.801605   -1.116207    0.048026
      8          1           0        2.357232    1.128464    0.567239
      9          1           0        0.192033    1.595700   -0.845658
     10          1           0        3.426404   -0.221198    0.031626
     11          1           0        0.030452    1.712003    0.893229
     12          1           0       -2.913061   -0.763164   -0.093136
     13          1           0       -0.763254   -2.118692    0.007520
 ---------------------------------------------------------------------

 SCF Done:  E(RHF) =  -340.151234543     A.U. after    2 cycles

 The electronic state is 1-A.
 Alpha  occ. eigenvalues --  -21.14476 -15.83622 -15.75756 -11.56267 -11.48527
 Alpha  occ. eigenvalues --  -11.44301 -11.31285  -1.86263  -1.58012  -1.32256
 Alpha  occ. eigenvalues --   -1.12243  -0.95556  -0.88487  -0.85498  -0.73745
 Alpha  occ. eigenvalues --   -0.70135  -0.65961  -0.59583  -0.57719  -0.55671
 Alpha  occ. eigenvalues --   -0.52096  -0.51270  -0.45288  -0.39061  -0.36711
 Alpha  occ. eigenvalues --   -0.22989
 Alpha virt. eigenvalues --    0.02162   0.04368   0.05175   0.06923   0.07333
 Alpha virt. eigenvalues --    0.07853   0.08874   0.08907   0.10019   0.11168
 Alpha virt. eigenvalues --    0.12100   0.13027   0.13719   0.14102   0.14484

 Mulliken charges:
               1
     1  C   -2.683028
     2  O   -3.477209
     3  C    4.710864
     4  C   -1.890922
     5  N   -2.850045
     6  C    1.266266
     7  N   -3.025135
     8  H    1.224914
     9  H    1.378185
    10  H    1.468918
    11  H    1.454418
    12  H    1.572481
    13  H    0.850293
 Sum of Mulliken charges =  -0.00000

 Dipole moment (field-independent basis, Debye):
    X=             -3.8416    Y=             -3.6102    Z=              1.4470  Tot=              5.4667

 Test job not archived.
 1\1\GINC-SE187\SP\RHF\Aug-CC-pVDZ\C4H6N2O1\OHZDE\09-Apr-2025\0\\#t hf
 aug-cc-pvdz iop(5/13=1,5/36=2,99/5=2) pseudo=read geom=check guess=(re
 ad,tcheck) scf=(maxcycle=1)\\title\\0,1\C,0,-2.32528616,-0.32893979,-0
 .25576972\O,0,-1.08243672,-1.02478311,-0.02524455\C,0,-0.00880138,-0.3
 9545628,0.01347493\C,0,0.2005781,1.06012626,-0.15106603\N,0,1.59378259
 ,1.28169655,0.20445194\C,0,2.07304965,0.14512103,0.50965819\N,0,1.1845
 7524,-0.9199227,0.40973666\H,0,-2.19007878,0.34241479,-1.10835258\H,0,
 -0.52458972,1.5719141,0.50940881\H,0,-3.04069227,-1.11671598,-0.476695

 Normal termination of Gaussian 16 at Wed Apr  9 03:40:30 2025.
