 Gaussian 16, Revision C.01,

 ----------------------------------------------------------------------
 #t hf aug-cc-pvdz symm=none int=(grid=ultrafine) guess=(read,tcheck) s
 table=(opt,rrhf)
 ----------------------------------------------------------------------
 -----
 title
 -----
 Symbolic Z-matrix:
 Charge =  0 Multiplicity = 1

 SCF Done:  E(RHF) =  -338.628103496     A.U. after   16 cycles
 Normal termination of Gaussian 16 at Wed Apr  9 18:17:39 2025.
 Gaussian 16:  ES64L-G16RevC.01  3-Jul-2019

 ----------------------------------------------------------------------
 #t hf aug-cc-pvdz iop(5/13=1,5/36=2,99/5=2) pseudo=read geom=check gue
 ss=(read,tcheck) scf=(maxcycle=1)
 ----------------------------------------------------------------------
 -----
 title
 -----
 Structure from the checkpoint file:  "Grambow2020_wb97xd3_006848_reverse_mol2.chk"
 Charge =  0 Multiplicity = 1

                         Standard orientation:
 ---------------------------------------------------------------------
 Center     Atomic      Atomic             Coordinates (Angstroms)
 Number     Number       Type             X           Y           Z
 ---------------------------------------------------------------------
      1          7           0       -2.433339   -0.407496   -0.253508
      2          6           0       -1.117242   -0.156068    0.296027
      3          6           0       -0.595043    1.216576    0.045036
      4          7           0        0.687911    1.096987   -0.057332
      5          6           0        1.072093   -0.276724    0.009414
      6          8           0        2.419262   -0.438277   -0.123112
      7          6           0        0.040058   -1.117601    0.150559
      8          1           0       -2.332995   -0.618805   -1.239103
      9          1           0       -2.789912   -1.257452    0.165099
     10          1           0       -1.105818    2.169237    0.018234
     11          1           0        1.338023    1.867400   -0.145708
     12          1           0        2.572827   -1.383998   -0.046183
     13          1           0       -1.217436   -0.093703    1.402218
 ---------------------------------------------------------------------

 SCF Done:  E(RHF) =  -340.165337665     A.U. after    2 cycles

 The electronic state is 1-A.
 Alpha  occ. eigenvalues --  -21.08648 -15.85341 -15.73820 -11.50625 -11.42395
 Alpha  occ. eigenvalues --  -11.41439 -11.30678  -1.75091  -1.52436  -1.32977
 Alpha  occ. eigenvalues --   -1.10008  -1.03283  -0.84041  -0.78009  -0.75095
 Alpha  occ. eigenvalues --   -0.67879  -0.61097  -0.58301  -0.57157  -0.52757
 Alpha  occ. eigenvalues --   -0.49742  -0.44839  -0.42998  -0.34314  -0.29057
 Alpha  occ. eigenvalues --   -0.24375
 Alpha virt. eigenvalues --    0.02657   0.04939   0.04973   0.06326   0.06496
 Alpha virt. eigenvalues --    0.07091   0.08248   0.10056   0.10832   0.12128
 Alpha virt. eigenvalues --    0.13045   0.13518   0.13940   0.15001   0.15673

 Mulliken charges:
               1
     1  N   -2.878579
     2  C    0.780872
     3  C    0.187441
     4  N   -3.123879
     5  C    4.856132
     6  O   -3.296827
     7  C   -2.314762
     8  H    0.476936
     9  H    0.564927
    10  H    1.396642
    11  H    0.912767
    12  H    0.826866
    13  H    1.611462
 Sum of Mulliken charges =   0.00000

 Dipole moment (field-independent basis, Debye):
    X=              0.4248    Y=              5.3245    Z=             -0.4593  Tot=              5.3612

 Test job not archived.
 1\1\GINC-SE174\SP\RHF\Aug-CC-pVDZ\C4H6N2O1\OHZDE\09-Apr-2025\0\\#t hf
 aug-cc-pvdz iop(5/13=1,5/36=2,99/5=2) pseudo=read geom=check guess=(re
 ad,tcheck) scf=(maxcycle=1)\\title\\0,1\N,0,-2.16796359,0.55913473,-0.
 01949958\C,0,-0.76567509,0.39380217,-0.34131899\C,0,-0.3540613,-1.0138
 277,-0.60397914\N,0,0.87002124,-1.10888343,-0.19982888\C,0,1.29433031,
 0.11017793,0.4108958\O,0,2.574634,0.03251487,0.87275937\C,0,0.34785686
 ,1.05653675,0.43706381\H,0,-2.30035492,0.33101545,0.95853516\H,0,-2.39
 22689,1.54339935,-0.09507952\H,0,-0.88086717,-1.82058607,-1.09468205\H

 Normal termination of Gaussian 16 at Wed Apr  9 18:17:43 2025.
