 Gaussian 16, Revision C.01,

 ----------------------------------------------------------------------
 #t hf aug-cc-pvdz symm=none int=(grid=ultrafine) guess=(read,tcheck) s
 table=(opt,rrhf)
 ----------------------------------------------------------------------
 -----
 title
 -----
 Symbolic Z-matrix:
 Charge =  0 Multiplicity = 1

 SCF Done:  E(RHF) =  -322.548233100     A.U. after   14 cycles
 Normal termination of Gaussian 16 at Wed Apr  9 18:02:39 2025.
 Gaussian 16:  ES64L-G16RevC.01  3-Jul-2019

 ----------------------------------------------------------------------
 #t hf aug-cc-pvdz iop(5/13=1,5/36=2,99/5=2) pseudo=read geom=check gue
 ss=(read,tcheck) scf=(maxcycle=1)
 ----------------------------------------------------------------------
 -----
 title
 -----
 Structure from the checkpoint file:  "Grambow2020_wb97xd3_006556_reverse_mol2.chk"
 Charge =  0 Multiplicity = 1

                         Standard orientation:
 ---------------------------------------------------------------------
 Center     Atomic      Atomic             Coordinates (Angstroms)
 Number     Number       Type             X           Y           Z
 ---------------------------------------------------------------------
      1          8           0       -2.380404   -0.081271   -0.024354
      2          6           0       -1.091331    0.032874   -0.551323
      3          6           0       -0.111426    0.948987    0.187840
      4          6           0        0.269127   -0.078038    1.284550
      5          6           0        2.373023    0.024337   -0.386010
      6          7           0        0.984340    0.004143   -0.015276
      7          6           0       -0.115883   -0.955316    0.067345
      8          1           0       -2.937690    0.593369   -0.414090
      9          1           0       -1.114801    0.103676   -1.649372
     10          1           0        0.050489    2.020364    0.201027
     11          1           0        2.844956    0.884503    0.087533
     12          1           0        2.487457    0.084628   -1.469653
     13          1           0        2.846601   -0.882154   -0.010897
     14          1           0        0.034783   -2.020284   -0.057192
 ---------------------------------------------------------------------

 SCF Done:  E(RHF) =  -324.045361801     A.U. after    2 cycles

 The electronic state is 1-A.
 Alpha  occ. eigenvalues --  -21.07676 -15.78986 -11.52088 -11.45213 -11.42719
 Alpha  occ. eigenvalues --  -11.41474 -11.37073  -1.74445  -1.61599  -1.18074
 Alpha  occ. eigenvalues --   -0.99388  -0.97323  -0.83699  -0.75253  -0.71504
 Alpha  occ. eigenvalues --   -0.66433  -0.63624  -0.60122  -0.56962  -0.52263
 Alpha  occ. eigenvalues --   -0.48525  -0.41763  -0.38511  -0.36436  -0.32567
 Alpha  occ. eigenvalues --   -0.29771
 Alpha virt. eigenvalues --    0.03214   0.04622   0.04968   0.05301   0.05816
 Alpha virt. eigenvalues --    0.06528   0.07117   0.10266   0.11073   0.11156
 Alpha virt. eigenvalues --    0.12364   0.13199   0.13597   0.14309   0.14526

 Mulliken charges:
               1
     1  O   -3.015119
     2  C    1.133207
     3  C   -0.728589
     4  C    0.045381
     5  C   -3.361191
     6  N   -2.409096
     7  C   -1.004105
     8  H    0.726351
     9  H    1.580678
    10  H    1.357896
    11  H    1.391007
    12  H    1.444252
    13  H    1.401247
    14  H    1.438082
 Sum of Mulliken charges =  -0.00000

 Dipole moment (field-independent basis, Debye):
    X=              1.3077    Y=              0.7051    Z=             -4.1240  Tot=              4.3835

 Test job not archived.
 1\1\GINC-SE030\SP\RHF\Aug-CC-pVDZ\C5H7N1O1\OHZDE\09-Apr-2025\0\\#t hf
 aug-cc-pvdz iop(5/13=1,5/36=2,99/5=2) pseudo=read geom=check guess=(re
 ad,tcheck) scf=(maxcycle=1)\\title\\0,1\O,0,2.6232038,0.44327696,-0.22
 254366\C,0,1.26559781,0.34826631,-0.53926814\C,0,0.52439668,-0.908602,
 -0.07371355\C,0,0.30162611,-0.43046698,1.38372695\C,0,-2.08461777,-0.2
 0684316,0.16575358\N,0,-0.65470116,-0.12537809,0.28819482\C,0,0.367653
 34,0.88268203,0.56475307\H,0,3.13674604,0.05055576,-0.92939903\H,0,1.0
 7076914,0.69557,-1.56527847\H,0,0.4458289,-1.91913523,-0.45697574\H,0,

 Normal termination of Gaussian 16 at Wed Apr  9 18:02:44 2025.
