 Gaussian 16, Revision C.01,

 ----------------------------------------------------------------------
 #t hf aug-cc-pvdz symm=none int=(grid=ultrafine) guess=(read,tcheck) s
 table=(opt,rrhf)
 ----------------------------------------------------------------------
 -----
 title
 -----
 Symbolic Z-matrix:
 Charge =  0 Multiplicity = 1

 SCF Done:  E(RHF) =  -324.920489823     A.U. after   16 cycles
 Normal termination of Gaussian 16 at Wed Apr  9 19:08:16 2025.
 Gaussian 16:  ES64L-G16RevC.01  3-Jul-2019

 ----------------------------------------------------------------------
 #t hf aug-cc-pvdz iop(5/13=1,5/36=2,99/5=2) pseudo=read geom=check gue
 ss=(read,tcheck) scf=(maxcycle=1)
 ----------------------------------------------------------------------
 -----
 title
 -----
 Structure from the checkpoint file:  "Grambow2020_wb97xd3_008124_reverse_mol1.chk"
 Charge =  0 Multiplicity = 1

                         Standard orientation:
 ---------------------------------------------------------------------
 Center     Atomic      Atomic             Coordinates (Angstroms)
 Number     Number       Type             X           Y           Z
 ---------------------------------------------------------------------
      1          6           0        2.228805    0.364266    0.548398
      2          7           0        1.334966    0.570425   -0.403667
      3          6           0        0.294459   -0.437585   -0.464555
      4          8           0        0.636506   -1.605752   -0.536424
      5          6           0       -0.900026    0.115168    0.050032
      6          6           0       -1.418666    1.494983   -0.268827
      7          6           0       -1.959541   -0.858440    0.484868
      8          1           0        0.973719    0.254250    1.791960
      9          1           0        2.845130    1.190722    0.876857
     10          1           0        2.562579   -0.650840    0.706185
     11          1           0        1.033477    1.524682   -0.522733
     12          1           0        0.160417    0.209551    1.477881
     13          1           0       -2.274933    1.417207   -0.947585
     14          1           0       -0.705365    2.161946   -0.756304
     15          1           0       -1.778028    2.002349    0.630687
     16          1           0       -2.605884   -0.416058    1.247169
     17          1           0       -2.597899   -1.136648   -0.361908
     18          1           0       -1.520209   -1.774462    0.875351
 ---------------------------------------------------------------------

 SCF Done:  E(RHF) =  -326.510834782     A.U. after    2 cycles

 The electronic state is 1-A.
 Alpha  occ. eigenvalues --  -20.99836 -15.81051 -11.49289 -11.48348 -11.40871
 Alpha  occ. eigenvalues --  -11.38499 -11.35407  -1.69279  -1.44805  -1.21029
 Alpha  occ. eigenvalues --   -1.01884  -1.00210  -0.90494  -0.78761  -0.69531
 Alpha  occ. eigenvalues --   -0.68867  -0.63573  -0.60936  -0.57843  -0.56162
 Alpha  occ. eigenvalues --   -0.52950  -0.50877  -0.48848  -0.45801  -0.43872
 Alpha  occ. eigenvalues --   -0.40505  -0.27643  -0.22747
 Alpha virt. eigenvalues --    0.03032   0.04106   0.05027   0.05651   0.05915
 Alpha virt. eigenvalues --    0.06551   0.07313   0.07600   0.07963   0.08226
 Alpha virt. eigenvalues --    0.08955   0.10207   0.11200   0.12166   0.13110

 Mulliken charges:
               1
     1  C   -2.307971
     2  N   -2.583231
     3  C    5.214734
     4  O   -3.661758
     5  C    1.181045
     6  C   -3.918277
     7  C   -5.149622
     8  H    0.337968
     9  H    1.387531
    10  H    1.313972
    11  H    0.896834
    12  H   -0.010431
    13  H    1.166766
    14  H    1.370310
    15  H    1.222653
    16  H    1.172794
    17  H    1.081487
    18  H    1.285196
 Sum of Mulliken charges =  -0.00000

 Dipole moment (field-independent basis, Debye):
    X=              1.6628    Y=              3.0211    Z=              0.0805  Tot=              3.4495

 Test job not archived.
 1\1\GINC-SE108\SP\RHF\Aug-CC-pVDZ\C5H11N1O1\OHZDE\09-Apr-2025\0\\#t hf
  aug-cc-pvdz iop(5/13=1,5/36=2,99/5=2) pseudo=read geom=check guess=(r
 ead,tcheck) scf=(maxcycle=1)\\title\\0,1\C,0,2.38600355,0.15999283,-0.
 54258226\N,0,1.54023896,-0.66370996,0.05245902\C,0,0.56073525,0.000204
 ,0.89045444\O,0,0.96861395,0.77493595,1.73910091\C,0,-0.6900142,-0.030
 02752,0.23330793\C,0,-1.26217992,-1.2316793,-0.47606374\C,0,-1.7196172
 7,0.96079737,0.69994627\H,0,1.06731192,1.1137166,-1.23918353\H,0,2.936
 60355,-0.18793278,-1.40661911\H,0,2.76384761,0.98942041,0.0370951\H,0,

 Normal termination of Gaussian 16 at Wed Apr  9 19:08:22 2025.
