 Gaussian 16, Revision C.01,

 ----------------------------------------------------------------------
 #t hf aug-cc-pvdz symm=none int=(grid=ultrafine) guess=(read,tcheck) s
 table=(opt,rrhf)
 ----------------------------------------------------------------------
 -----
 title
 -----
 Symbolic Z-matrix:
 Charge =  0 Multiplicity = 1

 SCF Done:  E(RHF) =  -360.890687819     A.U. after   13 cycles
 Normal termination of Gaussian 16 at Wed Apr  9 18:13:15 2025.
 Gaussian 16:  ES64L-G16RevC.01  3-Jul-2019

 ----------------------------------------------------------------------
 #t hf aug-cc-pvdz iop(5/13=1,5/36=2,99/5=2) pseudo=read geom=check gue
 ss=(read,tcheck) scf=(maxcycle=1)
 ----------------------------------------------------------------------
 -----
 title
 -----
 Structure from the checkpoint file:  "Grambow2020_wb97xd3_006760_reverse_mol2.chk"
 Charge =  0 Multiplicity = 1

                         Standard orientation:
 ---------------------------------------------------------------------
 Center     Atomic      Atomic             Coordinates (Angstroms)
 Number     Number       Type             X           Y           Z
 ---------------------------------------------------------------------
      1          6           0       -2.496005   -1.174610   -0.001634
      2          7           0       -1.345543   -0.306338    0.001894
      3          6           0       -1.415365    1.034483    0.000088
      4          8           0       -0.458774    1.784044   -0.001391
      5          6           0        2.203259   -0.022187    0.731205
      6          6           0        2.215546   -0.018519   -0.724531
      7          8           0        1.503691   -1.023207   -0.005393
      8          1           0       -2.518107   -1.804527   -0.893698
      9          1           0       -2.510704   -1.819637    0.879549
     10          1           0       -3.403274   -0.569248    0.008037
     11          1           0       -2.454411    1.414771    0.000208
     12          1           0        1.567740    0.696200    1.238301
     13          1           0        3.066201   -0.388777    1.277426
     14          1           0        1.589043    0.702709   -1.238978
     15          1           0        3.087633   -0.381598   -1.258400
     16          1           0       -0.409264   -0.707220   -0.002191
 ---------------------------------------------------------------------

 SCF Done:  E(RHF) =  -362.517758473     A.U. after    2 cycles

 The electronic state is 1-A.
 Alpha  occ. eigenvalues --  -21.06267 -21.01675 -15.75043 -11.47230 -11.45682
 Alpha  occ. eigenvalues --  -11.40634 -11.40420  -1.78407  -1.69279  -1.38927
 Alpha  occ. eigenvalues --   -1.01324  -0.99129  -0.89485  -0.86020  -0.69928
 Alpha  occ. eigenvalues --   -0.65134  -0.63902  -0.62401  -0.61954  -0.54901
 Alpha  occ. eigenvalues --   -0.53144  -0.49168  -0.48299  -0.45246  -0.37992
 Alpha  occ. eigenvalues --   -0.31753  -0.29784  -0.28855
 Alpha virt. eigenvalues --    0.03604   0.04933   0.05435   0.05558   0.05992
 Alpha virt. eigenvalues --    0.06837   0.07706   0.07887   0.10056   0.11367
 Alpha virt. eigenvalues --    0.11765   0.12432   0.12521   0.13246   0.14631

 Mulliken charges:
               1
     1  C   -3.174334
     2  N   -2.511837
     3  C    1.947123
     4  O   -2.811993
     5  C   -1.861508
     6  C   -1.863177
     7  O   -2.419204
     8  H    1.343621
     9  H    1.343541
    10  H    1.363137
    11  H    1.721865
    12  H    1.594490
    13  H    1.331613
    14  H    1.588710
    15  H    1.334190
    16  H    1.073761
 Sum of Mulliken charges =  -0.00000

 Dipole moment (field-independent basis, Debye):
    X=             -0.6215    Y=             -2.0245    Z=             -0.0035  Tot=              2.1178

 Test job not archived.
 1\1\GINC-SE226\SP\RHF\Aug-CC-pVDZ\C4H9N1O2\OHZDE\09-Apr-2025\0\\#t hf
 aug-cc-pvdz iop(5/13=1,5/36=2,99/5=2) pseudo=read geom=check guess=(re
 ad,tcheck) scf=(maxcycle=1)\\title\\0,1\C,0,2.25394593,-0.37913334,-1.
 34162019\N,0,1.20150043,-0.00600486,-0.43024448\C,0,1.40089817,0.67010
 574,0.71246905\O,0,0.52902779,0.99041971,1.49614676\C,0,-2.36538452,0.
 56188625,-0.02842618\C,0,-2.1990001,-0.69285556,0.69078883\O,0,-1.6814
 6916,-0.53629108,-0.62865962\H,0,2.32378064,-1.46393817,-1.4483216\H,0
 ,2.09797725,0.05784296,-2.33029861\H,0,3.20767799,-0.0144772,-0.958066

 Normal termination of Gaussian 16 at Wed Apr  9 18:13:20 2025.
