 Gaussian 16, Revision C.01,

 ----------------------------------------------------------------------
 #t hf aug-cc-pvdz symm=none int=(grid=ultrafine) guess=(read,tcheck) s
 table=(opt,rrhf)
 ----------------------------------------------------------------------
 -----
 title
 -----
 Symbolic Z-matrix:
 Charge =  0 Multiplicity = 1

 SCF Done:  E(RHF) =  -306.634099076     A.U. after   14 cycles
 Normal termination of Gaussian 16 at Wed Apr  9 03:59:43 2025.
 Gaussian 16:  ES64L-G16RevC.01  3-Jul-2019

 ----------------------------------------------------------------------
 #t hf aug-cc-pvdz iop(5/13=1,5/36=2,99/5=2) pseudo=read geom=check gue
 ss=(read,tcheck) scf=(maxcycle=1)
 ----------------------------------------------------------------------
 -----
 title
 -----
 Structure from the checkpoint file:  "Grambow2020_wb97xd3_008777_reverse_mol2.chk"
 Charge =  0 Multiplicity = 1

                         Standard orientation:
 ---------------------------------------------------------------------
 Center     Atomic      Atomic             Coordinates (Angstroms)
 Number     Number       Type             X           Y           Z
 ---------------------------------------------------------------------
      1          8           0        0.357353   -1.504352    0.015906
      2          6           0       -0.760438   -0.792032    0.074056
      3          6           0        1.451262   -0.574263    0.240712
      4          6           0        1.215587    0.741925   -0.501782
      5          6           0        0.022329    1.541147    0.077035
      6          6           0       -1.055743    0.561967    0.545617
      7          6           0       -1.850656   -0.324469   -0.427839
      8          1           0        1.549191   -0.408938    1.318730
      9          1           0        2.338701   -1.090390   -0.121027
     10          1           0        2.132101    1.335743   -0.464467
     11          1           0        1.042295    0.504375   -1.555363
     12          1           0        0.365097    2.118986    0.939785
     13          1           0       -0.342081    2.260705   -0.661316
     14          1           0       -1.455574    0.733125    1.544826
     15          1           0       -2.622599   -0.344435   -1.175216
 ---------------------------------------------------------------------

 SCF Done:  E(RHF) =  -308.074284832     A.U. after    2 cycles

 The electronic state is 1-A.
 Alpha  occ. eigenvalues --  -21.08548 -11.47350 -11.45968 -11.43578 -11.41070
 Alpha  occ. eigenvalues --  -11.38547 -11.36393  -1.80056  -1.30326  -1.17891
 Alpha  occ. eigenvalues --   -0.99283  -0.89745  -0.80498  -0.73033  -0.67787
 Alpha  occ. eigenvalues --   -0.67458  -0.60810  -0.57709  -0.53976  -0.50646
 Alpha  occ. eigenvalues --   -0.49556  -0.47171  -0.42783  -0.39754  -0.32533
 Alpha  occ. eigenvalues --   -0.26729
 Alpha virt. eigenvalues --    0.03789   0.05065   0.05251   0.05521   0.05866
 Alpha virt. eigenvalues --    0.05979   0.06429   0.07429   0.09548   0.11995
 Alpha virt. eigenvalues --    0.12497   0.12883   0.13495   0.13865   0.14294

 Mulliken charges:
               1
     1  O   -3.510033
     2  C    3.333823
     3  C   -1.764438
     4  C   -2.841644
     5  C   -3.072032
     6  C   -1.379745
     7  C   -0.976273
     8  H    1.571404
     9  H    1.253224
    10  H    1.310126
    11  H    1.353945
    12  H    1.354094
    13  H    1.254847
    14  H    1.204158
    15  H    0.908546
 Sum of Mulliken charges =   0.00000

 Dipole moment (field-independent basis, Debye):
    X=              1.3618    Y=              0.4668    Z=             -0.2786  Tot=              1.4663

 Test job not archived.
 1\1\GINC-SE396\SP\RHF\Aug-CC-pVDZ\C6H8O1\OHZDE\09-Apr-2025\0\\#t hf au
 g-cc-pvdz iop(5/13=1,5/36=2,99/5=2) pseudo=read geom=check guess=(read
 ,tcheck) scf=(maxcycle=1)\\title\\0,1\O,0,0.05290249,-1.83627556,0.120
 99964\C,0,1.06478074,-0.97843057,0.0999851\C,0,-1.12797772,-1.09107097
 ,-0.2820287\C,0,-1.14755848,0.29739679,0.35903516\C,0,-0.02055231,1.21
 255445,-0.17947576\C,0,1.2211466,0.36443483,-0.46139743\C,0,2.02602258
 ,-0.32390265,0.65378706\H,0,-1.13820838,-1.02302475,-1.37487384\H,0,-1
 .9697567,-1.69961803,0.04334799\H,0,-2.12719234,0.7501069,0.18762537\H

 Normal termination of Gaussian 16 at Wed Apr  9 03:59:48 2025.
