 Gaussian 16, Revision C.01,

 ----------------------------------------------------------------------
 #t hf aug-cc-pvdz symm=none int=(grid=ultrafine) guess=(read,tcheck) s
 table=(opt,rrhf)
 ----------------------------------------------------------------------
 -----
 title
 -----
 Symbolic Z-matrix:
 Charge =  0 Multiplicity = 1

 SCF Done:  E(RHF) =  -286.621710919     A.U. after   15 cycles
 Normal termination of Gaussian 16 at Wed Apr  9 19:32:23 2025.
 Gaussian 16:  ES64L-G16RevC.01  3-Jul-2019

 ----------------------------------------------------------------------
 #t hf aug-cc-pvdz iop(5/13=1,5/36=2,99/5=2) pseudo=read geom=check gue
 ss=(read,tcheck) scf=(maxcycle=1)
 ----------------------------------------------------------------------
 -----
 title
 -----
 Structure from the checkpoint file:  "Grambow2020_wb97xd3_009356_reverse_mol1.chk"
 Charge =  0 Multiplicity = 1

                         Standard orientation:
 ---------------------------------------------------------------------
 Center     Atomic      Atomic             Coordinates (Angstroms)
 Number     Number       Type             X           Y           Z
 ---------------------------------------------------------------------
      1          6           0       -2.124596    0.209389   -0.329670
      2          7           0       -0.900155   -0.254154    0.310142
      3          6           0        0.141783   -1.055554   -0.376259
      4          6           0        1.357934   -0.288765   -0.628103
      5          6           0        0.995382    1.156693   -0.391825
      6          6           0        0.173233    0.642065    0.790037
      7          6           0        1.062074   -0.675967    0.877231
      8          1           0       -1.892099    0.848693   -1.186214
      9          1           0       -2.715768    0.771131    0.393535
     10          1           0       -2.701575   -0.649738   -0.670681
     11          1           0       -0.069252   -2.070466   -0.679315
     12          1           0        2.146972   -0.677391   -1.260736
     13          1           0        0.506295    1.722310   -1.192727
     14          1           0        1.848954    1.718577   -0.014461
     15          1           0       -0.101833    1.276433    1.628640
     16          1           0       -0.355470   -1.087634    1.162495
 ---------------------------------------------------------------------

 SCF Done:  E(RHF) =  -288.067909556     A.U. after    2 cycles

 The electronic state is 1-A.
 Alpha  occ. eigenvalues --  -15.77256 -11.48447 -11.45430 -11.42793 -11.41158
 Alpha  occ. eigenvalues --  -11.38519 -11.33293  -1.60098  -1.25821  -1.07600
 Alpha  occ. eigenvalues --   -1.02952  -0.88788  -0.79973  -0.76073  -0.74297
 Alpha  occ. eigenvalues --   -0.64809  -0.61988  -0.60413  -0.57258  -0.51301
 Alpha  occ. eigenvalues --   -0.48339  -0.46055  -0.42882  -0.37690  -0.31371
 Alpha  occ. eigenvalues --   -0.27271
 Alpha virt. eigenvalues --    0.03504   0.04863   0.05056   0.05307   0.05980
 Alpha virt. eigenvalues --    0.06206   0.06811   0.07277   0.08263   0.10247
 Alpha virt. eigenvalues --    0.11495   0.11975   0.13120   0.13560   0.13886

 Mulliken charges:
               1
     1  C   -3.544268
     2  N   -1.839899
     3  C   -0.737226
     4  C   -1.256777
     5  C   -3.202612
     6  C   -1.001081
     7  C   -0.431987
     8  H    1.507157
     9  H    1.438747
    10  H    1.419848
    11  H    1.310374
    12  H    1.450245
    13  H    1.258981
    14  H    1.229676
    15  H    1.557938
    16  H    0.840884
 Sum of Mulliken charges =   0.00000

 Dipole moment (field-independent basis, Debye):
    X=             -3.3105    Y=              1.2690    Z=             -2.3479  Tot=              4.2523

 Test job not archived.
 1\1\GINC-SE222\SP\RHF\Aug-CC-pVDZ\C6H9N1\OHZDE\09-Apr-2025\0\\#t hf au
 g-cc-pvdz iop(5/13=1,5/36=2,99/5=2) pseudo=read geom=check guess=(read
 ,tcheck) scf=(maxcycle=1)\\title\\0,1\C,0,1.97220625,0.20985995,-0.139
 84858\N,0,0.70910268,-0.48952828,-0.33711416\C,0,-0.17020886,-0.940690
 6,0.7684571\C,0,-1.39316618,-0.1498492,0.8651963\C,0,-1.17076046,1.068
 26882,0.0030213\C,0,-0.4809224,0.11478576,-0.97297215\C,0,-1.27627615,
 -1.12734114,-0.37348674\H,0,1.81216609,1.14619599,0.40245499\H,0,2.418
 32555,0.42379659,-1.11107125\H,0,2.65024132,-0.42322725,0.43178049\H,0

 Normal termination of Gaussian 16 at Wed Apr  9 19:32:28 2025.
