 Gaussian 16, Revision C.01,

 ----------------------------------------------------------------------
 #t hf aug-cc-pvdz symm=none int=(grid=ultrafine) guess=(read,tcheck) s
 table=(opt,rrhf)
 ----------------------------------------------------------------------
 -----
 title
 -----
 Symbolic Z-matrix:
 Charge =  0 Multiplicity = 1

 SCF Done:  E(RHF) =  -284.728179291     A.U. after   15 cycles
 Normal termination of Gaussian 16 at Wed Apr  9 17:55:27 2025.
 Gaussian 16:  ES64L-G16RevC.01  3-Jul-2019

 ----------------------------------------------------------------------
 #t hf aug-cc-pvdz iop(5/13=1,5/36=2,99/5=2) pseudo=read geom=check gue
 ss=(read,tcheck) scf=(maxcycle=1)
 ----------------------------------------------------------------------
 -----
 title
 -----
 Structure from the checkpoint file:  "Grambow2020_wb97xd3_006246_forward_mol1.chk"
 Charge =  0 Multiplicity = 1

                         Standard orientation:
 ---------------------------------------------------------------------
 Center     Atomic      Atomic             Coordinates (Angstroms)
 Number     Number       Type             X           Y           Z
 ---------------------------------------------------------------------
      1          8           0       -2.217047   -0.446797    0.020834
      2          6           0       -1.388278    0.431040    0.025749
      3          7           0       -0.054621    0.223453    0.045824
      4          6           0        0.571529   -1.072517   -0.077437
      5          6           0        2.049029   -0.666818   -0.061321
      6          6           0        0.943031    1.265584   -0.034931
      7          1           0       -1.643805    1.508977    0.017846
      8          1           0        0.312740   -1.734192    0.755756
      9          1           0        0.273385   -1.562426   -1.007793
     10          1           0        2.304478   -0.460741    0.991378
     11          1           0        1.900593    0.755172   -0.477991
     12          1           0        0.728789    2.021887   -0.794307
     13          1           0        1.190672    1.737791    0.915314
 ---------------------------------------------------------------------

 SCF Done:  E(RHF) =  -286.031544209     A.U. after    2 cycles

 The electronic state is 1-A.
 Alpha  occ. eigenvalues --  -21.03749 -15.76484 -11.49293 -11.45780 -11.44185
 Alpha  occ. eigenvalues --  -11.40275  -1.71336  -1.48164  -1.11524  -1.06509
 Alpha  occ. eigenvalues --   -0.87112  -0.79311  -0.70447  -0.69394  -0.63268
 Alpha  occ. eigenvalues --   -0.59821  -0.54619  -0.52654  -0.50141  -0.48047
 Alpha  occ. eigenvalues --   -0.34473  -0.30727  -0.30093
 Alpha virt. eigenvalues --    0.02987   0.04725   0.04913   0.05392   0.06508
 Alpha virt. eigenvalues --    0.06860   0.07847   0.08136   0.10196   0.10910
 Alpha virt. eigenvalues --    0.12354   0.12827   0.13610   0.14469   0.14733

 Mulliken charges:
               1
     1  O   -2.702612
     2  C    2.293528
     3  N   -2.473656
     4  C   -2.243908
     5  C   -2.133890
     6  C   -2.933106
     7  H    1.677228
     8  H    1.506905
     9  H    1.527336
    10  H    1.114839
    11  H    1.665711
    12  H    1.304117
    13  H    1.397508
 Sum of Mulliken charges =  -0.00000

 Dipole moment (field-independent basis, Debye):
    X=              0.7106    Y=              1.9742    Z=              0.9380  Tot=              2.2983

 Test job not archived.
 1\1\GINC-SE041\SP\RHF\Aug-CC-pVDZ\C4H7N1O1\OHZDE\09-Apr-2025\0\\#t hf
 aug-cc-pvdz iop(5/13=1,5/36=2,99/5=2) pseudo=read geom=check guess=(re
 ad,tcheck) scf=(maxcycle=1)\\title\\0,1\O,0,2.22658345,1.31309111,-0.8
 597817\C,0,1.73658555,0.23677819,-0.61702088\N,0,0.45740859,0.04893682
 ,-0.22900297\C,0,-0.54325568,1.08985889,-0.18487697\C,0,-1.76824294,0.
 27579191,0.24472713\C,0,-0.15959775,-1.24085106,-0.02015774\H,0,2.2970
 5728,-0.71632561,-0.68608686\H,0,-0.28963861,1.87250288,0.53771809\H,0
 ,-0.66339874,1.55671466,-1.16573141\H,0,-1.66346126,0.10300386,1.32872

 Normal termination of Gaussian 16 at Wed Apr  9 17:55:30 2025.
