 Gaussian 16, Revision C.01,

 ----------------------------------------------------------------------
 #t hf aug-cc-pvdz symm=none int=(grid=ultrafine) guess=(read,tcheck) s
 table=(opt,rrhf)
 ----------------------------------------------------------------------
 -----
 title
 -----
 Symbolic Z-matrix:
 Charge =  0 Multiplicity = 1

 SCF Done:  E(RHF) =  -341.281453086     A.U. after   17 cycles
 Normal termination of Gaussian 16 at Wed Apr  9 19:29:55 2025.
 Gaussian 16:  ES64L-G16RevC.01  3-Jul-2019

 ----------------------------------------------------------------------
 #t hf aug-cc-pvdz iop(5/13=1,5/36=2,99/5=2) pseudo=read geom=check gue
 ss=(read,tcheck) scf=(maxcycle=1)
 ----------------------------------------------------------------------
 -----
 title
 -----
 Structure from the checkpoint file:  "Grambow2020_wb97xd3_009089_forward_mol1.chk"
 Charge =  0 Multiplicity = 1

                         Standard orientation:
 ---------------------------------------------------------------------
 Center     Atomic      Atomic             Coordinates (Angstroms)
 Number     Number       Type             X           Y           Z
 ---------------------------------------------------------------------
      1          8           0       -1.407267    1.482338    0.096283
      2          6           0       -0.444862    0.781186    0.001132
      3          6           0        1.017832    1.159354   -0.090496
      4          6           0        1.865427   -0.098176   -0.051889
      5          6           0        0.965524   -1.176337    0.023802
      6          6           0       -0.485379   -0.770657   -0.018555
      7          8           0       -1.454872   -1.464369   -0.070910
      8          1           0        1.215183    1.630233   -1.059858
      9          1           0        1.303106    1.905068    0.652943
     10          1           0        1.599662   -0.832247    1.046006
     11          1           0        1.267906   -2.219018   -0.026043
 ---------------------------------------------------------------------

 SCF Done:  E(RHF) =  -342.755491928     A.U. after    2 cycles

 The electronic state is 1-A.
 Alpha  occ. eigenvalues --  -21.11149 -21.09825 -11.54971 -11.50683 -11.47494
 Alpha  occ. eigenvalues --  -11.44994 -11.40732  -1.77175  -1.72489  -1.35159
 Alpha  occ. eigenvalues --   -1.08794  -0.98718  -0.82157  -0.74503  -0.66886
 Alpha  occ. eigenvalues --   -0.66292  -0.57905  -0.56163  -0.54188  -0.53443
 Alpha  occ. eigenvalues --   -0.49071  -0.42173  -0.39204  -0.37262  -0.25798
 Alpha virt. eigenvalues --    0.02425   0.05117   0.05443   0.05643   0.07106
 Alpha virt. eigenvalues --    0.08842   0.09175   0.09467   0.10239   0.11236
 Alpha virt. eigenvalues --    0.12381   0.12962   0.14215   0.14273   0.14734

 Mulliken charges:
               1
     1  O   -3.356924
     2  C    3.945538
     3  C   -3.396648
     4  C   -1.416591
     5  C   -1.592539
     6  C    3.230683
     7  O   -3.248773
     8  H    1.489554
     9  H    1.288194
    10  H    1.583941
    11  H    1.473565
 Sum of Mulliken charges =   0.00000

 Dipole moment (field-independent basis, Debye):
    X=             -0.2144    Y=             -0.5983    Z=              0.3557  Tot=              0.7283

 Test job not archived.
 1\1\GINC-SE117\SP\RHF\Aug-CC-pVDZ\C5H4O2\OHZDE\09-Apr-2025\0\\#t hf au
 g-cc-pvdz iop(5/13=1,5/36=2,99/5=2) pseudo=read geom=check guess=(read
 ,tcheck) scf=(maxcycle=1)\\title\\0,1\O,0,-0.49043887,2.29163213,-0.46
 855881\C,0,-0.28647945,1.15200203,-0.17438974\C,0,-1.2239893,-0.035664
 53,-0.21184021\C,0,-0.45069374,-1.29711706,0.12288381\C,0,0.87067047,-
 0.89089126,0.38165654\C,0,1.08085758,0.59986144,0.31117736\O,0,2.05807
 976,1.23093246,0.57703656\H,0,-1.98429608,0.07208702,0.56960808\H,0,-1
 .78210043,-0.09703577,-1.14721048\H,0,0.60272977,-1.45691661,-0.701511

 Normal termination of Gaussian 16 at Wed Apr  9 19:29:58 2025.
