 Gaussian 16, Revision C.01,

 ----------------------------------------------------------------------
 #t hf aug-cc-pvdz symm=none int=(grid=ultrafine) guess=(read,tcheck) s
 table=(opt,rrhf)
 ----------------------------------------------------------------------
 -----
 title
 -----
 Symbolic Z-matrix:
 Charge =  0 Multiplicity = 1

 SCF Done:  E(RHF) =  -340.470636889     A.U. after   13 cycles
 Normal termination of Gaussian 16 at Wed Apr  9 03:20:22 2025.
 Gaussian 16:  ES64L-G16RevC.01  3-Jul-2019

 ----------------------------------------------------------------------
 #t hf aug-cc-pvdz iop(5/13=1,5/36=2,99/5=2) pseudo=read geom=check gue
 ss=(read,tcheck) scf=(maxcycle=1)
 ----------------------------------------------------------------------
 -----
 title
 -----
 Structure from the checkpoint file:  "Grambow2020_wb97xd3_006044_reverse_mol2.chk"
 Charge =  0 Multiplicity = 1

                         Standard orientation:
 ---------------------------------------------------------------------
 Center     Atomic      Atomic             Coordinates (Angstroms)
 Number     Number       Type             X           Y           Z
 ---------------------------------------------------------------------
      1          8           0        1.727908   -0.456532    0.299081
      2          6           0        0.469575   -0.085152    0.036039
      3          8           0        0.217277    1.100943   -0.654435
      4          6           0       -0.559841    0.804399    0.546192
      5          6           0       -1.528136   -0.280516    0.116336
      6          8           0       -0.413185   -1.091788   -0.355719
      7          1           0        2.321445    0.200762   -0.073385
      8          1           0       -0.617685    1.554802    1.319291
      9          1           0       -2.035316   -0.775236    0.944831
     10          1           0       -2.214027   -0.033695   -0.693556
 ---------------------------------------------------------------------

 SCF Done:  E(RHF) =  -341.909673993     A.U. after    2 cycles

 The electronic state is 1-A.
 Alpha  occ. eigenvalues --  -21.12045 -21.07614 -21.06238 -11.56273 -11.49600
 Alpha  occ. eigenvalues --  -11.42721  -1.93333  -1.73614  -1.68945  -1.08483
 Alpha  occ. eigenvalues --   -0.94981  -0.80950  -0.74094  -0.67159  -0.63716
 Alpha  occ. eigenvalues --   -0.61042  -0.50140  -0.45422  -0.44403  -0.41259
 Alpha  occ. eigenvalues --   -0.37040  -0.31015  -0.28147
 Alpha virt. eigenvalues --    0.03635   0.04779   0.05763   0.06055   0.09032
 Alpha virt. eigenvalues --    0.10359   0.11212   0.11701   0.12148   0.13621
 Alpha virt. eigenvalues --    0.14332   0.15488   0.16967   0.18480   0.20207

 Mulliken charges:
               1
     1  O   -3.185941
     2  C    6.816234
     3  O   -2.726083
     4  C   -1.049543
     5  C   -1.450077
     6  O   -2.847391
     7  H    0.401397
     8  H    1.144014
     9  H    1.520511
    10  H    1.376880
 Sum of Mulliken charges =   0.00000

 Dipole moment (field-independent basis, Debye):
    X=             -0.0863    Y=              1.0093    Z=              0.4576  Tot=              1.1115

 Test job not archived.
 1\1\GINC-SE092\SP\RHF\Aug-CC-pVDZ\C3H4O3\OHZDE\09-Apr-2025\0\\#t hf au
 g-cc-pvdz iop(5/13=1,5/36=2,99/5=2) pseudo=read geom=check guess=(read
 ,tcheck) scf=(maxcycle=1)\\title\\0,1\O,0,1.55514735,0.87939868,1.0728
 4732\C,0,0.67461847,0.28219043,0.26135032\O,0,0.50492022,0.73686179,-1
 .04697143\C,0,-0.67861504,0.45807892,-0.23772523\C,0,-0.75666241,-1.05
 532358,-0.18356999\O,0,0.60932168,-1.10998722,0.32161563\H,0,1.9869793
 9,1.58479041,0.58397432\H,0,-1.43774397,1.22060968,-0.15771057\H,0,-1.
 45426005,-1.43648585,0.56239061\H,0,-0.85191364,-1.57642426,-1.1357639

 Normal termination of Gaussian 16 at Wed Apr  9 03:20:25 2025.
