 Gaussian 16, Revision C.01,

 ----------------------------------------------------------------------
 #t hf aug-cc-pvdz symm=none int=(grid=ultrafine) guess=(read,tcheck) s
 table=(opt,rrhf)
 ----------------------------------------------------------------------
 -----
 title
 -----
 Symbolic Z-matrix:
 Charge =  0 Multiplicity = 1

 SCF Done:  E(RHF) =  -353.418856195     A.U. after   17 cycles
 Normal termination of Gaussian 16 at Wed Apr  9 17:58:45 2025.
 Gaussian 16:  ES64L-G16RevC.01  3-Jul-2019

 ----------------------------------------------------------------------
 #t hf aug-cc-pvdz iop(5/13=1,5/36=2,99/5=2) pseudo=read geom=check gue
 ss=(read,tcheck) scf=(maxcycle=1)
 ----------------------------------------------------------------------
 -----
 title
 -----
 Structure from the checkpoint file:  "Grambow2020_wb97xd3_006539_reverse_mol1.chk"
 Charge =  0 Multiplicity = 1

                         Standard orientation:
 ---------------------------------------------------------------------
 Center     Atomic      Atomic             Coordinates (Angstroms)
 Number     Number       Type             X           Y           Z
 ---------------------------------------------------------------------
      1          8           0       -1.966404    0.031486   -0.620175
      2          6           0       -0.983258    0.026473    0.028939
      3          7           0       -0.261348   -1.081592    0.593880
      4          7           0        0.928178   -1.197983    0.002010
      5          6           0        1.454948   -0.106638   -0.545315
      6          6           0        0.973268    1.108655   -0.061889
      7          7           0       -0.226690    1.104561    0.555630
      8          1           0       -0.024899    0.048861    1.385628
      9          1           0        2.387891   -0.219364   -1.079635
     10          1           0        1.617511    1.972772    0.064361
 ---------------------------------------------------------------------

 SCF Done:  E(RHF) =  -354.979102134     A.U. after    2 cycles

 The electronic state is 1-A.
 Alpha  occ. eigenvalues --  -21.09910 -15.83069 -15.80198 -15.80131 -11.54399
 Alpha  occ. eigenvalues --  -11.50552 -11.44877  -1.78313  -1.63523  -1.40249
 Alpha  occ. eigenvalues --   -1.24488  -0.97880  -0.93582  -0.77061  -0.74638
 Alpha  occ. eigenvalues --   -0.69638  -0.66170  -0.56953  -0.53636  -0.51404
 Alpha  occ. eigenvalues --   -0.47552  -0.43056  -0.42327  -0.37986  -0.30054
 Alpha virt. eigenvalues --    0.02676   0.04643   0.06105   0.07154   0.09026
 Alpha virt. eigenvalues --    0.09457   0.10459   0.11178   0.11800   0.12228
 Alpha virt. eigenvalues --    0.12393   0.13270   0.13433   0.15332   0.15741

 Mulliken charges:
               1
     1  O   -3.280973
     2  C    5.463666
     3  N   -1.302621
     4  N   -1.714575
     5  C   -0.392582
     6  C    0.545346
     7  N   -2.769372
     8  H    0.670681
     9  H    1.385421
    10  H    1.395009
 Sum of Mulliken charges =   0.00000

 Dipole moment (field-independent basis, Debye):
    X=              2.2467    Y=              1.6607    Z=             -0.4763  Tot=              2.8342

 Test job not archived.
 1\1\GINC-SE229\SP\RHF\Aug-CC-pVDZ\C3H3N3O1\OHZDE\09-Apr-2025\0\\#t hf
 aug-cc-pvdz iop(5/13=1,5/36=2,99/5=2) pseudo=read geom=check guess=(re
 ad,tcheck) scf=(maxcycle=1)\\title\\0,1\O,0,2.1225159,-0.72021604,-0.9
 8267202\C,0,1.31378711,-0.36993007,-0.20087435\N,0,1.12864782,0.916186
 8,0.41536216\N,0,-0.01361389,1.46128709,-0.00527318\C,0,-0.97101362,0.
 64048713,-0.42688785\C,0,-0.89100578,-0.673068,0.03227086\N,0,0.307824
 81,-1.10988896,0.47185975\H,0,0.62253527,-0.0635746,1.2782716\H,0,-1.8
 6955515,1.08894163,-0.82701065\H,0,-1.77586847,-1.24858397,0.28423668\

 Normal termination of Gaussian 16 at Wed Apr  9 17:58:48 2025.
