 Gaussian 16, Revision C.01,

 ----------------------------------------------------------------------
 #t hf aug-cc-pvdz symm=none int=(grid=ultrafine) guess=(read,tcheck) s
 table=(opt,rrhf)
 ----------------------------------------------------------------------
 -----
 title
 -----
 Symbolic Z-matrix:
 Charge =  0 Multiplicity = 1

 SCF Done:  E(RHF) =  -323.813856782     A.U. after   14 cycles
 Normal termination of Gaussian 16 at Wed Apr  9 03:52:36 2025.
 Gaussian 16:  ES64L-G16RevC.01  3-Jul-2019

 ----------------------------------------------------------------------
 #t hf aug-cc-pvdz iop(5/13=1,5/36=2,99/5=2) pseudo=read geom=check gue
 ss=(read,tcheck) scf=(maxcycle=1)
 ----------------------------------------------------------------------
 -----
 title
 -----
 Structure from the checkpoint file:  "Grambow2020_wb97xd3_008326_reverse_mol2.chk"
 Charge =  0 Multiplicity = 1

                         Standard orientation:
 ---------------------------------------------------------------------
 Center     Atomic      Atomic             Coordinates (Angstroms)
 Number     Number       Type             X           Y           Z
 ---------------------------------------------------------------------
      1          7           0        1.093780    1.384292   -0.704866
      2          6           0        0.594412    0.554712    0.072000
      3          6           0       -0.680405    0.722282    0.828793
      4          6           0       -1.911842    0.368090   -0.016196
      5          6           0       -1.959825   -1.083332   -0.473942
      6          6           0        2.358651   -1.130016    0.093960
      7          8           0        1.140294   -0.778508    0.324119
      8          1           0        1.954077    1.066895   -1.151099
      9          1           0       -0.644919    0.097125    1.723178
     10          1           0       -0.738827    1.766415    1.135685
     11          1           0       -1.938997    1.036333   -0.880796
     12          1           0       -2.797239    0.595157    0.582780
     13          1           0       -1.915617   -1.770144    0.373980
     14          1           0       -2.882120   -1.282800   -1.021305
     15          1           0        2.905999   -0.233574   -0.312432
     16          1           0       -1.127107   -1.327808   -1.136575
 ---------------------------------------------------------------------

 SCF Done:  E(RHF) =  -325.328715314     A.U. after    2 cycles

 The electronic state is 1-A.
 Alpha  occ. eigenvalues --  -21.14015 -15.76036 -11.52191 -11.43807 -11.43613
 Alpha  occ. eigenvalues --  -11.40256 -11.36266  -1.84107  -1.36329  -1.22395
 Alpha  occ. eigenvalues --   -1.05586  -0.93547  -0.85301  -0.76669  -0.71934
 Alpha  occ. eigenvalues --   -0.65097  -0.62326  -0.59215  -0.55442  -0.54161
 Alpha  occ. eigenvalues --   -0.50600  -0.47741  -0.46777  -0.45033  -0.42954
 Alpha  occ. eigenvalues --   -0.40230  -0.33117
 Alpha virt. eigenvalues --    0.03608   0.04966   0.05348   0.05727   0.06028
 Alpha virt. eigenvalues --    0.06261   0.06370   0.06588   0.07680   0.08187
 Alpha virt. eigenvalues --    0.10370   0.11960   0.12723   0.13171   0.14081

 Mulliken charges:
               1
     1  N   -3.581673
     2  C    6.173991
     3  C   -3.590398
     4  C   -2.959777
     5  C   -3.787584
     6  C   -1.099734
     7  O   -2.696679
     8  H    0.794715
     9  H    1.493593
    10  H    1.263662
    11  H    1.386680
    12  H    1.297724
    13  H    1.301253
    14  H    1.106324
    15  H    1.530764
    16  H    1.367138
 Sum of Mulliken charges =   0.00000

 Dipole moment (field-independent basis, Debye):
    X=             -2.0322    Y=              1.1452    Z=              0.2633  Tot=              2.3475

 Test job not archived.
 1\1\GINC-SE368\SP\RHF\Aug-CC-pVDZ\C5H9N1O1\OHZDE\09-Apr-2025\0\\#t hf
 aug-cc-pvdz iop(5/13=1,5/36=2,99/5=2) pseudo=read geom=check guess=(re
 ad,tcheck) scf=(maxcycle=1)\\title\\0,1\N,0,1.6282704,0.62520873,1.251
 85111\C,0,1.03467061,0.4638376,0.17357008\C,0,0.66620656,-0.848074,-0.
 4339639\C,0,-0.64367587,-1.40852261,0.13700053\C,0,-1.86487522,-0.5391
 0618,-0.12992369\C,0,0.92412475,2.77279724,-0.60605352\O,0,0.52158182,
 1.54974338,-0.66104103\H,0,1.75744989,1.60327015,1.51008518\H,0,0.5835
 2731,-0.72551584,-1.51569782\H,0,1.48017161,-1.54148815,-0.22313568\H,

 Normal termination of Gaussian 16 at Wed Apr  9 03:52:41 2025.
