 Gaussian 16, Revision C.01,

 ----------------------------------------------------------------------
 #t hf aug-cc-pvdz symm=none int=(grid=ultrafine) guess=(read,tcheck) s
 table=(opt,rrhf)
 ----------------------------------------------------------------------
 -----
 title
 -----
 Symbolic Z-matrix:
 Charge =  0 Multiplicity = 1

 SCF Done:  E(RHF) =  -267.477863670     A.U. after   18 cycles
 Normal termination of Gaussian 16 at Wed Apr  9 03:20:54 2025.
 Gaussian 16:  ES64L-G16RevC.01  3-Jul-2019

 ----------------------------------------------------------------------
 #t hf aug-cc-pvdz iop(5/13=1,5/36=2,99/5=2) pseudo=read geom=check gue
 ss=(read,tcheck) scf=(maxcycle=1)
 ----------------------------------------------------------------------
 -----
 title
 -----
 Structure from the checkpoint file:  "Grambow2020_wb97xd3_006074_reverse_mol1.chk"
 Charge =  0 Multiplicity = 1

                         Standard orientation:
 ---------------------------------------------------------------------
 Center     Atomic      Atomic             Coordinates (Angstroms)
 Number     Number       Type             X           Y           Z
 ---------------------------------------------------------------------
      1          8           0       -2.062922   -0.099316   -0.719904
      2          6           0       -1.546726   -0.445995    0.317013
      3          6           0       -0.239791    0.027341    0.782192
      4          6           0        0.451352    1.154837    0.034932
      5          6           0        1.281639    0.003712   -0.242134
      6          6           0        2.485253   -0.546941   -0.311638
      7          1           0       -2.049491   -1.168085    0.988264
      8          1           0        0.555782   -0.897702   -0.407681
      9          1           0        0.046488   -0.187613    1.803077
     10          1           0       -0.158015    1.540723   -0.778408
     11          1           0        0.903865    1.926628    0.649069
     12          1           0        2.614382   -1.577136    0.022728
 ---------------------------------------------------------------------

 SCF Done:  E(RHF) =  -268.708174149     A.U. after    2 cycles

 The electronic state is 1-A.
 Alpha  occ. eigenvalues --  -21.07215 -11.51395 -11.47521 -11.45808 -11.42704
 Alpha  occ. eigenvalues --  -11.40252  -1.72298  -1.33953  -1.07075  -0.99150
 Alpha  occ. eigenvalues --   -0.81316  -0.77063  -0.72235  -0.62795  -0.59891
 Alpha  occ. eigenvalues --   -0.56414  -0.51920  -0.50183  -0.45765  -0.38648
 Alpha  occ. eigenvalues --   -0.31320  -0.27647
 Alpha virt. eigenvalues --    0.02115   0.04382   0.05062   0.05115   0.05822
 Alpha virt. eigenvalues --    0.06906   0.07692   0.09353   0.10231   0.10963
 Alpha virt. eigenvalues --    0.11997   0.12696   0.13341   0.13938   0.14424

 Mulliken charges:
               1
     1  O   -2.853670
     2  C    1.228405
     3  C   -1.404828
     4  C   -3.271641
     5  C    2.278805
     6  C   -3.825423
     7  H    1.482834
     8  H    1.467837
     9  H    1.387537
    10  H    1.345617
    11  H    1.203645
    12  H    0.960882
 Sum of Mulliken charges =  -0.00000

 Dipole moment (field-independent basis, Debye):
    X=             -2.1298    Y=             -0.1485    Z=              2.2877  Tot=              3.1291

 Test job not archived.
 1\1\GINC-SE345\SP\RHF\Aug-CC-pVDZ\C5H6O1\OHZDE\09-Apr-2025\0\\#t hf au
 g-cc-pvdz iop(5/13=1,5/36=2,99/5=2) pseudo=read geom=check guess=(read
 ,tcheck) scf=(maxcycle=1)\\title\\0,1\O,0,-1.94652051,-1.2449087,-0.50
 001146\C,0,-1.6136933,-0.6363981,0.49033286\C,0,-0.52509337,0.34457793
 ,0.52430256\C,0,0.1236914,0.7801986,-0.7782469\C,0,1.1631722,0.0231240
 9,-0.11677221\C,0,2.4251412,-0.08591534,0.2734611\H,0,-2.12797462,-0.7
 9909339,1.45667175\H,0,0.63867944,-0.89274869,0.38612521\H,0,-0.431276
 14,0.97190928,1.40067051\H,0,-0.35244786,0.32722407,-1.64419319\H,0,0.

 Normal termination of Gaussian 16 at Wed Apr  9 03:20:58 2025.
