 Gaussian 16, Revision C.01,

 ----------------------------------------------------------------------
 #t hf aug-cc-pvdz symm=none int=(grid=ultrafine) guess=(read,tcheck) s
 table=(opt,rrhf)
 ----------------------------------------------------------------------
 -----
 title
 -----
 Symbolic Z-matrix:
 Charge =  0 Multiplicity = 1

 SCF Done:  E(RHF) =  -283.461439706     A.U. after   17 cycles
 Normal termination of Gaussian 16 at Wed Apr  9 03:09:44 2025.
 Gaussian 16:  ES64L-G16RevC.01  3-Jul-2019

 ----------------------------------------------------------------------
 #t hf aug-cc-pvdz iop(5/13=1,5/36=2,99/5=2) pseudo=read geom=check gue
 ss=(read,tcheck) scf=(maxcycle=1)
 ----------------------------------------------------------------------
 -----
 title
 -----
 Structure from the checkpoint file:  "Grambow2020_b97d3_006666_forward_mol1.chk"
 Charge =  0 Multiplicity = 1

                         Standard orientation:
 ---------------------------------------------------------------------
 Center     Atomic      Atomic             Coordinates (Angstroms)
 Number     Number       Type             X           Y           Z
 ---------------------------------------------------------------------
      1          7           0        1.967519   -0.803037   -0.167418
      2          6           0        1.632469    0.232915    0.404966
      3          6           0        0.489458    1.114126    0.057008
      4          6           0       -0.590759    0.148623   -0.499290
      5          6           0       -1.231270   -0.928469    0.271405
      6          8           0       -1.887659    0.334926   -0.074042
      7          1           0        0.873858    1.805798   -0.704061
      8          1           0        0.041678    1.708185    0.867699
      9          1           0        1.263096   -1.121971   -0.899484
     10          1           0       -1.611345   -1.810879   -0.246661
     11          1           0       -1.038040   -1.042453    1.342230
 ---------------------------------------------------------------------

 SCF Done:  E(RHF) =  -284.755315705     A.U. after    2 cycles

 The electronic state is 1-A.
 Alpha  occ. eigenvalues --  -21.10558 -15.77717 -11.50475 -11.47709 -11.45413
 Alpha  occ. eigenvalues --  -11.43919  -1.81605  -1.38036  -1.13697  -0.99325
 Alpha  occ. eigenvalues --   -0.84340  -0.76410  -0.68995  -0.65712  -0.62966
 Alpha  occ. eigenvalues --   -0.61001  -0.49571  -0.45595  -0.45513  -0.40086
 Alpha  occ. eigenvalues --   -0.38471  -0.25408
 Alpha virt. eigenvalues --    0.02085   0.03812   0.05318   0.05785   0.06217
 Alpha virt. eigenvalues --    0.06884   0.08565   0.09300   0.10416   0.11411
 Alpha virt. eigenvalues --    0.12680   0.13788   0.14474   0.15032   0.15359

 Mulliken charges:
               1
     1  N   -2.324310
     2  C    0.977430
     3  C   -2.702476
     4  C    1.408857
     5  C   -1.704867
     6  O   -2.356808
     7  H    1.486337
     8  H    1.499510
     9  H    0.791428
    10  H    1.470852
    11  H    1.454048
 Sum of Mulliken charges =   0.00000

 Dipole moment (field-independent basis, Debye):
    X=             -2.8667    Y=              0.7783    Z=              0.1449  Tot=              2.9740

 Test job not archived.
 1\1\GINC-SE097\SP\RHF\Aug-CC-pVDZ\C4H5N1O1\OHZDE\09-Apr-2025\0\\#t hf
 aug-cc-pvdz iop(5/13=1,5/36=2,99/5=2) pseudo=read geom=check guess=(re
 ad,tcheck) scf=(maxcycle=1)\\title\\0,1\N,0,1.85519421,0.73018667,0.76
 856798\C,0,1.71490651,-0.08141259,-0.14505421\C,0,0.61334316,-1.064048
 09,-0.30337927\C,0,-0.6268649,-0.36004005,0.30881929\C,0,-1.2230856,0.
 88433762,-0.20147204\O,0,-1.81223562,-0.4440133,-0.38784341\H,0,0.9252
 0819,-1.94832354,0.26775736\H,0,0.36271776,-1.3849253,-1.32556269\H,0,
 1.01240473,0.77779087,1.4176374\H,0,-1.76205314,1.54439599,0.48068214\

 Normal termination of Gaussian 16 at Wed Apr  9 03:09:48 2025.
