 Gaussian 16, Revision C.01,

 ----------------------------------------------------------------------
 #t hf aug-cc-pvdz symm=none int=(grid=ultrafine) guess=(read,tcheck) s
 table=(opt,rrhf)
 ----------------------------------------------------------------------
 -----
 title
 -----
 Symbolic Z-matrix:
 Charge =  0 Multiplicity = 1

 SCF Done:  E(RHF) =  -324.864472535     A.U. after   15 cycles
 Normal termination of Gaussian 16 at Wed Apr  9 19:26:29 2025.
 Gaussian 16:  ES64L-G16RevC.01  3-Jul-2019

 ----------------------------------------------------------------------
 #t hf aug-cc-pvdz iop(5/13=1,5/36=2,99/5=2) pseudo=read geom=check gue
 ss=(read,tcheck) scf=(maxcycle=1)
 ----------------------------------------------------------------------
 -----
 title
 -----
 Structure from the checkpoint file:  "Grambow2020_wb97xd3_008958_forward_mol1.chk"
 Charge =  0 Multiplicity = 1

                         Standard orientation:
 ---------------------------------------------------------------------
 Center     Atomic      Atomic             Coordinates (Angstroms)
 Number     Number       Type             X           Y           Z
 ---------------------------------------------------------------------
      1          6           0        2.247197   -1.143995    0.090355
      2          6           0        1.709566    0.149456   -0.424094
      3          7           0        0.425690    0.439662   -0.322871
      4          6           0       -0.276944    1.567371   -0.057786
      5          6           0       -0.540589    0.353368    0.750802
      6          6           0       -1.679767   -0.625036    0.561676
      7          8           0       -2.230131   -0.606680   -0.730692
      8          1           0        3.279266   -1.011837    0.416080
      9          1           0        2.245499   -1.921111   -0.680764
     10          1           0        1.662501   -1.501820    0.938324
     11          1           0        1.894028    1.760050    0.729749
     12          1           0        2.240883    0.656508   -1.223329
     13          1           0        1.124858    2.141984    0.655297
     14          1           0       -0.891366    2.139277   -0.735400
     15          1           0       -0.120344    0.357861    1.762131
     16          1           0       -1.337333   -1.635152    0.830632
     17          1           0       -2.483723   -0.360619    1.251507
     18          1           0       -1.509824   -0.656318   -1.364306
 ---------------------------------------------------------------------

 SCF Done:  E(RHF) =  -326.439860081     A.U. after    2 cycles

 The electronic state is 1-A.
 Alpha  occ. eigenvalues --  -21.06867 -15.79127 -11.48396 -11.46743 -11.43020
 Alpha  occ. eigenvalues --  -11.39660 -11.38702  -1.71909  -1.53444  -1.18558
 Alpha  occ. eigenvalues --   -1.05799  -0.97487  -0.84408  -0.78522  -0.72058
 Alpha  occ. eigenvalues --   -0.67253  -0.64570  -0.61505  -0.59236  -0.56963
 Alpha  occ. eigenvalues --   -0.54708  -0.54089  -0.45811  -0.45109  -0.40483
 Alpha  occ. eigenvalues --   -0.39112  -0.32016  -0.26635
 Alpha virt. eigenvalues --    0.03568   0.04999   0.05282   0.05505   0.05687
 Alpha virt. eigenvalues --    0.06064   0.06648   0.06819   0.07870   0.08991
 Alpha virt. eigenvalues --    0.09509   0.10113   0.12188   0.12281   0.12798

 Mulliken charges:
               1
     1  C   -3.542077
     2  C   -0.285478
     3  N   -1.995129
     4  C   -1.224197
     5  C   -0.941767
     6  C   -0.959498
     7  O   -2.731706
     8  H    1.287884
     9  H    1.259030
    10  H    1.362360
    11  H   -0.140374
    12  H    1.661593
    13  H    0.071108
    14  H    1.267086
    15  H    1.609662
    16  H    1.240354
    17  H    1.236812
    18  H    0.824339
 Sum of Mulliken charges =   0.00000

 Dipole moment (field-independent basis, Debye):
    X=              0.7160    Y=             -1.8776    Z=             -0.7501  Tot=              2.1449

 Test job not archived.
 1\1\GINC-SE048\SP\RHF\Aug-CC-pVDZ\C5H11N1O1\OHZDE\09-Apr-2025\0\\#t hf
  aug-cc-pvdz iop(5/13=1,5/36=2,99/5=2) pseudo=read geom=check guess=(r
 ead,tcheck) scf=(maxcycle=1)\\title\\0,1\C,0,-1.9750301,-0.60172723,-0
 .89406322\C,0,-1.36008885,-0.47074182,0.45923304\N,0,-0.0722494,-0.215
 93285,0.59831741\C,0,0.66126334,0.54308995,1.44774961\C,0,0.83428607,0
 .73244853,-0.01215913\C,0,1.94093817,0.15796137,-0.87009473\O,0,2.5561
 4879,-0.97519663,-0.31249181\H,0,-3.01601914,-0.27940229,-0.85975784\H
 ,0,-1.96591757,-1.63806912,-1.24683592\H,0,-1.44889317,0.01329828,-1.6

 Normal termination of Gaussian 16 at Wed Apr  9 19:26:35 2025.
