 Gaussian 16, Revision C.01,

 ----------------------------------------------------------------------
 #t hf aug-cc-pvdz symm=none int=(grid=ultrafine) guess=(read,tcheck) s
 table=(opt,rrhf)
 ----------------------------------------------------------------------
 -----
 title
 -----
 Symbolic Z-matrix:
 Charge =  0 Multiplicity = 1

 SCF Done:  E(RHF) =  -343.627690760     A.U. after   17 cycles
 Normal termination of Gaussian 16 at Wed Apr  9 03:27:53 2025.
 Gaussian 16:  ES64L-G16RevC.01  3-Jul-2019

 ----------------------------------------------------------------------
 #t hf aug-cc-pvdz iop(5/13=1,5/36=2,99/5=2) pseudo=read geom=check gue
 ss=(read,tcheck) scf=(maxcycle=1)
 ----------------------------------------------------------------------
 -----
 title
 -----
 Structure from the checkpoint file:  "Grambow2020_wb97xd3_006679_reverse_mol1.chk"
 Charge =  0 Multiplicity = 1

                         Standard orientation:
 ---------------------------------------------------------------------
 Center     Atomic      Atomic             Coordinates (Angstroms)
 Number     Number       Type             X           Y           Z
 ---------------------------------------------------------------------
      1          6           0       -1.233823   -0.330770    1.263291
      2          6           0       -0.550739   -0.025717   -0.063969
      3          8           0       -1.024702   -0.855044   -1.092924
      4          6           0       -0.670936    1.442353   -0.462717
      5          6           0        1.528614    1.124220    0.351179
      6          6           0        0.960147   -0.162608    0.072482
      7          8           0        1.581141   -1.204876    0.013156
      8          1           0       -2.312465   -0.216642    1.142780
      9          1           0       -1.020774   -1.357505    1.564300
     10          1           0       -0.887282    0.340239    2.051325
     11          1           0       -0.525614   -1.679200   -1.043363
     12          1           0       -0.524175    1.580386   -1.530775
     13          1           0       -1.586474    1.931821   -0.129953
     14          1           0        2.066997    1.585287   -0.482971
     15          1           0        0.138692    2.010105    0.105211
 ---------------------------------------------------------------------

 SCF Done:  E(RHF) =  -345.173556476     A.U. after    2 cycles

 The electronic state is 1-A.
 Alpha  occ. eigenvalues --  -21.08201 -21.05601 -11.51976 -11.47289 -11.44711
 Alpha  occ. eigenvalues --  -11.42652 -11.38947  -1.76164  -1.69572  -1.26109
 Alpha  occ. eigenvalues --   -1.07470  -1.01350  -0.90114  -0.73843  -0.68007
 Alpha  occ. eigenvalues --   -0.65561  -0.62446  -0.58638  -0.57028  -0.53599
 Alpha  occ. eigenvalues --   -0.51822  -0.48536  -0.46647  -0.42395  -0.34803
 Alpha  occ. eigenvalues --   -0.34181  -0.27739
 Alpha virt. eigenvalues --    0.03399   0.04467   0.05126   0.05368   0.05895
 Alpha virt. eigenvalues --    0.06677   0.07095   0.07406   0.08620   0.09788
 Alpha virt. eigenvalues --    0.11394   0.12335   0.13124   0.14296   0.14364

 Mulliken charges:
               1
     1  C   -4.061597
     2  C    3.334847
     3  O   -3.596888
     4  C   -3.775868
     5  C   -2.882403
     6  C    5.020913
     7  O   -3.385384
     8  H    1.189232
     9  H    1.127297
    10  H    1.346589
    11  H    0.622977
    12  H    1.174089
    13  H    1.194700
    14  H    1.222410
    15  H    1.469087
 Sum of Mulliken charges =  -0.00000

 Dipole moment (field-independent basis, Debye):
    X=             -1.4690    Y=              0.8879    Z=             -1.1375  Tot=              2.0591

 Test job not archived.
 1\1\GINC-SE049\SP\RHF\Aug-CC-pVDZ\C5H8O2\OHZDE\09-Apr-2025\0\\#t hf au
 g-cc-pvdz iop(5/13=1,5/36=2,99/5=2) pseudo=read geom=check guess=(read
 ,tcheck) scf=(maxcycle=1)\\title\\0,1\C,0,-1.44358971,-0.70897894,-0.1
 7776488\C,0,-0.32578356,0.31523945,-0.02688084\O,0,-0.80205038,1.62742
 193,-0.17694901\C,0,0.43124259,0.16885711,1.28999443\C,0,1.80094521,-0
 .75918986,-0.40242958\C,0,0.78715981,0.03833481,-1.02928525\O,0,0.7899
 9587,0.38725277,-2.19278119\H,0,-2.22279286,-0.49589888,0.55603132\H,0
 ,-1.87547254,-0.64414115,-1.17749281\H,0,-1.07431646,-1.72469869,-0.02

 Normal termination of Gaussian 16 at Wed Apr  9 03:27:58 2025.
