 Gaussian 16, Revision C.01,

 ----------------------------------------------------------------------
 #t hf aug-cc-pvdz symm=none int=(grid=ultrafine) guess=(read,tcheck) s
 table=(opt,rrhf)
 ----------------------------------------------------------------------
 -----
 title
 -----
 Symbolic Z-matrix:
 Charge =  0 Multiplicity = 1

 SCF Done:  E(RHF) =  -302.863602839     A.U. after   14 cycles
 Normal termination of Gaussian 16 at Wed Apr  9 19:23:05 2025.
 Gaussian 16:  ES64L-G16RevC.01  3-Jul-2019

 ----------------------------------------------------------------------
 #t hf aug-cc-pvdz iop(5/13=1,5/36=2,99/5=2) pseudo=read geom=check gue
 ss=(read,tcheck) scf=(maxcycle=1)
 ----------------------------------------------------------------------
 -----
 title
 -----
 Structure from the checkpoint file:  "Grambow2020_wb97xd3_008852_reverse_mol2.chk"
 Charge =  0 Multiplicity = 1

                         Standard orientation:
 ---------------------------------------------------------------------
 Center     Atomic      Atomic             Coordinates (Angstroms)
 Number     Number       Type             X           Y           Z
 ---------------------------------------------------------------------
      1          6           0       -3.249026   -0.350876    0.001046
      2          6           0       -1.764711   -0.502716   -0.004988
      3          6           0        1.033869   -0.506588    0.001822
      4          6           0        2.477140   -0.284222    0.000451
      5          7           0        3.608328   -0.094113   -0.000510
      6          6           0        0.294702    0.824719   -0.000915
      7          7           0       -1.153131    0.641976   -0.000071
      8          1           0       -3.659416   -0.875200   -0.865001
      9          1           0       -3.648725   -0.870877    0.874840
     10          1           0       -3.622359    0.687002    0.001076
     11          1           0        0.755440   -1.101596   -0.868117
     12          1           0        0.756269   -1.097061    0.875192
     13          1           0        0.576207    1.406593   -0.882256
     14          1           0        0.575662    1.410024    0.878300
     15          1           0       -1.671291    1.524172    0.005538
 ---------------------------------------------------------------------

 SCF Done:  E(RHF) =  -304.305772522     A.U. after    2 cycles

 The electronic state is 1-A.
 Alpha  occ. eigenvalues --  -15.79959 -15.75553 -11.48266 -11.44681 -11.41259
 Alpha  occ. eigenvalues --  -11.40525 -11.36725  -1.46444  -1.31557  -1.18282
 Alpha  occ. eigenvalues --   -1.08345  -0.95278  -0.80794  -0.73073  -0.69023
 Alpha  occ. eigenvalues --   -0.63752  -0.60082  -0.58392  -0.55991  -0.55824
 Alpha  occ. eigenvalues --   -0.51432  -0.49510  -0.43157  -0.43042  -0.42610
 Alpha  occ. eigenvalues --   -0.33223
 Alpha virt. eigenvalues --    0.03384   0.04446   0.04984   0.05461   0.06148
 Alpha virt. eigenvalues --    0.06305   0.07131   0.07586   0.09422   0.10609
 Alpha virt. eigenvalues --    0.11307   0.12031   0.12886   0.13416   0.14130

 Mulliken charges:
               1
     1  C   -5.395742
     2  C    1.293690
     3  C   -1.598182
     4  C    1.133112
     5  N   -2.256579
     6  C   -1.517689
     7  N   -2.720001
     8  H    1.333010
     9  H    1.333812
    10  H    1.320338
    11  H    1.601827
    12  H    1.594297
    13  H    1.591799
    14  H    1.593628
    15  H    0.692679
 Sum of Mulliken charges =   0.00000

 Dipole moment (field-independent basis, Debye):
    X=             -3.7882    Y=              2.1591    Z=              0.0182  Tot=              4.3603

 Test job not archived.
 1\1\GINC-SE162\SP\RHF\Aug-CC-pVDZ\C5H8N2\OHZDE\09-Apr-2025\0\\#t hf au
 g-cc-pvdz iop(5/13=1,5/36=2,99/5=2) pseudo=read geom=check guess=(read
 ,tcheck) scf=(maxcycle=1)\\title\\0,1\C,0,-2.19979864,1.21599599,-0.98
 564411\C,0,-0.80505273,0.79175535,-0.66785987\C,0,1.69778997,-0.203371
 01,0.09214917\C,0,2.88855783,-0.8586586,0.62614264\N,0,3.81477083,-1.3
 8258248,1.05435054\C,0,0.44274037,-0.80186704,0.71295996\N,0,-0.769776
 78,-0.17027876,0.20255329\H,0,-2.29672984,2.28505176,-0.78292023\H,0,-
 2.36091319,1.10584526,-2.06062483\H,0,-2.99694729,0.67595197,-0.447616

 Normal termination of Gaussian 16 at Wed Apr  9 19:23:10 2025.
