 Gaussian 16, Revision C.01,

 ----------------------------------------------------------------------
 #t hf aug-cc-pvdz symm=none int=(grid=ultrafine) guess=(read,tcheck) s
 table=(opt,rrhf)
 ----------------------------------------------------------------------
 -----
 title
 -----
 Symbolic Z-matrix:
 Charge =  0 Multiplicity = 1

 SCF Done:  E(RHF) =  -287.888962571     A.U. after   16 cycles

 1\1\GINC-SE113\Stability\RHF\Aug-CC-pVDZ\C6H11N1\OHZDE\09-Apr-2025\0\\
 #t hf aug-cc-pvdz symm=none int=(grid=ultrafine) guess=(read,tcheck) s
 table=(opt,rrhf)\\title\\0,1\C,0,-2.52374086,-0.22656076,-1.10772866\C
 ,0,-1.52293084,-0.06104685,0.02777035\C,0,-0.09327842,-0.36440283,-0.4
 0595319\C,0,0.92259635,-0.19870304,0.70720508\C,0,2.45575385,-0.186094
 55,0.30880718\C,0,1.39473789,1.10301454,1.02418445\N,0,1.76715967,2.22
 922597,1.27796065\H,0,-3.54098897,-0.01495562,-0.77514484\H,0,-2.29682
 049,0.45255755,-1.93291458\H,0,-2.50771789,-1.24498828,-1.50341183\H,0

 Normal termination of Gaussian 16 at Wed Apr  9 18:15:34 2025.
 Gaussian 16:  ES64L-G16RevC.01  3-Jul-2019

 ----------------------------------------------------------------------
 #t hf aug-cc-pvdz iop(5/13=1,5/36=2,99/5=2) pseudo=read geom=check gue
 ss=(read,tcheck) scf=(maxcycle=1)
 ----------------------------------------------------------------------
 -----
 title
 -----
 Structure from the checkpoint file:  "Grambow2020_wb97xd3_006810_forward_mol1.chk"
 Charge =  0 Multiplicity = 1

                         Standard orientation:
 ---------------------------------------------------------------------
 Center     Atomic      Atomic             Coordinates (Angstroms)
 Number     Number       Type             X           Y           Z
 ---------------------------------------------------------------------
      1          6           0       -3.078320    0.204840   -0.292681
      2          6           0       -1.731294    0.340326    0.404125
      3          6           0       -0.678598   -0.598794   -0.173745
      4          6           0        0.674036   -0.475998    0.499962
      5          6           0        1.912828   -1.167836   -0.204458
      6          6           0        1.543023    0.580963    0.118444
      7          7           0        2.255130    1.502321   -0.221346
      8          1           0       -3.819870    0.877105    0.141306
      9          1           0       -2.996097    0.443854   -1.355573
     10          1           0       -3.464557   -0.814112   -0.211598
     11          1           0       -1.375389    1.372339    0.324286
     12          1           0       -1.847693    0.138233    1.473903
     13          1           0       -1.004383   -1.639455   -0.076404
     14          1           0       -0.558929   -0.408211   -1.244872
     15          1           0        0.642127   -0.653408    1.574384
     16          1           0        1.626149   -1.650659   -1.133937
     17          1           0        2.665280    0.296548   -0.525914
     18          1           0        2.497402   -1.779484    0.473961
 ---------------------------------------------------------------------

 SCF Done:  E(RHF) =  -289.340362082     A.U. after    2 cycles

 The electronic state is 1-A.
 Alpha  occ. eigenvalues --  -15.75534 -11.51768 -11.47004 -11.43605 -11.39756
 Alpha  occ. eigenvalues --  -11.36588 -11.35983  -1.42639  -1.26570  -1.15880
 Alpha  occ. eigenvalues --   -1.00835  -0.88576  -0.85617  -0.74283  -0.66801
 Alpha  occ. eigenvalues --   -0.63417  -0.62652  -0.57387  -0.55767  -0.55109
 Alpha  occ. eigenvalues --   -0.51557  -0.49084  -0.47953  -0.47319  -0.43717
 Alpha  occ. eigenvalues --   -0.41365  -0.26778
 Alpha virt. eigenvalues --    0.03756   0.04673   0.05123   0.05522   0.05677
 Alpha virt. eigenvalues --    0.06104   0.06625   0.07389   0.07790   0.08241
 Alpha virt. eigenvalues --    0.08882   0.09937   0.11970   0.12845   0.13312

 Mulliken charges:
               1
     1  C   -4.158947
     2  C   -2.929349
     3  C   -3.141391
     4  C   -1.547865
     5  C   -3.098365
     6  C    2.966512
     7  N   -2.462720
     8  H    1.073737
     9  H    1.308205
    10  H    1.289891
    11  H    1.524907
    12  H    1.423593
    13  H    1.467335
    14  H    1.577485
    15  H    1.582981
    16  H    1.170550
    17  H    0.796708
    18  H    1.156730
 Sum of Mulliken charges =  -0.00000

 Dipole moment (field-independent basis, Debye):
    X=             -2.2470    Y=             -1.3858    Z=              0.8603  Tot=              2.7766

 Test job not archived.
 1\1\GINC-SE113\SP\RHF\Aug-CC-pVDZ\C6H11N1\OHZDE\09-Apr-2025\0\\#t hf a
 ug-cc-pvdz iop(5/13=1,5/36=2,99/5=2) pseudo=read geom=check guess=(rea
 d,tcheck) scf=(maxcycle=1)\\title\\0,1\C,0,-2.52374086,-0.22656076,-1.
 10772866\C,0,-1.52293084,-0.06104685,0.02777035\C,0,-0.09327842,-0.364
 40283,-0.40595319\C,0,0.92259635,-0.19870304,0.70720508\C,0,2.45575385
 ,-0.18609455,0.30880718\C,0,1.39473789,1.10301454,1.02418445\N,0,1.767
 15967,2.22922597,1.27796065\H,0,-3.54098897,-0.01495562,-0.77514484\H,
 0,-2.29682049,0.45255755,-1.93291458\H,0,-2.50771789,-1.24498828,-1.50

 Normal termination of Gaussian 16 at Wed Apr  9 18:15:40 2025.
