 Gaussian 16, Revision C.01,

 ----------------------------------------------------------------------
 #t hf aug-cc-pvdz symm=none int=(grid=ultrafine) guess=(read,tcheck) s
 table=(opt,rrhf)
 ----------------------------------------------------------------------
 -----
 title
 -----
 Symbolic Z-matrix:
 Charge =  0 Multiplicity = 1

 SCF Done:  E(RHF) =  -305.667817145     A.U. after   15 cycles
 Normal termination of Gaussian 16 at Wed Apr  9 03:05:54 2025.
 Gaussian 16:  ES64L-G16RevC.01  3-Jul-2019

 ----------------------------------------------------------------------
 #t hf aug-cc-pvdz iop(5/13=1,5/36=2,99/5=2) pseudo=read geom=check gue
 ss=(read,tcheck) scf=(maxcycle=1)
 ----------------------------------------------------------------------
 -----
 title
 -----
 Structure from the checkpoint file:  "Grambow2020_b97d3_006510_reverse_mol1.chk"
 Charge =  0 Multiplicity = 1

                         Standard orientation:
 ---------------------------------------------------------------------
 Center     Atomic      Atomic             Coordinates (Angstroms)
 Number     Number       Type             X           Y           Z
 ---------------------------------------------------------------------
      1          8           0       -1.807466   -1.021481    0.084034
      2          6           0       -1.349052    0.874800    0.010455
      3          6           0       -0.038578    0.404990    0.014449
      4          6           0        0.924155   -0.025913    1.074119
      5          6           0        1.808585   -0.365061   -0.151369
      6          8           0        0.741828    0.135792   -1.051694
      7          1           0       -1.949282   -1.248400   -0.857914
      8          1           0       -1.861732    1.156528   -0.903907
      9          1           0       -1.836466    1.059021    0.963119
     10          1           0       -0.445007    2.092228    0.104147
     11          1           0        1.292394    0.772879    1.726691
     12          1           0        0.557957   -0.876102    1.655692
     13          1           0        1.976308   -1.428939   -0.344410
     14          1           0        2.720274    0.225399   -0.288065
 ---------------------------------------------------------------------

 SCF Done:  E(RHF) =  -307.097467642     A.U. after    2 cycles

 The electronic state is 1-A.
 Alpha  occ. eigenvalues --  -21.12396 -20.93742 -11.57184 -11.50953 -11.47767
 Alpha  occ. eigenvalues --  -11.43520  -1.85711  -1.49479  -1.19058  -1.13670
 Alpha  occ. eigenvalues --   -0.95723  -0.78213  -0.71687  -0.70275  -0.66571
 Alpha  occ. eigenvalues --   -0.58191  -0.55307  -0.54503  -0.49505  -0.42622
 Alpha  occ. eigenvalues --   -0.42479  -0.37977  -0.23724  -0.21843
 Alpha virt. eigenvalues --    0.03075   0.04548   0.04857   0.05301   0.05678
 Alpha virt. eigenvalues --    0.06483   0.07111   0.07890   0.09293   0.11860
 Alpha virt. eigenvalues --    0.12005   0.12121   0.13533   0.14061   0.14318

 Mulliken charges:
               1
     1  O   -1.559675
     2  C   -3.260055
     3  C    5.175124
     4  C   -3.884920
     5  C   -2.261776
     6  O   -3.116388
     7  H    0.823549
     8  H    1.460113
     9  H    1.363438
    10  H    0.100123
    11  H    1.012760
    12  H    1.120914
    13  H    1.517879
    14  H    1.508915
 Sum of Mulliken charges =  -0.00000

 Dipole moment (field-independent basis, Debye):
    X=              3.6555    Y=              0.1184    Z=              0.0884  Tot=              3.6584

 Test job not archived.
 1\1\GINC-SE149\SP\RHF\Aug-CC-pVDZ\C4H8O2\OHZDE\09-Apr-2025\0\\#t hf au
 g-cc-pvdz iop(5/13=1,5/36=2,99/5=2) pseudo=read geom=check guess=(read
 ,tcheck) scf=(maxcycle=1)\\title\\0,1\O,0,-1.92790156,0.64541658,-0.80
 237911\C,0,-1.3153093,-0.8584696,0.28136199\C,0,-0.09106871,-0.1969998
 7,0.23925826\C,0,1.04168442,-0.13570798,-0.73467559\C,0,1.58477666,0.9
 0888091,0.27177622\O,0,0.39456458,0.69172571,1.12947665\H,0,-2.3029429
 7,1.25651336,-0.13546457\H,0,-1.99350495,-0.77093059,1.12436694\H,0,-1
 .55143445,-1.56260809,-0.51079467\H,0,-0.29921174,-1.76962234,0.948859

 Normal termination of Gaussian 16 at Wed Apr  9 03:05:57 2025.
