 Gaussian 16, Revision C.01,

 ----------------------------------------------------------------------
 #t hf aug-cc-pvdz symm=none int=(grid=ultrafine) guess=(read,tcheck) s
 table=(opt,rrhf)
 ----------------------------------------------------------------------
 -----
 title
 -----
 Symbolic Z-matrix:
 Charge =  0 Multiplicity = 1

 SCF Done:  E(RHF) =  -324.999781638     A.U. after   14 cycles
 Normal termination of Gaussian 16 at Wed Apr  9 19:08:11 2025.
 Gaussian 16:  ES64L-G16RevC.01  3-Jul-2019

 ----------------------------------------------------------------------
 #t hf aug-cc-pvdz iop(5/13=1,5/36=2,99/5=2) pseudo=read geom=check gue
 ss=(read,tcheck) scf=(maxcycle=1)
 ----------------------------------------------------------------------
 -----
 title
 -----
 Structure from the checkpoint file:  "Grambow2020_wb97xd3_008118_reverse_mol2.chk"
 Charge =  0 Multiplicity = 1

                         Standard orientation:
 ---------------------------------------------------------------------
 Center     Atomic      Atomic             Coordinates (Angstroms)
 Number     Number       Type             X           Y           Z
 ---------------------------------------------------------------------
      1          6           0       -2.758679   -0.099363   -0.040570
      2          7           0       -1.515950    0.589550    0.265833
      3          6           0       -0.449196    0.006867    0.010912
      4          8           0        0.014751   -1.147816   -0.495854
      5          6           0        0.978879   -0.084595   -0.030574
      6          6           0        1.751297   -0.462223    1.199564
      7          6           0        1.747393    0.564516   -1.144576
      8          1           0       -3.345363    0.517790   -0.722878
      9          1           0       -3.338319   -0.211111    0.877248
     10          1           0       -2.615057   -1.086531   -0.490201
     11          1           0        0.538622    3.077248    1.170963
     12          1           0       -0.062441    2.655017    1.030303
     13          1           0        2.586031   -1.115756    0.937745
     14          1           0        1.114669   -0.969365    1.922734
     15          1           0        2.155348    0.438451    1.665530
     16          1           0        2.162708    1.511596   -0.795361
     17          1           0        2.573964   -0.076772   -1.457664
     18          1           0        1.105321    0.763897   -2.000956
 ---------------------------------------------------------------------

 SCF Done:  E(RHF) =  -326.555645655     A.U. after    2 cycles

 The electronic state is 1-A.
 Alpha  occ. eigenvalues --  -21.08342 -15.72398 -11.52328 -11.46814 -11.40847
 Alpha  occ. eigenvalues --  -11.38945 -11.38246  -1.81878  -1.35797  -1.19394
 Alpha  occ. eigenvalues --   -1.04126  -1.00801  -0.88158  -0.72884  -0.64835
 Alpha  occ. eigenvalues --   -0.64414  -0.61805  -0.60410  -0.58023  -0.57603
 Alpha  occ. eigenvalues --   -0.57171  -0.55835  -0.51887  -0.47860  -0.43166
 Alpha  occ. eigenvalues --   -0.39603  -0.32654  -0.30786
 Alpha virt. eigenvalues --    0.03423   0.05239   0.05302   0.05485   0.05703
 Alpha virt. eigenvalues --    0.06188   0.06863   0.07475   0.07606   0.08445
 Alpha virt. eigenvalues --    0.10233   0.11084   0.12339   0.13360   0.13936

 Mulliken charges:
               1
     1  C   -3.760311
     2  N   -3.762729
     3  C    6.598764
     4  O   -3.291378
     5  C    2.148678
     6  C   -4.815995
     7  C   -4.810759
     8  H    1.396289
     9  H    1.399069
    10  H    1.241306
    11  H    0.163954
    12  H   -0.313902
    13  H    1.232356
    14  H    1.381638
    15  H    1.291205
    16  H    1.280854
    17  H    1.228064
    18  H    1.392897
 Sum of Mulliken charges =  -0.00000

 Dipole moment (field-independent basis, Debye):
    X=              1.4534    Y=             -1.2604    Z=             -0.5459  Tot=              1.9998

 Test job not archived.
 1\1\GINC-SE041\SP\RHF\Aug-CC-pVDZ\C5H11N1O1\OHZDE\09-Apr-2025\0\\#t hf
  aug-cc-pvdz iop(5/13=1,5/36=2,99/5=2) pseudo=read geom=check guess=(r
 ead,tcheck) scf=(maxcycle=1)\\title\\0,1\C,0,2.9087615,0.37742271,0.07
 113194\N,0,1.59366469,0.25961382,-0.53673458\C,0,0.62472154,0.04324631
 ,0.20945716\O,0,0.32621134,-0.14079155,1.50652036\C,0,-0.76650915,-0.1
 7536462,0.4666968\C,0,-1.37096993,-1.53442901,0.26659201\C,0,-1.713827
 1,0.98622735,0.54577\H,0,3.33073796,1.35016509,-0.18641203\H,0,3.56520
 453,-0.38455098,-0.35235137\H,0,2.90102945,0.27157007,1.16018274\H,0,-

 Normal termination of Gaussian 16 at Wed Apr  9 19:08:18 2025.
