 Gaussian 16, Revision C.01,

 ----------------------------------------------------------------------
 #t hf aug-cc-pvdz symm=none int=(grid=ultrafine) guess=(read,tcheck) s
 table=(opt,rrhf)
 ----------------------------------------------------------------------
 -----
 title
 -----
 Symbolic Z-matrix:
 Charge =  0 Multiplicity = 1

 SCF Done:  E(RHF) =  -308.937525108     A.U. after   15 cycles

 1\1\GINC-SE112\Stability\RHF\Aug-CC-pVDZ\C6H12O1\OHZDE\09-Apr-2025\0\\
 #t hf aug-cc-pvdz symm=none int=(grid=ultrafine) guess=(read,tcheck) s
 table=(opt,rrhf)\\title\\0,1\C,0,2.63949789,-1.38575691,0.70846817\O,0
 ,1.38917782,-1.11716262,0.45494165\C,0,0.56901282,-0.3133791,1.0286837
 6\C,0,-0.30782103,1.7316921,-1.14269272\C,0,-1.11116905,1.27231556,0.0
 6704821\C,0,-0.82462853,-0.17787123,0.50828047\C,0,-1.13741813,-1.1957
 0126,-0.58409235\H,0,3.08393444,-2.12640761,0.06910329\H,0,3.13090979,
 -0.88930814,1.5332744\H,0,0.76400915,1.59645359,-0.97773412\H,0,0.9398

 Normal termination of Gaussian 16 at Wed Apr  9 19:12:23 2025.
 Gaussian 16:  ES64L-G16RevC.01  3-Jul-2019

 ----------------------------------------------------------------------
 #t hf aug-cc-pvdz iop(5/13=1,5/36=2,99/5=2) pseudo=read geom=check gue
 ss=(read,tcheck) scf=(maxcycle=1)
 ----------------------------------------------------------------------
 -----
 title
 -----
 Structure from the checkpoint file:  "Grambow2020_wb97xd3_008397_reverse_mol2.chk"
 Charge =  0 Multiplicity = 1

                         Standard orientation:
 ---------------------------------------------------------------------
 Center     Atomic      Atomic             Coordinates (Angstroms)
 Number     Number       Type             X           Y           Z
 ---------------------------------------------------------------------
      1          6           0       -2.784159   -0.520914   -0.249100
      2          8           0       -1.604840    0.024943   -0.144386
      3          6           0       -0.694147   -0.106644    0.750734
      4          6           0        1.812506   -1.217845   -0.714856
      5          6           0        1.787160   -0.351090    0.537327
      6          6           0        0.598132    0.629155    0.609199
      7          6           0        0.579838    1.614966   -0.554818
      8          1           0       -3.353833   -0.211237   -1.106099
      9          1           0       -3.120806   -1.204978    0.517045
     10          1           0        0.872372   -1.761692   -0.836097
     11          1           0       -0.894392   -0.785118    1.575883
     12          1           0        2.618299   -1.951884   -0.663323
     13          1           0        1.969826   -0.622007   -1.615665
     14          1           0        2.715948    0.223944    0.611846
     15          1           0        1.757117   -0.994502    1.422490
     16          1           0        0.744474    1.211344    1.529736
     17          1           0        1.543222    2.122774   -0.630006
     18          1           0        0.384264    1.116770   -1.505064
     19          1           0       -0.193750    2.371272   -0.416572
 ---------------------------------------------------------------------

 SCF Done:  E(RHF) =  -310.488176891     A.U. after    2 cycles

 The electronic state is 1-A.
 Alpha  occ. eigenvalues --  -21.18557 -11.45745 -11.42448 -11.40025 -11.37808
 Alpha  occ. eigenvalues --  -11.37278 -11.35201  -1.87195  -1.26600  -1.08894
 Alpha  occ. eigenvalues --   -1.01093  -0.94133  -0.85317  -0.78635  -0.67887
 Alpha  occ. eigenvalues --   -0.64894  -0.64008  -0.61283  -0.57085  -0.54170
 Alpha  occ. eigenvalues --   -0.52996  -0.52654  -0.49620  -0.45955  -0.44548
 Alpha  occ. eigenvalues --   -0.43411  -0.40906  -0.24996
 Alpha virt. eigenvalues --    0.03810   0.05057   0.05088   0.05257   0.05503
 Alpha virt. eigenvalues --    0.05785   0.05903   0.06450   0.07627   0.08224
 Alpha virt. eigenvalues --    0.08496   0.09300   0.11112   0.12825   0.13457

 Mulliken charges:
               1
     1  C   -1.915347
     2  O   -3.959581
     3  C    1.338885
     4  C   -3.864121
     5  C   -2.871171
     6  C   -1.633943
     7  C   -4.044795
     8  H    1.506045
     9  H    1.501151
    10  H    1.397378
    11  H    1.726950
    12  H    1.095708
    13  H    1.386952
    14  H    1.349926
    15  H    1.347106
    16  H    1.710168
    17  H    1.200578
    18  H    1.511885
    19  H    1.216228
 Sum of Mulliken charges =  -0.00000

 Dipole moment (field-independent basis, Debye):
    X=              0.8388    Y=              0.1583    Z=              0.4428  Tot=              0.9616

 Test job not archived.
 1\1\GINC-SE112\SP\RHF\Aug-CC-pVDZ\C6H12O1\OHZDE\09-Apr-2025\0\\#t hf a
 ug-cc-pvdz iop(5/13=1,5/36=2,99/5=2) pseudo=read geom=check guess=(rea
 d,tcheck) scf=(maxcycle=1)\\title\\0,1\C,0,2.63949789,-1.38575691,0.70
 846817\O,0,1.38917782,-1.11716262,0.45494165\C,0,0.56901282,-0.3133791
 ,1.02868376\C,0,-0.30782103,1.7316921,-1.14269272\C,0,-1.11116905,1.27
 231556,0.06704821\C,0,-0.82462853,-0.17787123,0.50828047\C,0,-1.137418
 13,-1.19570126,-0.58409235\H,0,3.08393444,-2.12640761,0.06910329\H,0,3
 .13090979,-0.88930814,1.5332744\H,0,0.76400915,1.59645359,-0.97773412\

 Normal termination of Gaussian 16 at Wed Apr  9 19:12:30 2025.
