 Gaussian 16, Revision C.01,

 ----------------------------------------------------------------------
 #t hf aug-cc-pvdz symm=none int=(grid=ultrafine) guess=(read,tcheck) s
 table=(opt,rrhf)
 ----------------------------------------------------------------------
 -----
 title
 -----
 Symbolic Z-matrix:
 Charge =  0 Multiplicity = 1

 SCF Done:  E(RHF) =  -338.568931977     A.U. after   16 cycles
 Normal termination of Gaussian 16 at Wed Apr  9 19:14:57 2025.
 Gaussian 16:  ES64L-G16RevC.01  3-Jul-2019

 ----------------------------------------------------------------------
 #t hf aug-cc-pvdz iop(5/13=1,5/36=2,99/5=2) pseudo=read geom=check gue
 ss=(read,tcheck) scf=(maxcycle=1)
 ----------------------------------------------------------------------
 -----
 title
 -----
 Structure from the checkpoint file:  "Grambow2020_wb97xd3_008479_forward_mol1.chk"
 Charge =  0 Multiplicity = 1

                         Standard orientation:
 ---------------------------------------------------------------------
 Center     Atomic      Atomic             Coordinates (Angstroms)
 Number     Number       Type             X           Y           Z
 ---------------------------------------------------------------------
      1          7           0        0.584102    1.564055    0.559128
      2          6           0        0.222571    0.732645   -0.426452
      3          6           0       -0.854210   -0.207652   -0.211261
      4          8           0       -2.137371    0.193062   -0.179032
      5          6           0       -0.232606   -1.302496    0.292299
      6          6           0        1.187322   -1.010615    0.285871
      7          7           0        1.351694   -0.025229   -0.731805
      8          1           0        1.082208    0.366252    1.203895
      9          1           0       -0.221107    1.963556    1.035562
     10          1           0       -2.682760   -0.506432    0.189114
     11          1           0       -0.680214   -2.148232    0.795479
     12          1           0        1.928445   -1.800042    0.382247
     13          1           0        2.183354    0.537330   -0.608049
 ---------------------------------------------------------------------

 SCF Done:  E(RHF) =  -340.141120439     A.U. after    2 cycles

 The electronic state is 1-A.
 Alpha  occ. eigenvalues --  -21.12478 -15.75477 -15.75201 -11.51939 -11.45330
 Alpha  occ. eigenvalues --  -11.44206 -11.38957  -1.78103  -1.54769  -1.26188
 Alpha  occ. eigenvalues --   -1.14760  -0.98947  -0.84010  -0.77928  -0.71486
 Alpha  occ. eigenvalues --   -0.69534  -0.60919  -0.58449  -0.54718  -0.52518
 Alpha  occ. eigenvalues --   -0.49132  -0.44742  -0.41120  -0.38527  -0.33120
 Alpha  occ. eigenvalues --   -0.26713
 Alpha virt. eigenvalues --    0.03553   0.05105   0.05428   0.06203   0.06798
 Alpha virt. eigenvalues --    0.07598   0.08964   0.10242   0.10775   0.11537
 Alpha virt. eigenvalues --    0.12226   0.13423   0.13700   0.14196   0.15340

 Mulliken charges:
               1
     1  N   -2.122415
     2  C    0.210409
     3  C    5.655186
     4  O   -3.797743
     5  C   -1.096835
     6  C   -2.031413
     7  N   -2.069771
     8  H    0.621440
     9  H    0.615509
    10  H    0.916327
    11  H    1.392110
    12  H    1.141993
    13  H    0.565203
 Sum of Mulliken charges =  -0.00000

 Dipole moment (field-independent basis, Debye):
    X=             -1.2942    Y=             -1.1086    Z=              0.8790  Tot=              1.9174

 Test job not archived.
 1\1\GINC-SE229\SP\RHF\Aug-CC-pVDZ\C4H6N2O1\OHZDE\09-Apr-2025\0\\#t hf
 aug-cc-pvdz iop(5/13=1,5/36=2,99/5=2) pseudo=read geom=check guess=(re
 ad,tcheck) scf=(maxcycle=1)\\title\\0,1\N,0,1.51166243,0.90425474,-0.2
 6872466\C,0,0.62944522,0.5203969,0.6627584\C,0,0.12422859,-0.83408823,
 0.65560038\O,0,0.8855218,-1.86718923,1.05715494\C,0,-0.96646177,-0.768
 91618,-0.14739041\C,0,-1.1195193,0.62261724,-0.52374041\N,0,-0.4780253
 5,1.35425187,0.51878706\H,0,0.39330038,0.78824425,-1.18216589\H,0,2.22
 764287,0.19957017,-0.42917242\H,0,0.47953344,-2.69194399,0.77926017\H,

 Normal termination of Gaussian 16 at Wed Apr  9 19:15:01 2025.
