 Gaussian 16, Revision C.01,

 ----------------------------------------------------------------------
 #t hf aug-cc-pvdz symm=none int=(grid=ultrafine) guess=(read,tcheck) s
 table=(opt,rrhf)
 ----------------------------------------------------------------------
 -----
 title
 -----
 Symbolic Z-matrix:
 Charge =  0 Multiplicity = 1

 SCF Done:  E(RHF) =  -306.563427977     A.U. after   16 cycles
 Normal termination of Gaussian 16 at Wed Apr  9 19:09:01 2025.
 Gaussian 16:  ES64L-G16RevC.01  3-Jul-2019

 ----------------------------------------------------------------------
 #t hf aug-cc-pvdz iop(5/13=1,5/36=2,99/5=2) pseudo=read geom=check gue
 ss=(read,tcheck) scf=(maxcycle=1)
 ----------------------------------------------------------------------
 -----
 title
 -----
 Structure from the checkpoint file:  "Grambow2020_wb97xd3_008162_reverse_mol1.chk"
 Charge =  0 Multiplicity = 1

                         Standard orientation:
 ---------------------------------------------------------------------
 Center     Atomic      Atomic             Coordinates (Angstroms)
 Number     Number       Type             X           Y           Z
 ---------------------------------------------------------------------
      1          8           0        2.176402   -0.136826   -0.134562
      2          6           0        0.841319    0.075641    0.162092
      3          6           0        0.063031    1.305232   -0.266052
      4          6           0       -1.248714    0.647544    0.192135
      5          6           0       -1.367130   -0.551632   -0.774413
      6          6           0       -0.175617   -1.068505    0.018976
      7          6           0       -0.693213   -0.369238    1.258250
      8          1           0        2.237866   -0.806646   -0.818058
      9          1           0        0.102496    1.548024   -1.331399
     10          1           0        0.330601    2.185273    0.319132
     11          1           0       -2.087138    1.294997    0.435871
     12          1           0       -2.253198   -1.155936   -0.579638
     13          1           0       -1.279566   -0.360840   -1.847193
     14          1           0        0.219649   -2.081643    0.023951
     15          1           0        0.800024    0.237128    1.327902
 ---------------------------------------------------------------------

 SCF Done:  E(RHF) =  -308.015291030     A.U. after    2 cycles

 The electronic state is 1-A.
 Alpha  occ. eigenvalues --  -21.09662 -11.51897 -11.45339 -11.43191 -11.42401
 Alpha  occ. eigenvalues --  -11.41277 -11.36269  -1.75032  -1.46139  -1.07330
 Alpha  occ. eigenvalues --   -1.02707  -0.91155  -0.81731  -0.74056  -0.72645
 Alpha  occ. eigenvalues --   -0.64660  -0.60158  -0.57376  -0.53454  -0.51628
 Alpha  occ. eigenvalues --   -0.46279  -0.44374  -0.44064  -0.38771  -0.32808
 Alpha  occ. eigenvalues --   -0.30569
 Alpha virt. eigenvalues --    0.03690   0.04747   0.05145   0.05446   0.05872
 Alpha virt. eigenvalues --    0.06128   0.06664   0.08042   0.09817   0.11633
 Alpha virt. eigenvalues --    0.12006   0.12655   0.12844   0.13769   0.14527

 Mulliken charges:
               1
     1  O   -3.449464
     2  C    3.564448
     3  C   -3.327661
     4  C   -1.560342
     5  C   -2.393699
     6  C   -2.186028
     7  C   -0.146385
     8  H    0.532153
     9  H    1.312535
    10  H    1.278032
    11  H    1.510544
    12  H    1.203825
    13  H    1.255678
    14  H    1.468727
    15  H    0.937636
 Sum of Mulliken charges =  -0.00000

 Dipole moment (field-independent basis, Debye):
    X=              0.4471    Y=              0.2452    Z=             -2.8083  Tot=              2.8543

 Test job not archived.
 1\1\GINC-SE222\SP\RHF\Aug-CC-pVDZ\C6H8O1\OHZDE\09-Apr-2025\0\\#t hf au
 g-cc-pvdz iop(5/13=1,5/36=2,99/5=2) pseudo=read geom=check guess=(read
 ,tcheck) scf=(maxcycle=1)\\title\\0,1\O,0,2.1684828,0.89323851,-0.1765
 923\C,0,0.94055511,0.28435632,-0.36906889\C,0,0.61825506,-1.13141262,0
 .06985629\C,0,-0.86829048,-0.90294323,-0.24818574\C,0,-1.25688398,0.18
 690974,0.77527688\C,0,-0.35927328,1.05740831,-0.0923956\C,0,-0.7514242
 5,0.25128653,-1.3126687\H,0,2.08570608,1.53915436,0.52735751\H,0,0.828
 80345,-1.36611171,1.11678245\H,0,1.08618519,-1.87743168,-0.57279628\H,

 Normal termination of Gaussian 16 at Wed Apr  9 19:09:05 2025.
