 Gaussian 16, Revision C.01,

 ----------------------------------------------------------------------
 #t hf aug-cc-pvdz symm=none int=(grid=ultrafine) guess=(read,tcheck) s
 table=(opt,rrhf)
 ----------------------------------------------------------------------
 -----
 title
 -----
 Symbolic Z-matrix:
 Charge =  0 Multiplicity = 1

 SCF Done:  E(RHF) =  -302.853426964     A.U. after   15 cycles
 Normal termination of Gaussian 16 at Wed Apr  9 19:03:55 2025.
 Gaussian 16:  ES64L-G16RevC.01  3-Jul-2019

 ----------------------------------------------------------------------
 #t hf aug-cc-pvdz iop(5/13=1,5/36=2,99/5=2) pseudo=read geom=check gue
 ss=(read,tcheck) scf=(maxcycle=1)
 ----------------------------------------------------------------------
 -----
 title
 -----
 Structure from the checkpoint file:  "Grambow2020_wb97xd3_008032_reverse_mol2.chk"
 Charge =  0 Multiplicity = 1

                         Standard orientation:
 ---------------------------------------------------------------------
 Center     Atomic      Atomic             Coordinates (Angstroms)
 Number     Number       Type             X           Y           Z
 ---------------------------------------------------------------------
      1          6           0        1.679018   -1.494842   -0.040197
      2          6           0        0.625095   -0.427951   -0.340318
      3          6           0       -0.629025   -0.612193    0.524933
      4          7           0       -1.676873    0.354010    0.209930
      5          6           0       -2.811629    0.161656   -0.401509
      6          6           0        1.173568    0.917394   -0.136689
      7          7           0        1.584393    1.971280    0.055283
      8          1           0        1.988587   -1.452825    1.005071
      9          1           0        1.270367   -2.485866   -0.240912
     10          1           0        2.562383   -1.353859   -0.661611
     11          1           0        0.324735   -0.491616   -1.390330
     12          1           0       -0.360218   -0.529646    1.581652
     13          1           0       -1.038090   -1.607741    0.350897
     14          1           0       -1.464156    1.302574    0.498280
     15          1           0       -2.858424   -0.922439   -0.636855
 ---------------------------------------------------------------------

 SCF Done:  E(RHF) =  -304.288407458     A.U. after    2 cycles

 The electronic state is 1-A.
 Alpha  occ. eigenvalues --  -15.80106 -15.76994 -11.50297 -11.46480 -11.43934
 Alpha  occ. eigenvalues --  -11.40968 -11.38538  -1.45989  -1.33485  -1.22761
 Alpha  occ. eigenvalues --   -1.04356  -0.94584  -0.87374  -0.73782  -0.69104
 Alpha  occ. eigenvalues --   -0.63783  -0.60714  -0.58910  -0.56106  -0.55500
 Alpha  occ. eigenvalues --   -0.54465  -0.50621  -0.46152  -0.44258  -0.41602
 Alpha  occ. eigenvalues --   -0.33462
 Alpha virt. eigenvalues --    0.02827   0.04641   0.04903   0.05481   0.05997
 Alpha virt. eigenvalues --    0.06137   0.06990   0.07941   0.09470   0.10324
 Alpha virt. eigenvalues --    0.10541   0.11863   0.12841   0.12975   0.13817

 Mulliken charges:
               1
     1  C   -3.725486
     2  C   -1.715389
     3  C   -2.130816
     4  N   -1.716955
     5  C   -1.638729
     6  C    2.577463
     7  N   -2.530224
     8  H    1.321217
     9  H    1.235995
    10  H    1.244848
    11  H    1.839661
    12  H    1.369216
    13  H    1.564659
    14  H    0.721383
    15  H    1.583157
 Sum of Mulliken charges =  -0.00000

 Dipole moment (field-independent basis, Debye):
    X=              2.0689    Y=             -4.1360    Z=              0.8848  Tot=              4.7085

 Test job not archived.
 1\1\GINC-SE135\SP\RHF\Aug-CC-pVDZ\C5H8N2\OHZDE\09-Apr-2025\0\\#t hf au
 g-cc-pvdz iop(5/13=1,5/36=2,99/5=2) pseudo=read geom=check guess=(read
 ,tcheck) scf=(maxcycle=1)\\title\\0,1\C,0,1.70698036,-0.39168815,-0.87
 088698\C,0,0.4395548,-0.54648751,-0.02901264\C,0,-0.42235784,0.7228519
 7,-0.06514395\N,0,-1.60508412,0.62425994,0.78467926\C,0,-1.8524714,1.2
 2078093,1.91670936\C,0,-0.35131591,-1.69485752,-0.48509252\N,0,-0.9930
 4003,-2.56926159,-0.85914448\H,0,1.4590562,-0.18916531,-1.91381648\H,0
 ,2.30570809,0.43648284,-0.49000671\H,0,2.3100361,-1.29801231,-0.835318

 Normal termination of Gaussian 16 at Wed Apr  9 19:04:00 2025.
