 Gaussian 16, Revision C.01,

 ----------------------------------------------------------------------
 #t hf aug-cc-pvdz symm=none int=(grid=ultrafine) guess=(read,tcheck) s
 table=(opt,rrhf)
 ----------------------------------------------------------------------
 -----
 title
 -----
 Symbolic Z-matrix:
 Charge =  0 Multiplicity = 1

 SCF Done:  E(RHF) =  -322.600470326     A.U. after   15 cycles
 Normal termination of Gaussian 16 at Wed Apr  9 04:04:49 2025.
 Gaussian 16:  ES64L-G16RevC.01  3-Jul-2019

 ----------------------------------------------------------------------
 #t hf aug-cc-pvdz iop(5/13=1,5/36=2,99/5=2) pseudo=read geom=check gue
 ss=(read,tcheck) scf=(maxcycle=1)
 ----------------------------------------------------------------------
 -----
 title
 -----
 Structure from the checkpoint file:  "Grambow2020_wb97xd3_009151_forward_mol1.chk"
 Charge =  0 Multiplicity = 1

                         Standard orientation:
 ---------------------------------------------------------------------
 Center     Atomic      Atomic             Coordinates (Angstroms)
 Number     Number       Type             X           Y           Z
 ---------------------------------------------------------------------
      1          6           0       -1.747003   -1.044159    0.027003
      2          7           0       -0.387174   -0.544634   -0.025799
      3          6           0        0.767676   -1.317444   -0.023235
      4          6           0        1.924725   -0.569232   -0.088609
      5          6           0        1.349059    0.827348   -0.004013
      6          6           0       -0.054773    0.740585   -0.011413
      7          8           0       -1.028690    1.669637   -0.009130
      8          1           0       -2.387378   -0.448658   -0.620822
      9          1           0       -2.132428   -1.001259    1.046083
     10          1           0       -1.746651   -2.076827   -0.314155
     11          1           0        0.647979   -2.391774   -0.016830
     12          1           0        1.835960    0.275594    0.977537
     13          1           0        1.915165    1.734325   -0.166369
     14          1           0       -0.631008    2.541349   -0.050206
 ---------------------------------------------------------------------

 SCF Done:  E(RHF) =  -324.091445642     A.U. after    2 cycles

 The electronic state is 1-A.
 Alpha  occ. eigenvalues --  -21.14491 -15.80455 -11.50508 -11.42839 -11.40594
 Alpha  occ. eigenvalues --  -11.38697 -11.33088  -1.80935  -1.52537  -1.22074
 Alpha  occ. eigenvalues --   -1.02983  -1.02307  -0.80479  -0.77808  -0.71704
 Alpha  occ. eigenvalues --   -0.67306  -0.61859  -0.59644  -0.58323  -0.54869
 Alpha  occ. eigenvalues --   -0.51319  -0.48964  -0.44074  -0.38670  -0.29230
 Alpha  occ. eigenvalues --   -0.25289
 Alpha virt. eigenvalues --    0.02767   0.04422   0.05444   0.05727   0.06013
 Alpha virt. eigenvalues --    0.06549   0.07638   0.10427   0.11143   0.12248
 Alpha virt. eigenvalues --    0.12772   0.12845   0.13524   0.14146   0.14241

 Mulliken charges:
               1
     1  C   -3.351513
     2  N   -3.402538
     3  C    0.011025
     4  C   -1.795354
     5  C   -3.027540
     6  C    5.520914
     7  O   -3.493829
     8  H    1.418142
     9  H    1.436519
    10  H    1.390701
    11  H    1.644669
    12  H    1.378205
    13  H    1.488027
    14  H    0.782574
 Sum of Mulliken charges =   0.00000

 Dipole moment (field-independent basis, Debye):
    X=             -5.8410    Y=              2.2775    Z=              0.4219  Tot=              6.2835

 Test job not archived.
 1\1\GINC-SE132\SP\RHF\Aug-CC-pVDZ\C5H7N1O1\OHZDE\09-Apr-2025\0\\#t hf
 aug-cc-pvdz iop(5/13=1,5/36=2,99/5=2) pseudo=read geom=check guess=(re
 ad,tcheck) scf=(maxcycle=1)\\title\\0,1\C,0,-1.76611432,0.11317623,0.6
 158145\N,0,-0.462039,-0.19409477,0.0622632\C,0,0.01788685,-1.46202138,
 -0.24262064\C,0,1.29437884,-1.45083472,-0.76540073\C,0,1.62737487,0.01
 923044,-0.63498857\C,0,0.49099074,0.70181056,-0.16483549\O,0,0.2367936
 2,2.00281476,0.06846383\H,0,-2.15809303,1.02143059,0.16215678\H,0,-1.7
 0167206,0.25314869,1.69524606\H,0,-2.43467234,-0.71706856,0.40013655\H

 Normal termination of Gaussian 16 at Wed Apr  9 04:04:54 2025.
