 Gaussian 16, Revision C.01,

 ----------------------------------------------------------------------
 #t hf aug-cc-pvdz symm=none int=(grid=ultrafine) guess=(read,tcheck) s
 table=(opt,rrhf)
 ----------------------------------------------------------------------
 -----
 title
 -----
 Symbolic Z-matrix:
 Charge =  0 Multiplicity = 1

 SCF Done:  E(RHF) =  -269.640362033     A.U. after   15 cycles
 Normal termination of Gaussian 16 at Wed Apr  9 03:58:45 2025.
 Gaussian 16:  ES64L-G16RevC.01  3-Jul-2019

 ----------------------------------------------------------------------
 #t hf aug-cc-pvdz iop(5/13=1,5/36=2,99/5=2) pseudo=read geom=check gue
 ss=(read,tcheck) scf=(maxcycle=1)
 ----------------------------------------------------------------------
 -----
 title
 -----
 Structure from the checkpoint file:  "Grambow2020_wb97xd3_008707_reverse_mol2.chk"
 Charge =  0 Multiplicity = 1

                         Standard orientation:
 ---------------------------------------------------------------------
 Center     Atomic      Atomic             Coordinates (Angstroms)
 Number     Number       Type             X           Y           Z
 ---------------------------------------------------------------------
      1          6           0       -1.161782    1.811788   -0.159657
      2          6           0       -0.677155    0.399033    0.063842
      3          6           0        2.860570   -0.448402   -0.472412
      4          6           0        0.575783    0.114369    0.321620
      5          6           0        1.822505   -0.150328    0.571872
      6          6           0       -1.653060   -0.650444   -0.010809
      7          6           0       -2.503276   -1.492977   -0.083603
      8          1           0       -1.912729    2.075997    0.587515
      9          1           0       -1.627377    1.902922   -1.142768
     10          1           0       -0.334073    2.515933   -0.093114
     11          1           0        2.426563   -0.439556   -1.471286
     12          1           0        3.308826   -1.428909   -0.297777
     13          1           0        3.665071    0.289810   -0.436692
     14          1           0        2.139857   -0.163438    1.612421
     15          1           0       -3.247659   -2.250987   -0.143426
 ---------------------------------------------------------------------

 SCF Done:  E(RHF) =  -270.962745623     A.U. after    2 cycles

 The electronic state is 1-A.
 Alpha  occ. eigenvalues --  -11.45923 -11.43401 -11.42254 -11.40635 -11.39870
 Alpha  occ. eigenvalues --  -11.39135 -11.37865  -1.28079  -1.16323  -1.06037
 Alpha  occ. eigenvalues --   -0.99497  -0.91255  -0.77413  -0.68950  -0.64338
 Alpha  occ. eigenvalues --   -0.58932  -0.58068  -0.56571  -0.54928  -0.52881
 Alpha  occ. eigenvalues --   -0.51110  -0.42866  -0.36954  -0.34734  -0.30617
 Alpha virt. eigenvalues --    0.02938   0.04789   0.05339   0.05655   0.06302
 Alpha virt. eigenvalues --    0.06511   0.07073   0.07443   0.09871   0.10716
 Alpha virt. eigenvalues --    0.11121   0.11476   0.11658   0.12456   0.12791

 Mulliken charges:
               1
     1  C   -5.600588
     2  C    0.040099
     3  C   -4.706599
     4  C    3.360083
     5  C   -2.238199
     6  C    5.030636
     7  C   -4.678086
     8  H    0.963059
     9  H    0.940275
    10  H    1.216089
    11  H    1.300682
    12  H    1.179048
    13  H    1.162655
    14  H    1.294959
    15  H    0.735886
 Sum of Mulliken charges =  -0.00000

 Dipole moment (field-independent basis, Debye):
    X=              0.8102    Y=              0.2626    Z=             -0.0218  Tot=              0.8520

 Test job not archived.
 1\1\GINC-SE292\SP\RHF\Aug-CC-pVDZ\C7H8\OHZDE\09-Apr-2025\0\\#t hf aug-
 cc-pvdz iop(5/13=1,5/36=2,99/5=2) pseudo=read geom=check guess=(read,t
 check) scf=(maxcycle=1)\\title\\0,1\C,0,-0.6897752,-0.74824843,-1.9148
 3635\C,0,0.06743812,0.1173017,-0.93598969\C,0,-0.22852458,-0.4865678,2
 .6791118\C,0,0.36499474,-0.28136399,0.27638935\C,0,0.64783516,-0.69085
 326,1.47610796\C,0,0.46715594,1.42090465,-1.38344042\C,0,0.77915532,2.
 50078155,-1.80123139\H,0,-0.08309266,-0.93265324,-2.80361319\H,0,-1.60
 43396,-0.24696337,-2.23713617\H,0,-0.95031053,-1.70276141,-1.46054878\

 Normal termination of Gaussian 16 at Wed Apr  9 03:58:50 2025.
