 Gaussian 16, Revision C.01,

 ----------------------------------------------------------------------
 #t hf aug-cc-pvdz symm=none int=(grid=ultrafine) guess=(read,tcheck) s
 table=(opt,rrhf)
 ----------------------------------------------------------------------
 -----
 title
 -----
 Symbolic Z-matrix:
 Charge =  0 Multiplicity = 1

 SCF Done:  E(RHF) =  -308.908631211     A.U. after   15 cycles

 1\1\GINC-SE454\Stability\RHF\Aug-CC-pVDZ\C6H12O1\OHZDE\09-Apr-2025\0\\
 #t hf aug-cc-pvdz symm=none int=(grid=ultrafine) guess=(read,tcheck) s
 table=(opt,rrhf)\\title\\0,1\C,0,2.4559203,-0.56731661,-0.39458621\O,0
 ,1.06581617,-0.68519825,-0.19122045\C,0,0.5698532,0.1541405,0.78839231
 \C,0,0.06305911,1.50790844,0.31415738\C,0,-1.25445933,1.05314769,-0.30
 551854\C,0,-1.57297208,-0.12318796,0.60798456\C,0,-1.81468713,-1.40452
 264,-0.11076391\H,0,3.01000693,-0.7983963,0.52316966\H,0,2.73226359,0.
 43791324,-0.73167588\H,0,2.72608699,-1.28665034,-1.16569511\H,0,1.2096

 Normal termination of Gaussian 16 at Wed Apr  9 19:12:19 2025.
 Gaussian 16:  ES64L-G16RevC.01  3-Jul-2019

 ----------------------------------------------------------------------
 #t hf aug-cc-pvdz iop(5/13=1,5/36=2,99/5=2) pseudo=read geom=check gue
 ss=(read,tcheck) scf=(maxcycle=1)
 ----------------------------------------------------------------------
 -----
 title
 -----
 Structure from the checkpoint file:  "Grambow2020_wb97xd3_008403_reverse_mol1.chk"
 Charge =  0 Multiplicity = 1

                         Standard orientation:
 ---------------------------------------------------------------------
 Center     Atomic      Atomic             Coordinates (Angstroms)
 Number     Number       Type             X           Y           Z
 ---------------------------------------------------------------------
      1          6           0        2.494557   -0.477202   -0.265874
      2          8           0        1.101514   -0.630085   -0.111923
      3          6           0        0.521756    0.316366    0.711620
      4          6           0       -0.013092    1.563100    0.023131
      5          6           0       -1.277098    0.962963   -0.584145
      6          6           0       -1.595881   -0.084413    0.474668
      7          6           0       -1.748239   -1.465255   -0.060969
      8          1           0        3.008530   -0.548418    0.700276
      9          1           0        2.747861    0.481411   -0.732115
     10          1           0        2.833285   -1.285839   -0.911172
     11          1           0        1.113374    0.471667    1.624777
     12          1           0       -0.263308    2.302767    0.785796
     13          1           0        0.684329    2.020388   -0.681053
     14          1           0       -1.046210    0.527966   -1.565439
     15          1           0       -2.098832    1.671292   -0.713748
     16          1           0       -0.544546   -0.068310    1.266085
     17          1           0       -2.725026   -1.440253   -0.563177
     18          1           0       -1.009574   -1.755453   -0.819973
     19          1           0       -1.804021   -2.229896    0.714545
 ---------------------------------------------------------------------

 SCF Done:  E(RHF) =  -310.424826087     A.U. after    2 cycles

 The electronic state is 1-A.
 Alpha  occ. eigenvalues --  -21.06077 -11.49066 -11.42718 -11.41522 -11.38847
 Alpha  occ. eigenvalues --  -11.37134 -11.34640  -1.78178  -1.28576  -1.07846
 Alpha  occ. eigenvalues --   -1.01975  -0.93861  -0.87935  -0.75679  -0.67027
 Alpha  occ. eigenvalues --   -0.64698  -0.61121  -0.59674  -0.58543  -0.55721
 Alpha  occ. eigenvalues --   -0.55464  -0.50237  -0.48928  -0.46278  -0.41972
 Alpha  occ. eigenvalues --   -0.38867  -0.32020  -0.26135
 Alpha virt. eigenvalues --    0.03913   0.04927   0.05203   0.05231   0.05661
 Alpha virt. eigenvalues --    0.05979   0.06374   0.06655   0.07462   0.08570
 Alpha virt. eigenvalues --    0.08929   0.09753   0.11291   0.11838   0.12704

 Mulliken charges:
               1
     1  C   -2.958383
     2  O   -3.499714
     3  C    0.300695
     4  C   -3.373724
     5  C   -2.670063
     6  C   -1.433260
     7  C   -3.796771
     8  H    1.352726
     9  H    1.363123
    10  H    1.329638
    11  H    1.588460
    12  H    1.295026
    13  H    1.540236
    14  H    1.389093
    15  H    1.283599
    16  H    2.207489
    17  H    1.248575
    18  H    1.574664
    19  H    1.258590
 Sum of Mulliken charges =  -0.00000

 Dipole moment (field-independent basis, Debye):
    X=              2.3554    Y=              0.1508    Z=             -0.8200  Tot=              2.4986

 Test job not archived.
 1\1\GINC-SE454\SP\RHF\Aug-CC-pVDZ\C6H12O1\OHZDE\09-Apr-2025\0\\#t hf a
 ug-cc-pvdz iop(5/13=1,5/36=2,99/5=2) pseudo=read geom=check guess=(rea
 d,tcheck) scf=(maxcycle=1)\\title\\0,1\C,0,2.4559203,-0.56731661,-0.39
 458621\O,0,1.06581617,-0.68519825,-0.19122045\C,0,0.5698532,0.1541405,
 0.78839231\C,0,0.06305911,1.50790844,0.31415738\C,0,-1.25445933,1.0531
 4769,-0.30551854\C,0,-1.57297208,-0.12318796,0.60798456\C,0,-1.8146871
 3,-1.40452264,-0.11076391\H,0,3.01000693,-0.7983963,0.52316966\H,0,2.7
 3226359,0.43791324,-0.73167588\H,0,2.72608699,-1.28665034,-1.16569511\

 Normal termination of Gaussian 16 at Wed Apr  9 19:12:26 2025.
