 Gaussian 16, Revision C.01,

 ----------------------------------------------------------------------
 #t hf aug-cc-pvdz symm=none int=(grid=ultrafine) guess=(read,tcheck) s
 table=(opt,rrhf)
 ----------------------------------------------------------------------
 -----
 title
 -----
 Symbolic Z-matrix:
 Charge =  0 Multiplicity = 1

 SCF Done:  E(RHF) =  -359.645553749     A.U. after   15 cycles
 Normal termination of Gaussian 16 at Wed Apr  9 19:34:12 2025.
 Gaussian 16:  ES64L-G16RevC.01  3-Jul-2019

 ----------------------------------------------------------------------
 #t hf aug-cc-pvdz iop(5/13=1,5/36=2,99/5=2) pseudo=read geom=check gue
 ss=(read,tcheck) scf=(maxcycle=1)
 ----------------------------------------------------------------------
 -----
 title
 -----
 Structure from the checkpoint file:  "Grambow2020_wb97xd3_009412_reverse_mol2.chk"
 Charge =  0 Multiplicity = 1

                         Standard orientation:
 ---------------------------------------------------------------------
 Center     Atomic      Atomic             Coordinates (Angstroms)
 Number     Number       Type             X           Y           Z
 ---------------------------------------------------------------------
      1          8           0       -1.687459    0.078121   -0.902330
      2          6           0       -1.085165   -0.184957    0.375656
      3          6           0       -0.217497   -1.380874    0.342915
      4          8           0        1.162708   -1.084827   -0.030247
      5          6           0        1.544825    0.070499   -0.360986
      6          7           0        0.839509    1.165550   -0.124732
      7          6           0       -0.342668    1.114672    0.718205
      8          1           0       -1.666486   -0.779012   -1.340152
      9          1           0       -1.872715   -0.351559    1.120240
     10          1           0       -0.147917   -1.972873    1.248792
     11          1           0        1.125165    2.023632   -0.558358
     12          1           0        2.497195    0.146230   -0.873911
     13          1           0       -0.060693    1.118116    1.773663
     14          1           0       -0.950085    1.994228    0.508727
 ---------------------------------------------------------------------

 SCF Done:  E(RHF) =  -361.262870988     A.U. after    2 cycles

 The electronic state is 1-A.
 Alpha  occ. eigenvalues --  -21.12582 -21.03059 -15.81316 -11.52417 -11.45296
 Alpha  occ. eigenvalues --  -11.40566 -11.32343  -1.84825  -1.68083  -1.44449
 Alpha  occ. eigenvalues --   -1.13848  -0.96176  -0.93258  -0.79786  -0.74948
 Alpha  occ. eigenvalues --   -0.67109  -0.64392  -0.60031  -0.59082  -0.53904
 Alpha  occ. eigenvalues --   -0.53364  -0.49177  -0.43809  -0.36877  -0.36165
 Alpha  occ. eigenvalues --   -0.29516  -0.22560
 Alpha virt. eigenvalues --    0.02449   0.04242   0.04681   0.05852   0.06703
 Alpha virt. eigenvalues --    0.07090   0.07906   0.09280   0.10684   0.11555
 Alpha virt. eigenvalues --    0.12367   0.13575   0.13871   0.14717   0.14858

 Mulliken charges:
               1
     1  O   -2.993059
     2  C    1.063415
     3  C   -0.917994
     4  O   -3.354254
     5  C    2.050179
     6  N   -2.423369
     7  C   -2.687806
     8  H    0.851932
     9  H    1.635282
    10  H    1.375046
    11  H    0.711197
    12  H    1.875574
    13  H    1.367561
    14  H    1.446296
 Sum of Mulliken charges =  -0.00000

 Dipole moment (field-independent basis, Debye):
    X=              2.8908    Y=              3.7121    Z=              0.2247  Tot=              4.7103

 Test job not archived.
 1\1\GINC-SE045\SP\RHF\Aug-CC-pVDZ\C4H7N1O2\OHZDE\09-Apr-2025\0\\#t hf
 aug-cc-pvdz iop(5/13=1,5/36=2,99/5=2) pseudo=read geom=check guess=(re
 ad,tcheck) scf=(maxcycle=1)\\title\\0,1\O,0,-1.29620546,-0.458279,1.38
 984471\C,0,-1.0539353,0.07751355,0.07856736\C,0,-0.41804891,1.41044157
 ,0.13413278\O,0,1.04054652,1.355096,0.17013595\C,0,1.67871538,0.268749
 44,0.22277755\N,0,1.13507852,-0.90815414,-0.04514461\C,0,-0.19869006,-
 0.99271023,-0.61486818\H,0,-1.32244658,0.32432909,1.94988227\H,0,-2.00
 665693,0.17283025,-0.45587751\H,0,-0.6579676,2.11207048,-0.65711529\H,

 Normal termination of Gaussian 16 at Wed Apr  9 19:34:16 2025.
