 Gaussian 16, Revision C.01,

 ----------------------------------------------------------------------
 #t hf aug-cc-pvdz symm=none int=(grid=ultrafine) guess=(read,tcheck) s
 table=(opt,rrhf)
 ----------------------------------------------------------------------
 -----
 title
 -----
 Symbolic Z-matrix:
 Charge =  0 Multiplicity = 1

 SCF Done:  E(RHF) =  -338.610280297     A.U. after   15 cycles
 Normal termination of Gaussian 16 at Wed Apr  9 19:17:57 2025.
 Gaussian 16:  ES64L-G16RevC.01  3-Jul-2019

 ----------------------------------------------------------------------
 #t hf aug-cc-pvdz iop(5/13=1,5/36=2,99/5=2) pseudo=read geom=check gue
 ss=(read,tcheck) scf=(maxcycle=1)
 ----------------------------------------------------------------------
 -----
 title
 -----
 Structure from the checkpoint file:  "Grambow2020_wb97xd3_008555_forward_mol1.chk"
 Charge =  0 Multiplicity = 1

                         Standard orientation:
 ---------------------------------------------------------------------
 Center     Atomic      Atomic             Coordinates (Angstroms)
 Number     Number       Type             X           Y           Z
 ---------------------------------------------------------------------
      1          7           0       -2.753947    1.167710    0.066200
      2          6           0       -2.632857    0.036450   -0.235222
      3          8           0       -1.043959   -1.075396    0.160196
      4          6           0        0.117825   -0.611640   -0.437704
      5          6           0        1.148695   -0.271329    0.648418
      6          6           0        2.385861    0.266920    0.092758
      7          7           0        3.343882    0.695885   -0.370720
      8          1           0       -2.187286    1.825208    0.578124
      9          1           0       -2.305849   -1.009502   -0.542810
     10          1           0       -0.051455    0.292756   -1.049176
     11          1           0        0.549169   -1.363920   -1.111291
     12          1           0        0.725537    0.460221    1.339855
     13          1           0        1.374869   -1.169160    1.225872
 ---------------------------------------------------------------------

 SCF Done:  E(RHF) =  -340.150720754     A.U. after    2 cycles

 The electronic state is 1-A.
 Alpha  occ. eigenvalues --  -20.99513 -15.85093 -15.74605 -11.55060 -11.46156
 Alpha  occ. eigenvalues --  -11.42555 -11.39409  -1.66148  -1.42142  -1.30805
 Alpha  occ. eigenvalues --   -1.14319  -0.93987  -0.87720  -0.77405  -0.68649
 Alpha  occ. eigenvalues --   -0.66586  -0.57831  -0.57123  -0.54818  -0.52996
 Alpha  occ. eigenvalues --   -0.51321  -0.44759  -0.42269  -0.41356  -0.29939
 Alpha  occ. eigenvalues --   -0.27739
 Alpha virt. eigenvalues --    0.02792   0.04719   0.05576   0.05738   0.06541
 Alpha virt. eigenvalues --    0.07320   0.08272   0.09094   0.09977   0.10641
 Alpha virt. eigenvalues --    0.11488   0.11965   0.13087   0.13916   0.14295

 Mulliken charges:
               1
     1  N   -2.582510
     2  C    0.669793
     3  O   -2.566237
     4  C   -0.815167
     5  C   -3.061955
     6  C    2.415673
     7  N   -2.479386
     8  H    0.777159
     9  H    1.852962
    10  H    1.610991
    11  H    1.250496
    12  H    1.461088
    13  H    1.467094
 Sum of Mulliken charges =  -0.00000

 Dipole moment (field-independent basis, Debye):
    X=             -4.2638    Y=              0.3635    Z=              1.3804  Tot=              4.4964

 Test job not archived.
 1\1\GINC-SE056\SP\RHF\Aug-CC-pVDZ\C4H6N2O1\OHZDE\09-Apr-2025\0\\#t hf
 aug-cc-pvdz iop(5/13=1,5/36=2,99/5=2) pseudo=read geom=check guess=(re
 ad,tcheck) scf=(maxcycle=1)\\title\\0,1\N,0,-2.41760711,1.47484675,0.6
 9183047\C,0,-1.99884398,0.65393312,1.42395446\O,0,-0.15598113,-0.06653
 927,1.38001503\C,0,0.15543818,-0.71604716,0.1953407\C,0,1.33473112,-0.
 00265339,-0.48178818\C,0,1.69066494,-0.60698572,-1.76129705\N,0,1.9430
 7412,-1.09638437,-2.76797731\H,0,-2.02074676,2.01965599,-0.05727529\H,
 0,-1.47241577,-0.1989297,1.96345219\H,0,-0.6912539,-0.73389875,-0.5140

 Normal termination of Gaussian 16 at Wed Apr  9 19:18:01 2025.
