 Gaussian 16, Revision C.01,

 ----------------------------------------------------------------------
 #t hf aug-cc-pvdz symm=none int=(grid=ultrafine) guess=(read,tcheck) s
 table=(opt,rrhf)
 ----------------------------------------------------------------------
 -----
 title
 -----
 Symbolic Z-matrix:
 Charge =  0 Multiplicity = 1

 SCF Done:  E(RHF) =  -307.780948626     A.U. after   15 cycles

 1\1\GINC-SE184\Stability\RHF\Aug-CC-pVDZ\C6H10O1\OHZDE\09-Apr-2025\0\\
 #t hf aug-cc-pvdz symm=none int=(grid=ultrafine) guess=(read,tcheck) s
 table=(opt,rrhf)\\title\\0,1\C,0,1.82920976,-0.59204051,0.19742633\C,0
 ,0.61237301,0.19373581,0.66177507\C,0,0.08352059,1.24621903,-0.3299280
 8\C,0,-1.37061203,0.9263185,-0.42091212\C,0,-1.76717111,0.05005855,0.5
 6468026\C,0,-0.61614352,-0.61326598,0.93166685\O,0,-0.82161104,-1.0884
 0454,-1.27682953\H,0,1.59865836,-1.0867407,-0.74494859\H,0,2.68585673,
 0.07095307,0.06113791\H,0,2.10723429,-1.35024218,0.93272804\H,0,0.8684

 Normal termination of Gaussian 16 at Wed Apr  9 03:45:45 2025.
 Gaussian 16:  ES64L-G16RevC.01  3-Jul-2019

 ----------------------------------------------------------------------
 #t hf aug-cc-pvdz iop(5/13=1,5/36=2,99/5=2) pseudo=read geom=check gue
 ss=(read,tcheck) scf=(maxcycle=1)
 ----------------------------------------------------------------------
 -----
 title
 -----
 Structure from the checkpoint file:  "Grambow2020_wb97xd3_007816_reverse_mol1.chk"
 Charge =  0 Multiplicity = 1

                         Standard orientation:
 ---------------------------------------------------------------------
 Center     Atomic      Atomic             Coordinates (Angstroms)
 Number     Number       Type             X           Y           Z
 ---------------------------------------------------------------------
      1          6           0       -2.118393    0.254642   -0.060563
      2          6           0       -0.886413   -0.515855    0.389230
      3          6           0       -0.037259   -1.128155   -0.739888
      4          6           0        1.341222   -0.654416   -0.422906
      5          6           0        1.421561   -0.114505    0.841422
      6          6           0        0.134108    0.275263    1.141570
      7          8           0        0.627390    1.464988   -0.725689
      8          1           0       -1.815728    1.050751   -0.739207
      9          1           0       -2.822615   -0.408226   -0.567176
     10          1           0       -2.633459    0.699050    0.793863
     11          1           0       -1.217818   -1.307270    1.077311
     12          1           0       -0.356116   -0.778223   -1.719200
     13          1           0       -0.064731   -2.223859   -0.753978
     14          1           0        2.191353   -0.859137   -1.061749
     15          1           0        2.315965    0.286191    1.292170
     16          1           0       -0.132772    0.954752    1.942547
     17          1           0        0.387849    2.164216   -1.352263
 ---------------------------------------------------------------------

 SCF Done:  E(RHF) =  -309.270518665     A.U. after    2 cycles

 The electronic state is 1-A.
 Alpha  occ. eigenvalues --  -20.93784 -11.51230 -11.48993 -11.44627 -11.40230
 Alpha  occ. eigenvalues --  -11.39288 -11.36468  -1.49223  -1.35300  -1.12442
 Alpha  occ. eigenvalues --   -1.05286  -0.95976  -0.81519  -0.78349  -0.72356
 Alpha  occ. eigenvalues --   -0.64669  -0.57853  -0.56063  -0.53212  -0.51550
 Alpha  occ. eigenvalues --   -0.49115  -0.47050  -0.46491  -0.44416  -0.32056
 Alpha  occ. eigenvalues --   -0.24926  -0.23438
 Alpha virt. eigenvalues --    0.03755   0.04583   0.04842   0.05030   0.05297
 Alpha virt. eigenvalues --    0.05970   0.06744   0.07342   0.08299   0.08995
 Alpha virt. eigenvalues --    0.09247   0.11492   0.12267   0.12593   0.14317

 Mulliken charges:
               1
     1  C   -4.197777
     2  C   -1.173228
     3  C   -3.855379
     4  C   -0.973567
     5  C   -0.932361
     6  C   -1.192959
     7  O   -1.201937
     8  H    1.460899
     9  H    1.183251
    10  H    1.146957
    11  H    1.530689
    12  H    1.524086
    13  H    1.203226
    14  H    1.531762
    15  H    1.402324
    16  H    1.601802
    17  H    0.942212
 Sum of Mulliken charges =   0.00000

 Dipole moment (field-independent basis, Debye):
    X=             -0.3790    Y=             -1.7519    Z=              0.6370  Tot=              1.9023

 Test job not archived.
 1\1\GINC-SE184\SP\RHF\Aug-CC-pVDZ\C6H10O1\OHZDE\09-Apr-2025\0\\#t hf a
 ug-cc-pvdz iop(5/13=1,5/36=2,99/5=2) pseudo=read geom=check guess=(rea
 d,tcheck) scf=(maxcycle=1)\\title\\0,1\C,0,1.82920976,-0.59204051,0.19
 742633\C,0,0.61237301,0.19373581,0.66177507\C,0,0.08352059,1.24621903,
 -0.32992808\C,0,-1.37061203,0.9263185,-0.42091212\C,0,-1.76717111,0.05
 005855,0.56468026\C,0,-0.61614352,-0.61326598,0.93166685\O,0,-0.821611
 04,-1.08840454,-1.27682953\H,0,1.59865836,-1.0867407,-0.74494859\H,0,2
 .68585673,0.07095307,0.06113791\H,0,2.10723429,-1.35024218,0.93272804\

 Normal termination of Gaussian 16 at Wed Apr  9 03:45:52 2025.
