 Gaussian 16, Revision C.01,

 ----------------------------------------------------------------------
 #t hf aug-cc-pvdz symm=none int=(grid=ultrafine) guess=(read,tcheck) s
 table=(opt,rrhf)
 ----------------------------------------------------------------------
 -----
 title
 -----
 Symbolic Z-matrix:
 Charge =  0 Multiplicity = 1

 SCF Done:  E(RHF) =  -269.916000200     A.U. after   15 cycles

 1\1\GINC-SE162\Stability\RHF\Aug-CC-pVDZ\C5H10O1\OHZDE\09-Apr-2025\0\\
 #t hf aug-cc-pvdz symm=none int=(grid=ultrafine) guess=(read,tcheck) s
 table=(opt,rrhf)\\title\\0,1\O,0,2.44156903,0.32411607,0.07955544\C,0,
 1.36733465,-0.54625913,0.34639332\C,0,0.07152402,-0.18870858,-0.383494
 87\C,0,-0.99409191,-1.24031819,-0.08233781\C,0,-1.60326655,1.44462784,
 -0.74117987\C,0,-0.36683374,1.25906703,0.02277967\H,0,2.34194069,1.120
 00659,0.60356809\H,0,1.68643668,-1.53396881,0.00431424\H,0,1.1742052,-
 0.61926558,1.4253602\H,0,0.27898264,-0.17704836,-1.45562698\H,0,-1.311

 Normal termination of Gaussian 16 at Wed Apr  9 17:46:37 2025.
 Gaussian 16:  ES64L-G16RevC.01  3-Jul-2019

 ----------------------------------------------------------------------
 #t hf aug-cc-pvdz iop(5/13=1,5/36=2,99/5=2) pseudo=read geom=check gue
 ss=(read,tcheck) scf=(maxcycle=1)
 ----------------------------------------------------------------------
 -----
 title
 -----
 Structure from the checkpoint file:  "Grambow2020_wb97xd3_006159_reverse_mol2.chk"
 Charge =  0 Multiplicity = 1

                         Standard orientation:
 ---------------------------------------------------------------------
 Center     Atomic      Atomic             Coordinates (Angstroms)
 Number     Number       Type             X           Y           Z
 ---------------------------------------------------------------------
      1          8           0       -2.179891   -0.549524   -0.184453
      2          6           0       -1.303554    0.494219    0.169622
      3          6           0        0.132968    0.303045   -0.319827
      4          6           0        0.968692    1.526104    0.051398
      5          6           0        2.064796   -1.063281   -0.276844
      6          6           0        0.705781   -1.030184    0.269798
      7          1           0       -2.052384   -1.286783    0.414001
      8          1           0       -1.703203    1.396722   -0.299616
      9          1           0       -1.303549    0.661384    1.255372
     10          1           0        0.108872    0.194485   -1.406232
     11          1           0        1.113129    1.592703    1.133357
     12          1           0        0.472726    2.442379   -0.276090
     13          1           0        1.953331    1.502174   -0.419266
     14          1           0        2.746279   -0.659566    0.497470
     15          1           0        0.600002   -0.995941    1.363733
     16          1           0        0.091826   -1.830798   -0.151987
 ---------------------------------------------------------------------

 SCF Done:  E(RHF) =  -271.196885550     A.U. after    2 cycles

 The electronic state is 1-A.
 Alpha  occ. eigenvalues --  -21.07493 -11.44882 -11.43146 -11.41523 -11.39530
 Alpha  occ. eigenvalues --  -11.36655  -1.72085  -1.27536  -1.07478  -0.98533
 Alpha  occ. eigenvalues --   -0.85741  -0.78984  -0.68542  -0.62076  -0.61327
 Alpha  occ. eigenvalues --   -0.58988  -0.57342  -0.53019  -0.48176  -0.46860
 Alpha  occ. eigenvalues --   -0.44639  -0.40704  -0.33579  -0.31941
 Alpha virt. eigenvalues --    0.04000   0.04912   0.05100   0.05277   0.05666
 Alpha virt. eigenvalues --    0.06006   0.06438   0.06925   0.07471   0.08422
 Alpha virt. eigenvalues --    0.09392   0.12027   0.13179   0.13895   0.14145

 Mulliken charges:
               1
     1  O   -2.725756
     2  C   -0.479229
     3  C   -1.376940
     4  C   -3.703107
     5  C   -2.315602
     6  C   -2.393359
     7  H    0.678200
     8  H    1.228513
     9  H    1.487740
    10  H    1.799326
    11  H    1.249529
    12  H    1.182938
    13  H    1.258524
    14  H    1.314588
    15  H    1.298239
    16  H    1.496394
 Sum of Mulliken charges =  -0.00000

 Dipole moment (field-independent basis, Debye):
    X=             -0.9953    Y=              0.9514    Z=              1.9907  Tot=              2.4205

 Test job not archived.
 1\1\GINC-SE162\SP\RHF\Aug-CC-pVDZ\C5H10O1\OHZDE\09-Apr-2025\0\\#t hf a
 ug-cc-pvdz iop(5/13=1,5/36=2,99/5=2) pseudo=read geom=check guess=(rea
 d,tcheck) scf=(maxcycle=1)\\title\\0,1\O,0,2.44156903,0.32411607,0.079
 55544\C,0,1.36733465,-0.54625913,0.34639332\C,0,0.07152402,-0.18870858
 ,-0.38349487\C,0,-0.99409191,-1.24031819,-0.08233781\C,0,-1.60326655,1
 .44462784,-0.74117987\C,0,-0.36683374,1.25906703,0.02277967\H,0,2.3419
 4069,1.12000659,0.60356809\H,0,1.68643668,-1.53396881,0.00431424\H,0,1
 .1742052,-0.61926558,1.4253602\H,0,0.27898264,-0.17704836,-1.45562698\

 Normal termination of Gaussian 16 at Wed Apr  9 17:46:41 2025.
