 Gaussian 16, Revision C.01,

 ----------------------------------------------------------------------
 #t hf aug-cc-pvdz symm=none int=(grid=ultrafine) guess=(read,tcheck) s
 table=(opt,rrhf)
 ----------------------------------------------------------------------
 -----
 title
 -----
 Symbolic Z-matrix:
 Charge =  0 Multiplicity = 1

 SCF Done:  E(RHF) =  -307.736824254     A.U. after   17 cycles

 1\1\GINC-SE097\Stability\RHF\Aug-CC-pVDZ\C6H10O1\OHZDE\09-Apr-2025\0\\
 #t hf aug-cc-pvdz symm=none int=(grid=ultrafine) guess=(read,tcheck) s
 table=(opt,rrhf)\\title\\0,1\C,0,1.52691954,-0.53371165,-0.70192557\C,
 0,0.66964455,-0.09207557,0.49929573\C,0,0.15701629,1.34596631,0.307560
 35\C,0,-0.97396687,1.19726024,-0.69286291\C,0,-1.57221245,-0.14692406,
 -0.28151932\C,0,-0.60590861,-0.87663072,0.42302177\O,0,-0.66932003,-2.
 21220747,0.56503939\H,0,0.96919123,-0.39264423,-1.63086183\H,0,2.43156
 886,0.07441408,-0.75733927\H,0,1.82110557,-1.58217448,-0.62187833\H,0,

 Normal termination of Gaussian 16 at Wed Apr  9 03:45:50 2025.
 Gaussian 16:  ES64L-G16RevC.01  3-Jul-2019

 ----------------------------------------------------------------------
 #t hf aug-cc-pvdz iop(5/13=1,5/36=2,99/5=2) pseudo=read geom=check gue
 ss=(read,tcheck) scf=(maxcycle=1)
 ----------------------------------------------------------------------
 -----
 title
 -----
 Structure from the checkpoint file:  "Grambow2020_wb97xd3_007813_reverse_mol1.chk"
 Charge =  0 Multiplicity = 1

                         Standard orientation:
 ---------------------------------------------------------------------
 Center     Atomic      Atomic             Coordinates (Angstroms)
 Number     Number       Type             X           Y           Z
 ---------------------------------------------------------------------
      1          6           0        0.256617    1.723986   -0.679733
      2          6           0        0.008672    0.805797    0.532022
      3          6           0       -1.461063    0.353520    0.585291
      4          6           0       -1.550709   -0.714811   -0.488356
      5          6           0       -0.181105   -1.381628   -0.372279
      6          6           0        0.708565   -0.486957    0.236526
      7          8           0        2.043169   -0.602685    0.120796
      8          1           0       -0.078995    1.232203   -1.595920
      9          1           0       -0.310864    2.649575   -0.567801
     10          1           0        1.313588    1.978232   -0.781707
     11          1           0        0.335886    1.298690    1.451802
     12          1           0       -2.152430    1.185425    0.437239
     13          1           0       -1.654800   -0.050999    1.597402
     14          1           0       -2.414816   -1.376259   -0.459266
     15          1           0        0.190393   -2.159610   -1.029808
     16          1           0       -0.730753   -1.842982    0.496909
     17          1           0        2.471571    0.107761    0.603954
 ---------------------------------------------------------------------

 SCF Done:  E(RHF) =  -309.219064068     A.U. after    2 cycles

 The electronic state is 1-A.
 Alpha  occ. eigenvalues --  -21.13991 -11.51837 -11.43585 -11.41144 -11.39686
 Alpha  occ. eigenvalues --  -11.37481 -11.33124  -1.79157  -1.34897  -1.12283
 Alpha  occ. eigenvalues --   -1.01473  -0.94842  -0.80719  -0.76927  -0.69603
 Alpha  occ. eigenvalues --   -0.65458  -0.61354  -0.56151  -0.55507  -0.53152
 Alpha  occ. eigenvalues --   -0.50519  -0.49234  -0.47512  -0.43720  -0.41401
 Alpha  occ. eigenvalues --   -0.39916  -0.18302
 Alpha virt. eigenvalues --    0.03324   0.04642   0.04837   0.05674   0.06030
 Alpha virt. eigenvalues --    0.06212   0.06519   0.06688   0.07776   0.08994
 Alpha virt. eigenvalues --    0.09753   0.11268   0.12119   0.12582   0.13397

 Mulliken charges:
               1
     1  C   -3.820627
     2  C   -2.415477
     3  C   -3.285151
     4  C   -1.358772
     5  C   -3.269869
     6  C    4.514821
     7  O   -3.757384
     8  H    1.476425
     9  H    1.271219
    10  H    1.159228
    11  H    1.707994
    12  H    1.524922
    13  H    1.056316
    14  H    1.276388
    15  H    1.335393
    16  H    1.708788
    17  H    0.875787
 Sum of Mulliken charges =   0.00000

 Dipole moment (field-independent basis, Debye):
    X=              3.3391    Y=              0.5041    Z=              1.5930  Tot=              3.7339

 Test job not archived.
 1\1\GINC-SE097\SP\RHF\Aug-CC-pVDZ\C6H10O1\OHZDE\09-Apr-2025\0\\#t hf a
 ug-cc-pvdz iop(5/13=1,5/36=2,99/5=2) pseudo=read geom=check guess=(rea
 d,tcheck) scf=(maxcycle=1)\\title\\0,1\C,0,1.52691954,-0.53371165,-0.7
 0192557\C,0,0.66964455,-0.09207557,0.49929573\C,0,0.15701629,1.3459663
 1,0.30756035\C,0,-0.97396687,1.19726024,-0.69286291\C,0,-1.57221245,-0
 .14692406,-0.28151932\C,0,-0.60590861,-0.87663072,0.42302177\O,0,-0.66
 932003,-2.21220747,0.56503939\H,0,0.96919123,-0.39264423,-1.63086183\H
 ,0,2.43156886,0.07441408,-0.75733927\H,0,1.82110557,-1.58217448,-0.621

 Normal termination of Gaussian 16 at Wed Apr  9 03:45:56 2025.
