 Gaussian 16, Revision C.01,

 ----------------------------------------------------------------------
 #t hf aug-cc-pvdz symm=none int=(grid=ultrafine) guess=(read,tcheck) s
 table=(opt,rrhf)
 ----------------------------------------------------------------------
 -----
 title
 -----
 Symbolic Z-matrix:
 Charge =  0 Multiplicity = 1

 SCF Done:  E(RHF) =  -279.812230075     A.U. after   15 cycles
 Normal termination of Gaussian 16 at Wed Apr  9 17:10:06 2025.
 Gaussian 16:  ES64L-G16RevC.01  3-Jul-2019

 ----------------------------------------------------------------------
 #t hf aug-cc-pvdz iop(5/13=1,5/36=2,99/5=2) pseudo=read geom=check gue
 ss=(read,tcheck) scf=(maxcycle=1)
 ----------------------------------------------------------------------
 -----
 title
 -----
 Structure from the checkpoint file:  "Grambow2020_b97d3_007058_reverse_mol2.chk"
 Charge =  0 Multiplicity = 1

                         Standard orientation:
 ---------------------------------------------------------------------
 Center     Atomic      Atomic             Coordinates (Angstroms)
 Number     Number       Type             X           Y           Z
 ---------------------------------------------------------------------
      1          7           0       -1.856649   -0.711762    0.070492
      2          6           0       -0.748319    0.119328   -0.036794
      3          6           0        0.546371   -0.609226   -0.221939
      4          6           0        1.761131    0.149364   -0.451123
      5          7           0        1.715240   -0.248238    0.745899
      6          7           0       -0.719885    1.406823    0.044789
      7          1           0       -1.769981   -1.666046   -0.264457
      8          1           0       -2.767654   -0.296663   -0.097204
      9          1           0        0.494579   -1.666421   -0.500703
     10          1           0        2.380017    0.756824   -1.108590
     11          1           0       -1.662998    1.787755    0.201830
 ---------------------------------------------------------------------

 SCF Done:  E(RHF) =  -281.089507343     A.U. after    2 cycles

 The electronic state is 1-A.
 Alpha  occ. eigenvalues --  -15.77772 -15.77528 -15.71118 -11.50975 -11.46817
 Alpha  occ. eigenvalues --  -11.42207  -1.48644  -1.39187  -1.23183  -0.98603
 Alpha  occ. eigenvalues --   -0.83384  -0.79404  -0.69877  -0.69569  -0.61620
 Alpha  occ. eigenvalues --   -0.56663  -0.53326  -0.48272  -0.40108  -0.38945
 Alpha  occ. eigenvalues --   -0.37346  -0.32406
 Alpha virt. eigenvalues --    0.03193   0.04839   0.05181   0.05869   0.07564
 Alpha virt. eigenvalues --    0.10219   0.10806   0.11970   0.12154   0.12864
 Alpha virt. eigenvalues --    0.13929   0.14560   0.15173   0.15859   0.17097

 Mulliken charges:
               1
     1  N   -3.136169
     2  C    3.350103
     3  C   -1.079471
     4  C    1.116307
     5  N   -1.601160
     6  N   -3.204890
     7  H    0.713010
     8  H    0.632231
     9  H    1.448620
    10  H    1.008255
    11  H    0.753164
 Sum of Mulliken charges =   0.00000

 Dipole moment (field-independent basis, Debye):
    X=             -1.5264    Y=             -1.7801    Z=             -2.1740  Tot=              3.1977

 Test job not archived.
 1\1\GINC-SE103\SP\RHF\Aug-CC-pVDZ\C3H5N3\OHZDE\09-Apr-2025\0\\#t hf au
 g-cc-pvdz iop(5/13=1,5/36=2,99/5=2) pseudo=read geom=check guess=(read
 ,tcheck) scf=(maxcycle=1)\\title\\0,1\N,0,-1.71273688,-0.09319962,0.27
 622751\C,0,-0.43108621,0.34399168,-0.03498301\C,0,0.64326232,-0.658214
 65,0.25250517\C,0,2.01133119,-0.36042743,-0.12609139\N,0,1.85384438,-0
 .18229292,1.11347274\N,0,-0.0836474,1.49958233,-0.49215299\H,0,-1.8627
 1904,-1.09173591,0.38010297\H,0,-2.48953238,0.39819737,-0.15444198\H,0
 ,0.3328964,-1.69212711,0.43348022\H,0,2.76969984,-0.24840637,-0.898502

 Normal termination of Gaussian 16 at Wed Apr  9 17:10:10 2025.
