 Gaussian 16, Revision C.01,

 ----------------------------------------------------------------------
 #t hf aug-cc-pvdz symm=none int=(grid=ultrafine) guess=(read,tcheck) s
 table=(opt,rrhf)
 ----------------------------------------------------------------------
 -----
 title
 -----
 Symbolic Z-matrix:
 Charge =  0 Multiplicity = 1

 SCF Done:  E(RHF) =  -308.960181991     A.U. after   15 cycles

 1\1\GINC-SE056\Stability\RHF\Aug-CC-pVDZ\C6H12O1\OHZDE\09-Apr-2025\0\\
 #t hf aug-cc-pvdz symm=none int=(grid=ultrafine) guess=(read,tcheck) s
 table=(opt,rrhf)\\title\\0,1\C,0,2.09395712,-0.25283406,-0.74161548\O,
 0,0.75815563,-0.64596875,-0.5681102\C,0,0.16011016,-0.23160517,0.65384
 194\C,0,-0.03776707,1.29360813,0.73076963\C,0,-0.99711303,1.80554726,-
 0.33477981\C,0,-1.08378042,-0.92240949,1.01244013\C,0,-1.47525603,-1.9
 9555457,0.09928746\H,0,2.70366783,-0.50224833,0.13724952\H,0,2.1927303
 2,0.82099503,-0.93868603\H,0,2.48333788,-0.79755458,-1.60128869\H,0,0.

 Normal termination of Gaussian 16 at Wed Apr  9 19:13:22 2025.
 Gaussian 16:  ES64L-G16RevC.01  3-Jul-2019

 ----------------------------------------------------------------------
 #t hf aug-cc-pvdz iop(5/13=1,5/36=2,99/5=2) pseudo=read geom=check gue
 ss=(read,tcheck) scf=(maxcycle=1)
 ----------------------------------------------------------------------
 -----
 title
 -----
 Structure from the checkpoint file:  "Grambow2020_wb97xd3_008407_reverse_mol2.chk"
 Charge =  0 Multiplicity = 1

                         Standard orientation:
 ---------------------------------------------------------------------
 Center     Atomic      Atomic             Coordinates (Angstroms)
 Number     Number       Type             X           Y           Z
 ---------------------------------------------------------------------
      1          6           0        1.408457   -1.777082   -0.139632
      2          8           0        0.222271   -1.060343   -0.359340
      3          6           0       -0.083308   -0.081034    0.625594
      4          6           0        0.904144    1.100558    0.614359
      5          6           0        0.860679    1.876538   -0.694758
      6          6           0       -1.464811    0.413341    0.614980
      7          6           0       -2.343479   -0.240693   -0.354001
      8          1           0        1.455013   -2.173092    0.883777
      9          1           0        2.303969   -1.170411   -0.317711
     10          1           0        1.415667   -2.614050   -0.837349
     11          1           0       -0.022676   -0.549495    1.628866
     12          1           0        0.648197    1.747914    1.453353
     13          1           0        1.913273    0.723044    0.796553
     14          1           0        1.057615    1.222842   -1.546271
     15          1           0        1.604573    2.674500   -0.701621
     16          1           0       -0.120844    2.334478   -0.842675
     17          1           0       -3.299309    0.262590   -0.490682
     18          1           0       -1.876332   -0.523100   -1.303403
     19          1           0       -2.547407   -1.202244    0.152631
 ---------------------------------------------------------------------

 SCF Done:  E(RHF) =  -310.449087982     A.U. after    2 cycles

 The electronic state is 1-A.
 Alpha  occ. eigenvalues --  -21.03966 -11.46764 -11.41215 -11.40519 -11.39747
 Alpha  occ. eigenvalues --  -11.37209 -11.35324  -1.76002  -1.22728  -1.12729
 Alpha  occ. eigenvalues --   -1.01394  -0.95673  -0.86323  -0.72856  -0.65737
 Alpha  occ. eigenvalues --   -0.63448  -0.60541  -0.59539  -0.58358  -0.55612
 Alpha  occ. eigenvalues --   -0.54259  -0.50685  -0.48864  -0.47292  -0.44397
 Alpha  occ. eigenvalues --   -0.37638  -0.30525  -0.29527
 Alpha virt. eigenvalues --    0.03619   0.04918   0.05184   0.05297   0.05582
 Alpha virt. eigenvalues --    0.05896   0.06310   0.06560   0.07240   0.08049
 Alpha virt. eigenvalues --    0.08902   0.09022   0.10019   0.11901   0.12812

 Mulliken charges:
               1
     1  C   -3.096839
     2  O   -3.469465
     3  C    1.533096
     4  C   -3.181521
     5  C   -3.833529
     6  C   -1.072142
     7  C   -3.830193
     8  H    1.324708
     9  H    1.498443
    10  H    1.300262
    11  H    1.879524
    12  H    1.426170
    13  H    1.529789
    14  H    1.424226
    15  H    1.114961
    16  H    1.374621
    17  H    1.304236
    18  H    1.469511
    19  H    1.304143
 Sum of Mulliken charges =  -0.00000

 Dipole moment (field-independent basis, Debye):
    X=              1.1030    Y=             -1.3809    Z=             -0.8993  Tot=              1.9829

 Test job not archived.
 1\1\GINC-SE056\SP\RHF\Aug-CC-pVDZ\C6H12O1\OHZDE\09-Apr-2025\0\\#t hf a
 ug-cc-pvdz iop(5/13=1,5/36=2,99/5=2) pseudo=read geom=check guess=(rea
 d,tcheck) scf=(maxcycle=1)\\title\\0,1\C,0,2.09395712,-0.25283406,-0.7
 4161548\O,0,0.75815563,-0.64596875,-0.5681102\C,0,0.16011016,-0.231605
 17,0.65384194\C,0,-0.03776707,1.29360813,0.73076963\C,0,-0.99711303,1.
 80554726,-0.33477981\C,0,-1.08378042,-0.92240949,1.01244013\C,0,-1.475
 25603,-1.99555457,0.09928746\H,0,2.70366783,-0.50224833,0.13724952\H,0
 ,2.19273032,0.82099503,-0.93868603\H,0,2.48333788,-0.79755458,-1.60128

 Normal termination of Gaussian 16 at Wed Apr  9 19:13:29 2025.
