 Gaussian 16, Revision C.01,

 ----------------------------------------------------------------------
 #t hf aug-cc-pvdz symm=none int=(grid=ultrafine) guess=(read,tcheck) s
 table=(opt,rrhf)
 ----------------------------------------------------------------------
 -----
 title
 -----
 Symbolic Z-matrix:
 Charge =  0 Multiplicity = 1

 SCF Done:  E(RHF) =  -323.634636584     A.U. after   17 cycles
 Normal termination of Gaussian 16 at Wed Apr  9 18:16:54 2025.
 Gaussian 16:  ES64L-G16RevC.01  3-Jul-2019

 ----------------------------------------------------------------------
 #t hf aug-cc-pvdz iop(5/13=1,5/36=2,99/5=2) pseudo=read geom=check gue
 ss=(read,tcheck) scf=(maxcycle=1)
 ----------------------------------------------------------------------
 -----
 title
 -----
 Structure from the checkpoint file:  "Grambow2020_wb97xd3_006828_reverse_mol1.chk"
 Charge =  0 Multiplicity = 1

                         Standard orientation:
 ---------------------------------------------------------------------
 Center     Atomic      Atomic             Coordinates (Angstroms)
 Number     Number       Type             X           Y           Z
 ---------------------------------------------------------------------
      1          6           0       -1.497670    1.892068    0.122465
      2          6           0        0.812687    0.961895   -0.299137
      3          6           0        2.147706    0.356532    0.130030
      4          6           0        1.429304   -1.038694    0.094664
      5          6           0        0.162858   -0.229194   -0.097692
      6          7           0       -1.108980   -0.372442    0.186842
      7          8           0       -1.569203   -1.626808   -0.199249
      8          1           0       -1.616812    1.805733    1.192185
      9          1           0       -2.351907    1.600118   -0.469305
     10          1           0       -0.994663    2.785990   -0.219732
     11          1           0        0.639170    1.709616   -1.054204
     12          1           0        2.975177    0.483309   -0.570292
     13          1           0        2.482477    0.630541    1.131777
     14          1           0        1.471849   -1.659376    0.990785
     15          1           0        1.720053   -1.623983   -0.776483
     16          1           0       -2.338157   -1.766027    0.359376
 ---------------------------------------------------------------------

 SCF Done:  E(RHF) =  -325.173965445     A.U. after    2 cycles

 The electronic state is 1-A.
 Alpha  occ. eigenvalues --  -21.08605 -15.75207 -11.47130 -11.43492 -11.41110
 Alpha  occ. eigenvalues --  -11.38871 -11.34998  -1.77695  -1.35543  -1.15424
 Alpha  occ. eigenvalues --   -1.00558  -0.93708  -0.88106  -0.71968  -0.64489
 Alpha  occ. eigenvalues --   -0.63757  -0.61772  -0.58526  -0.57046  -0.54194
 Alpha  occ. eigenvalues --   -0.49471  -0.46111  -0.44094  -0.42213  -0.37239
 Alpha  occ. eigenvalues --   -0.28930  -0.23169
 Alpha virt. eigenvalues --    0.03063   0.04836   0.05518   0.05933   0.06173
 Alpha virt. eigenvalues --    0.06240   0.06681   0.06985   0.07267   0.09065
 Alpha virt. eigenvalues --    0.11177   0.12320   0.13293   0.13650   0.14837

 Mulliken charges:
               1
     1  C   -4.173363
     2  C   -0.789559
     3  C   -3.375228
     4  C   -3.115374
     5  C    3.450087
     6  N   -0.796722
     7  O   -2.421421
     8  H    1.317254
     9  H    1.311726
    10  H    1.176772
    11  H    1.383794
    12  H    1.194627
    13  H    1.318912
    14  H    1.297966
    15  H    1.340234
    16  H    0.880295
 Sum of Mulliken charges =   0.00000

 Dipole moment (field-independent basis, Debye):
    X=             -0.5761    Y=             -0.2347    Z=             -0.1036  Tot=              0.6307

 Test job not archived.
 1\1\GINC-SE045\SP\RHF\Aug-CC-pVDZ\C5H9N1O1\OHZDE\09-Apr-2025\0\\#t hf
 aug-cc-pvdz iop(5/13=1,5/36=2,99/5=2) pseudo=read geom=check guess=(re
 ad,tcheck) scf=(maxcycle=1)\\title\\0,1\C,0,-1.01575123,-2.09053033,0.
 09311461\C,0,-0.61745006,0.24550528,-0.78153621\C,0,-0.63641795,1.7695
 9244,-0.68293488\C,0,0.75209865,1.65502989,0.04018528\C,0,0.47150116,0
 .1659472,0.04876813\N,0,0.78711138,-0.85620992,0.80681696\O,0,2.149923
 5,-0.87080163,1.0840104\H,0,-1.39996836,-1.92859986,1.08915932\H,0,-0.
 27962145,-2.87405199,-0.00360552\H,0,-1.74974824,-2.05915066,-0.700280

 Normal termination of Gaussian 16 at Wed Apr  9 18:17:00 2025.
