 Gaussian 16, Revision C.01,

 ----------------------------------------------------------------------
 #t hf aug-cc-pvdz symm=none int=(grid=ultrafine) guess=(read,tcheck) s
 table=(opt,rrhf)
 ----------------------------------------------------------------------
 -----
 title
 -----
 Symbolic Z-matrix:
 Charge =  0 Multiplicity = 1

 SCF Done:  E(RHF) =  -304.507646009     A.U. after   15 cycles
 Normal termination of Gaussian 16 at Wed Apr  9 03:21:55 2025.
 Gaussian 16:  ES64L-G16RevC.01  3-Jul-2019

 ----------------------------------------------------------------------
 #t hf aug-cc-pvdz iop(5/13=1,5/36=2,99/5=2) pseudo=read geom=check gue
 ss=(read,tcheck) scf=(maxcycle=1)
 ----------------------------------------------------------------------
 -----
 title
 -----
 Structure from the checkpoint file:  "Grambow2020_wb97xd3_006102_reverse_mol1.chk"
 Charge =  0 Multiplicity = 1

                         Standard orientation:
 ---------------------------------------------------------------------
 Center     Atomic      Atomic             Coordinates (Angstroms)
 Number     Number       Type             X           Y           Z
 ---------------------------------------------------------------------
      1          6           0        0.805602   -1.020141   -0.231180
      2          8           0        1.299880    0.195012   -0.392145
      3          6           0        0.464926    1.245530    0.168837
      4          6           0       -0.838294    0.570644    0.462061
      5          8           0       -1.353562   -0.107039   -0.672014
      6          6           0       -0.602494   -0.858501    0.275890
      7          1           0        1.484772   -1.792481    0.583306
      8          1           0        1.290491   -1.524970    1.410914
      9          1           0        0.941096    1.619803    1.079724
     10          1           0        0.404259    2.035465   -0.578402
     11          1           0       -1.551371    0.986415    1.163517
     12          1           0       -1.118231   -1.653215    0.800575
 ---------------------------------------------------------------------

 SCF Done:  E(RHF) =  -305.873154961     A.U. after    2 cycles

 The electronic state is 1-A.
 Alpha  occ. eigenvalues --  -21.09789 -21.07902 -11.55099 -11.46679 -11.44673
 Alpha  occ. eigenvalues --  -11.41363  -1.87163  -1.75550  -1.10802  -1.07160
 Alpha  occ. eigenvalues --   -0.87216  -0.83443  -0.77596  -0.65863  -0.64764
 Alpha  occ. eigenvalues --   -0.58599  -0.53692  -0.48383  -0.44876  -0.40162
 Alpha  occ. eigenvalues --   -0.38179  -0.33472  -0.29161
 Alpha virt. eigenvalues --    0.03547   0.04464   0.05225   0.05779   0.05832
 Alpha virt. eigenvalues --    0.07306   0.10071   0.10825   0.11259   0.12208
 Alpha virt. eigenvalues --    0.13161   0.13746   0.13889   0.14657   0.15587

 Mulliken charges:
               1
     1  C   -0.218801
     2  O   -2.815401
     3  C   -1.222524
     4  C   -0.391549
     5  O   -2.792609
     6  C    0.895636
     7  H    0.541778
     8  H    0.255103
     9  H    1.454156
    10  H    1.369830
    11  H    1.473787
    12  H    1.450595
 Sum of Mulliken charges =   0.00000

 Dipole moment (field-independent basis, Debye):
    X=             -1.0263    Y=              1.7301    Z=              0.9872  Tot=              2.2408

 Test job not archived.
 1\1\GINC-SE044\SP\RHF\Aug-CC-pVDZ\C4H6O2\OHZDE\09-Apr-2025\0\\#t hf au
 g-cc-pvdz iop(5/13=1,5/36=2,99/5=2) pseudo=read geom=check guess=(read
 ,tcheck) scf=(maxcycle=1)\\title\\0,1\C,0,-1.27463061,0.08051075,0.459
 96095\O,0,-0.81002704,1.16474737,-0.13618731\C,0,0.58004095,1.05508788
 ,-0.54985725\C,0,1.08166793,-0.17094807,0.14659087\O,0,0.8405508,-0.12
 573512,1.5432653\C,0,-0.09487651,-0.8169833,0.72200249\H,0,-2.18981617
 ,-0.57477871,-0.21398281\H,0,-1.76330977,-1.02216233,-0.85599698\H,0,0
 .61204316,0.94457951,-1.63765241\H,0,1.07433831,1.97754328,-0.24854439

 Normal termination of Gaussian 16 at Wed Apr  9 03:21:59 2025.
