 Gaussian 16, Revision C.01,

 ----------------------------------------------------------------------
 #t hf aug-cc-pvdz symm=none int=(grid=ultrafine) guess=(read,tcheck) s
 table=(opt,rrhf)
 ----------------------------------------------------------------------
 -----
 title
 -----
 Symbolic Z-matrix:
 Charge =  0 Multiplicity = 1

 SCF Done:  E(RHF) =  -359.582563974     A.U. after   15 cycles
 Normal termination of Gaussian 16 at Wed Apr  9 19:34:13 2025.
 Gaussian 16:  ES64L-G16RevC.01  3-Jul-2019

 ----------------------------------------------------------------------
 #t hf aug-cc-pvdz iop(5/13=1,5/36=2,99/5=2) pseudo=read geom=check gue
 ss=(read,tcheck) scf=(maxcycle=1)
 ----------------------------------------------------------------------
 -----
 title
 -----
 Structure from the checkpoint file:  "Grambow2020_wb97xd3_009409_reverse_mol1.chk"
 Charge =  0 Multiplicity = 1

                         Standard orientation:
 ---------------------------------------------------------------------
 Center     Atomic      Atomic             Coordinates (Angstroms)
 Number     Number       Type             X           Y           Z
 ---------------------------------------------------------------------
      1          8           0       -1.600211   -0.529786   -0.921345
      2          6           0       -1.278524   -0.137724    0.362087
      3          6           0        0.549537   -1.298690    0.922729
      4          8           0        1.165317   -0.950169   -0.251807
      5          6           0        1.438485    0.385179   -0.460318
      6          7           0        0.723106    1.357570   -0.135242
      7          6           0       -0.591009    1.202179    0.471531
      8          1           0       -0.792913   -0.649974   -1.433328
      9          1           0       -2.182516   -0.172767    0.971995
     10          1           0        0.797432   -0.533465    1.678129
     11          1           0       -0.726725   -1.173881    0.833900
     12          1           0        2.376041    0.520489   -0.992005
     13          1           0       -0.526756    1.505903    1.519277
     14          1           0       -1.238096    1.934674   -0.022244
 ---------------------------------------------------------------------

 SCF Done:  E(RHF) =  -361.197721111     A.U. after    2 cycles

 The electronic state is 1-A.
 Alpha  occ. eigenvalues --  -21.11483 -21.09897 -15.74836 -11.49138 -11.47371
 Alpha  occ. eigenvalues --  -11.42967 -11.42447  -1.83619  -1.75219  -1.38780
 Alpha  occ. eigenvalues --   -1.14241  -0.96633  -0.94227  -0.77285  -0.71936
 Alpha  occ. eigenvalues --   -0.69025  -0.66568  -0.63608  -0.58927  -0.56032
 Alpha  occ. eigenvalues --   -0.49853  -0.46760  -0.44327  -0.39650  -0.38030
 Alpha  occ. eigenvalues --   -0.35259  -0.28713
 Alpha virt. eigenvalues --    0.03517   0.04817   0.05360   0.05594   0.06430
 Alpha virt. eigenvalues --    0.07090   0.07438   0.09554   0.10300   0.11044
 Alpha virt. eigenvalues --    0.12385   0.13198   0.13542   0.13809   0.14753

 Mulliken charges:
               1
     1  O   -3.224905
     2  C    0.372061
     3  C   -1.927109
     4  O   -2.611483
     5  C    2.167294
     6  N   -2.819239
     7  C   -2.274502
     8  H    0.825015
     9  H    1.239629
    10  H    1.263783
    11  H    2.496672
    12  H    1.742946
    13  H    1.485458
    14  H    1.264378
 Sum of Mulliken charges =  -0.00000

 Dipole moment (field-independent basis, Debye):
    X=             -0.8637    Y=              1.2560    Z=             -0.1841  Tot=              1.5354

 Test job not archived.
 1\1\GINC-SE014\SP\RHF\Aug-CC-pVDZ\C4H7N1O2\OHZDE\09-Apr-2025\0\\#t hf
 aug-cc-pvdz iop(5/13=1,5/36=2,99/5=2) pseudo=read geom=check guess=(re
 ad,tcheck) scf=(maxcycle=1)\\title\\0,1\O,0,-1.11535523,-0.60136404,1.
 47101621\C,0,-1.16524685,-0.08400649,0.19264079\C,0,0.18442844,1.69990
 429,0.19509942\O,0,1.19001092,0.97336757,0.77916682\C,0,1.71835746,-0.
 08002633,0.06330279\N,0,1.09579766,-0.87173818,-0.67737154\C,0,-0.3507
 7949,-0.83188068,-0.83562158\H,0,-0.21539262,-0.53813369,1.80920464\H,
 0,-2.2109254,-0.00432923,-0.10839934\H,0,0.29234185,1.61319616,-0.8996

 Normal termination of Gaussian 16 at Wed Apr  9 19:34:17 2025.
