 Gaussian 16, Revision C.01,

 ----------------------------------------------------------------------
 #t hf aug-cc-pvdz symm=none int=(grid=ultrafine) guess=(read,tcheck) s
 table=(opt,rrhf)
 ----------------------------------------------------------------------
 -----
 title
 -----
 Symbolic Z-matrix:
 Charge =  0 Multiplicity = 1

 SCF Done:  E(RHF) =  -318.785830424     A.U. after   16 cycles
 Normal termination of Gaussian 16 at Wed Apr  9 18:20:43 2025.
 Gaussian 16:  ES64L-G16RevC.01  3-Jul-2019

 ----------------------------------------------------------------------
 #t hf aug-cc-pvdz iop(5/13=1,5/36=2,99/5=2) pseudo=read geom=check gue
 ss=(read,tcheck) scf=(maxcycle=1)
 ----------------------------------------------------------------------
 -----
 title
 -----
 Structure from the checkpoint file:  "Grambow2020_wb97xd3_006917_reverse_mol1.chk"
 Charge =  0 Multiplicity = 1

                         Standard orientation:
 ---------------------------------------------------------------------
 Center     Atomic      Atomic             Coordinates (Angstroms)
 Number     Number       Type             X           Y           Z
 ---------------------------------------------------------------------
      1          7           0        2.469939   -0.596926   -0.105353
      2          6           0        1.237731    0.016130    0.023332
      3          6           0        0.070485   -0.854914    0.046437
      4          6           0       -1.082794   -0.177797   -0.025885
      5          7           0       -2.471515   -0.512878    0.025186
      6          6           0       -1.514218    1.114806   -0.199870
      7          7           0        1.041401    1.286249    0.062301
      8          1           0        3.276368   -0.053372    0.147778
      9          1           0        2.527418   -1.567437    0.147641
     10          1           0        0.134331   -1.933713    0.057398
     11          1           0       -2.790581   -0.971810    0.863598
     12          1           0       -2.904932   -0.825191   -0.826115
     13          1           0       -1.689074    1.707713    0.697410
     14          1           0        1.900462    1.819342   -0.026736
 ---------------------------------------------------------------------

 SCF Done:  E(RHF) =  -320.282152720     A.U. after    2 cycles

 The electronic state is 1-A.
 Alpha  occ. eigenvalues --  -15.78914 -15.76320 -15.68827 -11.47304 -11.46532
 Alpha  occ. eigenvalues --  -11.40720 -11.37250  -1.45849  -1.39610  -1.22608
 Alpha  occ. eigenvalues --   -1.10716  -0.99029  -0.82884  -0.73452  -0.70636
 Alpha  occ. eigenvalues --   -0.68951  -0.67390  -0.58593  -0.55277  -0.52714
 Alpha  occ. eigenvalues --   -0.48193  -0.42834  -0.40849  -0.36368  -0.32097
 Alpha  occ. eigenvalues --   -0.27638
 Alpha virt. eigenvalues --    0.03166   0.04432   0.05117   0.06019   0.06372
 Alpha virt. eigenvalues --    0.06529   0.08425   0.10702   0.12059   0.12579
 Alpha virt. eigenvalues --    0.13012   0.13178   0.13813   0.14447   0.15440

 Mulliken charges:
               1
     1  N   -3.389941
     2  C    3.822686
     3  C   -2.670622
     4  C    6.286543
     5  N   -3.175207
     6  C   -3.279722
     7  N   -3.426209
     8  H    0.670789
     9  H    0.682571
    10  H    1.647991
    11  H    0.496275
    12  H    0.473519
    13  H    1.072435
    14  H    0.788891
 Sum of Mulliken charges =   0.00000

 Dipole moment (field-independent basis, Debye):
    X=              0.1748    Y=             -3.5218    Z=              1.6657  Tot=              3.8998

 Test job not archived.
 1\1\GINC-SE220\SP\RHF\Aug-CC-pVDZ\C4H7N3\OHZDE\09-Apr-2025\0\\#t hf au
 g-cc-pvdz iop(5/13=1,5/36=2,99/5=2) pseudo=read geom=check guess=(read
 ,tcheck) scf=(maxcycle=1)\\title\\0,1\N,0,-2.45347171,-0.51384563,0.08
 21385\C,0,-1.22461359,0.11160447,-0.01508746\C,0,-0.04673669,-0.743583
 65,0.03945309\C,0,1.09398256,-0.0486654,0.13752978\N,0,2.48766472,-0.3
 6608567,0.15569207\C,0,1.50162931,1.25472392,0.28658736\N,0,-1.0425559
 7,1.38236674,-0.0877709\H,0,-3.25515374,0.01004375,-0.22232892\H,0,-2.
 48818614,-1.49276585,-0.14082118\H,0,-0.0966977,-1.82294564,0.06149462

 Normal termination of Gaussian 16 at Wed Apr  9 18:20:48 2025.
