 Gaussian 16, Revision C.01,

 ----------------------------------------------------------------------
 #t hf aug-cc-pvdz symm=none int=(grid=ultrafine) guess=(read,tcheck) s
 table=(opt,rrhf)
 ----------------------------------------------------------------------
 -----
 title
 -----
 Symbolic Z-matrix:
 Charge =  0 Multiplicity = 1

 SCF Done:  E(RHF) =  -289.080959869     A.U. after   15 cycles

 1\1\GINC-SE231\Stability\RHF\Aug-CC-pVDZ\C6H13N1\OHZDE\09-Apr-2025\0\\
 #t hf aug-cc-pvdz symm=none int=(grid=ultrafine) guess=(read,tcheck) s
 table=(opt,rrhf)\\title\\0,1\C,0,-1.16274138,1.91731022,0.65719273\C,0
 ,-0.53345175,0.59310243,0.99970668\N,0,-0.86184576,-0.55845417,-0.4210
 3799\C,0,-0.9411213,-2.01588366,-0.24845583\C,0,0.42354661,0.06254433,
 -0.02446236\C,0,1.5160758,-0.84501985,0.51682005\C,0,0.96913613,0.9681
 4733,-1.11601803\H,0,-2.01992874,2.12594589,1.29694882\H,0,-0.40079522
 ,2.6766458,0.86890441\H,0,-1.45915358,2.04094364,-0.38801932\H,0,-1.45

 Normal termination of Gaussian 16 at Wed Apr  9 19:31:44 2025.
 Gaussian 16:  ES64L-G16RevC.01  3-Jul-2019

 ----------------------------------------------------------------------
 #t hf aug-cc-pvdz iop(5/13=1,5/36=2,99/5=2) pseudo=read geom=check gue
 ss=(read,tcheck) scf=(maxcycle=1)
 ----------------------------------------------------------------------
 -----
 title
 -----
 Structure from the checkpoint file:  "Grambow2020_wb97xd3_009127_reverse_mol1.chk"
 Charge =  0 Multiplicity = 1

                         Standard orientation:
 ---------------------------------------------------------------------
 Center     Atomic      Atomic             Coordinates (Angstroms)
 Number     Number       Type             X           Y           Z
 ---------------------------------------------------------------------
      1          6           0        2.128113   -0.833393   -0.236543
      2          6           0        0.764243   -0.542638   -0.804141
      3          7           0       -0.465871   -0.770876    0.569601
      4          6           0       -1.863445   -1.149502    0.317413
      5          6           0       -0.023153    0.494247   -0.061754
      6          6           0       -1.032294    1.264475   -0.897614
      7          6           0        0.657509    1.412489    0.939649
      8          1           0        2.541804   -1.752694   -0.650465
      9          1           0        2.771661   -0.007077   -0.560614
     10          1           0        2.184098   -0.876563    0.854610
     11          1           0        0.002479   -1.497452   -0.239738
     12          1           0       -2.513137   -0.404169    0.776894
     13          1           0       -2.119182   -1.232821   -0.742455
     14          1           0       -2.044205   -2.109262    0.801665
     15          1           0       -0.516596    2.094681   -1.383573
     16          1           0       -1.465598    0.647204   -1.681793
     17          1           0       -1.830921    1.689586   -0.283510
     18          1           0        1.255993    0.859229    1.659434
     19          1           0       -0.090873    1.980710    1.496295
     20          1           0        1.299737    2.130694    0.423985
 ---------------------------------------------------------------------

 SCF Done:  E(RHF) =  -290.564649143     A.U. after    2 cycles

 The electronic state is 1-A.
 Alpha  occ. eigenvalues --  -15.74754 -11.47676 -11.40136 -11.39879 -11.39024
 Alpha  occ. eigenvalues --  -11.37440 -11.35711  -1.47522  -1.17031  -1.10018
 Alpha  occ. eigenvalues --   -1.01122  -0.99676  -0.82336  -0.77733  -0.63823
 Alpha  occ. eigenvalues --   -0.63156  -0.61069  -0.60269  -0.55892  -0.55763
 Alpha  occ. eigenvalues --   -0.53426  -0.52747  -0.50253  -0.49791  -0.45789
 Alpha  occ. eigenvalues --   -0.40540  -0.35433  -0.29276
 Alpha virt. eigenvalues --    0.04036   0.05245   0.05467   0.05688   0.05773
 Alpha virt. eigenvalues --    0.06070   0.06271   0.06431   0.07259   0.08248
 Alpha virt. eigenvalues --    0.08979   0.09245   0.09574   0.11126   0.12684

 Mulliken charges:
               1
     1  C   -3.796199
     2  C   -1.602488
     3  N   -3.033226
     4  C   -3.580719
     5  C    4.060933
     6  C   -4.503408
     7  C   -4.843051
     8  H    1.144021
     9  H    1.420578
    10  H    1.430463
    11  H    1.556090
    12  H    1.470947
    13  H    1.368867
    14  H    1.305635
    15  H    1.167138
    16  H    1.405903
    17  H    1.285168
    18  H    1.379698
    19  H    1.152621
    20  H    1.211028
 Sum of Mulliken charges =   0.00000

 Dipole moment (field-independent basis, Debye):
    X=             -0.9542    Y=              0.3695    Z=              1.2476  Tot=              1.6135

 Test job not archived.
 1\1\GINC-SE231\SP\RHF\Aug-CC-pVDZ\C6H13N1\OHZDE\09-Apr-2025\0\\#t hf a
 ug-cc-pvdz iop(5/13=1,5/36=2,99/5=2) pseudo=read geom=check guess=(rea
 d,tcheck) scf=(maxcycle=1)\\title\\0,1\C,0,-1.16274138,1.91731022,0.65
 719273\C,0,-0.53345175,0.59310243,0.99970668\N,0,-0.86184576,-0.558454
 17,-0.42103799\C,0,-0.9411213,-2.01588366,-0.24845583\C,0,0.42354661,0
 .06254433,-0.02446236\C,0,1.5160758,-0.84501985,0.51682005\C,0,0.96913
 613,0.96814733,-1.11601803\H,0,-2.01992874,2.12594589,1.29694882\H,0,-
 0.40079522,2.6766458,0.86890441\H,0,-1.45915358,2.04094364,-0.38801932

 Normal termination of Gaussian 16 at Wed Apr  9 19:31:52 2025.
