 Gaussian 16, Revision C.01,

 ----------------------------------------------------------------------
 #t hf aug-cc-pvdz symm=none int=(grid=ultrafine) guess=(read,tcheck) s
 table=(opt,rrhf)
 ----------------------------------------------------------------------
 -----
 title
 -----
 Symbolic Z-matrix:
 Charge =  0 Multiplicity = 1

 SCF Done:  E(RHF) =  -337.619879873     A.U. after   14 cycles
 Normal termination of Gaussian 16 at Wed Apr  9 04:04:27 2025.
 Gaussian 16:  ES64L-G16RevC.01  3-Jul-2019

 ----------------------------------------------------------------------
 #t hf aug-cc-pvdz iop(5/13=1,5/36=2,99/5=2) pseudo=read geom=check gue
 ss=(read,tcheck) scf=(maxcycle=1)
 ----------------------------------------------------------------------
 -----
 title
 -----
 Structure from the checkpoint file:  "Grambow2020_wb97xd3_009180_reverse_mol2.chk"
 Charge =  0 Multiplicity = 1

                         Standard orientation:
 ---------------------------------------------------------------------
 Center     Atomic      Atomic             Coordinates (Angstroms)
 Number     Number       Type             X           Y           Z
 ---------------------------------------------------------------------
      1          8           0       -2.223194    0.086970   -0.000232
      2          6           0       -0.889189    0.037730    0.000079
      3          6           0       -0.155705    1.222448    0.000467
      4          6           0        1.211312    1.074281   -0.000320
      5          7           0        1.819023   -0.116960   -0.000544
      6          6           0        1.015689   -1.164039    0.000126
      7          7           0       -0.314898   -1.151639    0.000184
      8          1           0       -0.642177    2.187030    0.000440
      9          1           0        1.860465    1.944279    0.001116
     10          1           0       -2.537701   -0.825410   -0.000688
     11          1           0        1.483446   -2.143989    0.001399
 ---------------------------------------------------------------------

 SCF Done:  E(RHF) =  -339.117879389     A.U. after    2 cycles

 The electronic state is 1-A.
 Alpha  occ. eigenvalues --  -21.12731 -15.74402 -15.73788 -11.52137 -11.47151
 Alpha  occ. eigenvalues --  -11.44464 -11.39881  -1.80370  -1.50664  -1.30170
 Alpha  occ. eigenvalues --   -1.16138  -0.94036  -0.90548  -0.74301  -0.69313
 Alpha  occ. eigenvalues --   -0.65067  -0.61210  -0.59433  -0.56723  -0.48481
 Alpha  occ. eigenvalues --   -0.47977  -0.42599  -0.39119  -0.35903  -0.31884
 Alpha virt. eigenvalues --    0.03368   0.05252   0.05717   0.06204   0.10005
 Alpha virt. eigenvalues --    0.10046   0.10626   0.10979   0.12078   0.12096
 Alpha virt. eigenvalues --    0.12985   0.13684   0.13984   0.15145   0.15454

 Mulliken charges:
               1
     1  O   -3.787015
     2  C    4.974814
     3  C   -1.534504
     4  C    0.070397
     5  N   -3.252344
     6  C    0.994036
     7  N   -3.187508
     8  H    1.518125
     9  H    1.552076
    10  H    0.983429
    11  H    1.668495
 Sum of Mulliken charges =  -0.00000

 Dipole moment (field-independent basis, Debye):
    X=             -1.4093    Y=              0.9031    Z=              0.0009  Tot=              1.6738

 Test job not archived.
 1\1\GINC-SE261\SP\RHF\Aug-CC-pVDZ\C4H4N2O1\OHZDE\09-Apr-2025\0\\#t hf
 aug-cc-pvdz iop(5/13=1,5/36=2,99/5=2) pseudo=read geom=check guess=(re
 ad,tcheck) scf=(maxcycle=1)\\title\\0,1\O,0,1.67804862,-0.90388212,1.2
 8938271\C,0,0.68421262,-0.43530288,0.53128098\C,0,0.76521734,0.8535566
 2,0.00798981\C,0,-0.30429731,1.25097493,-0.75940013\N,0,-1.3623095,0.4
 6985366,-1.00194375\C,0,-1.32086786,-0.72898445,-0.45168015\N,0,-0.348
 41895,-1.22774137,0.30739901\H,0,1.61775324,1.48827466,0.20134978\H,0,
 -0.32452628,2.23933733,-1.20776195\H,0,1.43382794,-1.80057898,1.549466

 Normal termination of Gaussian 16 at Wed Apr  9 04:04:31 2025.
