 Gaussian 16, Revision C.01,

 ----------------------------------------------------------------------
 #t hf aug-cc-pvdz symm=none int=(grid=ultrafine) guess=(read,tcheck) s
 table=(opt,rrhf)
 ----------------------------------------------------------------------
 -----
 title
 -----
 Symbolic Z-matrix:
 Charge =  0 Multiplicity = 1

 SCF Done:  E(RHF) =  -343.495058847     A.U. after   16 cycles
 Normal termination of Gaussian 16 at Wed Apr  9 19:31:19 2025.
 Gaussian 16:  ES64L-G16RevC.01  3-Jul-2019

 ----------------------------------------------------------------------
 #t hf aug-cc-pvdz iop(5/13=1,5/36=2,99/5=2) pseudo=read geom=check gue
 ss=(read,tcheck) scf=(maxcycle=1)
 ----------------------------------------------------------------------
 -----
 title
 -----
 Structure from the checkpoint file:  "Grambow2020_wb97xd3_009101_forward_mol1.chk"
 Charge =  0 Multiplicity = 1

                         Standard orientation:
 ---------------------------------------------------------------------
 Center     Atomic      Atomic             Coordinates (Angstroms)
 Number     Number       Type             X           Y           Z
 ---------------------------------------------------------------------
      1          6           0        1.911890   -0.081828   -0.315421
      2          6           0        0.850990    0.722442    0.415797
      3          8           0       -0.162035    1.329259   -0.330454
      4          6           0       -1.415377    0.781212    0.051292
      5          6           0       -1.380299   -0.716889   -0.137799
      6          8           0       -0.224652   -1.245054   -0.390650
      7          6           0        0.786822   -0.753170    0.384835
      8          1           0        1.895772   -0.049877   -1.398790
      9          1           0        2.896096   -0.111708    0.134820
     10          1           0        1.123085    1.249806    1.325809
     11          1           0       -2.169655    1.198916   -0.619878
     12          1           0       -1.664360    1.081138    1.073237
     13          1           0       -1.058242   -1.240120    1.673325
     14          1           0       -2.215759   -1.260753   -0.560695
     15          1           0       -0.237597   -1.251638    1.748782
 ---------------------------------------------------------------------

 SCF Done:  E(RHF) =  -345.090402990     A.U. after    2 cycles

 The electronic state is 1-A.
 Alpha  occ. eigenvalues --  -21.15143 -21.06649 -11.52222 -11.45575 -11.44693
 Alpha  occ. eigenvalues --  -11.42106 -11.36819  -1.89319  -1.75828  -1.25475
 Alpha  occ. eigenvalues --   -1.08038  -0.92752  -0.86773  -0.75407  -0.72415
 Alpha  occ. eigenvalues --   -0.71109  -0.65756  -0.62192  -0.60029  -0.53266
 Alpha  occ. eigenvalues --   -0.48674  -0.47332  -0.43893  -0.42096  -0.35383
 Alpha  occ. eigenvalues --   -0.31166  -0.28156
 Alpha virt. eigenvalues --    0.03747   0.04787   0.04989   0.05683   0.06111
 Alpha virt. eigenvalues --    0.06524   0.07633   0.08595   0.09146   0.10046
 Alpha virt. eigenvalues --    0.11861   0.12049   0.13041   0.13618   0.14475

 Mulliken charges:
               1
     1  C   -3.312074
     2  C    0.935871
     3  O   -3.481236
     4  C   -2.062043
     5  C    0.819831
     6  O   -3.309934
     7  C    1.805529
     8  H    1.291109
     9  H    1.385830
    10  H    1.488669
    11  H    1.232042
    12  H    1.562227
    13  H   -0.405091
    14  H    1.545887
    15  H    0.503383
 Sum of Mulliken charges =  -0.00000

 Dipole moment (field-independent basis, Debye):
    X=             -0.9611    Y=              0.8440    Z=             -1.2853  Tot=              1.8133

 Test job not archived.
 1\1\GINC-SE104\SP\RHF\Aug-CC-pVDZ\C5H8O2\OHZDE\09-Apr-2025\0\\#t hf au
 g-cc-pvdz iop(5/13=1,5/36=2,99/5=2) pseudo=read geom=check guess=(read
 ,tcheck) scf=(maxcycle=1)\\title\\0,1\C,0,-1.82343856,-0.08566679,0.89
 47335\C,0,-1.10027547,0.29437742,-0.38575078\O,0,-0.21219735,1.3723003
 8,-0.35857913\C,0,1.09365767,0.90937581,-0.6706615\C,0,1.48019875,-0.1
 790351,0.30260026\O,0,0.54141155,-0.63331265,1.07118439\C,0,-0.6415997
 4,-0.85288713,0.42413139\H,0,-1.70063382,0.5748704,1.74536781\H,0,-2.8
 0625734,-0.52667491,0.78587581\H,0,-1.59900414,0.14044846,-1.33856012\

 Normal termination of Gaussian 16 at Wed Apr  9 19:31:24 2025.
