 Gaussian 16, Revision C.01,

 ----------------------------------------------------------------------
 #t hf aug-cc-pvdz symm=none int=(grid=ultrafine) guess=(read,tcheck) s
 table=(opt,rrhf)
 ----------------------------------------------------------------------
 -----
 title
 -----
 Symbolic Z-matrix:
 Charge =  0 Multiplicity = 1

 SCF Done:  E(RHF) =  -286.728718167     A.U. after   14 cycles
 Normal termination of Gaussian 16 at Wed Apr  9 18:42:42 2025.
 Gaussian 16:  ES64L-G16RevC.01  3-Jul-2019

 ----------------------------------------------------------------------
 #t hf aug-cc-pvdz iop(5/13=1,5/36=2,99/5=2) pseudo=read geom=check gue
 ss=(read,tcheck) scf=(maxcycle=1)
 ----------------------------------------------------------------------
 -----
 title
 -----
 Structure from the checkpoint file:  "Grambow2020_wb97xd3_007553_reverse_mol2.chk"
 Charge =  0 Multiplicity = 1

                         Standard orientation:
 ---------------------------------------------------------------------
 Center     Atomic      Atomic             Coordinates (Angstroms)
 Number     Number       Type             X           Y           Z
 ---------------------------------------------------------------------
      1          6           0       -1.074160    1.675986   -0.310351
      2          6           0       -1.665602    0.392006    0.067766
      3          6           0        1.665771   -1.449579   -0.161288
      4          6           0        2.240250   -0.302365    0.037518
      5          6           0        2.804046    0.854255    0.238025
      6          6           0       -2.233918   -0.477967    0.796215
      7          7           0       -1.650109   -1.000723   -0.490441
      8          1           0       -1.277071    2.434430    0.444791
      9          1           0       -1.469870    2.011578   -1.271134
     10          1           0        0.007361    1.555842   -0.417891
     11          1           0        2.247148   -2.364145   -0.125821
     12          1           0        0.597309   -1.517295   -0.365462
     13          1           0        2.878817    1.272110    1.235337
     14          1           0        3.225103    1.422364   -0.583418
     15          1           0       -2.674655   -0.882252    1.686656
     16          1           0       -2.401697   -1.081589   -1.177285
 ---------------------------------------------------------------------

 SCF Done:  E(RHF) =  -288.124138721     A.U. after    2 cycles

 The electronic state is 1-A.
 Alpha  occ. eigenvalues --  -15.73396 -11.45191 -11.43814 -11.41812 -11.40934
 Alpha  occ. eigenvalues --  -11.39783 -11.37447  -1.42650  -1.17493  -1.10472
 Alpha  occ. eigenvalues --   -0.99356  -0.92500  -0.77569  -0.71390  -0.63645
 Alpha  occ. eigenvalues --   -0.61400  -0.59654  -0.59368  -0.58643  -0.57354
 Alpha  occ. eigenvalues --   -0.53581  -0.42948  -0.41386  -0.34761  -0.34570
 Alpha  occ. eigenvalues --   -0.28768
 Alpha virt. eigenvalues --    0.03123   0.04809   0.05194   0.05818   0.05878
 Alpha virt. eigenvalues --    0.06012   0.06942   0.08542   0.08885   0.09546
 Alpha virt. eigenvalues --    0.11190   0.11471   0.11789   0.12161   0.13514

 Mulliken charges:
               1
     1  C   -4.682562
     2  C    4.462568
     3  C   -3.801886
     4  C    2.854641
     5  C   -4.441337
     6  C   -2.577995
     7  N   -2.212124
     8  H    1.138421
     9  H    1.170179
    10  H    1.283851
    11  H    1.206599
    12  H    1.510019
    13  H    1.294864
    14  H    1.295792
    15  H    0.903296
    16  H    0.595672
 Sum of Mulliken charges =  -0.00000

 Dipole moment (field-independent basis, Debye):
    X=             -1.2465    Y=              1.2353    Z=              0.2823  Tot=              1.7775

 Test job not archived.
 1\1\GINC-SE232\SP\RHF\Aug-CC-pVDZ\C6H9N1\OHZDE\09-Apr-2025\0\\#t hf au
 g-cc-pvdz iop(5/13=1,5/36=2,99/5=2) pseudo=read geom=check guess=(read
 ,tcheck) scf=(maxcycle=1)\\title\\0,1\C,0,-0.58764822,1.49967403,1.289
 41187\C,0,-1.48567626,0.36681907,1.06233392\C,0,0.88920464,-1.28995949
 ,-1.41899182\C,0,1.84823906,-0.63205899,-0.84187152\C,0,2.80105658,0.0
 3315267,-0.25410254\C,0,-2.14683819,-0.686007,1.31708297\N,0,-2.064714
 86,-0.31703437,-0.14123918\H,0,-0.35414116,1.60395789,2.34830295\H,0,-
 1.04077541,2.42553404,0.92917608\H,0,0.33890027,1.34155063,0.73066911\

 Normal termination of Gaussian 16 at Wed Apr  9 18:42:47 2025.
