 Gaussian 16, Revision C.01,

 ----------------------------------------------------------------------
 #t hf aug-cc-pvdz symm=none int=(grid=ultrafine) guess=(read,tcheck) s
 table=(opt,rrhf)
 ----------------------------------------------------------------------
 -----
 title
 -----
 Symbolic Z-matrix:
 Charge =  0 Multiplicity = 1

 SCF Done:  E(RHF) =  -286.797322971     A.U. after   15 cycles
 Normal termination of Gaussian 16 at Wed Apr  9 18:29:36 2025.
 Gaussian 16:  ES64L-G16RevC.01  3-Jul-2019

 ----------------------------------------------------------------------
 #t hf aug-cc-pvdz iop(5/13=1,5/36=2,99/5=2) pseudo=read geom=check gue
 ss=(read,tcheck) scf=(maxcycle=1)
 ----------------------------------------------------------------------
 -----
 title
 -----
 Structure from the checkpoint file:  "Grambow2020_wb97xd3_007181_reverse_mol2.chk"
 Charge =  0 Multiplicity = 1

                         Standard orientation:
 ---------------------------------------------------------------------
 Center     Atomic      Atomic             Coordinates (Angstroms)
 Number     Number       Type             X           Y           Z
 ---------------------------------------------------------------------
      1          6           0       -0.381303    1.853732   -0.398815
      2          6           0        1.629739    0.567196    0.291485
      3          6           0        1.734484   -0.724916   -0.095133
      4          6           0        0.453646   -1.407927   -0.244317
      5          6           0       -0.547302   -0.577549    0.047441
      6          6           0       -2.025449   -0.739793    0.088950
      7          7           0        0.082014    0.701972    0.399422
      8          1           0        0.180813    2.729619   -0.086367
      9          1           0       -0.162108    1.641464   -1.443249
     10          1           0       -1.451676    2.009596   -0.261719
     11          1           0        2.684967   -1.206755   -0.279891
     12          1           0        0.315209   -2.438644   -0.545335
     13          1           0       -2.535511   -0.093658   -0.631634
     14          1           0       -2.285598   -1.770016   -0.150661
     15          1           0       -2.435296   -0.516596    1.078701
     16          1           0       -0.067782    0.906723    1.386531
 ---------------------------------------------------------------------

 SCF Done:  E(RHF) =  -288.211321876     A.U. after    2 cycles

 The electronic state is 1-A.
 Alpha  occ. eigenvalues --  -15.81641 -11.45611 -11.42908 -11.41962 -11.39388
 Alpha  occ. eigenvalues --  -11.35816 -11.32701  -1.52686  -1.19974  -1.12149
 Alpha  occ. eigenvalues --   -1.00292  -0.96149  -0.80279  -0.76265  -0.68227
 Alpha  occ. eigenvalues --   -0.64527  -0.60817  -0.59342  -0.57595  -0.56992
 Alpha  occ. eigenvalues --   -0.49330  -0.48588  -0.45300  -0.41516  -0.30197
 Alpha  occ. eigenvalues --   -0.27933
 Alpha virt. eigenvalues --    0.02808   0.04567   0.04969   0.05294   0.05926
 Alpha virt. eigenvalues --    0.06213   0.06769   0.07090   0.08535   0.10620
 Alpha virt. eigenvalues --    0.10830   0.11553   0.11808   0.12513   0.13561

 Mulliken charges:
               1
     1  C   -3.840092
     2  C   -2.997514
     3  C    0.901873
     4  C   -2.383339
     5  C    3.148780
     6  C   -4.293420
     7  N   -1.456696
     8  H    1.311644
     9  H    1.308318
    10  H    1.501416
    11  H    1.630854
    12  H    1.418417
    13  H    1.108502
    14  H    1.006857
    15  H    1.064464
    16  H    0.569936
 Sum of Mulliken charges =   0.00000

 Dipole moment (field-independent basis, Debye):
    X=             -4.9371    Y=             -0.6109    Z=             -0.1767  Tot=              4.9779

 Test job not archived.
 1\1\GINC-SE224\SP\RHF\Aug-CC-pVDZ\C6H9N1\OHZDE\09-Apr-2025\0\\#t hf au
 g-cc-pvdz iop(5/13=1,5/36=2,99/5=2) pseudo=read geom=check guess=(read
 ,tcheck) scf=(maxcycle=1)\\title\\0,1\C,0,-1.47903501,-0.96528584,-0.4
 789022\C,0,-1.38994223,0.91152787,1.14763143\C,0,-0.48338404,1.8958756
 2,0.94960881\C,0,0.73824328,1.45572191,0.28387686\C,0,0.67539503,0.150
 07847,0.02331703\C,0,1.62388394,-0.8099742,-0.60248911\N,0,-0.629747,-
 0.29751466,0.52667647\H,0,-2.42903572,-1.20887414,-0.0109917\H,0,-1.64
 955173,-0.25900685,-1.28886627\H,0,-0.99072654,-1.863546,-0.8576761\H,

 Normal termination of Gaussian 16 at Wed Apr  9 18:29:41 2025.
