 Gaussian 16, Revision C.01,

 ----------------------------------------------------------------------
 #t hf aug-cc-pvdz symm=none int=(grid=ultrafine) guess=(read,tcheck) s
 table=(opt,rrhf)
 ----------------------------------------------------------------------
 -----
 title
 -----
 Symbolic Z-matrix:
 Charge =  0 Multiplicity = 1

 SCF Done:  E(RHF) =  -247.739439640     A.U. after   15 cycles
 Normal termination of Gaussian 16 at Wed Apr  9 17:48:28 2025.
 Gaussian 16:  ES64L-G16RevC.01  3-Jul-2019

 ----------------------------------------------------------------------
 #t hf aug-cc-pvdz iop(5/13=1,5/36=2,99/5=2) pseudo=read geom=check gue
 ss=(read,tcheck) scf=(maxcycle=1)
 ----------------------------------------------------------------------
 -----
 title
 -----
 Structure from the checkpoint file:  "Grambow2020_wb97xd3_006174_forward_mol1.chk"
 Charge =  0 Multiplicity = 1

                         Standard orientation:
 ---------------------------------------------------------------------
 Center     Atomic      Atomic             Coordinates (Angstroms)
 Number     Number       Type             X           Y           Z
 ---------------------------------------------------------------------
      1          6           0        1.367928    1.273321    0.011982
      2          6           0        1.445573   -0.176373   -0.365242
      3          6           0        0.753295   -1.062432    0.596521
      4          6           0       -0.338685   -0.846694   -0.459268
      5          6           0       -1.443758    0.000044   -0.080667
      6          7           0       -2.316642    0.686882    0.208994
      7          1           0        1.367810    1.935980   -0.852768
      8          1           0        2.324255    1.433377    0.524805
      9          1           0        0.573185    1.567420    0.709197
     10          1           0        0.315669   -0.360805   -1.325931
     11          1           0        0.484501   -0.657422    1.572421
     12          1           0        1.087138   -2.093910    0.652213
     13          1           0       -0.642178   -1.760006   -0.962846
 ---------------------------------------------------------------------

 SCF Done:  E(RHF) =  -248.939948097     A.U. after    2 cycles

 The electronic state is 1-A.
 Alpha  occ. eigenvalues --  -15.76962 -11.50173 -11.45513 -11.44538 -11.41313
 Alpha  occ. eigenvalues --  -11.38212  -1.38068  -1.28498  -1.08420  -0.97443
 Alpha  occ. eigenvalues --   -0.82962  -0.74077  -0.64113  -0.61027  -0.58176
 Alpha  occ. eigenvalues --   -0.57684  -0.54134  -0.52039  -0.48180  -0.44839
 Alpha  occ. eigenvalues --   -0.43434  -0.31984
 Alpha virt. eigenvalues --    0.03364   0.05095   0.05478   0.05802   0.06157
 Alpha virt. eigenvalues --    0.07198   0.07518   0.09253   0.09811   0.11161
 Alpha virt. eigenvalues --    0.12632   0.13516   0.13620   0.13878   0.14780

 Mulliken charges:
               1
     1  C   -3.712777
     2  C   -0.626793
     3  C   -2.802093
     4  C   -2.117818
     5  C    1.981659
     6  N   -2.451186
     7  H    1.248423
     8  H    1.258116
     9  H    1.482001
    10  H    1.740768
    11  H    1.438433
    12  H    1.316627
    13  H    1.244638
 Sum of Mulliken charges =   0.00000

 Dipole moment (field-independent basis, Debye):
    X=              1.3330    Y=             -1.5232    Z=              0.3273  Tot=              2.0504

 Test job not archived.
 1\1\GINC-SE103\SP\RHF\Aug-CC-pVDZ\C5H7N1\OHZDE\09-Apr-2025\0\\#t hf au
 g-cc-pvdz iop(5/13=1,5/36=2,99/5=2) pseudo=read geom=check guess=(read
 ,tcheck) scf=(maxcycle=1)\\title\\0,1\C,0,1.49936471,0.5779126,0.07808
 62\C,0,0.83355097,-0.75411767,-0.10170976\C,0,-0.35294673,-0.92961221,
 0.76475497\C,0,-0.9966759,-0.43279138,-0.53618185\C,0,-1.50958759,0.91
 566928,-0.52814808\N,0,-1.90370553,1.99373461,-0.53292885\H,0,1.976936
 53,0.93839732,-0.83234497\H,0,2.30864356,0.34232507,0.78003576\H,0,0.9
 0158155,1.3795668,0.52999835\H,0,-0.07088264,-0.55072605,-1.27399506\H

 Normal termination of Gaussian 16 at Wed Apr  9 17:48:32 2025.
