 Gaussian 16, Revision C.01,

 ----------------------------------------------------------------------
 #t hf aug-cc-pvdz symm=none int=(grid=ultrafine) guess=(read,tcheck) s
 table=(opt,rrhf)
 ----------------------------------------------------------------------
 -----
 title
 -----
 Symbolic Z-matrix:
 Charge =  0 Multiplicity = 1

 SCF Done:  E(RHF) =  -281.157757800     A.U. after   17 cycles
 Normal termination of Gaussian 16 at Wed Apr  9 03:05:11 2025.
 Gaussian 16:  ES64L-G16RevC.01  3-Jul-2019

 ----------------------------------------------------------------------
 #t hf aug-cc-pvdz iop(5/13=1,5/36=2,99/5=2) pseudo=read geom=check gue
 ss=(read,tcheck) scf=(maxcycle=1)
 ----------------------------------------------------------------------
 -----
 title
 -----
 Structure from the checkpoint file:  "Grambow2020_b97d3_006502_forward_mol1.chk"
 Charge =  0 Multiplicity = 1

                         Standard orientation:
 ---------------------------------------------------------------------
 Center     Atomic      Atomic             Coordinates (Angstroms)
 Number     Number       Type             X           Y           Z
 ---------------------------------------------------------------------
      1          8           0        2.066738   -0.649119   -0.005534
      2          6           0        1.127919    0.039637    0.000755
      3          6           0        0.461487    1.250266   -0.000406
      4          6           0       -0.820245    1.213543    0.002570
      5          6           0       -0.867397   -1.053236    0.022032
      6          7           0       -2.022515   -0.742322   -0.016025
      7          1           0       -1.786885    1.687950    0.006741
 ---------------------------------------------------------------------

 SCF Done:  E(RHF) =  -282.390873770     A.U. after    2 cycles

 The electronic state is 1-A.
 Alpha  occ. eigenvalues --  -21.22208 -15.74640 -11.65591 -11.57352 -11.46219
 Alpha  occ. eigenvalues --  -11.37704  -1.84186  -1.31674  -1.22696  -0.96277
 Alpha  occ. eigenvalues --   -0.76761  -0.69710  -0.64549  -0.61047  -0.57272
 Alpha  occ. eigenvalues --   -0.50238  -0.45988  -0.41242  -0.40897  -0.38634
 Alpha virt. eigenvalues --    0.02599   0.03690   0.03884   0.06982   0.08803
 Alpha virt. eigenvalues --    0.10335   0.11282   0.11508   0.12092   0.12513
 Alpha virt. eigenvalues --    0.12940   0.14708   0.14786   0.15562   0.15825

 Mulliken charges:
               1
     1  O   -2.238424
     2  C    2.599931
     3  C    0.184243
     4  C   -0.706456
     5  C    0.603962
     6  N   -1.483129
     7  H    1.039872
 Sum of Mulliken charges =  -0.00000

 Dipole moment (field-independent basis, Debye):
    X=              2.4324    Y=              1.1705    Z=             -0.0070  Tot=              2.6994

 Test job not archived.
 1\1\GINC-SE097\SP\RHF\Aug-CC-pVDZ\C4H1N1O1\OHZDE\09-Apr-2025\0\\#t hf
 aug-cc-pvdz iop(5/13=1,5/36=2,99/5=2) pseudo=read geom=check guess=(re
 ad,tcheck) scf=(maxcycle=1)\\title\\0,1\O,0,-1.18252515,-2.18217143,0.
 25152537\C,0,-0.3880449,-1.33847928,0.13842792\C,0,0.89102257,-0.82906
 12,0.01911203\C,0,1.00683422,0.44279633,-0.09560707\C,0,-1.23348282,0.
 77062888,0.02437852\N,0,-0.79043346,1.87088771,-0.13546557\H,0,1.59201
 254,1.34023898,-0.20347221\\Version=ES64L-G16RevC.01\State=1-A\HF=-282
 .3908738\RMSD=4.379e-01\Dipole=0.3428229,-1.0030797,0.0650626\Quadrupo

 Normal termination of Gaussian 16 at Wed Apr  9 03:05:14 2025.
