 Gaussian 16, Revision C.01,

 ----------------------------------------------------------------------
 #t hf aug-cc-pvdz symm=none int=(grid=ultrafine) guess=(read,tcheck) s
 table=(opt,rrhf)
 ----------------------------------------------------------------------
 -----
 title
 -----
 Symbolic Z-matrix:
 Charge =  0 Multiplicity = 1

 SCF Done:  E(RHF) =  -264.901851538     A.U. after   17 cycles
 Normal termination of Gaussian 16 at Wed Apr  9 03:08:55 2025.
 Gaussian 16:  ES64L-G16RevC.01  3-Jul-2019

 ----------------------------------------------------------------------
 #t hf aug-cc-pvdz iop(5/13=1,5/36=2,99/5=2) pseudo=read geom=check gue
 ss=(read,tcheck) scf=(maxcycle=1)
 ----------------------------------------------------------------------
 -----
 title
 -----
 Structure from the checkpoint file:  "Grambow2020_b97d3_006632_forward_mol1.chk"
 Charge =  0 Multiplicity = 1

                         Standard orientation:
 ---------------------------------------------------------------------
 Center     Atomic      Atomic             Coordinates (Angstroms)
 Number     Number       Type             X           Y           Z
 ---------------------------------------------------------------------
      1          6           0        2.284008    0.084303   -0.028128
      2          6           0        1.200750   -0.949542    0.166420
      3          6           0       -0.895554   -0.346362   -0.521492
      4          7           0       -1.776892   -1.144251    0.139847
      5          6           0       -0.773341    1.004196   -0.102347
      6          7           0       -0.668861    2.149026    0.157680
      7          1           0        1.920127    1.093628    0.209201
      8          1           0        2.676380    0.086055   -1.054031
      9          1           0        3.135305   -0.116416    0.647939
     10          1           0        1.445215   -1.959056   -0.193044
     11          1           0        0.797263   -0.991011    1.181693
     12          1           0        0.155795   -0.785127   -0.863367
     13          1           0       -1.946779   -1.049905    1.141095
     14          1           0       -1.958218   -2.067157   -0.238894
 ---------------------------------------------------------------------

 SCF Done:  E(RHF) =  -266.185377442     A.U. after    2 cycles

 The electronic state is 1-A.
 Alpha  occ. eigenvalues --  -15.78934 -15.75302 -11.46720 -11.43742 -11.42280
 Alpha  occ. eigenvalues --  -11.38088  -1.40062  -1.27472  -1.16498  -1.00415
 Alpha  occ. eigenvalues --   -0.89025  -0.73748  -0.67651  -0.64854  -0.63624
 Alpha  occ. eigenvalues --   -0.56282  -0.53058  -0.51111  -0.50869  -0.47808
 Alpha  occ. eigenvalues --   -0.42876  -0.40705  -0.27036
 Alpha virt. eigenvalues --    0.03082   0.04356   0.04928   0.05658   0.05866
 Alpha virt. eigenvalues --    0.06453   0.07896   0.08423   0.09802   0.11354
 Alpha virt. eigenvalues --    0.12128   0.12685   0.12891   0.14296   0.14645

 Mulliken charges:
               1
     1  C   -3.624843
     2  C   -3.399676
     3  C   -0.702983
     4  N   -2.747282
     5  C    2.720782
     6  N   -2.516578
     7  H    1.334656
     8  H    1.240743
     9  H    1.166852
    10  H    1.190279
    11  H    1.566779
    12  H    2.378664
    13  H    0.709299
    14  H    0.683308
 Sum of Mulliken charges =   0.00000

 Dipole moment (field-independent basis, Debye):
    X=              0.8795    Y=             -4.5416    Z=              0.8823  Tot=              4.7094

 Test job not archived.
 1\1\GINC-SE332\SP\RHF\Aug-CC-pVDZ\C4H8N2\OHZDE\09-Apr-2025\0\\#t hf au
 g-cc-pvdz iop(5/13=1,5/36=2,99/5=2) pseudo=read geom=check guess=(read
 ,tcheck) scf=(maxcycle=1)\\title\\0,1\C,0,-1.92368392,0.2326246,0.1186
 6582\C,0,-0.73451907,-0.69393615,0.03203961\C,0,1.30276851,0.2458016,0
 .47689109\N,0,2.24351835,-0.55280319,-0.09579897\C,0,1.00290261,1.4816
 8653,-0.15342077\N,0,0.75193126,2.54570712,-0.59392117\H,0,-1.69296291
 ,1.21939929,-0.30620537\H,0,-2.26904338,0.36882858,1.15240222\H,0,-2.7
 7331726,-0.17438128,-0.45972087\H,0,-0.84151306,-1.64663378,0.56964033

 Normal termination of Gaussian 16 at Wed Apr  9 03:08:58 2025.
