 Gaussian 16, Revision C.01,

 ----------------------------------------------------------------------
 #t hf aug-cc-pvdz symm=none int=(grid=ultrafine) guess=(read,tcheck) s
 table=(opt,rrhf)
 ----------------------------------------------------------------------
 -----
 title
 -----
 Symbolic Z-matrix:
 Charge =  0 Multiplicity = 1

 SCF Done:  E(RHF) =  -306.468761000     A.U. after   17 cycles
 Normal termination of Gaussian 16 at Wed Apr  9 19:09:04 2025.
 Gaussian 16:  ES64L-G16RevC.01  3-Jul-2019

 ----------------------------------------------------------------------
 #t hf aug-cc-pvdz iop(5/13=1,5/36=2,99/5=2) pseudo=read geom=check gue
 ss=(read,tcheck) scf=(maxcycle=1)
 ----------------------------------------------------------------------
 -----
 title
 -----
 Structure from the checkpoint file:  "Grambow2020_wb97xd3_008159_forward_mol1.chk"
 Charge =  0 Multiplicity = 1

                         Standard orientation:
 ---------------------------------------------------------------------
 Center     Atomic      Atomic             Coordinates (Angstroms)
 Number     Number       Type             X           Y           Z
 ---------------------------------------------------------------------
      1          8           0        2.285010   -0.100277   -0.229357
      2          6           0        1.210039    0.487871    0.276217
      3          6           0       -0.545096    1.279377   -0.445352
      4          6           0       -1.136598    0.413709    0.663912
      5          6           0       -1.719851   -0.667999   -0.261593
      6          6           0       -0.267142   -0.781805   -0.587516
      7          6           0        0.176246   -0.432879    0.802684
      8          1           0        2.230666   -1.073928   -0.201613
      9          1           0       -1.143916    1.313672   -1.356363
     10          1           0       -0.145429    2.257778   -0.217754
     11          1           0       -1.671568    0.843719    1.510284
     12          1           0       -2.101871   -1.548316    0.262467
     13          1           0       -2.421837   -0.332111   -1.028519
     14          1           0        0.279586   -1.265281   -1.390238
     15          1           0        0.388694   -1.182960    1.566475
 ---------------------------------------------------------------------

 SCF Done:  E(RHF) =  -307.949599446     A.U. after    2 cycles

 The electronic state is 1-A.
 Alpha  occ. eigenvalues --  -21.10704 -11.50262 -11.45689 -11.43198 -11.42442
 Alpha  occ. eigenvalues --  -11.40907 -11.36765  -1.76216  -1.43695  -1.04034
 Alpha  occ. eigenvalues --   -1.00107  -0.88887  -0.81965  -0.75863  -0.70980
 Alpha  occ. eigenvalues --   -0.65522  -0.64087  -0.56486  -0.50523  -0.49466
 Alpha  occ. eigenvalues --   -0.46769  -0.43675  -0.41727  -0.38858  -0.32536
 Alpha  occ. eigenvalues --   -0.26445
 Alpha virt. eigenvalues --    0.03990   0.04505   0.05223   0.05505   0.05847
 Alpha virt. eigenvalues --    0.06236   0.06470   0.07620   0.09386   0.10556
 Alpha virt. eigenvalues --    0.12199   0.12493   0.13196   0.13550   0.13910

 Mulliken charges:
               1
     1  O   -2.910840
     2  C    1.532850
     3  C   -1.784395
     4  C   -2.026141
     5  C   -2.676796
     6  C   -0.683062
     7  C   -0.886210
     8  H    0.769517
     9  H    0.943232
    10  H    1.259306
    11  H    1.412243
    12  H    1.270721
    13  H    1.261886
    14  H    1.243341
    15  H    1.274347
 Sum of Mulliken charges =  -0.00000

 Dipole moment (field-independent basis, Debye):
    X=             -1.1076    Y=             -1.6949    Z=              0.0890  Tot=              2.0267

 Test job not archived.
 1\1\GINC-SE145\SP\RHF\Aug-CC-pVDZ\C6H8O1\OHZDE\09-Apr-2025\0\\#t hf au
 g-cc-pvdz iop(5/13=1,5/36=2,99/5=2) pseudo=read geom=check guess=(read
 ,tcheck) scf=(maxcycle=1)\\title\\0,1\O,0,2.29470821,1.01838997,-0.654
 60894\C,0,1.47720698,-0.02402967,-0.70084567\C,0,0.43625986,-1.1741046
 4,0.64874607\C,0,-0.70511116,-0.89532968,-0.3255625\C,0,-1.45031748,0.
 10696233,0.57272133\C,0,-0.14570331,0.81194451,0.39801169\C,0,0.061773
 64,0.29717791,-0.99589229\H,0,1.83448656,1.86573092,-0.80268961\H,0,0.
 13931325,-1.1828085,1.69824661\H,0,1.1415137,-1.96855407,0.44806968\H,

 Normal termination of Gaussian 16 at Wed Apr  9 19:09:09 2025.
