 Gaussian 16, Revision C.01,

 ----------------------------------------------------------------------
 #t hf aug-cc-pvdz symm=none int=(grid=ultrafine) guess=(read,tcheck) s
 table=(opt,rrhf)
 ----------------------------------------------------------------------
 -----
 title
 -----
 Symbolic Z-matrix:
 Charge =  0 Multiplicity = 1

 SCF Done:  E(RHF) =  -323.873853701     A.U. after   15 cycles
 Normal termination of Gaussian 16 at Wed Apr  9 18:19:26 2025.
 Gaussian 16:  ES64L-G16RevC.01  3-Jul-2019

 ----------------------------------------------------------------------
 #t hf aug-cc-pvdz iop(5/13=1,5/36=2,99/5=2) pseudo=read geom=check gue
 ss=(read,tcheck) scf=(maxcycle=1)
 ----------------------------------------------------------------------
 -----
 title
 -----
 Structure from the checkpoint file:  "Grambow2020_wb97xd3_006876_reverse_mol2.chk"
 Charge =  0 Multiplicity = 1

                         Standard orientation:
 ---------------------------------------------------------------------
 Center     Atomic      Atomic             Coordinates (Angstroms)
 Number     Number       Type             X           Y           Z
 ---------------------------------------------------------------------
      1          6           0       -2.724415   -0.606381   -0.241594
      2          7           0       -1.583072   -0.059332    0.463515
      3          6           0       -1.067710    1.201798   -0.025189
      4          6           0       -0.322996   -0.064306   -0.244140
      5          6           0        2.139736    0.258160   -0.021512
      6          8           0        3.156651   -0.303251   -0.322141
      7          6           0        0.917274   -0.419945    0.536316
      8          1           0       -3.640514   -0.183760    0.173633
      9          1           0       -2.750492   -1.687703   -0.099237
     10          1           0       -2.703339   -0.396407   -1.321415
     11          1           0       -1.553743    1.649455   -0.887854
     12          1           0       -0.742245    1.905650    0.733392
     13          1           0       -0.348062   -0.447386   -1.263425
     14          1           0        1.084633   -1.497865    0.556296
     15          1           0        2.047940    1.358414   -0.149311
     16          1           0        0.782779   -0.075018    1.567158
 ---------------------------------------------------------------------

 SCF Done:  E(RHF) =  -325.386644219     A.U. after    2 cycles

 The electronic state is 1-A.
 Alpha  occ. eigenvalues --  -21.06411 -15.73009 -11.49045 -11.48053 -11.42210
 Alpha  occ. eigenvalues --  -11.39397 -11.39032  -1.71272  -1.49924  -1.16191
 Alpha  occ. eigenvalues --   -1.06226  -0.89641  -0.85264  -0.81316  -0.70674
 Alpha  occ. eigenvalues --   -0.64250  -0.62152  -0.60179  -0.57719  -0.55661
 Alpha  occ. eigenvalues --   -0.52484  -0.50239  -0.44105  -0.43426  -0.41429
 Alpha  occ. eigenvalues --   -0.34479  -0.28901
 Alpha virt. eigenvalues --    0.03832   0.05176   0.05300   0.05383   0.05643
 Alpha virt. eigenvalues --    0.06424   0.06534   0.06954   0.07616   0.10960
 Alpha virt. eigenvalues --    0.11516   0.11839   0.12758   0.13857   0.14242

 Mulliken charges:
               1
     1  C   -3.567413
     2  N   -2.301662
     3  C   -2.123088
     4  C    0.641053
     5  C    1.785654
     6  O   -2.826988
     7  C   -4.420432
     8  H    1.398687
     9  H    1.407066
    10  H    1.300936
    11  H    1.459854
    12  H    1.445889
    13  H    1.702398
    14  H    1.209855
    15  H    1.464207
    16  H    1.423982
 Sum of Mulliken charges =  -0.00000

 Dipole moment (field-independent basis, Debye):
    X=             -1.8130    Y=              0.3909    Z=             -0.3500  Tot=              1.8874

 Test job not archived.
 1\1\GINC-SE029\SP\RHF\Aug-CC-pVDZ\C5H9N1O1\OHZDE\09-Apr-2025\0\\#t hf
 aug-cc-pvdz iop(5/13=1,5/36=2,99/5=2) pseudo=read geom=check guess=(re
 ad,tcheck) scf=(maxcycle=1)\\title\\0,1\C,0,1.24832478,0.07371451,-2.1
 2814629\N,0,0.8923432,0.47373078,-0.78190324\C,0,1.13806543,-0.4955624
 2,0.26450511\C,0,-0.24374942,-0.19378266,-0.18834622\C,0,-1.8574984,-0
 .1673777,1.71263085\O,0,-3.04160427,-0.23214586,1.89531847\C,0,-1.1992
 5373,0.64074411,0.62678351\H,0,2.30153148,0.29777342,-2.30368168\H,0,0
 .65280534,0.64446512,-2.84215084\H,0,1.08541728,-0.99822755,-2.3150884

 Normal termination of Gaussian 16 at Wed Apr  9 18:19:31 2025.
