 Gaussian 16, Revision C.01,

 ----------------------------------------------------------------------
 #t hf aug-cc-pvdz symm=none int=(grid=ultrafine) guess=(read,tcheck) s
 table=(opt,rrhf)
 ----------------------------------------------------------------------
 -----
 title
 -----
 Symbolic Z-matrix:
 Charge =  0 Multiplicity = 1

 SCF Done:  E(RHF) =  -333.496133269     A.U. after   18 cycles
 Normal termination of Gaussian 16 at Wed Apr  9 18:25:27 2025.
 Gaussian 16:  ES64L-G16RevC.01  3-Jul-2019

 ----------------------------------------------------------------------
 #t hf aug-cc-pvdz iop(5/13=1,5/36=2,99/5=2) pseudo=read geom=check gue
 ss=(read,tcheck) scf=(maxcycle=1)
 ----------------------------------------------------------------------
 -----
 title
 -----
 Structure from the checkpoint file:  "Grambow2020_wb97xd3_006991_reverse_mol1.chk"
 Charge =  0 Multiplicity = 1

                         Standard orientation:
 ---------------------------------------------------------------------
 Center     Atomic      Atomic             Coordinates (Angstroms)
 Number     Number       Type             X           Y           Z
 ---------------------------------------------------------------------
      1          7           0        2.157691   -0.131017   -0.020501
      2          6           0        0.792287   -0.024629    0.001173
      3          6           0       -0.111729   -1.063805    0.354917
      4          7           0       -1.265603   -1.042685   -0.605591
      5          6           0       -1.465778   -0.029603    0.164860
      6          7           0       -1.067283    1.287163    0.036981
      7          7           0        0.232134    1.205522   -0.065041
      8          1           0        2.534677   -0.957012   -0.450188
      9          1           0        2.635315    0.720172   -0.269306
     10          1           0        0.116477   -1.978825    0.894640
     11          1           0       -0.973719   -0.308991    1.278223
 ---------------------------------------------------------------------

 SCF Done:  E(RHF) =  -335.017401042     A.U. after    2 cycles

 The electronic state is 1-A.
 Alpha  occ. eigenvalues --  -15.80358 -15.79818 -15.79502 -15.75031 -11.55239
 Alpha  occ. eigenvalues --  -11.51003 -11.45800  -1.66439  -1.41392  -1.39188
 Alpha  occ. eigenvalues --   -1.14188  -1.00625  -0.87900  -0.81979  -0.73662
 Alpha  occ. eigenvalues --   -0.69051  -0.63686  -0.58123  -0.56993  -0.51861
 Alpha  occ. eigenvalues --   -0.47016  -0.42812  -0.41166  -0.36144  -0.27713
 Alpha virt. eigenvalues --    0.03045   0.04656   0.05309   0.05675   0.07763
 Alpha virt. eigenvalues --    0.09398   0.10185   0.10921   0.11300   0.11383
 Alpha virt. eigenvalues --    0.12928   0.13589   0.14301   0.14801   0.17138

 Mulliken charges:
               1
     1  N   -3.259764
     2  C    4.451470
     3  C   -1.806595
     4  N   -1.820575
     5  C    1.529738
     6  N   -1.355491
     7  N   -1.693713
     8  H    0.531975
     9  H    0.768405
    10  H    1.190697
    11  H    1.463854
 Sum of Mulliken charges =  -0.00000

 Dipole moment (field-independent basis, Debye):
    X=              2.9745    Y=             -1.7734    Z=              0.5946  Tot=              3.5137

 Test job not archived.
 1\1\GINC-SE045\SP\RHF\Aug-CC-pVDZ\C3H4N4\OHZDE\09-Apr-2025\0\\#t hf au
 g-cc-pvdz iop(5/13=1,5/36=2,99/5=2) pseudo=read geom=check guess=(read
 ,tcheck) scf=(maxcycle=1)\\title\\0,1\N,0,1.72208327,-0.05868593,-0.64
 593953\C,0,0.42309925,-0.18342412,-0.22977022\C,0,-0.2684645,0.7360767
 8,0.60600731\N,0,-1.07067806,-0.03945342,1.61072265\C,0,-1.71832623,-0
 .17322914,0.50498564\N,0,-1.626746,-1.1411426,-0.4767375\N,0,-0.372017
 12,-1.09535527,-0.83606864\H,0,2.3919665,0.20644591,0.05404456\H,0,2.0
 3288455,-0.79502408,-1.25893352\H,0,0.00819882,1.76415146,0.82317378\H

 Normal termination of Gaussian 16 at Wed Apr  9 18:25:31 2025.
