 Gaussian 16, Revision C.01,

 ----------------------------------------------------------------------
 #t hf aug-cc-pvdz symm=none int=(grid=ultrafine) guess=(read,tcheck) s
 table=(opt,rrhf)
 ----------------------------------------------------------------------
 -----
 title
 -----
 Symbolic Z-matrix:
 Charge =  0 Multiplicity = 1

 SCF Done:  E(RHF) =  -358.344465210     A.U. after   15 cycles
 Normal termination of Gaussian 16 at Wed Apr  9 03:39:12 2025.
 Gaussian 16:  ES64L-G16RevC.01  3-Jul-2019

 ----------------------------------------------------------------------
 #t hf aug-cc-pvdz iop(5/13=1,5/36=2,99/5=2) pseudo=read geom=check gue
 ss=(read,tcheck) scf=(maxcycle=1)
 ----------------------------------------------------------------------
 -----
 title
 -----
 Structure from the checkpoint file:  "Grambow2020_wb97xd3_007454_reverse_mol1.chk"
 Charge =  0 Multiplicity = 1

                         Standard orientation:
 ---------------------------------------------------------------------
 Center     Atomic      Atomic             Coordinates (Angstroms)
 Number     Number       Type             X           Y           Z
 ---------------------------------------------------------------------
      1          8           0       -1.572114   -0.066149   -0.725358
      2          6           0       -2.002021    0.215353    0.792373
      3          6           0       -0.294908    0.027310   -0.108893
      4          7           0        0.351765   -1.108166   -0.008714
      5          8           0        1.684773   -0.744507    0.183516
      6          6           0        1.778152    0.581855    0.070666
      7          6           0        0.583448    1.155155   -0.149224
      8          1           0       -1.690306   -0.985902   -1.019548
      9          1           0       -2.828910    0.918036    0.683275
     10          1           0       -2.330902   -0.758416    1.155527
     11          1           0        2.769082    0.994703    0.180172
     12          1           0        0.329375    2.195953   -0.233225
 ---------------------------------------------------------------------

 SCF Done:  E(RHF) =  -359.941724328     A.U. after    2 cycles

 The electronic state is 1-A.
 Alpha  occ. eigenvalues --  -21.18816 -21.11045 -15.73856 -11.52783 -11.47469
 Alpha  occ. eigenvalues --  -11.40961 -11.39074  -1.91268  -1.85328  -1.25314
 Alpha  occ. eigenvalues --   -1.16008  -0.96744  -0.86069  -0.82296  -0.74317
 Alpha  occ. eigenvalues --   -0.66048  -0.63696  -0.58899  -0.55072  -0.51744
 Alpha  occ. eigenvalues --   -0.49241  -0.42957  -0.42320  -0.38755  -0.35258
 Alpha  occ. eigenvalues --   -0.24753
 Alpha virt. eigenvalues --    0.03366   0.05069   0.05354   0.05563   0.06316
 Alpha virt. eigenvalues --    0.10156   0.10570   0.10840   0.11470   0.12719
 Alpha virt. eigenvalues --    0.13290   0.13938   0.14207   0.15213   0.15480

 Mulliken charges:
               1
     1  O   -3.072551
     2  C   -2.818134
     3  C    5.614921
     4  N   -1.387579
     5  O   -2.954359
     6  C    1.104040
     7  C   -2.268473
     8  H    0.746276
     9  H    1.184922
    10  H    1.229297
    11  H    1.434319
    12  H    1.187322
 Sum of Mulliken charges =   0.00000

 Dipole moment (field-independent basis, Debye):
    X=             -0.9076    Y=              1.0261    Z=             -1.7662  Tot=              2.2353

 Test job not archived.
 1\1\GINC-SE455\SP\RHF\Aug-CC-pVDZ\C4H5N1O2\OHZDE\09-Apr-2025\0\\#t hf
 aug-cc-pvdz iop(5/13=1,5/36=2,99/5=2) pseudo=read geom=check guess=(re
 ad,tcheck) scf=(maxcycle=1)\\title\\0,1\O,0,-1.40402081,0.49611138,0.4
 2815945\C,0,-1.59430999,-0.98502795,-0.15286344\C,0,-0.08723281,0.2302
 6274,-0.03596662\N,0,0.2663245,0.90422163,-1.10288012\O,0,1.6602687,0.
 85030756,-1.11398477\C,0,2.06571423,0.24938098,0.00636896\C,0,1.033205
 47,-0.14735064,0.76851832\H,0,-1.77462785,1.20359562,-0.12734041\H,0,-
 2.22914599,-1.45919664,0.59650764\H,0,-2.11430575,-0.82986762,-1.09827

 Normal termination of Gaussian 16 at Wed Apr  9 03:39:16 2025.
