 Gaussian 16, Revision C.01,

 ----------------------------------------------------------------------
 #t hf aug-cc-pvdz symm=none int=(grid=ultrafine) guess=(read,tcheck) s
 table=(opt,rrhf)
 ----------------------------------------------------------------------
 -----
 title
 -----
 Symbolic Z-matrix:
 Charge =  0 Multiplicity = 1

 SCF Done:  E(RHF) =  -323.783365960     A.U. after   15 cycles
 Normal termination of Gaussian 16 at Wed Apr  9 03:52:46 2025.
 Gaussian 16:  ES64L-G16RevC.01  3-Jul-2019

 ----------------------------------------------------------------------
 #t hf aug-cc-pvdz iop(5/13=1,5/36=2,99/5=2) pseudo=read geom=check gue
 ss=(read,tcheck) scf=(maxcycle=1)
 ----------------------------------------------------------------------
 -----
 title
 -----
 Structure from the checkpoint file:  "Grambow2020_wb97xd3_008322_forward_mol1.chk"
 Charge =  0 Multiplicity = 1

                         Standard orientation:
 ---------------------------------------------------------------------
 Center     Atomic      Atomic             Coordinates (Angstroms)
 Number     Number       Type             X           Y           Z
 ---------------------------------------------------------------------
      1          7           0        2.154101   -0.065914   -0.553922
      2          6           0        1.107142    0.008261    0.165570
      3          6           0        0.355344    1.322846    0.279223
      4          6           0       -1.079816    1.203092   -0.288278
      5          6           0       -1.693164   -0.137788    0.085625
      6          6           0       -1.132608   -1.273398   -0.510488
      7          8           0        0.511958   -1.005637    0.792083
      8          1           0        2.512283   -1.019778   -0.518671
      9          1           0        0.296043    1.584037    1.339542
     10          1           0        0.908963    2.103177   -0.237809
     11          1           0       -1.041255    1.303496   -1.376574
     12          1           0       -1.695959    2.019680    0.087818
     13          1           0       -0.880780   -0.529439    0.950112
     14          1           0       -2.698223   -0.208476    0.487232
     15          1           0       -0.403007   -1.225041   -1.311762
     16          1           0       -1.513829   -2.259231   -0.269013
 ---------------------------------------------------------------------

 SCF Done:  E(RHF) =  -325.317064429     A.U. after    2 cycles

 The electronic state is 1-A.
 Alpha  occ. eigenvalues --  -20.99780 -15.68265 -11.53392 -11.46762 -11.45064
 Alpha  occ. eigenvalues --  -11.40780 -11.37162  -1.69116  -1.28091  -1.26517
 Alpha  occ. eigenvalues --   -1.11430  -0.95655  -0.86176  -0.74690  -0.71549
 Alpha  occ. eigenvalues --   -0.65505  -0.63982  -0.59917  -0.56789  -0.53686
 Alpha  occ. eigenvalues --   -0.50405  -0.47144  -0.44958  -0.42978  -0.34026
 Alpha  occ. eigenvalues --   -0.29098  -0.24791
 Alpha virt. eigenvalues --    0.02506   0.04082   0.04676   0.05098   0.05566
 Alpha virt. eigenvalues --    0.06794   0.07025   0.07594   0.07861   0.08631
 Alpha virt. eigenvalues --    0.11599   0.12448   0.12624   0.13462   0.13569

 Mulliken charges:
               1
     1  N   -3.664898
     2  C    5.807582
     3  C   -3.247350
     4  C   -2.944946
     5  C   -2.136440
     6  C   -2.980150
     7  O   -2.934832
     8  H    0.633227
     9  H    1.126643
    10  H    1.335829
    11  H    1.266792
    12  H    1.316917
    13  H    2.580830
    14  H    1.221168
    15  H    1.429932
    16  H    1.189695
 Sum of Mulliken charges =   0.00000

 Dipole moment (field-independent basis, Debye):
    X=             -4.5556    Y=             -1.4997    Z=              0.1006  Tot=              4.7972

 Test job not archived.
 1\1\GINC-SE403\SP\RHF\Aug-CC-pVDZ\C5H9N1O1\OHZDE\09-Apr-2025\0\\#t hf
 aug-cc-pvdz iop(5/13=1,5/36=2,99/5=2) pseudo=read geom=check guess=(re
 ad,tcheck) scf=(maxcycle=1)\\title\\0,1\N,0,2.35839704,0.70367036,0.31
 388979\C,0,1.32950786,0.29678636,-0.31470071\C,0,0.82805628,-1.1223645
 1,-0.11268667\C,0,-0.594235,-1.13677025,0.49801875\C,0,-1.44854115,-0.
 03406011,-0.10873509\C,0,-1.0936183,1.28227958,0.20822357\O,0,0.548050
 77,1.03456541,-1.1019475\H,0,2.53594183,1.67570917,0.06286825\H,0,0.79
 795392,-1.60932943,-1.09144714\H,0,1.52405852,-1.66611491,0.52186066\H

 Normal termination of Gaussian 16 at Wed Apr  9 03:52:51 2025.
