 Gaussian 16, Revision C.01,

 ----------------------------------------------------------------------
 #t hf aug-cc-pvdz symm=none int=(grid=ultrafine) guess=(read,tcheck) s
 table=(opt,rrhf)
 ----------------------------------------------------------------------
 -----
 title
 -----
 Symbolic Z-matrix:
 Charge =  0 Multiplicity = 1

 SCF Done:  E(RHF) =  -322.604212359     A.U. after   16 cycles
 Normal termination of Gaussian 16 at Wed Apr  9 18:53:45 2025.
 Gaussian 16:  ES64L-G16RevC.01  3-Jul-2019

 ----------------------------------------------------------------------
 #t hf aug-cc-pvdz iop(5/13=1,5/36=2,99/5=2) pseudo=read geom=check gue
 ss=(read,tcheck) scf=(maxcycle=1)
 ----------------------------------------------------------------------
 -----
 title
 -----
 Structure from the checkpoint file:  "Grambow2020_wb97xd3_007756_reverse_mol1.chk"
 Charge =  0 Multiplicity = 1

                         Standard orientation:
 ---------------------------------------------------------------------
 Center     Atomic      Atomic             Coordinates (Angstroms)
 Number     Number       Type             X           Y           Z
 ---------------------------------------------------------------------
      1          6           0       -2.519183   -0.389276   -0.147485
      2          6           0       -1.080449   -0.066200    0.133370
      3          6           0        0.057523   -1.020466    0.036854
      4          6           0        1.255887   -0.275201   -0.026232
      5          7           0        2.482586   -0.592333   -0.071857
      6          8           0        0.819234    1.108023   -0.024285
      7          6           0       -0.491068    1.198070    0.024562
      8          1           0       -3.175406    0.423704    0.163907
      9          1           0       -2.655613   -0.559422   -1.215840
     10          1           0       -2.824374   -1.295544    0.375452
     11          1           0       -0.019731   -2.088163    0.141245
     12          1           0        3.088598    0.215843   -0.134466
     13          1           0       -0.746779   -0.277711    1.225576
     14          1           0       -0.934933    2.181881    0.014997
 ---------------------------------------------------------------------

 SCF Done:  E(RHF) =  -324.094172158     A.U. after    2 cycles

 The electronic state is 1-A.
 Alpha  occ. eigenvalues --  -21.13526 -15.67406 -11.52442 -11.49717 -11.46512
 Alpha  occ. eigenvalues --  -11.42667 -11.38365  -1.86599  -1.29754  -1.27633
 Alpha  occ. eigenvalues --   -1.06915  -1.00543  -0.83262  -0.78692  -0.69569
 Alpha  occ. eigenvalues --   -0.67066  -0.60903  -0.60527  -0.57661  -0.53232
 Alpha  occ. eigenvalues --   -0.51111  -0.45462  -0.44375  -0.41495  -0.34802
 Alpha  occ. eigenvalues --   -0.21055
 Alpha virt. eigenvalues --    0.01926   0.03953   0.04690   0.05291   0.05799
 Alpha virt. eigenvalues --    0.07055   0.07154   0.07857   0.10648   0.10981
 Alpha virt. eigenvalues --    0.11170   0.12770   0.13162   0.13953   0.14153

 Mulliken charges:
               1
     1  C   -4.204003
     2  C   -0.526132
     3  C   -1.805189
     4  C    4.649791
     5  N   -3.805157
     6  O   -4.010470
     7  C    0.819563
     8  H    1.156533
     9  H    1.190950
    10  H    1.100342
    11  H    1.462160
    12  H    0.789567
    13  H    1.610371
    14  H    1.571674
 Sum of Mulliken charges =  -0.00000

 Dipole moment (field-independent basis, Debye):
    X=             -5.0509    Y=              2.8670    Z=              0.3647  Tot=              5.8193

 Test job not archived.
 1\1\GINC-SE232\SP\RHF\Aug-CC-pVDZ\C5H7N1O1\OHZDE\09-Apr-2025\0\\#t hf
 aug-cc-pvdz iop(5/13=1,5/36=2,99/5=2) pseudo=read geom=check guess=(re
 ad,tcheck) scf=(maxcycle=1)\\title\\0,1\C,0,-2.01394904,-0.039551,-0.4
 5573541\C,0,-0.60321757,0.05304128,0.04872175\C,0,0.48535255,-0.921042
 98,-0.2360504\C,0,1.7210174,-0.3012472,0.05457412\N,0,2.92572879,-0.69
 54674,0.02801049\O,0,1.3620194,1.0465509,0.45274397\C,0,0.06185011,1.2
 3207673,0.40248393\H,0,-2.65780029,0.69196736,0.03300428\H,0,-2.032158
 97,0.1412579,-1.53087285\H,0,-2.42694105,-1.03245293,-0.27822958\H,0,0

 Normal termination of Gaussian 16 at Wed Apr  9 18:53:50 2025.
