 Gaussian 16, Revision C.01,

 ----------------------------------------------------------------------
 #t hf aug-cc-pvdz symm=none int=(grid=ultrafine) guess=(read,tcheck) s
 table=(opt,rrhf)
 ----------------------------------------------------------------------
 -----
 title
 -----
 Symbolic Z-matrix:
 Charge =  0 Multiplicity = 1

 SCF Done:  E(RHF) =  -323.961906691     A.U. after   14 cycles
 Normal termination of Gaussian 16 at Wed Apr  9 03:52:45 2025.
 Gaussian 16:  ES64L-G16RevC.01  3-Jul-2019

 ----------------------------------------------------------------------
 #t hf aug-cc-pvdz iop(5/13=1,5/36=2,99/5=2) pseudo=read geom=check gue
 ss=(read,tcheck) scf=(maxcycle=1)
 ----------------------------------------------------------------------
 -----
 title
 -----
 Structure from the checkpoint file:  "Grambow2020_wb97xd3_008321_reverse_mol2.chk"
 Charge =  0 Multiplicity = 1

                         Standard orientation:
 ---------------------------------------------------------------------
 Center     Atomic      Atomic             Coordinates (Angstroms)
 Number     Number       Type             X           Y           Z
 ---------------------------------------------------------------------
      1          7           0        0.155212   -0.876765   -0.518243
      2          6           0        1.200939   -0.191428    0.021426
      3          6           0        0.689974    1.201881    0.355636
      4          6           0       -0.665078    1.287727   -0.345933
      5          6           0       -1.118035   -0.178802   -0.497596
      6          6           0       -2.024970   -0.651373    0.632556
      7          8           0        2.313436   -0.625794    0.208051
      8          1           0        0.239421   -1.864732   -0.685875
      9          1           0        0.608316    1.269079    1.443184
     10          1           0        1.409279    1.953669    0.036698
     11          1           0       -0.545679    1.735051   -1.333755
     12          1           0       -1.400500    1.879393    0.198955
     13          1           0       -2.978324   -0.119663    0.606195
     14          1           0       -1.631935   -0.322334   -1.451801
     15          1           0       -2.233225   -1.719982    0.548479
     16          1           0       -1.558304   -0.474805    1.604681
 ---------------------------------------------------------------------

 SCF Done:  E(RHF) =  -325.480752698     A.U. after    2 cycles

 The electronic state is 1-A.
 Alpha  occ. eigenvalues --  -21.01489 -15.75176 -11.49395 -11.47142 -11.42696
 Alpha  occ. eigenvalues --  -11.39243 -11.36880  -1.69679  -1.44941  -1.17164
 Alpha  occ. eigenvalues --   -1.11874  -0.96930  -0.84933  -0.80746  -0.69166
 Alpha  occ. eigenvalues --   -0.66321  -0.58802  -0.57867  -0.56640  -0.54166
 Alpha  occ. eigenvalues --   -0.52753  -0.51306  -0.46330  -0.45234  -0.43403
 Alpha  occ. eigenvalues --   -0.30325  -0.26894
 Alpha virt. eigenvalues --    0.03281   0.04857   0.05196   0.05219   0.05433
 Alpha virt. eigenvalues --    0.05955   0.06631   0.07500   0.08864   0.10067
 Alpha virt. eigenvalues --    0.11463   0.11955   0.12921   0.13475   0.14519

 Mulliken charges:
               1
     1  N   -2.489296
     2  C    4.851833
     3  C   -3.531740
     4  C   -2.368034
     5  C   -1.150829
     6  C   -3.445482
     7  O   -3.495905
     8  H    0.716404
     9  H    1.386454
    10  H    1.268060
    11  H    1.331506
    12  H    1.486460
    13  H    1.172786
    14  H    1.695873
    15  H    1.231995
    16  H    1.339916
 Sum of Mulliken charges =   0.00000

 Dipole moment (field-independent basis, Debye):
    X=             -2.9536    Y=              0.4374    Z=             -0.5366  Tot=              3.0336

 Test job not archived.
 1\1\GINC-SE402\SP\RHF\Aug-CC-pVDZ\C5H9N1O1\OHZDE\09-Apr-2025\0\\#t hf
 aug-cc-pvdz iop(5/13=1,5/36=2,99/5=2) pseudo=read geom=check guess=(re
 ad,tcheck) scf=(maxcycle=1)\\title\\0,1\N,0,0.82402898,0.87033413,0.66
 430456\C,0,1.7162206,0.14987698,-0.07014106\C,0,0.99083065,-1.10107053
 ,-0.54240337\C,0,-0.30035193,-1.12259929,0.27498181\C,0,-0.53112768,0.
 34866149,0.67624597\C,0,-1.45389729,1.09789569,-0.2778192\O,0,2.858999
 88,0.46488427,-0.30673864\H,0,1.05820791,1.80275482,0.95930168\H,0,0.8
 1103829,-0.99081507,-1.61453284\H,0,1.62261719,-1.9767863,-0.40721819\

 Normal termination of Gaussian 16 at Wed Apr  9 03:52:51 2025.
