 Gaussian 16, Revision C.01,

 ----------------------------------------------------------------------
 #t hf aug-cc-pvdz symm=none int=(grid=ultrafine) guess=(read,tcheck) s
 table=(opt,rrhf)
 ----------------------------------------------------------------------
 -----
 title
 -----
 Symbolic Z-matrix:
 Charge =  0 Multiplicity = 1

 SCF Done:  E(RHF) =  -283.577095051     A.U. after   15 cycles
 Normal termination of Gaussian 16 at Wed Apr  9 03:09:14 2025.
 Gaussian 16:  ES64L-G16RevC.01  3-Jul-2019

 ----------------------------------------------------------------------
 #t hf aug-cc-pvdz iop(5/13=1,5/36=2,99/5=2) pseudo=read geom=check gue
 ss=(read,tcheck) scf=(maxcycle=1)
 ----------------------------------------------------------------------
 -----
 title
 -----
 Structure from the checkpoint file:  "Grambow2020_b97d3_006655_forward_mol1.chk"
 Charge =  0 Multiplicity = 1

                         Standard orientation:
 ---------------------------------------------------------------------
 Center     Atomic      Atomic             Coordinates (Angstroms)
 Number     Number       Type             X           Y           Z
 ---------------------------------------------------------------------
      1          7           0        2.236202   -0.135836    0.371182
      2          6           0        1.797640    0.806504   -0.243752
      3          6           0        0.595076   -0.566940   -0.411944
      4          6           0       -0.573558   -0.182100    0.449243
      5          6           0       -1.540749    0.822450   -0.010389
      6          8           0       -1.838452   -0.585626   -0.104101
      7          1           0        0.889841   -1.611064   -0.274163
      8          1           0        0.429536   -0.384390   -1.477049
      9          1           0       -0.446215   -0.358628    1.520753
     10          1           0       -2.125148    1.378047    0.727657
     11          1           0       -1.364262    1.332413   -0.961603
 ---------------------------------------------------------------------

 SCF Done:  E(RHF) =  -284.859833749     A.U. after    2 cycles

 The electronic state is 1-A.
 Alpha  occ. eigenvalues --  -21.08334 -15.79441 -11.52618 -11.48060 -11.43384
 Alpha  occ. eigenvalues --  -11.41733  -1.79462  -1.39434  -1.10332  -0.98034
 Alpha  occ. eigenvalues --   -0.87442  -0.73555  -0.68663  -0.64616  -0.56908
 Alpha  occ. eigenvalues --   -0.55480  -0.54879  -0.46757  -0.44793  -0.43975
 Alpha  occ. eigenvalues --   -0.38503  -0.33257
 Alpha virt. eigenvalues --    0.03858   0.05265   0.05687   0.05861   0.06230
 Alpha virt. eigenvalues --    0.08856   0.09961   0.10883   0.11717   0.13108
 Alpha virt. eigenvalues --    0.13484   0.13666   0.14814   0.15187   0.15346

 Mulliken charges:
               1
     1  N   -0.879139
     2  C    0.427548
     3  C   -3.313970
     4  C    1.098964
     5  C   -2.021422
     6  O   -2.447584
     7  H    1.333342
     8  H    1.438573
     9  H    1.460370
    10  H    1.430663
    11  H    1.472656
 Sum of Mulliken charges =  -0.00000

 Dipole moment (field-independent basis, Debye):
    X=             -1.9918    Y=             -1.3209    Z=             -0.1761  Tot=              2.3964

 Test job not archived.
 1\1\GINC-SE120\SP\RHF\Aug-CC-pVDZ\C4H5N1O1\OHZDE\09-Apr-2025\0\\#t hf
 aug-cc-pvdz iop(5/13=1,5/36=2,99/5=2) pseudo=read geom=check guess=(re
 ad,tcheck) scf=(maxcycle=1)\\title\\0,1\N,0,2.39535459,-0.22496446,0.4
 9635528\C,0,2.03370806,0.46483057,-0.42661697\C,0,0.7148998,-0.7694876
 7,-0.11356295\C,0,-0.40686261,-0.00194575,0.5251693\C,0,-1.28809462,0.
 84648695,-0.28688555\O,0,-1.70771811,-0.46963113,0.12764641\H,0,0.9194
 6491,-1.71411589,0.39819458\H,0,0.55463456,-0.97101531,-1.17604927\H,0
 ,-0.28405901,0.21072124,1.59062966\H,0,-1.81434253,1.67862737,0.188010

 Normal termination of Gaussian 16 at Wed Apr  9 03:09:18 2025.
