 Gaussian 16, Revision C.01,

 ----------------------------------------------------------------------
 #t hf aug-cc-pvdz symm=none int=(grid=ultrafine) guess=(read,tcheck) s
 table=(opt,rrhf)
 ----------------------------------------------------------------------
 -----
 title
 -----
 Symbolic Z-matrix:
 Charge =  0 Multiplicity = 1

 SCF Done:  E(RHF) =  -360.774355741     A.U. after   16 cycles
 Normal termination of Gaussian 16 at Wed Apr  9 03:58:50 2025.
 Gaussian 16:  ES64L-G16RevC.01  3-Jul-2019

 ----------------------------------------------------------------------
 #t hf aug-cc-pvdz iop(5/13=1,5/36=2,99/5=2) pseudo=read geom=check gue
 ss=(read,tcheck) scf=(maxcycle=1)
 ----------------------------------------------------------------------
 -----
 title
 -----
 Structure from the checkpoint file:  "Grambow2020_wb97xd3_008734_reverse_mol1.chk"
 Charge =  0 Multiplicity = 1

                         Standard orientation:
 ---------------------------------------------------------------------
 Center     Atomic      Atomic             Coordinates (Angstroms)
 Number     Number       Type             X           Y           Z
 ---------------------------------------------------------------------
      1          6           0        2.428532   -0.441866    0.386829
      2          6           0        1.027248    0.151849    0.254398
      3          8           0        1.035494    1.286311   -0.581660
      4          6           0        0.115294   -0.916489   -0.330288
      5          6           0       -1.494566    0.034553   -0.403954
      6          8           0       -1.623201   -1.209942   -0.069213
      7          7           0       -2.055438    0.901028    0.449313
      8          1           0        2.806211   -0.752117   -0.589482
      9          1           0        2.434789   -1.302178    1.057785
     10          1           0        3.115835    0.301791    0.796943
     11          1           0        0.653236    0.412738    1.253587
     12          1           0        1.694783    1.898369   -0.250401
     13          1           0        0.262540   -1.068511   -1.391205
     14          1           0        0.282225   -1.827384    0.250369
     15          1           0       -2.578595    0.569191    1.251448
     16          1           0       -2.040351    1.881662    0.240845
 ---------------------------------------------------------------------

 SCF Done:  E(RHF) =  -362.429830514     A.U. after    2 cycles

 The electronic state is 1-A.
 Alpha  occ. eigenvalues --  -21.07322 -21.04804 -15.75264 -11.49808 -11.44888
 Alpha  occ. eigenvalues --  -11.39479 -11.38869  -1.74631  -1.71177  -1.31121
 Alpha  occ. eigenvalues --   -1.17985  -1.01132  -0.84931  -0.79319  -0.69126
 Alpha  occ. eigenvalues --   -0.68668  -0.63443  -0.61501  -0.57770  -0.55796
 Alpha  occ. eigenvalues --   -0.52219  -0.48846  -0.48260  -0.41576  -0.40334
 Alpha  occ. eigenvalues --   -0.33764  -0.32178  -0.23145
 Alpha virt. eigenvalues --    0.03563   0.04774   0.05110   0.05303   0.05738
 Alpha virt. eigenvalues --    0.06356   0.06986   0.07667   0.08833   0.10304
 Alpha virt. eigenvalues --    0.12070   0.12841   0.13448   0.14739   0.15176

 Mulliken charges:
               1
     1  C   -3.686007
     2  C    1.160769
     3  O   -2.995256
     4  C   -2.058685
     5  C    1.964164
     6  O   -2.096958
     7  N   -2.237826
     8  H    1.213205
     9  H    1.216072
    10  H    1.078289
    11  H    1.804631
    12  H    0.757351
    13  H    1.512775
    14  H    1.150401
    15  H    0.476037
    16  H    0.741038
 Sum of Mulliken charges =  -0.00000

 Dipole moment (field-independent basis, Debye):
    X=              1.0803    Y=              0.4805    Z=              1.8459  Tot=              2.1921

 Test job not archived.
 1\1\GINC-SE333\SP\RHF\Aug-CC-pVDZ\C4H9N1O2\OHZDE\09-Apr-2025\0\\#t hf
 aug-cc-pvdz iop(5/13=1,5/36=2,99/5=2) pseudo=read geom=check guess=(re
 ad,tcheck) scf=(maxcycle=1)\\title\\0,1\C,0,-2.01201227,-0.11811932,-1
 .03306047\C,0,-0.61497455,0.29493603,-0.57338351\O,0,-0.65185485,1.523
 87706,0.11539081\C,0,-0.07714538,-0.79585946,0.34082135\C,0,1.59293413
 ,-0.06808079,0.76829122\O,0,1.59562408,-1.35257273,0.6026471\N,0,2.492
 34681,0.59047202,0.02614046\H,0,-2.67678238,-0.23846005,-0.17534289\H,
 0,-1.98633502,-1.05345478,-1.59417175\H,0,-2.43551573,0.64777895,-1.68

 Normal termination of Gaussian 16 at Wed Apr  9 03:58:55 2025.
