 Gaussian 16, Revision C.01,

 ----------------------------------------------------------------------
 #t hf aug-cc-pvdz symm=none int=(grid=ultrafine) guess=(read,tcheck) s
 table=(opt,rrhf)
 ----------------------------------------------------------------------
 -----
 title
 -----
 Symbolic Z-matrix:
 Charge =  0 Multiplicity = 1

 SCF Done:  E(RHF) =  -322.579190839     A.U. after   15 cycles
 Normal termination of Gaussian 16 at Wed Apr  9 18:39:34 2025.
 Gaussian 16:  ES64L-G16RevC.01  3-Jul-2019

 ----------------------------------------------------------------------
 #t hf aug-cc-pvdz iop(5/13=1,5/36=2,99/5=2) pseudo=read geom=check gue
 ss=(read,tcheck) scf=(maxcycle=1)
 ----------------------------------------------------------------------
 -----
 title
 -----
 Structure from the checkpoint file:  "Grambow2020_wb97xd3_007373_forward_mol1.chk"
 Charge =  0 Multiplicity = 1

                         Standard orientation:
 ---------------------------------------------------------------------
 Center     Atomic      Atomic             Coordinates (Angstroms)
 Number     Number       Type             X           Y           Z
 ---------------------------------------------------------------------
      1          6           0        1.461687   -0.184048    0.638275
      2          6           0        0.839844   -1.007395   -0.433916
      3          6           0       -0.543854   -1.165431   -0.410189
      4          8           0       -1.175392   -0.552673    0.700401
      5          6           0       -1.284347    0.670056   -0.007806
      6          7           0       -0.239162    1.449752   -0.255995
      7          6           0        0.986840    0.987852   -0.159173
      8          1           0        1.033904   -0.301211    1.626913
      9          1           0        2.545222   -0.242251    0.660800
     10          1           0        1.429575   -1.428288   -1.236472
     11          1           0       -1.045112   -2.043297   -0.803469
     12          1           0       -1.118390   -0.153123   -1.145518
     13          1           0       -2.269423    1.119992    0.062220
     14          1           0        1.740474    1.515094   -0.738867
 ---------------------------------------------------------------------

 SCF Done:  E(RHF) =  -324.105796867     A.U. after    2 cycles

 The electronic state is 1-A.
 Alpha  occ. eigenvalues --  -21.06150 -15.72591 -11.50938 -11.46501 -11.44663
 Alpha  occ. eigenvalues --  -11.42035 -11.38891  -1.80936  -1.39971  -1.22485
 Alpha  occ. eigenvalues --   -1.03583  -0.95757  -0.82122  -0.78839  -0.74000
 Alpha  occ. eigenvalues --   -0.66394  -0.61846  -0.60424  -0.58346  -0.51979
 Alpha  occ. eigenvalues --   -0.48406  -0.46100  -0.40318  -0.32962  -0.31468
 Alpha  occ. eigenvalues --   -0.28654
 Alpha virt. eigenvalues --    0.03782   0.04884   0.05240   0.05706   0.06023
 Alpha virt. eigenvalues --    0.06366   0.07635   0.09193   0.10878   0.11745
 Alpha virt. eigenvalues --    0.12599   0.12740   0.13721   0.14023   0.14751

 Mulliken charges:
               1
     1  C   -3.306162
     2  C   -0.530630
     3  C   -0.959103
     4  O   -2.996988
     5  C    0.739295
     6  N   -3.405269
     7  C    0.934220
     8  H    1.131400
     9  H    1.363673
    10  H    1.330667
    11  H    1.259385
    12  H    1.543998
    13  H    1.398741
    14  H    1.496774
 Sum of Mulliken charges =  -0.00000

 Dipole moment (field-independent basis, Debye):
    X=              0.6264    Y=             -1.5251    Z=              0.2742  Tot=              1.6714

 Test job not archived.
 1\1\GINC-SE226\SP\RHF\Aug-CC-pVDZ\C5H7N1O1\OHZDE\09-Apr-2025\0\\#t hf
 aug-cc-pvdz iop(5/13=1,5/36=2,99/5=2) pseudo=read geom=check guess=(re
 ad,tcheck) scf=(maxcycle=1)\\title\\0,1\C,0,-1.37925647,-0.47226229,0.
 30579175\C,0,-0.83314836,0.75220542,-0.3396744\C,0,0.37201849,1.257197
 99,0.14273127\O,0,0.89113551,0.5476643,1.25394794\C,0,1.56456485,-0.35
 365632,0.3921999\N,0,0.92834773,-1.28002567,-0.3142001\C,0,-0.36766002
 ,-1.20496015,-0.51553694\H,0,-1.26051531,-0.52788174,1.3814019\H,0,-2.
 39325905,-0.71129367,0.00147976\H,0,-1.32274759,1.20946791,-1.18833953

 Normal termination of Gaussian 16 at Wed Apr  9 18:39:38 2025.
