 Gaussian 16, Revision C.01,

 ----------------------------------------------------------------------
 #t hf aug-cc-pvdz symm=none int=(grid=ultrafine) guess=(read,tcheck) s
 table=(opt,rrhf)
 ----------------------------------------------------------------------
 -----
 title
 -----
 Symbolic Z-matrix:
 Charge =  0 Multiplicity = 1

 SCF Done:  E(RHF) =  -342.391072824     A.U. after   16 cycles
 Normal termination of Gaussian 16 at Wed Apr  9 03:59:40 2025.
 Gaussian 16:  ES64L-G16RevC.01  3-Jul-2019

 ----------------------------------------------------------------------
 #t hf aug-cc-pvdz iop(5/13=1,5/36=2,99/5=2) pseudo=read geom=check gue
 ss=(read,tcheck) scf=(maxcycle=1)
 ----------------------------------------------------------------------
 -----
 title
 -----
 Structure from the checkpoint file:  "Grambow2020_wb97xd3_008772_forward_mol1.chk"
 Charge =  0 Multiplicity = 1

                         Standard orientation:
 ---------------------------------------------------------------------
 Center     Atomic      Atomic             Coordinates (Angstroms)
 Number     Number       Type             X           Y           Z
 ---------------------------------------------------------------------
      1          8           0       -2.339772   -0.770385    0.100101
      2          6           0       -1.771844    0.392190    0.020511
      3          6           0       -0.311111    0.333893   -0.072939
      4          8           0        0.609616    1.232446    0.240153
      5          6           0        1.643854    0.351082   -0.314739
      6          6           0        1.699137   -0.841823    0.530414
      7          6           0        0.591132   -0.714656   -0.526160
      8          1           0       -1.997443    1.170213    0.797999
      9          1           0       -1.942904    1.016286   -0.933464
     10          1           0        2.374544    0.796593   -0.971002
     11          1           0        2.452520   -1.573454    0.265602
     12          1           0        1.449748   -0.777006    1.581964
     13          1           0        0.397774   -1.453235   -1.285657
 ---------------------------------------------------------------------

 SCF Done:  E(RHF) =  -343.910834068     A.U. after    2 cycles

 The electronic state is 1-A.
 Alpha  occ. eigenvalues --  -21.16778 -20.90548 -11.57626 -11.54587 -11.49864
 Alpha  occ. eigenvalues --  -11.45712 -11.41281  -1.92350  -1.57014  -1.33572
 Alpha  occ. eigenvalues --   -1.09396  -0.97315  -0.91401  -0.79907  -0.74006
 Alpha  occ. eigenvalues --   -0.70286  -0.64883  -0.60437  -0.56924  -0.51729
 Alpha  occ. eigenvalues --   -0.50177  -0.45450  -0.41328  -0.38638  -0.20618
 Alpha  occ. eigenvalues --   -0.19788
 Alpha virt. eigenvalues --    0.02296   0.03507   0.04645   0.04879   0.06375
 Alpha virt. eigenvalues --    0.06927   0.07631   0.08077   0.09303   0.10376
 Alpha virt. eigenvalues --    0.11594   0.12354   0.12631   0.13134   0.14167

 Mulliken charges:
               1
     1  O   -2.791821
     2  C    0.443595
     3  C    3.603328
     4  O   -3.456683
     5  C    1.197079
     6  C   -2.974981
     7  C   -2.665708
     8  H    1.000283
     9  H    0.935073
    10  H    1.246585
    11  H    1.323590
    12  H    1.199197
    13  H    0.940463
 Sum of Mulliken charges =  -0.00000

 Dipole moment (field-independent basis, Debye):
    X=              8.2738    Y=              1.4949    Z=             -0.4967  Tot=              8.4224

 Test job not archived.
 1\1\GINC-SE044\SP\RHF\Aug-CC-pVDZ\C5H6O2\OHZDE\09-Apr-2025\0\\#t hf au
 g-cc-pvdz iop(5/13=1,5/36=2,99/5=2) pseudo=read geom=check guess=(read
 ,tcheck) scf=(maxcycle=1)\\title\\0,1\O,0,1.64301892,1.50248427,-1.498
 44673\C,0,1.89522455,0.52283431,-0.68780642\C,0,0.69994226,-0.06843559
 ,-0.08152812\O,0,0.55108695,-0.75040026,1.04360652\C,0,-0.85298963,-0.
 99873493,0.69538626\C,0,-1.54150579,0.2919809,0.71436639\C,0,-0.692130
 82,-0.09380641,-0.50625773\H,0,2.62058958,0.67774373,0.1551343\H,0,2.3
 1851592,-0.45363832,-1.13069499\H,0,-1.220366,-2.00652031,0.80706276\H

 Normal termination of Gaussian 16 at Wed Apr  9 03:59:44 2025.
