 Gaussian 16, Revision C.01,

 ----------------------------------------------------------------------
 #t hf aug-cc-pvdz symm=none int=(grid=ultrafine) guess=(read,tcheck) s
 table=(opt,rrhf)
 ----------------------------------------------------------------------
 -----
 title
 -----
 Symbolic Z-matrix:
 Charge =  0 Multiplicity = 1

 SCF Done:  E(RHF) =  -323.878218220     A.U. after   15 cycles
 Normal termination of Gaussian 16 at Wed Apr  9 19:25:15 2025.
 Gaussian 16:  ES64L-G16RevC.01  3-Jul-2019

 ----------------------------------------------------------------------
 #t hf aug-cc-pvdz iop(5/13=1,5/36=2,99/5=2) pseudo=read geom=check gue
 ss=(read,tcheck) scf=(maxcycle=1)
 ----------------------------------------------------------------------
 -----
 title
 -----
 Structure from the checkpoint file:  "Grambow2020_wb97xd3_008935_reverse_mol2.chk"
 Charge =  0 Multiplicity = 1

                         Standard orientation:
 ---------------------------------------------------------------------
 Center     Atomic      Atomic             Coordinates (Angstroms)
 Number     Number       Type             X           Y           Z
 ---------------------------------------------------------------------
      1          6           0        1.085443   -1.045251    0.962513
      2          6           0       -1.169402    0.946516    0.467091
      3          6           0        0.306587    1.103148    0.196527
      4          7           0        0.924347   -0.157752   -0.172486
      5          6           0        2.181020    0.038169   -0.863057
      6          6           0       -1.877210    0.011129   -0.118126
      7          8           0       -2.512449   -0.822541   -0.607742
      8          1           0        1.816006   -0.657794    1.693824
      9          1           0        1.429260   -2.022215    0.619782
     10          1           0        0.131924   -1.180548    1.472514
     11          1           0       -1.704748    1.617882    1.124195
     12          1           0        0.464887    1.804303   -0.627748
     13          1           0        0.783450    1.552461    1.085164
     14          1           0        2.577699   -0.927628   -1.180023
     15          1           0        2.027152    0.648331   -1.754249
     16          1           0        2.944904    0.527542   -0.233807
 ---------------------------------------------------------------------

 SCF Done:  E(RHF) =  -325.403528285     A.U. after    2 cycles

 The electronic state is 1-A.
 Alpha  occ. eigenvalues --  -21.12541 -15.71024 -11.53284 -11.44235 -11.38901
 Alpha  occ. eigenvalues --  -11.38458 -11.37689  -1.76354  -1.44249  -1.16549
 Alpha  occ. eigenvalues --   -1.03564  -0.99145  -0.84743  -0.70591  -0.66433
 Alpha  occ. eigenvalues --   -0.64955  -0.62530  -0.59792  -0.55594  -0.54755
 Alpha  occ. eigenvalues --   -0.53801  -0.52117  -0.49566  -0.48466  -0.44488
 Alpha  occ. eigenvalues --   -0.32100  -0.27554
 Alpha virt. eigenvalues --    0.03704   0.05174   0.05655   0.05709   0.05877
 Alpha virt. eigenvalues --    0.06439   0.06823   0.07547   0.08551   0.09121
 Alpha virt. eigenvalues --    0.11797   0.12639   0.13050   0.13510   0.13930

 Mulliken charges:
               1
     1  C   -3.451758
     2  C   -0.551153
     3  C   -2.524712
     4  N   -2.256683
     5  C   -3.704948
     6  C    2.247927
     7  O   -2.541825
     8  H    1.356210
     9  H    1.321249
    10  H    1.646288
    11  H    1.393647
    12  H    1.452417
    13  H    1.454693
    14  H    1.409611
    15  H    1.326753
    16  H    1.422285
 Sum of Mulliken charges =  -0.00000

 Dipole moment (field-independent basis, Debye):
    X=              0.5225    Y=             -0.1606    Z=             -0.0485  Tot=              0.5488

 Test job not archived.
 1\1\GINC-SE173\SP\RHF\Aug-CC-pVDZ\C5H9N1O1\OHZDE\09-Apr-2025\0\\#t hf
 aug-cc-pvdz iop(5/13=1,5/36=2,99/5=2) pseudo=read geom=check guess=(re
 ad,tcheck) scf=(maxcycle=1)\\title\\0,1\C,0,0.65462764,-1.06745305,0.8
 4162329\C,0,1.02360725,1.44580152,-0.8448866\C,0,-0.02656264,0.3697232
 7,-0.96930879\N,0,-0.37830408,-0.19290047,0.32196913\C,0,-1.66021476,-
 0.86374596,0.28772484\C,0,1.13811547,2.16812385,0.24302826\O,0,1.26850
 777,2.79935588,1.20365346\H,0,0.76862454,-1.98324858,0.23583045\H,0,0.
 4086081,-1.36102881,1.86310353\H,0,1.61296255,-0.54889327,0.85880998\H

 Normal termination of Gaussian 16 at Wed Apr  9 19:25:20 2025.
