 Gaussian 16, Revision C.01,

 ----------------------------------------------------------------------
 #t hf aug-cc-pvdz symm=none int=(grid=ultrafine) guess=(read,tcheck) s
 table=(opt,rrhf)
 ----------------------------------------------------------------------
 -----
 title
 -----
 Symbolic Z-matrix:
 Charge =  0 Multiplicity = 1

 SCF Done:  E(RHF) =  -245.764956968     A.U. after   15 cycles
 Normal termination of Gaussian 16 at Wed Apr  9 17:36:21 2025.
 Gaussian 16:  ES64L-G16RevC.01  3-Jul-2019

 ----------------------------------------------------------------------
 #t hf aug-cc-pvdz iop(5/13=1,5/36=2,99/5=2) pseudo=read geom=check gue
 ss=(read,tcheck) scf=(maxcycle=1)
 ----------------------------------------------------------------------
 -----
 title
 -----
 Structure from the checkpoint file:  "Grambow2020_b97d3_007202_reverse_mol2.chk"
 Charge =  0 Multiplicity = 1

                         Standard orientation:
 ---------------------------------------------------------------------
 Center     Atomic      Atomic             Coordinates (Angstroms)
 Number     Number       Type             X           Y           Z
 ---------------------------------------------------------------------
      1          8           0        1.744505   -0.779994   -0.019988
      2          6           0        1.382593    0.380326   -0.106940
      3          6           0       -0.049345    0.820484    0.125916
      4          6           0       -2.275207   -0.369576   -0.136551
      5          7           0       -0.983495   -0.330676    0.111678
      6          1           0        2.095619    1.201125   -0.357738
      7          1           0       -0.089160    1.325033    1.107296
      8          1           0       -2.579654    0.690630   -0.341418
      9          1           0       -0.357235    1.558587   -0.628420
     10          1           0       -0.489393   -1.208098    0.303891
 ---------------------------------------------------------------------

 SCF Done:  E(RHF) =  -246.857758175     A.U. after    2 cycles

 The electronic state is 1-A.
 Alpha  occ. eigenvalues --  -21.09368 -15.79534 -11.51924 -11.44571 -11.38693
 Alpha  occ. eigenvalues --   -1.73477  -1.42195  -1.10700  -0.88238  -0.83638
 Alpha  occ. eigenvalues --   -0.67128  -0.66348  -0.62905  -0.56632  -0.51915
 Alpha  occ. eigenvalues --   -0.46092  -0.42774  -0.35359  -0.31120
 Alpha virt. eigenvalues --    0.02817   0.04737   0.05146   0.06652   0.07361
 Alpha virt. eigenvalues --    0.08649   0.09683   0.11101   0.11698   0.13095
 Alpha virt. eigenvalues --    0.13754   0.13917   0.14793   0.15145   0.16796

 Mulliken charges:
               1
     1  O   -2.643326
     2  C    1.361399
     3  C   -2.240477
     4  C   -1.528109
     5  N   -1.625494
     6  H    1.490245
     7  H    1.395702
     8  H    1.545305
     9  H    1.528209
    10  H    0.716547
 Sum of Mulliken charges =  -0.00000

 Dipole moment (field-independent basis, Debye):
    X=              2.8143    Y=              2.5312    Z=              0.3372  Tot=              3.8002

 Test job not archived.
 1\1\GINC-SE362\SP\RHF\Aug-CC-pVDZ\C3H5N1O1\OHZDE\09-Apr-2025\0\\#t hf
 aug-cc-pvdz iop(5/13=1,5/36=2,99/5=2) pseudo=read geom=check guess=(re
 ad,tcheck) scf=(maxcycle=1)\\title\\0,1\O,0,1.48070649,0.28087128,1.61
 651863\C,0,1.39218108,-0.38337751,0.59876656\C,0,0.28444034,-0.1949448
 1,-0.41898087\C,0,-2.09794595,0.657262,-0.22513619\N,0,-0.83241302,0.6
 0924253,0.13231753\H,0,2.13704993,-1.17510182,0.3470531\H,0,0.71891308
 ,0.31629622,-1.29597971\H,0,-2.20025436,-0.05524584,-1.08569415\H,0,-0
 .09359039,-1.1667487,-0.76726853\H,0,-0.5207912,1.17482465,0.92853364\

 Normal termination of Gaussian 16 at Wed Apr  9 17:36:24 2025.
