 Gaussian 16, Revision C.01,

 ----------------------------------------------------------------------
 #t hf aug-cc-pvdz symm=none int=(grid=ultrafine) guess=(read,tcheck) s
 table=(opt,rrhf)
 ----------------------------------------------------------------------
 -----
 title
 -----
 Symbolic Z-matrix:
 Charge =  0 Multiplicity = 1

 SCF Done:  E(RHF) =  -206.635443962     A.U. after   15 cycles
 Normal termination of Gaussian 16 at Wed Apr  9 03:09:36 2025.
 Gaussian 16:  ES64L-G16RevC.01  3-Jul-2019

 ----------------------------------------------------------------------
 #t hf aug-cc-pvdz iop(5/13=1,5/36=2,99/5=2) pseudo=read geom=check gue
 ss=(read,tcheck) scf=(maxcycle=1)
 ----------------------------------------------------------------------
 -----
 title
 -----
 Structure from the checkpoint file:  "Grambow2020_b97d3_006673_reverse_mol2.chk"
 Charge =  0 Multiplicity = 1

                         Standard orientation:
 ---------------------------------------------------------------------
 Center     Atomic      Atomic             Coordinates (Angstroms)
 Number     Number       Type             X           Y           Z
 ---------------------------------------------------------------------
      1          8           0       -1.408167   -0.005490   -0.324508
      2          6           0       -0.329951   -0.104833    0.462124
      3          6           0        0.864804   -0.790812   -0.041307
      4          7           0        1.361572    0.433616   -0.221360
      5          1           0       -2.014762    0.687707    0.006269
      6          1           0       -0.382844    0.365483    1.450516
      7          1           0        0.922818    1.329287    0.163899
 ---------------------------------------------------------------------

 SCF Done:  E(RHF) =  -207.534415705     A.U. after    2 cycles

 The electronic state is 1-A.
 Alpha  occ. eigenvalues --  -21.17439 -15.76388 -11.53024 -11.39603  -1.82210
 Alpha  occ. eigenvalues --   -1.37510  -0.96568  -0.82468  -0.73069  -0.61394
 Alpha  occ. eigenvalues --   -0.55459  -0.48895  -0.41839  -0.40053  -0.30467
 Alpha virt. eigenvalues --    0.01978   0.04580   0.05561   0.08515   0.09585
 Alpha virt. eigenvalues --    0.11013   0.11913   0.13177   0.13598   0.14360
 Alpha virt. eigenvalues --    0.16509   0.17840   0.20444   0.21709   0.21888

 Mulliken charges:
               1
     1  O   -2.569189
     2  C    1.617818
     3  C   -0.584218
     4  N   -1.555613
     5  H    0.821850
     6  H    1.531992
     7  H    0.737360
 Sum of Mulliken charges =   0.00000

 Dipole moment (field-independent basis, Debye):
    X=             -4.3685    Y=              2.8441    Z=              1.9163  Tot=              5.5539

 Test job not archived.
 1\1\GINC-SE188\SP\RHF\Aug-CC-pVDZ\C2H3N1O1\OHZDE\09-Apr-2025\0\\#t hf
 aug-cc-pvdz iop(5/13=1,5/36=2,99/5=2) pseudo=read geom=check guess=(re
 ad,tcheck) scf=(maxcycle=1)\\title\\0,1\O,0,-0.92801061,0.96166401,-0.
 38647213\C,0,-0.09885462,-0.08676276,-0.4536293\C,0,1.32959208,0.14244
 365,-0.69540433\N,0,1.47785799,-0.08371698,0.6104633\H,0,-1.77213373,0
 .70815778,0.0390675\H,0,-0.5304371,-1.08104872,-0.29224191\H,0,0.71644
 699,-0.47969998,1.24811985\\Version=ES64L-G16RevC.01\State=1-A\HF=-207
 .5344157\RMSD=2.053e-01\Dipole=-2.1006684,-0.3831321,0.4635586\Quadrup

 Normal termination of Gaussian 16 at Wed Apr  9 03:09:37 2025.
