 Gaussian 16, Revision C.01,

 ----------------------------------------------------------------------
 #t hf aug-cc-pvdz symm=none int=(grid=ultrafine) guess=(read,tcheck) s
 table=(opt,rrhf)
 ----------------------------------------------------------------------
 -----
 title
 -----
 Symbolic Z-matrix:
 Charge =  0 Multiplicity = 1

 SCF Done:  E(RHF) =  -266.675510984     A.U. after   14 cycles
 Normal termination of Gaussian 16 at Wed Apr  9 03:05:13 2025.
 Gaussian 16:  ES64L-G16RevC.01  3-Jul-2019

 ----------------------------------------------------------------------
 #t hf aug-cc-pvdz iop(5/13=1,5/36=2,99/5=2) pseudo=read geom=check gue
 ss=(read,tcheck) scf=(maxcycle=1)
 ----------------------------------------------------------------------
 -----
 title
 -----
 Structure from the checkpoint file:  "Grambow2020_b97d3_006476_forward_mol1.chk"
 Charge =  0 Multiplicity = 1

                         Standard orientation:
 ---------------------------------------------------------------------
 Center     Atomic      Atomic             Coordinates (Angstroms)
 Number     Number       Type             X           Y           Z
 ---------------------------------------------------------------------
      1          8           0       -1.447304   -0.815543   -0.035789
      2          6           0       -1.134106    0.547661    0.198343
      3          6           0        0.308984    1.013069    0.021906
      4          6           0        1.384577   -0.451522    0.479992
      5          8           0        0.980199    0.017550   -0.796122
      6          1           0       -0.861017   -1.075939   -0.778041
      7          1           0       -1.647941    1.217008   -0.531895
      8          1           0       -1.513727    0.822988    1.190444
      9          1           0        1.118772    0.560321    1.128159
     10          1           0        0.809957   -1.297917    0.860542
     11          1           0        2.474059   -0.497767    0.584631
 ---------------------------------------------------------------------

 SCF Done:  E(RHF) =  -267.872317255     A.U. after    2 cycles

 The electronic state is 1-A.
 Alpha  occ. eigenvalues --  -21.08666 -21.07278 -11.48498 -11.45606 -11.41134
 Alpha  occ. eigenvalues --   -1.80750  -1.70041  -1.06597  -1.00865  -0.83216
 Alpha  occ. eigenvalues --   -0.70238  -0.66036  -0.58072  -0.56710  -0.54373
 Alpha  occ. eigenvalues --   -0.47942  -0.43185  -0.38035  -0.33647  -0.28340
 Alpha virt. eigenvalues --    0.03633   0.05390   0.05879   0.06077   0.06579
 Alpha virt. eigenvalues --    0.07085   0.09430   0.10185   0.12125   0.12429
 Alpha virt. eigenvalues --    0.14329   0.15239   0.16210   0.16492   0.17675

 Mulliken charges:
               1
     1  O   -2.486978
     2  C   -0.568782
     3  C   -0.273912
     4  C   -2.302224
     5  O   -2.238100
     6  H    0.903997
     7  H    1.298337
     8  H    1.423597
     9  H    1.599619
    10  H    1.452557
    11  H    1.191890
 Sum of Mulliken charges =  -0.00000

 Dipole moment (field-independent basis, Debye):
    X=              0.6890    Y=             -1.7538    Z=              0.3056  Tot=              1.9089

 Test job not archived.
 1\1\GINC-SE090\SP\RHF\Aug-CC-pVDZ\C3H6O2\OHZDE\09-Apr-2025\0\\#t hf au
 g-cc-pvdz iop(5/13=1,5/36=2,99/5=2) pseudo=read geom=check guess=(read
 ,tcheck) scf=(maxcycle=1)\\title\\0,1\O,0,-1.6313841,-0.46056717,-0.20
 980027\C,0,-0.99547089,0.80054094,-0.08151133\C,0,0.51872417,0.8835188
 6,-0.25635642\C,0,1.20014028,-0.75291338,0.35153599\O,0,0.93093593,-0.
 31304516,-0.96985015\H,0,-1.12202693,-0.91971607,-0.91137942\H,0,-1.32
 520466,1.50826706,-0.87881741\H,0,-1.30237177,1.24568191,0.87339379\H,
 0,1.18605848,0.34590527,0.90561106\H,0,0.4334181,-1.39739576,0.7853227

 Normal termination of Gaussian 16 at Wed Apr  9 03:05:16 2025.
