 Gaussian 16, Revision C.01,

 ----------------------------------------------------------------------
 #t hf aug-cc-pvdz symm=none int=(grid=ultrafine) guess=(read,tcheck) s
 table=(opt,rrhf)
 ----------------------------------------------------------------------
 -----
 title
 -----
 Symbolic Z-matrix:
 Charge =  0 Multiplicity = 1

 SCF Done:  E(RHF) =  -305.653659599     A.U. after   16 cycles
 Normal termination of Gaussian 16 at Wed Apr  9 03:05:54 2025.
 Gaussian 16:  ES64L-G16RevC.01  3-Jul-2019

 ----------------------------------------------------------------------
 #t hf aug-cc-pvdz iop(5/13=1,5/36=2,99/5=2) pseudo=read geom=check gue
 ss=(read,tcheck) scf=(maxcycle=1)
 ----------------------------------------------------------------------
 -----
 title
 -----
 Structure from the checkpoint file:  "Grambow2020_b97d3_006512_reverse_mol1.chk"
 Charge =  0 Multiplicity = 1

                         Standard orientation:
 ---------------------------------------------------------------------
 Center     Atomic      Atomic             Coordinates (Angstroms)
 Number     Number       Type             X           Y           Z
 ---------------------------------------------------------------------
      1          8           0       -2.127584   -0.618639   -0.171714
      2          6           0       -0.842300    1.134905   -0.078500
      3          6           0        0.527197    0.869118    0.375188
      4          6           0        0.261788   -0.559154    0.881633
      5          6           0        1.263220   -0.964301   -0.190969
      6          8           0        1.387260    0.406473   -0.689603
      7          1           0       -2.015006   -0.996073   -1.071042
      8          1           0       -1.067607    1.245539   -1.136499
      9          1           0       -1.566127    1.538957    0.626867
     10          1           0        0.975569    1.651133    1.014393
     11          1           0        0.373367   -0.769333    1.947166
     12          1           0       -1.176792   -0.872248    0.373371
     13          1           0        0.913155   -1.644420   -0.987399
     14          1           0        2.226597   -1.339634    0.199572
 ---------------------------------------------------------------------

 SCF Done:  E(RHF) =  -307.059718774     A.U. after    2 cycles

 The electronic state is 1-A.
 Alpha  occ. eigenvalues --  -21.04169 -21.03519 -11.53642 -11.46248 -11.43585
 Alpha  occ. eigenvalues --  -11.33799  -1.76624  -1.61233  -1.17449  -1.04491
 Alpha  occ. eigenvalues --   -0.91655  -0.77223  -0.70131  -0.67141  -0.63446
 Alpha  occ. eigenvalues --   -0.57913  -0.57226  -0.50562  -0.45956  -0.42820
 Alpha  occ. eigenvalues --   -0.37409  -0.32901  -0.30329  -0.22500
 Alpha virt. eigenvalues --    0.03164   0.04063   0.04738   0.05640   0.06064
 Alpha virt. eigenvalues --    0.06231   0.07076   0.08684   0.09111   0.10220
 Alpha virt. eigenvalues --    0.12455   0.13018   0.13949   0.14306   0.14978

 Mulliken charges:
               1
     1  O   -2.018080
     2  C   -2.661480
     3  C    0.749741
     4  C   -2.852287
     5  C   -1.630689
     6  O   -2.800548
     7  H    0.626209
     8  H    1.393416
     9  H    1.358120
    10  H    1.517487
    11  H    1.157435
    12  H    2.318361
    13  H    1.407896
    14  H    1.434420
 Sum of Mulliken charges =  -0.00000

 Dipole moment (field-independent basis, Debye):
    X=             -0.7900    Y=              2.2500    Z=             -0.6196  Tot=              2.4639

 Test job not archived.
 1\1\GINC-SE059\SP\RHF\Aug-CC-pVDZ\C4H8O2\OHZDE\09-Apr-2025\0\\#t hf au
 g-cc-pvdz iop(5/13=1,5/36=2,99/5=2) pseudo=read geom=check guess=(read
 ,tcheck) scf=(maxcycle=1)\\title\\0,1\O,0,-1.52105194,0.5504107,-1.424
 09355\C,0,-1.18547422,-0.77549937,0.26851098\C,0,0.21262249,-0.8777341
 8,0.70079656\C,0,0.82039789,-0.1882846,-0.53296048\C,0,1.29629234,0.85
 32091,0.47018485\O,0,0.60389136,0.19867382,1.58158285\H,0,-1.68185407,
 1.44297865,-1.04807883\H,0,-1.88663987,-0.13319817,0.79593902\H,0,-1.6
 0686848,-1.56131235,-0.35570916\H,0,0.53306449,-1.88017358,1.03784487\

 Normal termination of Gaussian 16 at Wed Apr  9 03:05:58 2025.
