 Gaussian 16, Revision C.01,

 ----------------------------------------------------------------------
 #t hf aug-cc-pvdz symm=none int=(grid=ultrafine) guess=(read,tcheck) s
 table=(opt,rrhf)
 ----------------------------------------------------------------------
 -----
 title
 -----
 Symbolic Z-matrix:
 Charge =  0 Multiplicity = 1

 SCF Done:  E(RHF) =  -360.818870649     A.U. after   15 cycles
 Normal termination of Gaussian 16 at Wed Apr  9 18:07:50 2025.
 Gaussian 16:  ES64L-G16RevC.01  3-Jul-2019

 ----------------------------------------------------------------------
 #t hf aug-cc-pvdz iop(5/13=1,5/36=2,99/5=2) pseudo=read geom=check gue
 ss=(read,tcheck) scf=(maxcycle=1)
 ----------------------------------------------------------------------
 -----
 title
 -----
 Structure from the checkpoint file:  "Grambow2020_wb97xd3_006606_forward_mol1.chk"
 Charge =  0 Multiplicity = 1

                         Standard orientation:
 ---------------------------------------------------------------------
 Center     Atomic      Atomic             Coordinates (Angstroms)
 Number     Number       Type             X           Y           Z
 ---------------------------------------------------------------------
      1          6           0       -2.202837    0.115017    0.598876
      2          6           0       -0.856575   -0.117324   -0.042821
      3          8           0       -0.668890   -1.254424   -0.617388
      4          6           0       -0.134928    1.102303   -0.721738
      5          7           0        1.179607    1.191757   -0.096265
      6          6           0        1.371433   -0.000592    0.647543
      7          8           0        1.580413   -1.118877    0.032872
      8          1           0       -2.188762    0.969052    1.277025
      9          1           0       -2.519392   -0.778705    1.134396
     10          1           0       -2.931405    0.315295   -0.191441
     11          1           0        0.030937   -0.128875    1.003499
     12          1           0        0.585540   -1.365579   -0.477518
     13          1           0       -0.064279    0.876480   -1.786902
     14          1           0       -0.683578    2.038538   -0.602093
     15          1           0        1.255608    1.996970    0.506938
     16          1           0        1.903344    0.124507    1.594922
 ---------------------------------------------------------------------

 SCF Done:  E(RHF) =  -362.508103725     A.U. after    2 cycles

 The electronic state is 1-A.
 Alpha  occ. eigenvalues --  -21.04112 -21.01872 -15.75242 -11.51806 -11.50275
 Alpha  occ. eigenvalues --  -11.42903 -11.39684  -1.78513  -1.67335  -1.41339
 Alpha  occ. eigenvalues --   -1.13233  -1.02524  -0.92530  -0.79591  -0.74173
 Alpha  occ. eigenvalues --   -0.71910  -0.63941  -0.59989  -0.57910  -0.57155
 Alpha  occ. eigenvalues --   -0.53881  -0.52801  -0.45967  -0.44824  -0.38361
 Alpha  occ. eigenvalues --   -0.33608  -0.31280  -0.25856
 Alpha virt. eigenvalues --    0.03303   0.04409   0.04576   0.05292   0.05723
 Alpha virt. eigenvalues --    0.06041   0.07252   0.08441   0.08912   0.11183
 Alpha virt. eigenvalues --    0.12108   0.12446   0.13676   0.13791   0.14188

 Mulliken charges:
               1
     1  C   -4.268117
     2  C    3.052997
     3  O   -3.637034
     4  C   -2.453482
     5  N   -2.302308
     6  C    1.241520
     7  O   -3.071335
     8  H    1.169543
     9  H    1.169724
    10  H    1.221614
    11  H    1.592276
    12  H    1.301531
    13  H    1.274927
    14  H    1.593157
    15  H    0.618405
    16  H    1.496581
 Sum of Mulliken charges =  -0.00000

 Dipole moment (field-independent basis, Debye):
    X=             -0.7997    Y=              2.1544    Z=              1.1998  Tot=              2.5923

 Test job not archived.
 1\1\GINC-SE220\SP\RHF\Aug-CC-pVDZ\C4H9N1O2\OHZDE\09-Apr-2025\0\\#t hf
 aug-cc-pvdz iop(5/13=1,5/36=2,99/5=2) pseudo=read geom=check guess=(re
 ad,tcheck) scf=(maxcycle=1)\\title\\0,1\C,0,-1.66089731,-0.93806489,-0
 .55056954\C,0,-0.64030112,0.14059533,-0.28027859\O,0,-0.75836907,1.239
 0821,-0.94189389\C,0,-0.09277959,0.29742838,1.18424076\N,0,1.35891226,
 0.19818504,1.08442506\C,0,1.69076605,0.2828436,-0.29196521\O,0,1.58052
 421,1.4106145,-0.91488799\H,0,-1.3428101,-1.90621374,-0.16202371\H,0,-
 1.85047632,-1.01179846,-1.620313\H,0,-2.59580481,-0.65952746,-0.056719

 Normal termination of Gaussian 16 at Wed Apr  9 18:07:56 2025.
