 Gaussian 16, Revision C.01,

 ----------------------------------------------------------------------
 #t hf aug-cc-pvdz symm=none int=(grid=ultrafine) guess=(read,tcheck) s
 table=(opt,rrhf)
 ----------------------------------------------------------------------
 -----
 title
 -----
 Symbolic Z-matrix:
 Charge =  0 Multiplicity = 1

 SCF Done:  E(RHF) =  -343.576750933     A.U. after   15 cycles
 Normal termination of Gaussian 16 at Wed Apr  9 18:48:43 2025.
 Gaussian 16:  ES64L-G16RevC.01  3-Jul-2019

 ----------------------------------------------------------------------
 #t hf aug-cc-pvdz iop(5/13=1,5/36=2,99/5=2) pseudo=read geom=check gue
 ss=(read,tcheck) scf=(maxcycle=1)
 ----------------------------------------------------------------------
 -----
 title
 -----
 Structure from the checkpoint file:  "Grambow2020_wb97xd3_007677_reverse_mol2.chk"
 Charge =  0 Multiplicity = 1

                         Standard orientation:
 ---------------------------------------------------------------------
 Center     Atomic      Atomic             Coordinates (Angstroms)
 Number     Number       Type             X           Y           Z
 ---------------------------------------------------------------------
      1          6           0       -2.038854    0.858585    0.121109
      2          6           0       -1.459980   -0.272725    0.486059
      3          6           0       -0.464934   -1.002925   -0.335594
      4          8           0        0.180714   -0.315148   -1.390613
      5          6           0        0.988859   -0.757441   -0.283895
      6          6           0        1.555533    0.263124    0.640624
      7          8           0        1.285642    1.454307    0.218684
      8          1           0       -2.771405    1.342386    0.753721
      9          1           0       -1.805135    1.332706   -0.825424
     10          1           0        0.919122   -1.433797    2.801500
     11          1           0       -1.716965   -0.750271    1.426556
     12          1           0       -0.754701   -2.021634   -0.589853
     13          1           0        1.646154   -1.593924   -0.501160
     14          1           0        0.504724   -1.945450    3.155562
     15          1           0        0.763614    1.424999   -0.615273
 ---------------------------------------------------------------------

 SCF Done:  E(RHF) =  -345.134180413     A.U. after    2 cycles

 The electronic state is 1-A.
 Alpha  occ. eigenvalues --  -21.13996 -21.08983 -11.54266 -11.45086 -11.43502
 Alpha  occ. eigenvalues --  -11.42505 -11.39694  -1.84358  -1.76904  -1.19550
 Alpha  occ. eigenvalues --   -1.05631  -0.96822  -0.82803  -0.78166  -0.73470
 Alpha  occ. eigenvalues --   -0.67035  -0.64685  -0.61130  -0.56983  -0.53519
 Alpha  occ. eigenvalues --   -0.50189  -0.47050  -0.44943  -0.41033  -0.35901
 Alpha  occ. eigenvalues --   -0.34733  -0.33191
 Alpha virt. eigenvalues --    0.03701   0.04589   0.05369   0.05750   0.05879
 Alpha virt. eigenvalues --    0.07432   0.07705   0.08790   0.09799   0.10790
 Alpha virt. eigenvalues --    0.11564   0.12651   0.13141   0.13549   0.13843

 Mulliken charges:
               1
     1  C   -3.250732
     2  C   -0.624385
     3  C    0.239673
     4  O   -2.825413
     5  C    1.067701
     6  C   -0.516131
     7  O   -2.650746
     8  H    1.339531
     9  H    1.490557
    10  H   -0.156851
    11  H    1.430043
    12  H    1.351168
    13  H    1.709774
    14  H    0.101685
    15  H    1.294127
 Sum of Mulliken charges =   0.00000

 Dipole moment (field-independent basis, Debye):
    X=             -2.1275    Y=              0.2289    Z=             -2.0689  Tot=              2.9763

 Test job not archived.
 1\1\GINC-SE232\SP\RHF\Aug-CC-pVDZ\C5H8O2\OHZDE\09-Apr-2025\0\\#t hf au
 g-cc-pvdz iop(5/13=1,5/36=2,99/5=2) pseudo=read geom=check guess=(read
 ,tcheck) scf=(maxcycle=1)\\title\\0,1\C,0,2.02252292,-0.0427812,-0.673
 55229\C,0,1.17888163,0.36996386,0.25706919\C,0,-0.11470854,1.03661029,
 -0.02688542\O,0,-0.66657567,0.92342387,-1.32519031\C,0,-1.38627173,0.3
 1802176,-0.23474438\C,0,-1.4425928,-1.16773139,-0.15245225\O,0,-0.8775
 8456,-1.69912623,-1.18597822\H,0,2.96211959,-0.51037837,-0.41010584\H,
 0,1.80459413,0.08122958,-1.72828832\H,0,-1.04511034,-0.96482989,2.6322

 Normal termination of Gaussian 16 at Wed Apr  9 18:48:48 2025.
