 Gaussian 16, Revision C.01,

 ----------------------------------------------------------------------
 #t hf aug-cc-pvdz symm=none int=(grid=ultrafine) guess=(read,tcheck) s
 table=(opt,rrhf)
 ----------------------------------------------------------------------
 -----
 title
 -----
 Symbolic Z-matrix:
 Charge =  0 Multiplicity = 1

 SCF Done:  E(RHF) =  -359.751500902     A.U. after   14 cycles
 Normal termination of Gaussian 16 at Wed Apr  9 19:11:56 2025.
 Gaussian 16:  ES64L-G16RevC.01  3-Jul-2019

 ----------------------------------------------------------------------
 #t hf aug-cc-pvdz iop(5/13=1,5/36=2,99/5=2) pseudo=read geom=check gue
 ss=(read,tcheck) scf=(maxcycle=1)
 ----------------------------------------------------------------------
 -----
 title
 -----
 Structure from the checkpoint file:  "Grambow2020_wb97xd3_008272_reverse_mol2.chk"
 Charge =  0 Multiplicity = 1

                         Standard orientation:
 ---------------------------------------------------------------------
 Center     Atomic      Atomic             Coordinates (Angstroms)
 Number     Number       Type             X           Y           Z
 ---------------------------------------------------------------------
      1          6           0        1.095609   -1.647941   -0.487057
      2          6           0        0.786061   -0.512622    0.484545
      3          6           0        1.474980    0.768607    0.083741
      4          7           0        0.843234    1.821244   -0.192224
      5          6           0       -1.408256    0.030458   -0.279577
      6          8           0       -2.578095    0.176493   -0.119370
      7          8           0       -0.604094   -0.354862    0.727037
      8          1           0        0.765049   -1.418065   -1.500743
      9          1           0        0.599943   -2.559908   -0.155317
     10          1           0        2.170346   -1.834661   -0.517063
     11          1           0        1.186327   -0.787068    1.465008
     12          1           0       -0.896864    0.173126   -1.241273
     13          1           0        2.569274    0.690353    0.059048
     14          1           0        1.470441    2.583458   -0.435329
 ---------------------------------------------------------------------

 SCF Done:  E(RHF) =  -361.346990179     A.U. after    2 cycles

 The electronic state is 1-A.
 Alpha  occ. eigenvalues --  -21.09068 -21.04447 -15.76365 -11.49800 -11.49226
 Alpha  occ. eigenvalues --  -11.45252 -11.40103  -1.84587  -1.66314  -1.36666
 Alpha  occ. eigenvalues --   -1.16931  -0.97725  -0.88176  -0.79880  -0.72961
 Alpha  occ. eigenvalues --   -0.66582  -0.64554  -0.60643  -0.56122  -0.54489
 Alpha  occ. eigenvalues --   -0.50837  -0.49343  -0.45509  -0.42532  -0.39360
 Alpha  occ. eigenvalues --   -0.31285  -0.29563
 Alpha virt. eigenvalues --    0.02832   0.04225   0.04797   0.04976   0.05559
 Alpha virt. eigenvalues --    0.06740   0.07887   0.09545   0.11326   0.12028
 Alpha virt. eigenvalues --    0.12521   0.12895   0.13659   0.14334   0.14479

 Mulliken charges:
               1
     1  C   -3.756248
     2  C    0.458397
     3  C    0.692220
     4  N   -2.969215
     5  C    2.324462
     6  O   -2.674825
     7  O   -3.484310
     8  H    1.335766
     9  H    1.296726
    10  H    1.224797
    11  H    1.782065
    12  H    1.536808
    13  H    1.515224
    14  H    0.718132
 Sum of Mulliken charges =   0.00000

 Dipole moment (field-independent basis, Debye):
    X=              4.3031    Y=             -0.7520    Z=             -0.2230  Tot=              4.3740

 Test job not archived.
 1\1\GINC-SE045\SP\RHF\Aug-CC-pVDZ\C4H7N1O2\OHZDE\09-Apr-2025\0\\#t hf
 aug-cc-pvdz iop(5/13=1,5/36=2,99/5=2) pseudo=read geom=check guess=(re
 ad,tcheck) scf=(maxcycle=1)\\title\\0,1\C,0,-1.42469947,-0.68396119,0.
 0061337\C,0,-0.16071587,-0.21062534,-0.70595908\C,0,0.07363627,1.26631
 164,-0.50461362\N,0,1.10626654,1.71975203,0.05339226\C,0,1.45716083,-1
 .02422981,0.84786538\O,0,2.40750989,-1.67740381,1.14063638\O,0,0.97497
 905,-1.00892355,-0.40739857\H,0,-1.37162916,-0.51887131,1.08298141\H,0
 ,-1.57301799,-1.74763913,-0.17829142\H,0,-2.29462009,-0.14650231,-0.37

 Normal termination of Gaussian 16 at Wed Apr  9 19:12:00 2025.
