 Gaussian 16, Revision C.01,

 ----------------------------------------------------------------------
 #t hf aug-cc-pvdz symm=none int=(grid=ultrafine) guess=(read,tcheck) s
 table=(opt,rrhf)
 ----------------------------------------------------------------------
 -----
 title
 -----
 Symbolic Z-matrix:
 Charge =  0 Multiplicity = 1

 SCF Done:  E(RHF) =  -323.669593934     A.U. after   17 cycles
 Normal termination of Gaussian 16 at Wed Apr  9 18:16:52 2025.
 Gaussian 16:  ES64L-G16RevC.01  3-Jul-2019

 ----------------------------------------------------------------------
 #t hf aug-cc-pvdz iop(5/13=1,5/36=2,99/5=2) pseudo=read geom=check gue
 ss=(read,tcheck) scf=(maxcycle=1)
 ----------------------------------------------------------------------
 -----
 title
 -----
 Structure from the checkpoint file:  "Grambow2020_wb97xd3_006831_forward_mol1.chk"
 Charge =  0 Multiplicity = 1

                         Standard orientation:
 ---------------------------------------------------------------------
 Center     Atomic      Atomic             Coordinates (Angstroms)
 Number     Number       Type             X           Y           Z
 ---------------------------------------------------------------------
      1          6           0        1.907631   -1.289306   -0.251788
      2          6           0        1.115611   -0.209405    0.452563
      3          6           0        1.348642    1.280435    0.044066
      4          6           0       -0.133997    1.381605   -0.210386
      5          6           0       -0.336562    0.013412    0.040806
      6          7           0       -1.399636   -0.851694    0.149852
      7          8           0       -2.543331   -0.073210   -0.008861
      8          1           0        2.955871   -1.262911    0.052029
      9          1           0        1.870905   -1.156275   -1.336969
     10          1           0        1.512643   -2.280215   -0.020559
     11          1           0        1.171387   -0.328518    1.535995
     12          1           0        1.717062    1.901407    0.866257
     13          1           0        2.009963    1.424955   -0.816074
     14          1           0       -0.465003   -0.277114   -1.073210
     15          1           0       -0.804181    2.187569   -0.464964
     16          1           0       -3.232498   -0.721807   -0.172145
 ---------------------------------------------------------------------

 SCF Done:  E(RHF) =  -325.193700753     A.U. after    2 cycles

 The electronic state is 1-A.
 Alpha  occ. eigenvalues --  -21.08770 -15.75009 -11.51918 -11.44572 -11.42171
 Alpha  occ. eigenvalues --  -11.39336 -11.36571  -1.78154  -1.39005  -1.17145
 Alpha  occ. eigenvalues --   -1.08024  -0.91434  -0.88572  -0.75014  -0.66247
 Alpha  occ. eigenvalues --   -0.64702  -0.62955  -0.58753  -0.56519  -0.55687
 Alpha  occ. eigenvalues --   -0.49007  -0.47741  -0.43240  -0.42158  -0.40043
 Alpha  occ. eigenvalues --   -0.34503  -0.20392
 Alpha virt. eigenvalues --    0.03627   0.05401   0.05548   0.05693   0.05866
 Alpha virt. eigenvalues --    0.05994   0.06364   0.06921   0.07884   0.08674
 Alpha virt. eigenvalues --    0.11726   0.12393   0.12924   0.14139   0.14542

 Mulliken charges:
               1
     1  C   -4.403278
     2  C   -1.602816
     3  C   -3.121123
     4  C   -1.856362
     5  C    2.664779
     6  N   -0.855433
     7  O   -2.440268
     8  H    1.229142
     9  H    1.242942
    10  H    1.227722
    11  H    1.361288
    12  H    1.249361
    13  H    1.348403
    14  H    1.712018
    15  H    1.355501
    16  H    0.888124
 Sum of Mulliken charges =   0.00000

 Dipole moment (field-independent basis, Debye):
    X=              0.3993    Y=              0.0377    Z=             -0.2147  Tot=              0.4549

 Test job not archived.
 1\1\GINC-SE028\SP\RHF\Aug-CC-pVDZ\C5H9N1O1\OHZDE\09-Apr-2025\0\\#t hf
 aug-cc-pvdz iop(5/13=1,5/36=2,99/5=2) pseudo=read geom=check guess=(re
 ad,tcheck) scf=(maxcycle=1)\\title\\0,1\C,0,-1.62540471,-1.10787039,0.
 06000683\C,0,-0.59115979,-0.24220139,-0.62595656\C,0,-0.73468373,1.311
 07006,-0.53908589\C,0,0.66698295,1.35112432,0.01492333\C,0,0.76243808,
 -0.05088237,0.05166141\N,0,1.72212646,-0.99565294,0.32884765\O,0,2.889
 17706,-0.28616976,0.60068114\H,0,-2.58025138,-1.06392369,-0.46738678\H
 ,0,-1.79566163,-0.77359096,1.08759352\H,0,-1.30473636,-2.15065425,0.09

 Normal termination of Gaussian 16 at Wed Apr  9 18:16:58 2025.
