 Gaussian 16, Revision C.01,

 ----------------------------------------------------------------------
 #t hf aug-cc-pvdz symm=none int=(grid=ultrafine) guess=(read,tcheck) s
 table=(opt,rrhf)
 ----------------------------------------------------------------------
 -----
 title
 -----
 Symbolic Z-matrix:
 Charge =  0 Multiplicity = 1

 SCF Done:  E(RHF) =  -231.750890790     A.U. after   12 cycles
 Normal termination of Gaussian 16 at Wed Apr  9 03:21:05 2025.
 Gaussian 16:  ES64L-G16RevC.01  3-Jul-2019

 ----------------------------------------------------------------------
 #t hf aug-cc-pvdz iop(5/13=1,5/36=2,99/5=2) pseudo=read geom=check gue
 ss=(read,tcheck) scf=(maxcycle=1)
 ----------------------------------------------------------------------
 -----
 title
 -----
 Structure from the checkpoint file:  "Grambow2020_wb97xd3_006054_forward_mol2.chk"
 Charge =  0 Multiplicity = 1

                         Standard orientation:
 ---------------------------------------------------------------------
 Center     Atomic      Atomic             Coordinates (Angstroms)
 Number     Number       Type             X           Y           Z
 ---------------------------------------------------------------------
      1          6           0       -1.388955   -0.018574    0.734824
      2          6           0       -0.773319   -0.744235   -0.419882
      3          6           0       -0.773684    0.764487   -0.381630
      4          6           0        0.773176    0.765056   -0.381129
      5          6           0        1.389156   -0.019062    0.734405
      6          6           0        0.773496   -0.744029   -0.420070
      7          1           0       -0.969867   -0.044380    1.731843
      8          1           0       -2.472411   -0.019182    0.724150
      9          1           0       -1.352992   -1.390076   -1.063460
     10          1           0       -1.353786    1.441921   -0.991463
     11          1           0        1.352786    1.443252   -0.990591
     12          1           0        2.472602   -0.017360    0.721794
     13          1           0        0.971837   -0.045601    1.732285
     14          1           0        1.352618   -1.390434   -1.063665
 ---------------------------------------------------------------------

 SCF Done:  E(RHF) =  -232.903641868     A.U. after    2 cycles

 The electronic state is 1-A.
 Alpha  occ. eigenvalues --  -11.47762 -11.47586 -11.39015 -11.38539 -11.38159
 Alpha  occ. eigenvalues --  -11.34522  -1.44250  -1.16446  -0.91932  -0.90598
 Alpha  occ. eigenvalues --   -0.79295  -0.74693  -0.73049  -0.64555  -0.59783
 Alpha  occ. eigenvalues --   -0.51728  -0.51041  -0.47767  -0.43359  -0.40189
 Alpha  occ. eigenvalues --   -0.36477  -0.27718
 Alpha virt. eigenvalues --    0.04213   0.05077   0.05417   0.05638   0.05983
 Alpha virt. eigenvalues --    0.06119   0.06680   0.08868   0.10367   0.12282
 Alpha virt. eigenvalues --    0.12419   0.13497   0.14045   0.14212   0.15332

 Mulliken charges:
               1
     1  C   -3.068092
     2  C   -0.971821
     3  C   -0.973144
     4  C   -0.967707
     5  C   -3.069665
     6  C   -0.969676
     7  H    1.129196
     8  H    1.234796
     9  H    1.323928
    10  H    1.323564
    11  H    1.323938
    12  H    1.233252
    13  H    1.128095
    14  H    1.323336
 Sum of Mulliken charges =  -0.00000

 Dipole moment (field-independent basis, Debye):
    X=              0.0003    Y=              0.0085    Z=             -0.3389  Tot=              0.3390

 Test job not archived.
 1\1\GINC-SE120\SP\RHF\Aug-CC-pVDZ\C6H8\OHZDE\09-Apr-2025\0\\#t hf aug-
 cc-pvdz iop(5/13=1,5/36=2,99/5=2) pseudo=read geom=check guess=(read,t
 check) scf=(maxcycle=1)\\title\\0,1\C,0,1.25027978,-0.81628266,-0.4150
 7386\C,0,0.96701484,0.22917572,0.6172617\C,0,0.65557142,0.4903146,-0.8
 3618735\C,0,-0.84290411,0.64921383,-0.48676093\C,0,-1.44043843,-0.5299
 187,0.21415771\C,0,-0.53124418,0.38867004,0.96714339\H,0,0.70650657,-1
 .75014415,-0.46568626\H,0,2.30136993,-0.91755676,-0.65785632\H,0,1.751
 96936,0.66909361,1.21529571\H,0,1.16743962,1.15907226,-1.51300789\H,0,

 Normal termination of Gaussian 16 at Wed Apr  9 03:21:09 2025.
