 Gaussian 16, Revision C.01,

 ----------------------------------------------------------------------
 #t hf aug-cc-pvdz symm=none int=(grid=ultrafine) guess=(read,tcheck) s
 table=(opt,rrhf)
 ----------------------------------------------------------------------
 -----
 title
 -----
 Symbolic Z-matrix:
 Charge =  0 Multiplicity = 1

 SCF Done:  E(RHF) =  -322.699094842     A.U. after   15 cycles
 Normal termination of Gaussian 16 at Wed Apr  9 18:53:44 2025.
 Gaussian 16:  ES64L-G16RevC.01  3-Jul-2019

 ----------------------------------------------------------------------
 #t hf aug-cc-pvdz iop(5/13=1,5/36=2,99/5=2) pseudo=read geom=check gue
 ss=(read,tcheck) scf=(maxcycle=1)
 ----------------------------------------------------------------------
 -----
 title
 -----
 Structure from the checkpoint file:  "Grambow2020_wb97xd3_007752_reverse_mol2.chk"
 Charge =  0 Multiplicity = 1

                         Standard orientation:
 ---------------------------------------------------------------------
 Center     Atomic      Atomic             Coordinates (Angstroms)
 Number     Number       Type             X           Y           Z
 ---------------------------------------------------------------------
      1          6           0       -2.149071   -1.052332    0.211871
      2          6           0       -0.925348   -0.217062   -0.034431
      3          6           0        0.289424   -0.939823   -0.459546
      4          6           0        1.503648   -0.665618   -0.049313
      5          7           0        2.635151   -0.308466    0.235492
      6          8           0        0.034986    1.992306   -0.121341
      7          6           0       -0.964696    1.109906    0.101392
      8          1           0       -3.004485   -0.429582    0.475628
      9          1           0       -2.417784   -1.628227   -0.678918
     10          1           0       -1.985395   -1.767867    1.022096
     11          1           0        0.186605   -1.789849   -1.126771
     12          1           0        3.036330   -0.725772    1.071149
     13          1           0       -1.870545    1.613924    0.416913
     14          1           0        0.805600    1.537754   -0.477648
 ---------------------------------------------------------------------

 SCF Done:  E(RHF) =  -324.187876355     A.U. after    2 cycles

 The electronic state is 1-A.
 Alpha  occ. eigenvalues --  -21.09512 -15.78350 -11.49137 -11.45310 -11.42986
 Alpha  occ. eigenvalues --  -11.39763 -11.37375  -1.74901  -1.37888  -1.23370
 Alpha  occ. eigenvalues --   -1.06552  -0.97125  -0.82252  -0.75705  -0.66957
 Alpha  occ. eigenvalues --   -0.63219  -0.60448  -0.56814  -0.55320  -0.53573
 Alpha  occ. eigenvalues --   -0.50735  -0.47865  -0.43903  -0.41847  -0.35401
 Alpha  occ. eigenvalues --   -0.25402
 Alpha virt. eigenvalues --    0.03141   0.05100   0.05215   0.05848   0.06145
 Alpha virt. eigenvalues --    0.07242   0.07986   0.09728   0.10806   0.11765
 Alpha virt. eigenvalues --    0.12441   0.13138   0.13545   0.13818   0.14618

 Mulliken charges:
               1
     1  C   -4.593160
     2  C    1.932710
     3  C   -1.370931
     4  C    1.580846
     5  N   -2.947592
     6  O   -3.410494
     7  C    0.370930
     8  H    1.288427
     9  H    1.099243
    10  H    1.190464
    11  H    1.405098
    12  H    0.811451
    13  H    1.686810
    14  H    0.956198
 Sum of Mulliken charges =   0.00000

 Dipole moment (field-independent basis, Debye):
    X=             -0.2198    Y=             -1.0167    Z=              0.7291  Tot=              1.2703

 Test job not archived.
 1\1\GINC-SE168\SP\RHF\Aug-CC-pVDZ\C5H7N1O1\OHZDE\09-Apr-2025\0\\#t hf
 aug-cc-pvdz iop(5/13=1,5/36=2,99/5=2) pseudo=read geom=check guess=(re
 ad,tcheck) scf=(maxcycle=1)\\title\\0,1\C,0,-1.90479384,-0.51909605,-0
 .18862819\C,0,-0.56153471,0.13453755,-0.03287989\C,0,0.54792194,-0.448
 88332,-0.81230573\C,0,1.77222829,-0.60124627,-0.36995161\N,0,2.9321242
 7,-0.60772967,0.00895507\O,0,0.71981577,1.91864444,0.96019822\C,0,-0.4
 0816436,1.20336709,0.75128951\H,0,-2.66768827,0.00658234,0.38650003\H,
 0,-2.22078167,-0.52343691,-1.23624404\H,0,-1.88173349,-1.55954534,0.14

 Normal termination of Gaussian 16 at Wed Apr  9 18:53:48 2025.
