 Gaussian 16, Revision C.01,

 ----------------------------------------------------------------------
 #t hf aug-cc-pvdz symm=none int=(grid=ultrafine) guess=(read,tcheck) s
 table=(opt,rrhf)
 ----------------------------------------------------------------------
 -----
 title
 -----
 Symbolic Z-matrix:
 Charge =  0 Multiplicity = 1

 SCF Done:  E(RHF) =  -306.454113082     A.U. after   16 cycles
 Normal termination of Gaussian 16 at Wed Apr  9 18:38:39 2025.
 Gaussian 16:  ES64L-G16RevC.01  3-Jul-2019

 ----------------------------------------------------------------------
 #t hf aug-cc-pvdz iop(5/13=1,5/36=2,99/5=2) pseudo=read geom=check gue
 ss=(read,tcheck) scf=(maxcycle=1)
 ----------------------------------------------------------------------
 -----
 title
 -----
 Structure from the checkpoint file:  "Grambow2020_wb97xd3_007359_forward_mol1.chk"
 Charge =  0 Multiplicity = 1

                         Standard orientation:
 ---------------------------------------------------------------------
 Center     Atomic      Atomic             Coordinates (Angstroms)
 Number     Number       Type             X           Y           Z
 ---------------------------------------------------------------------
      1          6           0       -1.728842   -0.043495    0.747948
      2          6           0       -1.736665   -0.301977   -0.751299
      3          6           0       -0.510266    0.114668   -0.062526
      4          6           0        0.434219    1.294181   -0.208481
      5          6           0        1.580601    0.352763    0.014101
      6          8           0        0.903760   -0.631543    0.841879
      7          6           0        1.206103   -0.875692   -0.701989
      8          1           0       -2.183176    0.851735    1.157864
      9          1           0       -1.799226   -0.917705    1.382041
     10          1           0       -1.814376   -1.332318   -1.065733
     11          1           0       -2.179963    0.418331   -1.431979
     12          1           0        0.415009    1.753833   -1.196931
     13          1           0        0.280631    2.039873    0.575831
     14          1           0        2.575723    0.620423    0.354275
     15          1           0        2.004393   -1.624511   -0.736927
 ---------------------------------------------------------------------

 SCF Done:  E(RHF) =  -307.922803811     A.U. after    2 cycles

 The electronic state is 1-A.
 Alpha  occ. eigenvalues --  -21.04796 -11.53107 -11.47238 -11.46720 -11.41655
 Alpha  occ. eigenvalues --  -11.39813 -11.35908  -1.78140  -1.32363  -1.13490
 Alpha  occ. eigenvalues --   -0.94713  -0.88918  -0.83837  -0.77000  -0.70883
 Alpha  occ. eigenvalues --   -0.67457  -0.61805  -0.55812  -0.52928  -0.50939
 Alpha  occ. eigenvalues --   -0.47839  -0.44961  -0.39642  -0.35463  -0.33656
 Alpha  occ. eigenvalues --   -0.22682
 Alpha virt. eigenvalues --    0.03912   0.04828   0.05142   0.05290   0.05893
 Alpha virt. eigenvalues --    0.06225   0.06929   0.08009   0.09575   0.10307
 Alpha virt. eigenvalues --    0.11479   0.13003   0.13367   0.13580   0.14379

 Mulliken charges:
               1
     1  C   -2.869648
     2  C   -2.329981
     3  C    2.643282
     4  C   -3.532586
     5  C    0.258680
     6  O   -2.293924
     7  C   -1.731403
     8  H    1.210266
     9  H    1.091905
    10  H    1.125761
    11  H    1.197129
    12  H    1.363491
    13  H    1.304546
    14  H    1.420630
    15  H    1.141851
 Sum of Mulliken charges =  -0.00000

 Dipole moment (field-independent basis, Debye):
    X=             -1.2354    Y=              1.5522    Z=              1.9535  Tot=              2.7842

 Test job not archived.
 1\1\GINC-SE220\SP\RHF\Aug-CC-pVDZ\C6H8O1\OHZDE\09-Apr-2025\0\\#t hf au
 g-cc-pvdz iop(5/13=1,5/36=2,99/5=2) pseudo=read geom=check guess=(read
 ,tcheck) scf=(maxcycle=1)\\title\\0,1\C,0,-1.43696683,0.1068259,-1.014
 48916\C,0,-1.68012568,-0.04299515,0.47984795\C,0,-0.31976348,-0.051300
 94,-0.0691512\C,0,0.82226319,-1.05122652,-0.04610713\C,0,1.76881026,0.
 09466634,0.15632786\O,0,1.00977676,1.1334136,-0.51973398\C,0,1.0653147
 6,1.01046856,1.06656652\H,0,-1.64408369,-0.71242191,-1.69406455\H,0,-1
 .60803193,1.09217409,-1.42812614\H,0,-2.00581526,0.8401333,1.00949072\

 Normal termination of Gaussian 16 at Wed Apr  9 18:38:44 2025.
