 Gaussian 16, Revision C.01,

 ----------------------------------------------------------------------
 #t hf aug-cc-pvdz symm=none int=(grid=ultrafine) guess=(read,tcheck) s
 table=(opt,rrhf)
 ----------------------------------------------------------------------
 -----
 title
 -----
 Symbolic Z-matrix:
 Charge =  0 Multiplicity = 1

 SCF Done:  E(RHF) =  -322.495036213     A.U. after   18 cycles
 Normal termination of Gaussian 16 at Wed Apr  9 18:50:52 2025.
 Gaussian 16:  ES64L-G16RevC.01  3-Jul-2019

 ----------------------------------------------------------------------
 #t hf aug-cc-pvdz iop(5/13=1,5/36=2,99/5=2) pseudo=read geom=check gue
 ss=(read,tcheck) scf=(maxcycle=1)
 ----------------------------------------------------------------------
 -----
 title
 -----
 Structure from the checkpoint file:  "Grambow2020_wb97xd3_007718_reverse_mol1.chk"
 Charge =  0 Multiplicity = 1

                         Standard orientation:
 ---------------------------------------------------------------------
 Center     Atomic      Atomic             Coordinates (Angstroms)
 Number     Number       Type             X           Y           Z
 ---------------------------------------------------------------------
      1          6           0       -2.240691    0.448525   -0.093946
      2          7           0       -1.543758   -0.744426   -0.077902
      3          6           0       -0.309286   -0.486617    0.092213
      4          8           0        0.750229   -1.259966   -0.090875
      5          6           0        1.786807   -0.335057    0.028919
      6          6           0        1.406191    1.025983   -0.379158
      7          6           0        0.174025    0.889282    0.496690
      8          1           0       -2.228277    0.999198   -1.031223
      9          1           0       -3.192538    0.468049    0.430404
     10          1           0       -0.996056    1.362767    0.335034
     11          1           0        2.637781   -0.664159    0.605626
     12          1           0        1.164714    1.152286   -1.441426
     13          1           0        2.130656    1.771116   -0.061735
     14          1           0        0.385917    0.948751    1.567332
 ---------------------------------------------------------------------

 SCF Done:  E(RHF) =  -324.016223648     A.U. after    2 cycles

 The electronic state is 1-A.
 Alpha  occ. eigenvalues --  -21.12615 -15.74476 -11.49142 -11.47353 -11.44369
 Alpha  occ. eigenvalues --  -11.41912 -11.39515  -1.86763  -1.42003  -1.23840
 Alpha  occ. eigenvalues --   -1.02123  -0.95286  -0.85547  -0.74680  -0.70846
 Alpha  occ. eigenvalues --   -0.70000  -0.62840  -0.58144  -0.55452  -0.53810
 Alpha  occ. eigenvalues --   -0.52709  -0.48640  -0.45415  -0.39521  -0.33040
 Alpha  occ. eigenvalues --   -0.20833
 Alpha virt. eigenvalues --    0.03559   0.04741   0.05009   0.05537   0.05610
 Alpha virt. eigenvalues --    0.06223   0.06517   0.07941   0.10497   0.10844
 Alpha virt. eigenvalues --    0.11997   0.12210   0.13347   0.13501   0.14324

 Mulliken charges:
               1
     1  C   -2.543283
     2  N   -3.084362
     3  C    6.170136
     4  O   -3.754084
     5  C    0.332999
     6  C   -3.408673
     7  C   -2.978373
     8  H    1.169945
     9  H    1.362876
    10  H    1.530420
    11  H    1.514134
    12  H    1.195723
    13  H    1.291136
    14  H    1.201403
 Sum of Mulliken charges =  -0.00000

 Dipole moment (field-independent basis, Debye):
    X=              0.9943    Y=              1.6099    Z=              0.1539  Tot=              1.8984

 Test job not archived.
 1\1\GINC-SE028\SP\RHF\Aug-CC-pVDZ\C5H7N1O1\OHZDE\09-Apr-2025\0\\#t hf
 aug-cc-pvdz iop(5/13=1,5/36=2,99/5=2) pseudo=read geom=check guess=(re
 ad,tcheck) scf=(maxcycle=1)\\title\\0,1\C,0,2.07009447,0.72247857,0.50
 474939\N,0,1.67898349,-0.59871114,0.60768183\C,0,0.49775038,-0.7054252
 8,0.14656992\O,0,-0.37689742,-1.69116886,0.27872188\C,0,-1.5306689,-1.
 10300899,-0.23817225\C,0,-1.57094919,0.35712314,-0.06434365\C,0,-0.163
 59429,0.41231385,-0.63032789\H,0,1.70837854,1.39209509,1.28105897\H,0,
 3.09255504,0.90836072,0.18637737\H,0,0.79756921,1.19659604,-0.34664343

 Normal termination of Gaussian 16 at Wed Apr  9 18:50:56 2025.
