 Gaussian 16, Revision C.01,

 ----------------------------------------------------------------------
 #t hf aug-cc-pvdz symm=none int=(grid=ultrafine) guess=(read,tcheck) s
 table=(opt,rrhf)
 ----------------------------------------------------------------------
 -----
 title
 -----
 Symbolic Z-matrix:
 Charge =  0 Multiplicity = 1

 SCF Done:  E(RHF) =  -342.430231524     A.U. after   15 cycles
 Normal termination of Gaussian 16 at Wed Apr  9 19:15:57 2025.
 Gaussian 16:  ES64L-G16RevC.01  3-Jul-2019

 ----------------------------------------------------------------------
 #t hf aug-cc-pvdz iop(5/13=1,5/36=2,99/5=2) pseudo=read geom=check gue
 ss=(read,tcheck) scf=(maxcycle=1)
 ----------------------------------------------------------------------
 -----
 title
 -----
 Structure from the checkpoint file:  "Grambow2020_wb97xd3_008520_forward_mol1.chk"
 Charge =  0 Multiplicity = 1

                         Standard orientation:
 ---------------------------------------------------------------------
 Center     Atomic      Atomic             Coordinates (Angstroms)
 Number     Number       Type             X           Y           Z
 ---------------------------------------------------------------------
      1          8           0       -2.173266   -0.549691   -0.238590
      2          6           0       -1.026884   -0.252220    0.245289
      3          6           0       -0.555020    1.159178    0.255249
      4          8           0        0.636754    1.371922   -0.141416
      5          6           0        1.249368    0.113785   -0.548241
      6          6           0        1.504120   -0.843721    0.558741
      7          6           0        0.265624   -0.967301   -0.276104
      8          1           0       -0.924397   -0.307966    1.413989
      9          1           0       -1.120412    2.026660    0.584158
     10          1           0        1.892051    0.264014   -1.402273
     11          1           0        1.398904   -0.474306    1.574059
     12          1           0        2.310340   -1.551700    0.415942
     13          1           0        0.112358   -1.792876   -0.955433
 ---------------------------------------------------------------------

 SCF Done:  E(RHF) =  -343.954785672     A.U. after    2 cycles

 The electronic state is 1-A.
 Alpha  occ. eigenvalues --  -21.19035 -20.92538 -11.55892 -11.50401 -11.47966
 Alpha  occ. eigenvalues --  -11.43273 -11.39666  -1.91589  -1.59434  -1.32270
 Alpha  occ. eigenvalues --   -1.10054  -0.94223  -0.86528  -0.83906  -0.73873
 Alpha  occ. eigenvalues --   -0.69071  -0.63106  -0.59362  -0.56027  -0.52990
 Alpha  occ. eigenvalues --   -0.49943  -0.44838  -0.41907  -0.38600  -0.21843
 Alpha  occ. eigenvalues --   -0.21375
 Alpha virt. eigenvalues --    0.02910   0.04144   0.04642   0.05049   0.06577
 Alpha virt. eigenvalues --    0.06882   0.07243   0.09331   0.09870   0.10586
 Alpha virt. eigenvalues --    0.11476   0.13584   0.13784   0.14649   0.14894

 Mulliken charges:
               1
     1  O   -3.376844
     2  C    1.652571
     3  C    0.626960
     4  O   -3.625338
     5  C    1.074558
     6  C   -2.593945
     7  C   -1.569230
     8  H    1.086459
     9  H    1.634089
    10  H    1.382199
    11  H    1.308781
    12  H    1.219158
    13  H    1.180584
 Sum of Mulliken charges =   0.00000

 Dipole moment (field-independent basis, Debye):
    X=              5.5645    Y=              2.5591    Z=              0.0412  Tot=              6.1249

 Test job not archived.
 1\1\GINC-SE116\SP\RHF\Aug-CC-pVDZ\C5H6O2\OHZDE\09-Apr-2025\0\\#t hf au
 g-cc-pvdz iop(5/13=1,5/36=2,99/5=2) pseudo=read geom=check guess=(read
 ,tcheck) scf=(maxcycle=1)\\title\\0,1\O,0,1.37013374,2.07704882,0.3106
 5352\C,0,0.87889769,0.89790848,0.38231651\C,0,1.45955925,-0.21176177,-
 0.42158854\O,0,0.64095413,-0.95849198,-1.05024417\C,0,-0.7205204,-0.48
 899818,-0.82736266\C,0,-1.21972042,-0.65698793,0.56177511\C,0,-0.64609
 889,0.65500765,0.11935251\H,0,1.08869783,0.30564254,1.3746254\H,0,2.51
 326047,-0.46039934,-0.51252203\H,0,-1.31360877,-0.60850021,-1.7212002\

 Normal termination of Gaussian 16 at Wed Apr  9 19:16:01 2025.
