 Gaussian 16, Revision C.01,

 ----------------------------------------------------------------------
 #t hf aug-cc-pvdz symm=none int=(grid=ultrafine) guess=(read,tcheck) s
 table=(opt,rrhf)
 ----------------------------------------------------------------------
 -----
 title
 -----
 Symbolic Z-matrix:
 Charge =  0 Multiplicity = 1

 SCF Done:  E(RHF) =  -286.706335928     A.U. after   15 cycles
 Normal termination of Gaussian 16 at Wed Apr  9 19:19:12 2025.
 Gaussian 16:  ES64L-G16RevC.01  3-Jul-2019

 ----------------------------------------------------------------------
 #t hf aug-cc-pvdz iop(5/13=1,5/36=2,99/5=2) pseudo=read geom=check gue
 ss=(read,tcheck) scf=(maxcycle=1)
 ----------------------------------------------------------------------
 -----
 title
 -----
 Structure from the checkpoint file:  "Grambow2020_wb97xd3_008596_reverse_mol1.chk"
 Charge =  0 Multiplicity = 1

                         Standard orientation:
 ---------------------------------------------------------------------
 Center     Atomic      Atomic             Coordinates (Angstroms)
 Number     Number       Type             X           Y           Z
 ---------------------------------------------------------------------
      1          6           0       -1.729145    0.271508    0.160668
      2          6           0       -0.827009    0.299682   -1.013620
      3          6           0        0.594477    0.767276   -0.683287
      4          6           0        1.349462   -0.587746   -0.554454
      5          6           0        0.522720   -0.667256    0.750686
      6          6           0        0.757207    0.849980    0.851917
      7          7           0       -0.856409   -0.911754    0.251609
      8          1           0       -2.766426    0.000097   -0.009760
      9          1           0       -1.615710    0.970492    0.976370
     10          1           0       -0.833819   -1.075512   -0.909366
     11          1           0        0.963930    1.547483   -1.345372
     12          1           0        1.158249   -1.347922   -1.313685
     13          1           0        2.419320   -0.478173   -0.379687
     14          1           0        0.765472   -1.354742    1.558841
     15          1           0        0.106557    1.476459    1.457643
     16          1           0        1.791022    1.043437    1.132294
 ---------------------------------------------------------------------

 SCF Done:  E(RHF) =  -288.128066086     A.U. after    2 cycles

 The electronic state is 1-A.
 Alpha  occ. eigenvalues --  -15.75177 -11.48950 -11.45765 -11.43027 -11.41670
 Alpha  occ. eigenvalues --  -11.38938 -11.35662  -1.56168  -1.26208  -1.05477
 Alpha  occ. eigenvalues --   -0.98451  -0.91252  -0.81734  -0.78121  -0.71147
 Alpha  occ. eigenvalues --   -0.69812  -0.63518  -0.54119  -0.52575  -0.50634
 Alpha  occ. eigenvalues --   -0.48095  -0.45846  -0.42626  -0.41900  -0.35596
 Alpha  occ. eigenvalues --   -0.28108
 Alpha virt. eigenvalues --    0.04207   0.04965   0.05090   0.05353   0.05800
 Alpha virt. eigenvalues --    0.06140   0.06964   0.08898   0.09033   0.09440
 Alpha virt. eigenvalues --    0.10676   0.12601   0.12801   0.13241   0.14180

 Mulliken charges:
               1
     1  C   -2.385953
     2  C   -1.186340
     3  C   -1.488960
     4  C   -1.869155
     5  C   -0.579782
     6  C   -2.440302
     7  N   -2.131286
     8  H    1.302933
     9  H    1.548858
    10  H    1.155315
    11  H    1.681926
    12  H    1.127891
    13  H    1.304829
    14  H    1.596572
    15  H    1.231529
    16  H    1.131927
 Sum of Mulliken charges =   0.00000

 Dipole moment (field-independent basis, Debye):
    X=              1.2607    Y=              0.2359    Z=              2.1299  Tot=              2.4862

 Test job not archived.
 1\1\GINC-SE159\SP\RHF\Aug-CC-pVDZ\C6H9N1\OHZDE\09-Apr-2025\0\\#t hf au
 g-cc-pvdz iop(5/13=1,5/36=2,99/5=2) pseudo=read geom=check guess=(read
 ,tcheck) scf=(maxcycle=1)\\title\\0,1\C,0,1.68929916,0.74714125,0.0795
 979\C,0,1.13156936,-0.44215287,0.76378638\C,0,-0.38023358,-0.36009246,
 1.00064728\C,0,-0.93107675,-1.19942843,-0.18879577\C,0,-0.4717445,0.04
 410434,-0.98619945\C,0,-0.9488423,0.85452503,0.23151653\N,0,1.01036526
 ,-0.06707014,-0.94321934\H,0,2.76359194,0.78020108,-0.0735774\H,0,1.26
 343638,1.72997645,0.21921154\H,0,1.31661789,-1.08276637,-0.44345988\H,

 Normal termination of Gaussian 16 at Wed Apr  9 19:19:18 2025.
