 Gaussian 16, Revision C.01,

 ----------------------------------------------------------------------
 #t hf aug-cc-pvdz symm=none int=(grid=ultrafine) guess=(read,tcheck) s
 table=(opt,rrhf)
 ----------------------------------------------------------------------
 -----
 title
 -----
 Symbolic Z-matrix:
 Charge =  0 Multiplicity = 1

 SCF Done:  E(RHF) =  -360.813864991     A.U. after   14 cycles
 Normal termination of Gaussian 16 at Wed Apr  9 19:20:10 2025.
 Gaussian 16:  ES64L-G16RevC.01  3-Jul-2019

 ----------------------------------------------------------------------
 #t hf aug-cc-pvdz iop(5/13=1,5/36=2,99/5=2) pseudo=read geom=check gue
 ss=(read,tcheck) scf=(maxcycle=1)
 ----------------------------------------------------------------------
 -----
 title
 -----
 Structure from the checkpoint file:  "Grambow2020_wb97xd3_008627_reverse_mol1.chk"
 Charge =  0 Multiplicity = 1

                         Standard orientation:
 ---------------------------------------------------------------------
 Center     Atomic      Atomic             Coordinates (Angstroms)
 Number     Number       Type             X           Y           Z
 ---------------------------------------------------------------------
      1          6           0        0.856261    1.352126   -0.330406
      2          6           0        1.854454    0.206528   -0.350849
      3          6           0        1.218124   -0.996009    0.349471
      4          8           0       -0.115253   -1.119846   -0.172798
      5          6           0       -0.915371   -0.104553    0.074217
      6          8           0       -1.012019    0.490031    1.253940
      7          7           0       -1.978235   -0.061245   -0.727645
      8          1           0        1.229700    2.206198    0.248523
      9          1           0        0.613536    1.724929   -1.325603
     10          1           0       -0.207841    1.131028    0.886499
     11          1           0        2.113917   -0.094141   -1.369986
     12          1           0        2.796037    0.432270    0.158631
     13          1           0        1.695018   -1.950041    0.131895
     14          1           0        1.159233   -0.854825    1.430305
     15          1           0       -2.660353    0.653083   -0.555827
     16          1           0       -1.954235   -0.529807   -1.614661
 ---------------------------------------------------------------------

 SCF Done:  E(RHF) =  -362.490127279     A.U. after    2 cycles

 The electronic state is 1-A.
 Alpha  occ. eigenvalues --  -21.10284 -21.05506 -15.80880 -11.56562 -11.45461
 Alpha  occ. eigenvalues --  -11.37819 -11.29833  -1.88018  -1.71367  -1.38017
 Alpha  occ. eigenvalues --   -1.16203  -0.98198  -0.85942  -0.80064  -0.74309
 Alpha  occ. eigenvalues --   -0.71093  -0.68686  -0.61068  -0.58664  -0.54625
 Alpha  occ. eigenvalues --   -0.53233  -0.48768  -0.44632  -0.43757  -0.41119
 Alpha  occ. eigenvalues --   -0.35899  -0.33933  -0.23916
 Alpha virt. eigenvalues --    0.03440   0.04976   0.05188   0.05933   0.06206
 Alpha virt. eigenvalues --    0.06291   0.06664   0.07430   0.09295   0.10444
 Alpha virt. eigenvalues --    0.13045   0.13594   0.14058   0.14756   0.15020

 Mulliken charges:
               1
     1  C   -3.547119
     2  C   -2.717546
     3  C   -1.981993
     4  O   -3.283897
     5  C    7.465279
     6  O   -3.236584
     7  N   -3.281967
     8  H    0.926102
     9  H    1.146562
    10  H    1.865144
    11  H    1.386111
    12  H    1.336622
    13  H    1.371787
    14  H    1.405666
    15  H    0.518470
    16  H    0.627364
 Sum of Mulliken charges =   0.00000

 Dipole moment (field-independent basis, Debye):
    X=             -2.0876    Y=             -1.8112    Z=             -1.1155  Tot=              2.9804

 Test job not archived.
 1\1\GINC-SE026\SP\RHF\Aug-CC-pVDZ\C4H9N1O2\OHZDE\09-Apr-2025\0\\#t hf
 aug-cc-pvdz iop(5/13=1,5/36=2,99/5=2) pseudo=read geom=check guess=(re
 ad,tcheck) scf=(maxcycle=1)\\title\\0,1\C,0,-1.00509499,-0.36214797,-0
 .84516276\C,0,-1.22349762,0.91219379,-0.04669068\C,0,-0.19113202,0.953
 27712,1.0820218\O,0,1.07611626,0.61360187,0.49491186\C,0,1.15714204,-0
 .59802548,-0.01245314\O,0,0.70429119,-1.68495149,0.59428861\N,0,2.1638
 5122,-0.74532903,-0.8723242\H,0,-1.87301743,-1.03112198,-0.78823984\H,
 0,-0.81612483,-0.17650772,-1.90258527\H,0,-0.232406,-1.46284558,0.0786

 Normal termination of Gaussian 16 at Wed Apr  9 19:20:15 2025.
