 Gaussian 16, Revision C.01,

 ----------------------------------------------------------------------
 #t hf aug-cc-pvdz symm=none int=(grid=ultrafine) guess=(read,tcheck) s
 table=(opt,rrhf)
 ----------------------------------------------------------------------
 -----
 title
 -----
 Symbolic Z-matrix:
 Charge =  0 Multiplicity = 1

 SCF Done:  E(RHF) =  -271.084908298     A.U. after   15 cycles

 1\1\GINC-SE162\Stability\RHF\Aug-CC-pVDZ\C5H12O1\OHZDE\09-Apr-2025\0\\
 #t hf aug-cc-pvdz symm=none int=(grid=ultrafine) guess=(read,tcheck) s
 table=(opt,rrhf)\\title\\0,1\C,0,-2.50280866,-0.11025172,0.19405021\C,
 0,-1.24470419,0.16121382,-0.63880823\C,0,0.0415453,0.34001597,0.121385
 5\O,0,0.16386864,-1.26471029,1.30223212\C,0,1.29594368,0.00913216,-0.4
 768063\C,0,2.58251558,0.6920894,-0.05337029\H,0,-3.40119229,-0.0630106
 2,-0.43697665\H,0,-2.4636812,-1.10648072,0.65404677\H,0,-2.61280949,0.
 62398414,1.00316879\H,0,-1.10885279,-0.62632476,-1.39761445\H,0,-1.381

 Normal termination of Gaussian 16 at Wed Apr  9 16:24:11 2025.
 Gaussian 16:  ES64L-G16RevC.01  3-Jul-2019

 ----------------------------------------------------------------------
 #t hf aug-cc-pvdz iop(5/13=1,5/36=2,99/5=2) pseudo=read geom=check gue
 ss=(read,tcheck) scf=(maxcycle=1)
 ----------------------------------------------------------------------
 -----
 title
 -----
 Structure from the checkpoint file:  "Grambow2020_b97d3_006802_reverse_mol1.chk"
 Charge =  0 Multiplicity = 1

                         Standard orientation:
 ---------------------------------------------------------------------
 Center     Atomic      Atomic             Coordinates (Angstroms)
 Number     Number       Type             X           Y           Z
 ---------------------------------------------------------------------
      1          6           0        2.526979   -0.201836    0.221308
      2          6           0        1.215602   -0.837804   -0.254094
      3          6           0       -0.055790   -0.261554    0.307866
      4          8           0        0.079967    1.700969   -0.030629
      5          6           0       -1.274322   -0.316708   -0.435754
      6          6           0       -2.625552   -0.327829    0.253485
      7          1           0        3.388356   -0.794151   -0.117385
      8          1           0        2.638218    0.815812   -0.175704
      9          1           0        2.565294   -0.135924    1.316782
     10          1           0        1.160606   -0.827978   -1.354702
     11          1           0        1.205423   -1.906269    0.030073
     12          1           0       -0.078865   -0.103347    1.386716
     13          1           0        0.782177    1.862597   -0.699161
     14          1           0       -0.860491    0.975715   -0.609097
     15          1           0       -1.208016   -0.862075   -1.384711
     16          1           0       -3.417334   -0.023210   -0.445685
     17          1           0       -2.898545   -1.319584    0.650344
     18          1           0       -2.638058    0.385044    1.090699
 ---------------------------------------------------------------------

 SCF Done:  E(RHF) =  -272.447803763     A.U. after    2 cycles

 The electronic state is 1-A.
 Alpha  occ. eigenvalues --  -21.00171 -11.51335 -11.43199 -11.39148 -11.38114
 Alpha  occ. eigenvalues --  -11.35043  -1.58600  -1.25382  -1.13256  -0.99965
 Alpha  occ. eigenvalues --   -0.89082  -0.80536  -0.64861  -0.63971  -0.60308
 Alpha  occ. eigenvalues --   -0.57795  -0.55817  -0.53554  -0.50166  -0.49462
 Alpha  occ. eigenvalues --   -0.48013  -0.44444  -0.41975  -0.32803  -0.23028
 Alpha virt. eigenvalues --    0.03739   0.04799   0.05105   0.05351   0.05622
 Alpha virt. eigenvalues --    0.05830   0.06381   0.07210   0.07912   0.08598
 Alpha virt. eigenvalues --    0.08993   0.10447   0.11552   0.13381   0.13667

 Mulliken charges:
               1
     1  C   -3.710082
     2  C   -3.524383
     3  C    0.101123
     4  O   -1.934981
     5  C   -2.700802
     6  C   -4.215031
     7  H    1.103885
     8  H    1.311884
     9  H    1.284766
    10  H    1.396846
    11  H    1.368938
    12  H    1.697606
    13  H    0.970895
    14  H    1.898443
    15  H    1.324272
    16  H    1.152561
    17  H    1.245146
    18  H    1.228912
 Sum of Mulliken charges =  -0.00000

 Dipole moment (field-independent basis, Debye):
    X=              1.2594    Y=             -1.4298    Z=              0.2915  Tot=              1.9275

 Test job not archived.
 1\1\GINC-SE162\SP\RHF\Aug-CC-pVDZ\C5H12O1\OHZDE\09-Apr-2025\0\\#t hf a
 ug-cc-pvdz iop(5/13=1,5/36=2,99/5=2) pseudo=read geom=check guess=(rea
 d,tcheck) scf=(maxcycle=1)\\title\\0,1\C,0,-2.50280866,-0.11025172,0.1
 9405021\C,0,-1.24470419,0.16121382,-0.63880823\C,0,0.0415453,0.3400159
 7,0.1213855\O,0,0.16386864,-1.26471029,1.30223212\C,0,1.29594368,0.009
 13216,-0.4768063\C,0,2.58251558,0.6920894,-0.05337029\H,0,-3.40119229,
 -0.06301062,-0.43697665\H,0,-2.4636812,-1.10648072,0.65404677\H,0,-2.6
 1280949,0.62398414,1.00316879\H,0,-1.10885279,-0.62632476,-1.39761445\

 Normal termination of Gaussian 16 at Wed Apr  9 16:24:17 2025.
