 Gaussian 16, Revision C.01,

 ----------------------------------------------------------------------
 #t hf aug-cc-pvdz symm=none int=(grid=ultrafine) guess=(read,tcheck) s
 table=(opt,rrhf)
 ----------------------------------------------------------------------
 -----
 title
 -----
 Symbolic Z-matrix:
 Charge =  0 Multiplicity = 1

 SCF Done:  E(RHF) =  -271.949381589     A.U. after   13 cycles
 Normal termination of Gaussian 16 at Wed Apr  9 03:39:48 2025.
 Gaussian 16:  ES64L-G16RevC.01  3-Jul-2019

 ----------------------------------------------------------------------
 #t hf aug-cc-pvdz iop(5/13=1,5/36=2,99/5=2) pseudo=read geom=check gue
 ss=(read,tcheck) scf=(maxcycle=1)
 ----------------------------------------------------------------------
 -----
 title
 -----
 Structure from the checkpoint file:  "Grambow2020_wb97xd3_007427_reverse_mol2.chk"
 Charge =  0 Multiplicity = 1

                         Standard orientation:
 ---------------------------------------------------------------------
 Center     Atomic      Atomic             Coordinates (Angstroms)
 Number     Number       Type             X           Y           Z
 ---------------------------------------------------------------------
      1          6           0       -2.089297   -0.724856   -0.009797
      2          6           0       -0.642144   -0.687402   -0.459633
      3          6           0        0.373786   -0.727779    0.706106
      4          6           0        1.750128   -0.693367    0.012056
      5          6           0        1.375523    0.715549   -0.415438
      6          6           0       -0.119673    0.719576   -0.711230
      7          6           0        0.379055    0.845401    0.700178
      8          1           0       -2.766103   -0.463048   -0.826461
      9          1           0       -2.260488   -0.016808    0.805523
     10          1           0       -2.362889   -1.721097    0.345525
     11          1           0       -0.468040   -1.424775   -1.252017
     12          1           0       -2.120312    2.641700    0.520113
     13          1           0        0.191216   -1.368544    1.565733
     14          1           0        1.944314   -1.449111   -0.755083
     15          1           0        2.567304   -0.678220    0.734417
     16          1           0        2.018770    1.488680   -0.812331
     17          1           0       -2.591424    3.212279    0.612432
     18          1           0       -0.560839    1.492400   -1.327190
     19          1           0        0.244225    1.603804    1.455886
 ---------------------------------------------------------------------

 SCF Done:  E(RHF) =  -273.350700369     A.U. after    2 cycles

 The electronic state is 1-A.
 Alpha  occ. eigenvalues --  -11.49921 -11.47536 -11.41819 -11.40221 -11.39630
 Alpha  occ. eigenvalues --  -11.37475 -11.33707  -1.48482  -1.12381  -1.03462
 Alpha  occ. eigenvalues --   -0.95012  -0.88363  -0.77458  -0.74124  -0.72339
 Alpha  occ. eigenvalues --   -0.62732  -0.61332  -0.60925  -0.56207  -0.53175
 Alpha  occ. eigenvalues --   -0.50133  -0.47628  -0.45678  -0.40545  -0.38787
 Alpha  occ. eigenvalues --   -0.35077  -0.32726
 Alpha virt. eigenvalues --    0.04306   0.04657   0.05024   0.05402   0.05485
 Alpha virt. eigenvalues --    0.06014   0.06308   0.06594   0.07264   0.08333
 Alpha virt. eigenvalues --    0.08568   0.11526   0.12168   0.12429   0.12782

 Mulliken charges:
               1
     1  C   -4.141157
     2  C   -1.335395
     3  C   -2.087173
     4  C   -3.388619
     5  C   -1.409239
     6  C   -1.082120
     7  C   -0.382130
     8  H    1.199765
     9  H    1.364675
    10  H    1.214308
    11  H    1.722037
    12  H   -0.183622
    13  H    1.624618
    14  H    1.319744
    15  H    1.216216
    16  H    1.451288
    17  H    0.173905
    18  H    1.513131
    19  H    1.209767
 Sum of Mulliken charges =  -0.00000

 Dipole moment (field-independent basis, Debye):
    X=              0.0931    Y=              0.0850    Z=              0.0346  Tot=              0.1307

 Test job not archived.
 1\1\GINC-SE329\SP\RHF\Aug-CC-pVDZ\C7H12\OHZDE\09-Apr-2025\0\\#t hf aug
 -cc-pvdz iop(5/13=1,5/36=2,99/5=2) pseudo=read geom=check guess=(read,
 tcheck) scf=(maxcycle=1)\\title\\0,1\C,0,1.73657178,0.0276842,-1.04437
 44\C,0,0.54585799,0.75815453,-0.45563044\C,0,0.37470197,0.54481859,1.0
 668296\C,0,-0.86923138,1.3801948,1.43012731\C,0,-1.64753953,0.38337113
 ,0.58828127\C,0,-0.76368735,-0.00512571,-0.59112429\C,0,-0.5820297,-0.
 66247453,0.74735573\H,0,1.69175613,0.00980536,-2.13580616\H,0,1.768102
 4,-1.00772841,-0.6946449\H,0,2.6733525,0.5099999,-0.75555396\H,0,0.539

 Normal termination of Gaussian 16 at Wed Apr  9 03:39:56 2025.
