 Gaussian 16, Revision C.01,

 ----------------------------------------------------------------------
 #t hf aug-cc-pvdz symm=none int=(grid=ultrafine) guess=(read,tcheck) s
 table=(opt,rrhf)
 ----------------------------------------------------------------------
 -----
 title
 -----
 Symbolic Z-matrix:
 Charge =  0 Multiplicity = 1

 SCF Done:  E(RHF) =  -234.130922833     A.U. after   13 cycles
 Normal termination of Gaussian 16 at Wed Apr  9 16:24:11 2025.
 Gaussian 16:  ES64L-G16RevC.01  3-Jul-2019

 ----------------------------------------------------------------------
 #t hf aug-cc-pvdz iop(5/13=1,5/36=2,99/5=2) pseudo=read geom=check gue
 ss=(read,tcheck) scf=(maxcycle=1)
 ----------------------------------------------------------------------
 -----
 title
 -----
 Structure from the checkpoint file:  "Grambow2020_b97d3_006793_reverse_mol2.chk"
 Charge =  0 Multiplicity = 1

                         Standard orientation:
 ---------------------------------------------------------------------
 Center     Atomic      Atomic             Coordinates (Angstroms)
 Number     Number       Type             X           Y           Z
 ---------------------------------------------------------------------
      1          6           0        2.216213    0.771734    0.196074
      2          6           0        1.088922   -0.015615   -0.439635
      3          6           0        0.786715   -1.417311    0.006822
      4          6           0       -1.498857   -0.221696   -0.307831
      5          6           0       -2.624557    0.260305    0.247744
      6          6           0       -0.181589   -0.292906    0.354691
      7          1           0        2.311200    0.524852    1.263588
      8          1           0        2.040599    1.853809    0.113567
      9          1           0        3.178254    0.542377   -0.286207
     10          1           0        0.928276    0.191073   -1.500277
     11          1           0        1.378707   -1.834558    0.822180
     12          1           0        0.463152   -2.146417   -0.736385
     13          1           0       -1.529209   -0.591740   -1.338637
     14          1           0       -2.638400    0.638409    1.271968
     15          1           0       -0.742642    2.664350   -0.489002
     16          1           0       -3.564916    0.290898   -0.302302
     17          1           0       -0.378619    3.312329   -0.557845
     18          1           0       -0.167478    0.047548    1.392165
 ---------------------------------------------------------------------

 SCF Done:  E(RHF) =  -235.345630174     A.U. after    2 cycles

 The electronic state is 1-A.
 Alpha  occ. eigenvalues --  -11.44296 -11.42409 -11.40391 -11.38004 -11.37678
 Alpha  occ. eigenvalues --  -11.35999  -1.33777  -1.12887  -1.03337  -0.88145
 Alpha  occ. eigenvalues --   -0.81789  -0.78451  -0.65384  -0.63150  -0.60845
 Alpha  occ. eigenvalues --   -0.58128  -0.55870  -0.53175  -0.52796  -0.48039
 Alpha  occ. eigenvalues --   -0.46045  -0.43600  -0.37875  -0.30552
 Alpha virt. eigenvalues --    0.04294   0.05253   0.05503   0.05706   0.05836
 Alpha virt. eigenvalues --    0.05870   0.06291   0.06435   0.08144   0.08241
 Alpha virt. eigenvalues --    0.08929   0.10821   0.11278   0.12708   0.13609

 Mulliken charges:
               1
     1  C   -4.727358
     2  C    0.073636
     3  C   -3.074894
     4  C   -1.355591
     5  C   -3.480524
     6  C   -0.748046
     7  H    1.219998
     8  H    1.300883
     9  H    1.144180
    10  H    1.402145
    11  H    1.319498
    12  H    1.379098
    13  H    1.309967
    14  H    1.472976
    15  H   -0.348836
    16  H    1.385972
    17  H    0.264241
    18  H    1.462655
 Sum of Mulliken charges =  -0.00000

 Dipole moment (field-independent basis, Debye):
    X=              0.7210    Y=             -0.1653    Z=             -0.1224  Tot=              0.7497

 Test job not archived.
 1\1\GINC-SE037\SP\RHF\Aug-CC-pVDZ\C6H12\OHZDE\09-Apr-2025\0\\#t hf aug
 -cc-pvdz iop(5/13=1,5/36=2,99/5=2) pseudo=read geom=check guess=(read,
 tcheck) scf=(maxcycle=1)\\title\\0,1\C,0,-2.20360349,-0.32327158,0.089
 78961\C,0,-0.98766388,0.52185472,-0.2297097\C,0,-0.49947778,1.55930129
 ,0.74022967\C,0,1.60569876,0.35113777,-0.18762497\C,0,2.66259039,-0.44
 723207,0.04426772\C,0,0.31492342,0.28896302,0.52598243\H,0,-2.25626,-0
 .54006274,1.16672459\H,0,-2.17295463,-1.28211555,-0.44706504\H,0,-3.13
 098565,0.19797636,-0.19125567\H,0,-0.86456461,0.76427503,-1.28780632\H

 Normal termination of Gaussian 16 at Wed Apr  9 16:24:17 2025.
