 Gaussian 16, Revision C.01,

 ----------------------------------------------------------------------
 #t hf aug-cc-pvdz symm=none int=(grid=ultrafine) guess=(read,tcheck) s
 table=(opt,rrhf)
 ----------------------------------------------------------------------
 -----
 title
 -----
 Symbolic Z-matrix:
 Charge =  0 Multiplicity = 1

 SCF Done:  E(RHF) =  -322.610493972     A.U. after   16 cycles
 Normal termination of Gaussian 16 at Wed Apr  9 03:33:22 2025.
 Gaussian 16:  ES64L-G16RevC.01  3-Jul-2019

 ----------------------------------------------------------------------
 #t hf aug-cc-pvdz iop(5/13=1,5/36=2,99/5=2) pseudo=read geom=check gue
 ss=(read,tcheck) scf=(maxcycle=1)
 ----------------------------------------------------------------------
 -----
 title
 -----
 Structure from the checkpoint file:  "Grambow2020_wb97xd3_007026_forward_mol1.chk"
 Charge =  0 Multiplicity = 1

                         Standard orientation:
 ---------------------------------------------------------------------
 Center     Atomic      Atomic             Coordinates (Angstroms)
 Number     Number       Type             X           Y           Z
 ---------------------------------------------------------------------
      1          6           0        1.859414   -0.874882    0.323416
      2          6           0        0.567308   -0.512808   -0.392597
      3          6           0       -0.624426   -1.370646   -0.212067
      4          6           0       -1.683568   -0.525689    0.074774
      5          7           0       -1.329629    0.858334    0.192447
      6          6           0        0.027868    0.908490   -0.072862
      7          8           0        0.718494    1.900255   -0.089143
      8          1           0        2.273028   -1.817490   -0.036936
      9          1           0        1.693599   -0.960412    1.399147
     10          1           0        2.587882   -0.081425    0.158318
     11          1           0        0.747801   -0.477492   -1.479187
     12          1           0       -0.677539   -2.447822   -0.284117
     13          1           0       -2.727788   -0.804321    0.141162
     14          1           0       -1.217107   -0.368202    1.143651
 ---------------------------------------------------------------------

 SCF Done:  E(RHF) =  -324.097325948     A.U. after    2 cycles

 The electronic state is 1-A.
 Alpha  occ. eigenvalues --  -21.00783 -15.71835 -11.53629 -11.48826 -11.46999
 Alpha  occ. eigenvalues --  -11.43091 -11.39328  -1.68705  -1.46609  -1.20490
 Alpha  occ. eigenvalues --   -1.08557  -0.98236  -0.83555  -0.75266  -0.71796
 Alpha  occ. eigenvalues --   -0.66626  -0.61861  -0.59702  -0.54300  -0.51939
 Alpha  occ. eigenvalues --   -0.49350  -0.46717  -0.44556  -0.39327  -0.26001
 Alpha  occ. eigenvalues --   -0.25165
 Alpha virt. eigenvalues --    0.02100   0.03848   0.04165   0.04653   0.05518
 Alpha virt. eigenvalues --    0.06263   0.07132   0.07599   0.09880   0.11131
 Alpha virt. eigenvalues --    0.11216   0.12467   0.12911   0.13751   0.14135

 Mulliken charges:
               1
     1  C   -3.850002
     2  C   -3.407881
     3  C    0.283310
     4  C   -1.666971
     5  N   -2.738935
     6  C    5.323568
     7  O   -3.458063
     8  H    1.183414
     9  H    1.284705
    10  H    1.268740
    11  H    1.616205
    12  H    1.349181
    13  H    1.212452
    14  H    1.600277
 Sum of Mulliken charges =  -0.00000

 Dipole moment (field-independent basis, Debye):
    X=             -0.6772    Y=             -4.8791    Z=             -0.2067  Tot=              4.9302

 Test job not archived.
 1\1\GINC-SE331\SP\RHF\Aug-CC-pVDZ\C5H7N1O1\OHZDE\09-Apr-2025\0\\#t hf
 aug-cc-pvdz iop(5/13=1,5/36=2,99/5=2) pseudo=read geom=check guess=(re
 ad,tcheck) scf=(maxcycle=1)\\title\\0,1\C,0,-1.74752576,0.09998496,0.2
 6194881\C,0,-0.39692707,0.17280937,-0.43367383\C,0,0.66999107,1.018647
 77,0.14507558\C,0,1.81744673,0.24395977,0.1799464\N,0,1.6378171,-1.110
 80259,-0.2524778\C,0,0.30714935,-1.19896382,-0.62295509\O,0,-0.2514719
 ,-2.17754769,-1.06015453\H,0,-2.26492183,1.05992424,0.24587975\H,0,-1.
 62968042,-0.21036644,1.30204546\H,0,-2.36382203,-0.64391002,-0.2423293

 Normal termination of Gaussian 16 at Wed Apr  9 03:33:26 2025.
