 Gaussian 16, Revision C.01,

 ----------------------------------------------------------------------
 #t hf aug-cc-pvdz symm=none int=(grid=ultrafine) guess=(read,tcheck) s
 table=(opt,rrhf)
 ----------------------------------------------------------------------
 -----
 title
 -----
 Symbolic Z-matrix:
 Charge =  0 Multiplicity = 1

 SCF Done:  E(RHF) =  -316.523676067     A.U. after   15 cycles
 Normal termination of Gaussian 16 at Wed Apr  9 18:34:09 2025.
 Gaussian 16:  ES64L-G16RevC.01  3-Jul-2019

 ----------------------------------------------------------------------
 #t hf aug-cc-pvdz iop(5/13=1,5/36=2,99/5=2) pseudo=read geom=check gue
 ss=(read,tcheck) scf=(maxcycle=1)
 ----------------------------------------------------------------------
 -----
 title
 -----
 Structure from the checkpoint file:  "Grambow2020_wb97xd3_007271_reverse_mol2.chk"
 Charge =  0 Multiplicity = 1

                         Standard orientation:
 ---------------------------------------------------------------------
 Center     Atomic      Atomic             Coordinates (Angstroms)
 Number     Number       Type             X           Y           Z
 ---------------------------------------------------------------------
      1          7           0        1.847179   -1.454339   -0.020680
      2          6           0        1.488005   -0.361658   -0.000293
      3          6           0       -1.743172   -1.658794    0.018046
      4          7           0       -1.486698   -0.519323    0.003125
      5          6           0       -1.306142    0.843529   -0.016182
      6          6           0       -0.129737    1.465298   -0.004785
      7          7           0        1.149805    0.932232    0.023795
      8          1           0       -2.211196    1.432747   -0.042432
      9          1           0       -0.131432    2.545971   -0.019925
     10          1           0        1.916896    1.581050    0.037964
 ---------------------------------------------------------------------

 SCF Done:  E(RHF) =  -317.929147425     A.U. after    2 cycles

 The electronic state is 1-A.
 Alpha  occ. eigenvalues --  -15.84555 -15.79135 -15.76243 -11.51604 -11.47467
 Alpha  occ. eigenvalues --  -11.45983 -11.43857  -1.50991  -1.41639  -1.29179
 Alpha  occ. eigenvalues --   -1.14070  -0.95071  -0.81890  -0.77825  -0.65544
 Alpha  occ. eigenvalues --   -0.63258  -0.61498  -0.54017  -0.53102  -0.49122
 Alpha  occ. eigenvalues --   -0.47028  -0.43360  -0.43277  -0.31484
 Alpha virt. eigenvalues --    0.01718   0.04247   0.04750   0.08491   0.09293
 Alpha virt. eigenvalues --    0.09655   0.10168   0.10171   0.11095   0.11342
 Alpha virt. eigenvalues --    0.12016   0.12919   0.13300   0.14509   0.14821

 Mulliken charges:
               1
     1  N   -2.581804
     2  C    2.952435
     3  C   -0.651534
     4  N   -1.407438
     5  C    0.740187
     6  C    0.266228
     7  N   -3.086664
     8  H    1.438053
     9  H    1.524307
    10  H    0.806231
 Sum of Mulliken charges =  -0.00000

 Dipole moment (field-independent basis, Debye):
    X=              0.6783    Y=              7.0094    Z=              0.0034  Tot=              7.0421

 Test job not archived.
 1\1\GINC-SE116\SP\RHF\Aug-CC-pVDZ\C4H3N3\OHZDE\09-Apr-2025\0\\#t hf au
 g-cc-pvdz iop(5/13=1,5/36=2,99/5=2) pseudo=read geom=check guess=(read
 ,tcheck) scf=(maxcycle=1)\\title\\0,1\N,0,2.71514048,0.09210671,0.2275
 1549\C,0,1.67204095,0.56840786,0.13556593\C,0,0.43087418,-2.68468117,0
 .15337494\N,0,-0.22648356,-1.72529019,0.04454448\C,0,-1.09798944,-0.67
 065399,-0.09168738\C,0,-0.75696513,0.61556321,-0.09374521\N,0,0.495828
 77,1.19646199,0.02981643\H,0,-2.13854637,-0.93812679,-0.20433477\H,0,-
 1.54609183,1.34533134,-0.20689598\H,0,0.53980495,2.20014602,0.01310408

 Normal termination of Gaussian 16 at Wed Apr  9 18:34:12 2025.
