 Gaussian 16, Revision C.01,

 ----------------------------------------------------------------------
 #t hf aug-cc-pvdz symm=none int=(grid=ultrafine) guess=(read,tcheck) s
 table=(opt,rrhf)
 ----------------------------------------------------------------------
 -----
 title
 -----
 Symbolic Z-matrix:
 Charge =  0 Multiplicity = 1

 SCF Done:  E(RHF) =  -308.903801921     A.U. after   16 cycles

 1\1\GINC-SE103\Stability\RHF\Aug-CC-pVDZ\C6H12O1\OHZDE\09-Apr-2025\0\\
 #t hf aug-cc-pvdz symm=none int=(grid=ultrafine) guess=(read,tcheck) s
 table=(opt,rrhf)\\title\\0,1\C,0,1.75286782,-0.39339272,-0.98956044\C,
 0,0.91550888,0.48975657,-0.0970423\O,0,0.49347427,1.66478922,-0.797228
 99\C,0,-0.43540722,2.18588636,0.04842407\C,0,-0.45007894,-0.03682867,0
 .37764677\C,0,-0.44956391,-0.81037626,1.66713323\C,0,-1.31608717,-0.62
 626462,-0.70204257\H,0,2.67896934,0.10949959,-1.26938231\H,0,2.0132456
 7,-1.31535211,-0.46499493\H,0,1.2124881,-0.65559775,-1.90004225\H,0,1.

 Normal termination of Gaussian 16 at Wed Apr  9 18:05:11 2025.
 Gaussian 16:  ES64L-G16RevC.01  3-Jul-2019

 ----------------------------------------------------------------------
 #t hf aug-cc-pvdz iop(5/13=1,5/36=2,99/5=2) pseudo=read geom=check gue
 ss=(read,tcheck) scf=(maxcycle=1)
 ----------------------------------------------------------------------
 -----
 title
 -----
 Structure from the checkpoint file:  "Grambow2020_wb97xd3_006575_forward_mol1.chk"
 Charge =  0 Multiplicity = 1

                         Standard orientation:
 ---------------------------------------------------------------------
 Center     Atomic      Atomic             Coordinates (Angstroms)
 Number     Number       Type             X           Y           Z
 ---------------------------------------------------------------------
      1          6           0        0.981037    1.783049    0.086541
      2          6           0        0.612824    0.426417   -0.462714
      3          8           0        1.516292   -0.576481    0.013751
      4          6           0        0.890623   -1.726304   -0.354947
      5          6           0       -0.724580   -0.198593   -0.028935
      6          6           0       -1.916542    0.127364   -0.885749
      7          6           0       -0.993311   -0.165271    1.450865
      8          1           0        1.959127    2.094713   -0.280979
      9          1           0        0.247025    2.526776   -0.231377
     10          1           0        1.008823    1.770223    1.176863
     11          1           0        0.643736    0.438467   -1.562532
     12          1           0        1.053098   -2.483615    0.425070
     13          1           0       -0.231523   -1.447495   -0.658116
     14          1           0       -1.720540   -0.070642   -1.942987
     15          1           0       -2.182590    1.188788   -0.797681
     16          1           0       -2.792143   -0.447432   -0.578360
     17          1           0       -1.320653    0.835762    1.762789
     18          1           0       -0.102685   -0.414444    2.029275
     19          1           0       -1.792312   -0.859217    1.717659
 ---------------------------------------------------------------------

 SCF Done:  E(RHF) =  -310.422315956     A.U. after    2 cycles

 The electronic state is 1-A.
 Alpha  occ. eigenvalues --  -21.05794 -11.47926 -11.42962 -11.41098 -11.39950
 Alpha  occ. eigenvalues --  -11.39404 -11.36653  -1.79349  -1.24700  -1.11047
 Alpha  occ. eigenvalues --   -1.02239  -0.93565  -0.91431  -0.75033  -0.67361
 Alpha  occ. eigenvalues --   -0.65423  -0.62094  -0.57889  -0.56914  -0.56090
 Alpha  occ. eigenvalues --   -0.54056  -0.51383  -0.48948  -0.46664  -0.46255
 Alpha  occ. eigenvalues --   -0.39868  -0.37006  -0.21637
 Alpha virt. eigenvalues --    0.03699   0.04868   0.05000   0.05126   0.05333
 Alpha virt. eigenvalues --    0.05620   0.06473   0.07059   0.07260   0.08853
 Alpha virt. eigenvalues --    0.09390   0.09564   0.10209   0.12161   0.13072

 Mulliken charges:
               1
     1  C   -4.176755
     2  C    1.723085
     3  O   -3.266694
     4  C   -1.860152
     5  C    0.652995
     6  C   -4.763859
     7  C   -4.273891
     8  H    1.138632
     9  H    1.214154
    10  H    1.271004
    11  H    1.701581
    12  H    1.331826
    13  H    1.918591
    14  H    1.245430
    15  H    1.250683
    16  H    1.221526
    17  H    1.255351
    18  H    1.336036
    19  H    1.080459
 Sum of Mulliken charges =  -0.00000

 Dipole moment (field-independent basis, Debye):
    X=             -1.0955    Y=              1.5948    Z=              1.0692  Tot=              2.2106

 Test job not archived.
 1\1\GINC-SE103\SP\RHF\Aug-CC-pVDZ\C6H12O1\OHZDE\09-Apr-2025\0\\#t hf a
 ug-cc-pvdz iop(5/13=1,5/36=2,99/5=2) pseudo=read geom=check guess=(rea
 d,tcheck) scf=(maxcycle=1)\\title\\0,1\C,0,1.75286782,-0.39339272,-0.9
 8956044\C,0,0.91550888,0.48975657,-0.0970423\O,0,0.49347427,1.66478922
 ,-0.79722899\C,0,-0.43540722,2.18588636,0.04842407\C,0,-0.45007894,-0.
 03682867,0.37764677\C,0,-0.44956391,-0.81037626,1.66713323\C,0,-1.3160
 8717,-0.62626462,-0.70204257\H,0,2.67896934,0.10949959,-1.26938231\H,0
 ,2.01324567,-1.31535211,-0.46499493\H,0,1.2124881,-0.65559775,-1.90004

 Normal termination of Gaussian 16 at Wed Apr  9 18:05:20 2025.
