 Gaussian 16, Revision C.01,

 ----------------------------------------------------------------------
 #t hf aug-cc-pvdz symm=none int=(grid=ultrafine) guess=(read,tcheck) s
 table=(opt,rrhf)
 ----------------------------------------------------------------------
 -----
 title
 -----
 Symbolic Z-matrix:
 Charge =  0 Multiplicity = 1

 SCF Done:  E(RHF) =  -322.610798945     A.U. after   16 cycles
 Normal termination of Gaussian 16 at Wed Apr  9 18:40:35 2025.
 Gaussian 16:  ES64L-G16RevC.01  3-Jul-2019

 ----------------------------------------------------------------------
 #t hf aug-cc-pvdz iop(5/13=1,5/36=2,99/5=2) pseudo=read geom=check gue
 ss=(read,tcheck) scf=(maxcycle=1)
 ----------------------------------------------------------------------
 -----
 title
 -----
 Structure from the checkpoint file:  "Grambow2020_wb97xd3_007392_reverse_mol2.chk"
 Charge =  0 Multiplicity = 1

                         Standard orientation:
 ---------------------------------------------------------------------
 Center     Atomic      Atomic             Coordinates (Angstroms)
 Number     Number       Type             X           Y           Z
 ---------------------------------------------------------------------
      1          6           0        2.100156   -0.127485   -0.528037
      2          6           0        0.602052    1.150663   -0.001024
      3          6           0       -0.905107    1.188437    0.214232
      4          8           0       -1.574149    0.097420   -0.397557
      5          6           0       -1.042317   -1.107177   -0.099567
      6          7           0        0.105491   -1.350520    0.350043
      7          6           0        1.082161   -0.293629    0.477193
      8          1           0        1.704795   -0.601454   -1.446242
      9          1           0        0.816861    1.349857   -1.060385
     10          1           0        1.095483    1.921631    0.583322
     11          1           0       -1.337595    2.089479   -0.216965
     12          1           0       -1.117418    1.170838    1.288447
     13          1           0       -1.748289   -1.907229   -0.305149
     14          1           0        1.419254   -0.213701    1.510337
 ---------------------------------------------------------------------

 SCF Done:  E(RHF) =  -324.077724927     A.U. after    2 cycles

 The electronic state is 1-A.
 Alpha  occ. eigenvalues --  -21.09751 -15.72805 -11.48679 -11.46681 -11.44709
 Alpha  occ. eigenvalues --  -11.41909 -11.38769  -1.82730  -1.39714  -1.23385
 Alpha  occ. eigenvalues --   -1.04487  -0.94506  -0.84168  -0.77768  -0.71174
 Alpha  occ. eigenvalues --   -0.64689  -0.63246  -0.58773  -0.56568  -0.55860
 Alpha  occ. eigenvalues --   -0.49864  -0.47156  -0.43334  -0.35903  -0.33552
 Alpha  occ. eigenvalues --   -0.30199
 Alpha virt. eigenvalues --    0.03337   0.05082   0.05171   0.05725   0.05952
 Alpha virt. eigenvalues --    0.06456   0.07069   0.09143   0.10279   0.11299
 Alpha virt. eigenvalues --    0.11993   0.12656   0.13060   0.13540   0.13912

 Mulliken charges:
               1
     1  C   -1.664246
     2  C   -1.954779
     3  C   -1.519429
     4  O   -3.259324
     5  C    2.083304
     6  N   -3.028415
     7  C   -0.509961
     8  H    1.107244
     9  H    1.463966
    10  H    1.293765
    11  H    1.212227
    12  H    1.458295
    13  H    1.770110
    14  H    1.547244
 Sum of Mulliken charges =  -0.00000

 Dipole moment (field-independent basis, Debye):
    X=             -3.1561    Y=              1.6047    Z=              0.2465  Tot=              3.5492

 Test job not archived.
 1\1\GINC-SE131\SP\RHF\Aug-CC-pVDZ\C5H7N1O1\OHZDE\09-Apr-2025\0\\#t hf
 aug-cc-pvdz iop(5/13=1,5/36=2,99/5=2) pseudo=read geom=check guess=(re
 ad,tcheck) scf=(maxcycle=1)\\title\\0,1\C,0,-1.60453861,-1.35045876,0.
 0481452\C,0,-0.83745484,0.5031089,-0.31460945\C,0,0.42792273,1.3251204
 4,-0.10868371\O,0,1.2776844,0.78329174,0.88958835\C,0,1.53903803,-0.53
 169498,0.73083739\N,0,0.89451668,-1.36633182,0.04760962\C,0,-0.3553718
 1,-0.99527862,-0.57461969\H,0,-1.38036911,-1.50162692,1.1209698\H,0,-1
 .47778358,0.60434871,0.57297061\H,0,-1.40115165,0.86835659,-1.16793633

 Normal termination of Gaussian 16 at Wed Apr  9 18:40:39 2025.
