 Gaussian 16, Revision C.01,

 ----------------------------------------------------------------------
 #t hf aug-cc-pvdz symm=none int=(grid=ultrafine) guess=(read,tcheck) s
 table=(opt,rrhf)
 ----------------------------------------------------------------------
 -----
 title
 -----
 Symbolic Z-matrix:
 Charge =  0 Multiplicity = 1

 SCF Done:  E(RHF) =  -283.728658116     A.U. after   14 cycles
 Normal termination of Gaussian 16 at Wed Apr  9 17:53:17 2025.
 Gaussian 16:  ES64L-G16RevC.01  3-Jul-2019

 ----------------------------------------------------------------------
 #t hf aug-cc-pvdz iop(5/13=1,5/36=2,99/5=2) pseudo=read geom=check gue
 ss=(read,tcheck) scf=(maxcycle=1)
 ----------------------------------------------------------------------
 -----
 title
 -----
 Structure from the checkpoint file:  "Grambow2020_wb97xd3_006228_reverse_mol2.chk"
 Charge =  0 Multiplicity = 1

                         Standard orientation:
 ---------------------------------------------------------------------
 Center     Atomic      Atomic             Coordinates (Angstroms)
 Number     Number       Type             X           Y           Z
 ---------------------------------------------------------------------
      1          8           0        2.044746   -0.003378   -0.008682
      2          6           0        0.852693   -0.022589    0.000834
      3          6           0       -0.078705    1.189083    0.010993
      4          6           0       -1.470273    0.573405   -0.011034
      5          6           0       -1.150655   -0.897614    0.001860
      6          7           0        0.074608   -1.232392    0.006495
      7          1           0        0.142817    1.818147   -0.850431
      8          1           0        0.122667    1.778564    0.905282
      9          1           0       -2.086478    0.838335    0.850892
     10          1           0       -1.927587   -1.659277    0.004758
     11          1           0       -2.049999    0.824291   -0.902439
 ---------------------------------------------------------------------

 SCF Done:  E(RHF) =  -285.008206291     A.U. after    2 cycles

 The electronic state is 1-A.
 Alpha  occ. eigenvalues --  -21.05149 -15.74833 -11.51333 -11.47430 -11.44469
 Alpha  occ. eigenvalues --  -11.39135  -1.72136  -1.44818  -1.16999  -1.02335
 Alpha  occ. eigenvalues --   -0.86051  -0.74994  -0.68232  -0.67847  -0.57828
 Alpha  occ. eigenvalues --   -0.55056  -0.51348  -0.50620  -0.48899  -0.40947
 Alpha  occ. eigenvalues --   -0.37141  -0.28513
 Alpha virt. eigenvalues --    0.02709   0.04845   0.05198   0.05369   0.06260
 Alpha virt. eigenvalues --    0.09405   0.09570   0.10670   0.11151   0.12462
 Alpha virt. eigenvalues --    0.12728   0.13680   0.13935   0.15076   0.15996

 Mulliken charges:
               1
     1  O   -3.259842
     2  C    4.500566
     3  C   -3.225604
     4  C   -2.850494
     5  C    0.750051
     6  N   -2.998188
     7  H    1.368580
     8  H    1.375366
     9  H    1.353486
    10  H    1.630037
    11  H    1.356043
 Sum of Mulliken charges =   0.00000

 Dipole moment (field-independent basis, Debye):
    X=             -3.2751    Y=              1.5556    Z=             -0.0013  Tot=              3.6258

 Test job not archived.
 1\1\GINC-SE131\SP\RHF\Aug-CC-pVDZ\C4H5N1O1\OHZDE\09-Apr-2025\0\\#t hf
 aug-cc-pvdz iop(5/13=1,5/36=2,99/5=2) pseudo=read geom=check guess=(re
 ad,tcheck) scf=(maxcycle=1)\\title\\0,1\O,0,-1.71804715,1.81843281,0.5
 3061865\C,0,-0.81481313,1.06129493,0.35073303\C,0,-0.89510314,-0.31216
 65,-0.31478274\C,0,0.5448879,-0.80428937,-0.29913477\C,0,1.2453953,0.3
 3161364,0.39745106\N,0,0.54156533,1.32931677,0.7475632\H,0,-1.31647044
 ,-0.20203473,-1.31336478\H,0,-1.57635041,-0.94038702,0.25883099\H,0,0.
 68918446,-1.73699926,0.25045044\H,0,2.31439679,0.3163412,0.59935073\H,

 Normal termination of Gaussian 16 at Wed Apr  9 17:53:20 2025.
