 Gaussian 16, Revision C.01,

 ----------------------------------------------------------------------
 #t hf aug-cc-pvdz symm=none int=(grid=ultrafine) guess=(read,tcheck) s
 table=(opt,rrhf)
 ----------------------------------------------------------------------
 -----
 title
 -----
 Symbolic Z-matrix:
 Charge =  0 Multiplicity = 1

 SCF Done:  E(RHF) =  -376.891921633     A.U. after   15 cycles
 Normal termination of Gaussian 16 at Wed Apr  9 03:58:42 2025.
 Gaussian 16:  ES64L-G16RevC.01  3-Jul-2019

 ----------------------------------------------------------------------
 #t hf aug-cc-pvdz iop(5/13=1,5/36=2,99/5=2) pseudo=read geom=check gue
 ss=(read,tcheck) scf=(maxcycle=1)
 ----------------------------------------------------------------------
 -----
 title
 -----
 Structure from the checkpoint file:  "Grambow2020_wb97xd3_008739_reverse_mol2.chk"
 Charge =  0 Multiplicity = 1

                         Standard orientation:
 ---------------------------------------------------------------------
 Center     Atomic      Atomic             Coordinates (Angstroms)
 Number     Number       Type             X           Y           Z
 ---------------------------------------------------------------------
      1          7           0       -2.292428   -0.818406    0.424640
      2          6           0       -1.182439   -0.298445   -0.308951
      3          8           0       -0.240291   -1.312097   -0.399925
      4          7           0       -0.571890    0.857198    0.366240
      5          6           0       -0.637129    1.961981   -0.232220
      6          6           0        2.575245   -0.063838    0.643597
      7          8           0        2.427588   -0.282246   -0.529186
      8          1           0       -1.990937   -1.078649    1.355598
      9          1           0       -3.030352   -0.132381    0.498958
     10          1           0       -1.542850    0.010438   -1.306111
     11          1           0       -0.214736    2.852739    0.229778
     12          1           0       -1.108288    2.081327   -1.216372
     13          1           0        1.736919   -0.145800    1.354879
     14          1           0        3.559050    0.235540    1.045998
     15          1           0        0.608979   -0.938201   -0.680556
 ---------------------------------------------------------------------

 SCF Done:  E(RHF) =  -378.564297273     A.U. after    2 cycles

 The electronic state is 1-A.
 Alpha  occ. eigenvalues --  -21.08840 -21.05047 -15.73830 -15.72760 -11.48653
 Alpha  occ. eigenvalues --  -11.44328 -11.42740  -1.73871  -1.72318  -1.39065
 Alpha  occ. eigenvalues --   -1.27781  -0.94653  -0.90808  -0.83566  -0.71366
 Alpha  occ. eigenvalues --   -0.68170  -0.66567  -0.62150  -0.57673  -0.55767
 Alpha  occ. eigenvalues --   -0.53253  -0.47076  -0.45821  -0.40774  -0.38617
 Alpha  occ. eigenvalues --   -0.34458  -0.32066  -0.31204
 Alpha virt. eigenvalues --    0.03414   0.04406   0.05176   0.05599   0.06297
 Alpha virt. eigenvalues --    0.07250   0.07962   0.09061   0.09868   0.10207
 Alpha virt. eigenvalues --    0.12278   0.12381   0.14464   0.15015   0.15481

 Mulliken charges:
               1
     1  N   -2.610096
     2  C    3.039674
     3  O   -3.214239
     4  N   -2.386135
     5  C   -1.530210
     6  C   -0.872796
     7  O   -2.193000
     8  H    0.500188
     9  H    0.585559
    10  H    1.635840
    11  H    1.462112
    12  H    1.462056
    13  H    1.611300
    14  H    1.392010
    15  H    1.117738
 Sum of Mulliken charges =  -0.00000

 Dipole moment (field-independent basis, Debye):
    X=              0.5793    Y=              2.1847    Z=              0.6023  Tot=              2.3391

 Test job not archived.
 1\1\GINC-SE345\SP\RHF\Aug-CC-pVDZ\C3H8N2O2\OHZDE\09-Apr-2025\0\\#t hf
 aug-cc-pvdz iop(5/13=1,5/36=2,99/5=2) pseudo=read geom=check guess=(re
 ad,tcheck) scf=(maxcycle=1)\\title\\0,1\N,0,2.21549684,0.93209409,-0.1
 3245501\C,0,0.81889224,0.77651893,-0.38912706\O,0,0.14236437,1.550024,
 0.54222131\N,0,0.38767751,-0.62270799,-0.24636131\C,0,-0.03141458,-1.1
 9479462,-1.28560957\C,0,-2.05391307,-0.39274159,1.94805061\O,0,-2.4242
 1683,0.45365094,1.17901263\H,0,2.42811947,0.59572381,0.79864833\H,0,2.
 76642153,0.41352837,-0.80197514\H,0,0.61825621,1.11644173,-1.42054912\

 Normal termination of Gaussian 16 at Wed Apr  9 03:58:46 2025.
