 Gaussian 16, Revision C.01,

 ----------------------------------------------------------------------
 #t hf aug-cc-pvdz symm=none int=(grid=ultrafine) guess=(read,tcheck) s
 table=(opt,rrhf)
 ----------------------------------------------------------------------
 -----
 title
 -----
 Symbolic Z-matrix:
 Charge =  0 Multiplicity = 1

 SCF Done:  E(RHF) =  -322.712607367     A.U. after   14 cycles
 Normal termination of Gaussian 16 at Wed Apr  9 18:39:32 2025.
 Gaussian 16:  ES64L-G16RevC.01  3-Jul-2019

 ----------------------------------------------------------------------
 #t hf aug-cc-pvdz iop(5/13=1,5/36=2,99/5=2) pseudo=read geom=check gue
 ss=(read,tcheck) scf=(maxcycle=1)
 ----------------------------------------------------------------------
 -----
 title
 -----
 Structure from the checkpoint file:  "Grambow2020_wb97xd3_007370_forward_mol2.chk"
 Charge =  0 Multiplicity = 1

                         Standard orientation:
 ---------------------------------------------------------------------
 Center     Atomic      Atomic             Coordinates (Angstroms)
 Number     Number       Type             X           Y           Z
 ---------------------------------------------------------------------
      1          6           0       -1.507504   -0.033758    0.782538
      2          6           0       -0.936851    0.746052   -0.359350
      3          6           0        0.419380    1.386188   -0.249104
      4          8           0        1.400549    0.531988    0.345801
      5          6           0        1.306977   -0.792050    0.098515
      6          7           0        0.297853   -1.450409   -0.265117
      7          6           0       -0.939318   -0.750678   -0.414448
      8          1           0       -0.934710   -0.092450    1.700144
      9          1           0       -2.581348   -0.035213    0.913750
     10          1           0       -1.625904    1.281246   -1.002289
     11          1           0        0.403242    2.284769    0.368920
     12          1           0        0.773376    1.660797   -1.248040
     13          1           0        2.257233   -1.286211    0.280598
     14          1           0       -1.637348   -1.250508   -1.072573
 ---------------------------------------------------------------------

 SCF Done:  E(RHF) =  -324.193741254     A.U. after    2 cycles

 The electronic state is 1-A.
 Alpha  occ. eigenvalues --  -21.08257 -15.71866 -11.46745 -11.44993 -11.43534
 Alpha  occ. eigenvalues --  -11.41162 -11.36987  -1.80927  -1.40348  -1.25643
 Alpha  occ. eigenvalues --   -1.03036  -0.92439  -0.85333  -0.75715  -0.68553
 Alpha  occ. eigenvalues --   -0.66290  -0.63993  -0.58425  -0.57246  -0.52929
 Alpha  occ. eigenvalues --   -0.50939  -0.44544  -0.42374  -0.38631  -0.33010
 Alpha  occ. eigenvalues --   -0.28544
 Alpha virt. eigenvalues --    0.03554   0.05216   0.05410   0.05530   0.05859
 Alpha virt. eigenvalues --    0.06218   0.06835   0.09865   0.10614   0.12385
 Alpha virt. eigenvalues --    0.12732   0.13182   0.13470   0.13956   0.14287

 Mulliken charges:
               1
     1  C   -2.321420
     2  C   -0.892315
     3  C   -1.901252
     4  O   -3.250939
     5  C    1.857976
     6  N   -3.334061
     7  C    0.242592
     8  H    1.316068
     9  H    1.202263
    10  H    1.269136
    11  H    1.356140
    12  H    1.327678
    13  H    1.777873
    14  H    1.350262
 Sum of Mulliken charges =  -0.00000

 Dipole moment (field-independent basis, Debye):
    X=             -0.3949    Y=              2.0564    Z=              0.0749  Tot=              2.0953

 Test job not archived.
 1\1\GINC-SE162\SP\RHF\Aug-CC-pVDZ\C5H7N1O1\OHZDE\09-Apr-2025\0\\#t hf
 aug-cc-pvdz iop(5/13=1,5/36=2,99/5=2) pseudo=read geom=check guess=(re
 ad,tcheck) scf=(maxcycle=1)\\title\\0,1\C,0,-1.39738794,-0.43404229,0.
 37139511\C,0,-0.65406958,0.48090601,-0.54947624\C,0,0.47701115,1.33001
 972,-0.03863933\O,0,1.36679456,0.62270296,0.8298372\C,0,1.57916563,-0.
 68583704,0.5737042\N,0,0.85275671,-1.4840323,-0.07376103\C,0,-0.383989
 37,-0.99161877,-0.59385991\H,0,-1.12341621,-0.43974568,1.41946263\H,0,
 -2.4446086,-0.61848144,0.1722204\H,0,-1.20067528,0.92427333,-1.3736387

 Normal termination of Gaussian 16 at Wed Apr  9 18:39:37 2025.
