 Gaussian 16, Revision C.01,

 ----------------------------------------------------------------------
 #t hf aug-cc-pvdz symm=none int=(grid=ultrafine) guess=(read,tcheck) s
 table=(opt,rrhf)
 ----------------------------------------------------------------------
 -----
 title
 -----
 Symbolic Z-matrix:
 Charge =  0 Multiplicity = 1

 SCF Done:  E(RHF) =  -324.985669581     A.U. after   15 cycles
 Normal termination of Gaussian 16 at Wed Apr  9 19:07:15 2025.
 Gaussian 16:  ES64L-G16RevC.01  3-Jul-2019

 ----------------------------------------------------------------------
 #t hf aug-cc-pvdz iop(5/13=1,5/36=2,99/5=2) pseudo=read geom=check gue
 ss=(read,tcheck) scf=(maxcycle=1)
 ----------------------------------------------------------------------
 -----
 title
 -----
 Structure from the checkpoint file:  "Grambow2020_wb97xd3_008101_reverse_mol2.chk"
 Charge =  0 Multiplicity = 1

                         Standard orientation:
 ---------------------------------------------------------------------
 Center     Atomic      Atomic             Coordinates (Angstroms)
 Number     Number       Type             X           Y           Z
 ---------------------------------------------------------------------
      1          6           0       -2.176200   -0.790382   -0.426160
      2          6           0       -1.516973    0.441237    0.161867
      3          7           0       -0.120434    0.612137   -0.300949
      4          6           0        0.495457    1.923254    0.176483
      5          6           0        0.811515   -0.415542    0.174544
      6          8           0        0.589350   -1.002080    1.197185
      7          6           0        2.008035   -0.655718   -0.702008
      8          1           0       -3.213093   -0.840752   -0.093325
      9          1           0       -1.678086   -1.705052   -0.103201
     10          1           0       -2.185747   -0.760100   -1.519156
     11          1           0       -1.474096    0.395160    1.248079
     12          1           0       -2.015280    1.368185   -0.116960
     13          1           0        0.728582    1.772497    1.232774
     14          1           0        1.417437    2.060153   -0.394511
     15          1           0       -0.115963    0.648313   -1.315193
     16          1           0        1.935392   -1.674863   -1.089026
     17          1           0        2.911723   -0.594904   -0.098395
     18          1           0        2.086365    0.045947   -1.530271
 ---------------------------------------------------------------------

 SCF Done:  E(RHF) =  -326.541585921     A.U. after    2 cycles

 The electronic state is 1-A.
 Alpha  occ. eigenvalues --  -21.06775 -15.83410 -11.53883 -11.44619 -11.41363
 Alpha  occ. eigenvalues --  -11.38435 -11.31352  -1.75009  -1.48892  -1.17058
 Alpha  occ. eigenvalues --   -1.10981  -0.93789  -0.91710  -0.82849  -0.71301
 Alpha  occ. eigenvalues --   -0.65600  -0.63452  -0.61700  -0.60664  -0.56816
 Alpha  occ. eigenvalues --   -0.52870  -0.51919  -0.50472  -0.49817  -0.48468
 Alpha  occ. eigenvalues --   -0.42988  -0.32786  -0.24180
 Alpha virt. eigenvalues --    0.02895   0.04329   0.04925   0.05202   0.06023
 Alpha virt. eigenvalues --    0.06158   0.06343   0.07311   0.07675   0.08461
 Alpha virt. eigenvalues --    0.09031   0.10393   0.11228   0.12811   0.13246

 Mulliken charges:
               1
     1  C   -3.655683
     2  C   -2.805694
     3  N   -1.108333
     4  C   -3.427643
     5  C    5.337837
     6  O   -3.654343
     7  C   -4.612251
     8  H    1.048949
     9  H    1.207962
    10  H    1.314456
    11  H    1.761056
    12  H    1.518925
    13  H    1.202619
    14  H    1.296785
    15  H    0.782073
    16  H    1.163076
    17  H    1.188823
    18  H    1.441387
 Sum of Mulliken charges =   0.00000

 Dipole moment (field-independent basis, Debye):
    X=             -0.7996    Y=             -3.7467    Z=             -2.0368  Tot=              4.3388

 Test job not archived.
 1\1\GINC-SE108\SP\RHF\Aug-CC-pVDZ\C5H11N1O1\OHZDE\09-Apr-2025\0\\#t hf
  aug-cc-pvdz iop(5/13=1,5/36=2,99/5=2) pseudo=read geom=check guess=(r
 ead,tcheck) scf=(maxcycle=1)\\title\\0,1\C,0,-2.00363917,0.45959717,-0
 .95022477\C,0,-1.47861526,-0.04005195,0.38091822\N,0,-0.02166438,0.178
 39413,0.5335577\C,0,0.4808339,-0.19352832,1.92476573\C,0,0.81405921,-0
 .61533113,-0.3732573\O,0,0.40918351,-1.65838048,-0.80604023\C,0,2.1563
 2545,-0.02277743,-0.69712547\H,0,-3.08409215,0.31983592,-0.9896173\H,0
 ,-1.5663898,-0.08850685,-1.78535039\H,0,-1.80775812,1.52670233,-1.0864

 Normal termination of Gaussian 16 at Wed Apr  9 19:07:22 2025.
