 Gaussian 16, Revision C.01,

 ----------------------------------------------------------------------
 #t hf aug-cc-pvdz symm=none int=(grid=ultrafine) guess=(read,tcheck) s
 table=(opt,rrhf)
 ----------------------------------------------------------------------
 -----
 title
 -----
 Symbolic Z-matrix:
 Charge =  0 Multiplicity = 1

 SCF Done:  E(RHF) =  -306.507204513     A.U. after   18 cycles
 Normal termination of Gaussian 16 at Wed Apr  9 04:04:48 2025.
 Gaussian 16:  ES64L-G16RevC.01  3-Jul-2019

 ----------------------------------------------------------------------
 #t hf aug-cc-pvdz iop(5/13=1,5/36=2,99/5=2) pseudo=read geom=check gue
 ss=(read,tcheck) scf=(maxcycle=1)
 ----------------------------------------------------------------------
 -----
 title
 -----
 Structure from the checkpoint file:  "Grambow2020_wb97xd3_009209_forward_mol1.chk"
 Charge =  0 Multiplicity = 1

                         Standard orientation:
 ---------------------------------------------------------------------
 Center     Atomic      Atomic             Coordinates (Angstroms)
 Number     Number       Type             X           Y           Z
 ---------------------------------------------------------------------
      1          6           0       -3.392103   -0.466276    0.056888
      2          6           0       -2.194136    0.217968   -0.458635
      3          6           0       -1.067738    0.572081    0.038643
      4          6           0        0.306374    0.729210    0.183195
      5          6           0        1.280342   -0.298143   -0.216825
      6          6           0        2.669033    0.069420   -0.518855
      7          8           0        2.345533   -0.584931    0.688163
      8          1           0       -4.298080    0.094035   -0.180058
      9          1           0       -3.483458   -1.415667   -0.479540
     10          1           0       -3.374577   -0.689581    1.130260
     11          1           0       -0.967594    0.725858    1.188492
     12          1           0        0.685391    1.605424    0.697407
     13          1           0        0.860971   -1.172278   -0.705718
     14          1           0        3.225330   -0.521019   -1.241797
     15          1           0        2.977124    1.107106   -0.420811
 ---------------------------------------------------------------------

 SCF Done:  E(RHF) =  -307.935034592     A.U. after    2 cycles

 The electronic state is 1-A.
 Alpha  occ. eigenvalues --  -21.07856 -11.51899 -11.46992 -11.43316 -11.41888
 Alpha  occ. eigenvalues --  -11.40406 -11.37208  -1.80405  -1.25495  -1.11404
 Alpha  occ. eigenvalues --   -1.00530  -0.94736  -0.87200  -0.75083  -0.66266
 Alpha  occ. eigenvalues --   -0.65067  -0.59398  -0.57623  -0.56519  -0.54313
 Alpha  occ. eigenvalues --   -0.52077  -0.45579  -0.41357  -0.35493  -0.32653
 Alpha  occ. eigenvalues --   -0.24762
 Alpha virt. eigenvalues --    0.02634   0.04876   0.05315   0.05419   0.05982
 Alpha virt. eigenvalues --    0.06591   0.07132   0.07552   0.08401   0.09859
 Alpha virt. eigenvalues --    0.10717   0.11262   0.11503   0.13202   0.13704

 Mulliken charges:
               1
     1  C   -4.515534
     2  C   -1.694240
     3  C    3.067421
     4  C   -1.635381
     5  C   -0.877915
     6  C   -2.128777
     7  O   -2.622433
     8  H    1.141297
     9  H    1.118185
    10  H    1.241555
    11  H    1.234427
    12  H    1.354418
    13  H    1.512353
    14  H    1.391287
    15  H    1.413338
 Sum of Mulliken charges =  -0.00000

 Dipole moment (field-independent basis, Debye):
    X=              2.1176    Y=             -0.4472    Z=              1.3844  Tot=              2.5692

 Test job not archived.
 1\1\GINC-SE340\SP\RHF\Aug-CC-pVDZ\C6H8O1\OHZDE\09-Apr-2025\0\\#t hf au
 g-cc-pvdz iop(5/13=1,5/36=2,99/5=2) pseudo=read geom=check guess=(read
 ,tcheck) scf=(maxcycle=1)\\title\\0,1\C,0,2.70567799,-0.58429521,-1.63
 172978\C,0,1.83395266,-0.66693632,-0.44752428\C,0,0.95165901,0.0951105
 1,0.08379244\C,0,-0.25122857,0.50945569,0.64517248\C,0,-1.56033948,-0.
 00269951,0.21157337\C,0,-2.71825268,0.05528344,1.11194166\O,0,-2.60984
 244,0.94539849,0.0230608\H,0,3.74403924,-0.79671725,-1.3717906\H,0,2.4
 0382842,-1.3821923,-2.31707023\H,0,2.65626992,0.36370019,-2.18051419\H

 Normal termination of Gaussian 16 at Wed Apr  9 04:04:52 2025.
