 Gaussian 16, Revision C.01,

 ----------------------------------------------------------------------
 #t hf aug-cc-pvdz symm=none int=(grid=ultrafine) guess=(read,tcheck) s
 table=(opt,rrhf)
 ----------------------------------------------------------------------
 -----
 title
 -----
 Symbolic Z-matrix:
 Charge =  0 Multiplicity = 1

 SCF Done:  E(RHF) =  -269.488154230     A.U. after   15 cycles
 Normal termination of Gaussian 16 at Wed Apr  9 19:08:59 2025.
 Gaussian 16:  ES64L-G16RevC.01  3-Jul-2019

 ----------------------------------------------------------------------
 #t hf aug-cc-pvdz iop(5/13=1,5/36=2,99/5=2) pseudo=read geom=check gue
 ss=(read,tcheck) scf=(maxcycle=1)
 ----------------------------------------------------------------------
 -----
 title
 -----
 Structure from the checkpoint file:  "Grambow2020_wb97xd3_008151_forward_mol1.chk"
 Charge =  0 Multiplicity = 1

                         Standard orientation:
 ---------------------------------------------------------------------
 Center     Atomic      Atomic             Coordinates (Angstroms)
 Number     Number       Type             X           Y           Z
 ---------------------------------------------------------------------
      1          6           0        2.169131    0.217047   -0.008665
      2          6           0        0.687014    0.080530    0.022445
      3          6           0       -0.407465    1.157977   -0.052111
      4          6           0       -1.355070    0.202359    0.633403
      5          6           0       -1.461582   -0.104284   -0.848725
      6          6           0       -0.166569   -0.951817   -0.665268
      7          6           0       -0.207248   -0.817294    0.839341
      8          1           0        2.641098   -0.763791    0.075238
      9          1           0        2.503162    0.672992   -0.943929
     10          1           0        2.527879    0.833606    0.818828
     11          1           0       -0.390573    2.229591    0.125605
     12          1           0       -2.170064    0.502555    1.279330
     13          1           0       -0.892079    1.095781   -1.217217
     14          1           0        0.193753   -1.761614   -1.283578
     15          1           0        0.037554   -1.516231    1.623208
 ---------------------------------------------------------------------

 SCF Done:  E(RHF) =  -270.821061014     A.U. after    2 cycles

 The electronic state is 1-A.
 Alpha  occ. eigenvalues --  -11.53565 -11.47545 -11.43053 -11.42268 -11.40605
 Alpha  occ. eigenvalues --  -11.39472 -11.35710  -1.53999  -1.12711  -1.05267
 Alpha  occ. eigenvalues --   -0.93039  -0.92230  -0.77475  -0.74538  -0.66965
 Alpha  occ. eigenvalues --   -0.61613  -0.58661  -0.56938  -0.53681  -0.52087
 Alpha  occ. eigenvalues --   -0.44582  -0.43370  -0.39170  -0.33697  -0.25639
 Alpha virt. eigenvalues --    0.03573   0.04703   0.04821   0.05305   0.05965
 Alpha virt. eigenvalues --    0.06219   0.06505   0.07960   0.09822   0.11358
 Alpha virt. eigenvalues --    0.11922   0.12426   0.12784   0.13031   0.13685

 Mulliken charges:
               1
     1  C   -4.888134
     2  C    2.170788
     3  C   -1.763254
     4  C   -2.174326
     5  C   -1.043344
     6  C   -0.832686
     7  C   -0.752467
     8  H    1.066260
     9  H    1.185554
    10  H    1.151076
    11  H    1.102549
    12  H    1.330781
    13  H    0.977126
    14  H    1.295865
    15  H    1.174214
 Sum of Mulliken charges =   0.00000

 Dipole moment (field-independent basis, Debye):
    X=              2.4003    Y=              0.7701    Z=              1.8293  Tot=              3.1146

 Test job not archived.
 1\1\GINC-SE018\SP\RHF\Aug-CC-pVDZ\C7H8\OHZDE\09-Apr-2025\0\\#t hf aug-
 cc-pvdz iop(5/13=1,5/36=2,99/5=2) pseudo=read geom=check guess=(read,t
 check) scf=(maxcycle=1)\\title\\0,1\C,0,1.95311239,-0.03454037,0.13871
 342\C,0,0.4690549,0.01066146,0.03006408\C,0,-0.53972943,-1.12310649,-0
 .21743957\C,0,-1.51886388,-0.09918712,-0.74086478\C,0,-1.73367139,-0.1
 4466764,0.76042355\C,0,-0.50099351,0.80320475,0.86563234\C,0,-0.444936
 28,1.01166521,-0.63002867\H,0,2.35046905,0.96776611,0.3099555\H,0,2.26
 799982,-0.66875965,0.97105564\H,0,2.40594395,-0.42284295,-0.77657543\H

 Normal termination of Gaussian 16 at Wed Apr  9 19:09:04 2025.
