 Gaussian 16, Revision C.01,

 ----------------------------------------------------------------------
 #t hf aug-cc-pvdz symm=none int=(grid=ultrafine) guess=(read,tcheck) s
 table=(opt,rrhf)
 ----------------------------------------------------------------------
 -----
 title
 -----
 Symbolic Z-matrix:
 Charge =  0 Multiplicity = 1

 SCF Done:  E(RHF) =  -247.794015629     A.U. after   15 cycles
 Normal termination of Gaussian 16 at Wed Apr  9 17:47:42 2025.
 Gaussian 16:  ES64L-G16RevC.01  3-Jul-2019

 ----------------------------------------------------------------------
 #t hf aug-cc-pvdz iop(5/13=1,5/36=2,99/5=2) pseudo=read geom=check gue
 ss=(read,tcheck) scf=(maxcycle=1)
 ----------------------------------------------------------------------
 -----
 title
 -----
 Structure from the checkpoint file:  "Grambow2020_wb97xd3_006171_reverse_mol2.chk"
 Charge =  0 Multiplicity = 1

                         Standard orientation:
 ---------------------------------------------------------------------
 Center     Atomic      Atomic             Coordinates (Angstroms)
 Number     Number       Type             X           Y           Z
 ---------------------------------------------------------------------
      1          6           0        1.911218   -1.031946   -0.180653
      2          6           0        1.117230    0.054334    0.498956
      3          6           0        0.765243    1.324786   -0.240836
      4          6           0       -0.269652    0.328072    0.081628
      5          6           0       -1.491398   -0.058039    0.007458
      6          7           0       -2.629857   -0.482345   -0.157388
      7          1           0        1.701024   -2.006229    0.263676
      8          1           0        2.983170   -0.842015   -0.091432
      9          1           0        1.658851   -1.086181   -1.241043
     10          1           0        1.316584    0.178063    1.559980
     11          1           0        1.076716    1.406147   -1.277106
     12          1           0        0.763476    2.258374    0.310593
     13          1           0       -3.286664   -0.234988    0.577729
 ---------------------------------------------------------------------

 SCF Done:  E(RHF) =  -248.991239952     A.U. after    2 cycles

 The electronic state is 1-A.
 Alpha  occ. eigenvalues --  -15.76011 -11.47783 -11.47509 -11.42684 -11.39406
 Alpha  occ. eigenvalues --  -11.38087  -1.37540  -1.30148  -1.05721  -0.96171
 Alpha  occ. eigenvalues --   -0.84090  -0.72450  -0.68434  -0.62515  -0.57741
 Alpha  occ. eigenvalues --   -0.55469  -0.51566  -0.50214  -0.49127  -0.41411
 Alpha  occ. eigenvalues --   -0.36523  -0.30712
 Alpha virt. eigenvalues --    0.03412   0.05427   0.05581   0.05651   0.06174
 Alpha virt. eigenvalues --    0.06389   0.06969   0.09643   0.10425   0.10935
 Alpha virt. eigenvalues --    0.12744   0.13639   0.14147   0.14468   0.15236

 Mulliken charges:
               1
     1  C   -4.524300
     2  C   -1.039389
     3  C   -2.719712
     4  C    1.819331
     5  C    2.313032
     6  N   -3.392491
     7  H    1.169965
     8  H    1.178903
     9  H    1.215980
    10  H    0.971641
    11  H    1.221119
    12  H    1.072931
    13  H    0.712990
 Sum of Mulliken charges =   0.00000

 Dipole moment (field-independent basis, Debye):
    X=              1.3647    Y=              0.8859    Z=              1.1703  Tot=              2.0042

 Test job not archived.
 1\1\GINC-SE362\SP\RHF\Aug-CC-pVDZ\C5H7N1\OHZDE\09-Apr-2025\0\\#t hf au
 g-cc-pvdz iop(5/13=1,5/36=2,99/5=2) pseudo=read geom=check guess=(read
 ,tcheck) scf=(maxcycle=1)\\title\\0,1\C,0,1.7441477,0.54257991,0.15336
 484\C,0,0.67090458,-0.48453075,-0.10253046\C,0,-0.25794994,-0.91710355
 ,1.00893064\C,0,-0.74833831,-0.08668139,-0.10388063\C,0,-1.7063789,0.5
 649236,-0.65598199\N,0,-2.5850849,1.27830961,-1.12741909\H,0,2.0063753
 8,1.07119778,-0.76458826\H,0,2.64827301,0.06950043,0.54306712\H,0,1.40
 282549,1.28217648,0.8796934\H,0,0.9361055,-1.26366862,-0.81206201\H,0,

 Normal termination of Gaussian 16 at Wed Apr  9 17:47:45 2025.
