 Gaussian 16, Revision C.01,

 ----------------------------------------------------------------------
 #t hf aug-cc-pvdz symm=none int=(grid=ultrafine) guess=(read,tcheck) s
 table=(opt,rrhf)
 ----------------------------------------------------------------------
 -----
 title
 -----
 Symbolic Z-matrix:
 Charge =  0 Multiplicity = 1

 SCF Done:  E(RHF) =  -307.668267797     A.U. after   17 cycles

 1\1\GINC-SE334\Stability\RHF\Aug-CC-pVDZ\C6H10O1\OHZDE\09-Apr-2025\0\\
 #t hf aug-cc-pvdz symm=none int=(grid=ultrafine) guess=(read,tcheck) s
 table=(opt,rrhf)\\title\\0,1\C,0,1.85616903,0.75965743,-0.85723755\C,0
 ,0.79605403,-0.13865768,-0.30498973\C,0,-0.27375385,-1.38239656,0.9713
 4944\C,0,-1.26429969,-1.12944561,-0.14704128\C,0,-0.7039484,0.21148441
 ,-0.59958252\C,0,-0.66415885,1.11140478,0.61477712\O,0,0.42494974,0.35
 422958,1.18137763\H,0,2.82758115,0.54223861,-0.41046351\H,0,1.94093076
 ,0.56198623,-1.92965553\H,0,1.65913833,1.83589323,-0.72739332\H,0,0.42

 Normal termination of Gaussian 16 at Wed Apr  9 03:33:41 2025.
 Gaussian 16:  ES64L-G16RevC.01  3-Jul-2019

 ----------------------------------------------------------------------
 #t hf aug-cc-pvdz iop(5/13=1,5/36=2,99/5=2) pseudo=read geom=check gue
 ss=(read,tcheck) scf=(maxcycle=1)
 ----------------------------------------------------------------------
 -----
 title
 -----
 Structure from the checkpoint file:  "Grambow2020_wb97xd3_007027_reverse_mol1.chk"
 Charge =  0 Multiplicity = 1

                         Standard orientation:
 ---------------------------------------------------------------------
 Center     Atomic      Atomic             Coordinates (Angstroms)
 Number     Number       Type             X           Y           Z
 ---------------------------------------------------------------------
      1          6           0       -2.143131   -0.522270    0.084341
      2          6           0       -0.654537   -0.596470   -0.035551
      3          6           0        1.264692   -0.647721   -0.832014
      4          6           0        1.529281   -0.505210    0.653128
      5          6           0        0.216283    0.173194    1.017388
      6          6           0        0.085261    1.394557    0.135791
      7          8           0       -0.157632    0.572228   -1.024073
      8          1           0       -2.629460   -0.906848   -0.813491
      9          1           0       -2.446897   -1.162765    0.917306
     10          1           0       -2.538403    0.488413    0.274718
     11          1           0        1.143595   -1.635608   -1.247664
     12          1           0        1.837900    0.011316   -1.485042
     13          1           0        2.438594    0.060827    0.879415
     14          1           0        1.571127   -1.493467    1.115110
     15          1           0       -0.045203    0.232088    2.073276
     16          1           0        0.946996    2.057354    0.008206
     17          1           0       -0.804291    1.994387    0.332247
 ---------------------------------------------------------------------

 SCF Done:  E(RHF) =  -309.170906289     A.U. after    2 cycles

 The electronic state is 1-A.
 Alpha  occ. eigenvalues --  -21.04286 -11.52136 -11.44719 -11.43607 -11.39564
 Alpha  occ. eigenvalues --  -11.36512 -11.33217  -1.77401  -1.23616  -1.08538
 Alpha  occ. eigenvalues --   -1.04334  -0.90488  -0.87081  -0.73490  -0.69917
 Alpha  occ. eigenvalues --   -0.65131  -0.61925  -0.57463  -0.54518  -0.52538
 Alpha  occ. eigenvalues --   -0.51272  -0.48086  -0.45563  -0.40884  -0.34520
 Alpha  occ. eigenvalues --   -0.33511  -0.20998
 Alpha virt. eigenvalues --    0.04101   0.04731   0.04984   0.05176   0.05383
 Alpha virt. eigenvalues --    0.05740   0.06323   0.06903   0.07826   0.09402
 Alpha virt. eigenvalues --    0.10745   0.11928   0.12229   0.13099   0.13941

 Mulliken charges:
               1
     1  C   -4.612168
     2  C    2.161989
     3  C   -1.944410
     4  C   -3.104941
     5  C   -2.369937
     6  C   -1.487800
     7  O   -2.067256
     8  H    1.260560
     9  H    1.253398
    10  H    1.257727
    11  H    1.174031
    12  H    1.080360
    13  H    1.419402
    14  H    1.407195
    15  H    1.665560
    16  H    1.394425
    17  H    1.511865
 Sum of Mulliken charges =  -0.00000

 Dipole moment (field-independent basis, Debye):
    X=              2.0042    Y=              1.5852    Z=             -0.2890  Tot=              2.5716

 Test job not archived.
 1\1\GINC-SE334\SP\RHF\Aug-CC-pVDZ\C6H10O1\OHZDE\09-Apr-2025\0\\#t hf a
 ug-cc-pvdz iop(5/13=1,5/36=2,99/5=2) pseudo=read geom=check guess=(rea
 d,tcheck) scf=(maxcycle=1)\\title\\0,1\C,0,1.85616903,0.75965743,-0.85
 723755\C,0,0.79605403,-0.13865768,-0.30498973\C,0,-0.27375385,-1.38239
 656,0.97134944\C,0,-1.26429969,-1.12944561,-0.14704128\C,0,-0.7039484,
 0.21148441,-0.59958252\C,0,-0.66415885,1.11140478,0.61477712\O,0,0.424
 94974,0.35422958,1.18137763\H,0,2.82758115,0.54223861,-0.41046351\H,0,
 1.94093076,0.56198623,-1.92965553\H,0,1.65913833,1.83589323,-0.7273933

 Normal termination of Gaussian 16 at Wed Apr  9 03:33:47 2025.
