 Gaussian 16, Revision C.01,

 ----------------------------------------------------------------------
 #t hf aug-cc-pvdz symm=none int=(grid=ultrafine) guess=(read,tcheck) s
 table=(opt,rrhf)
 ----------------------------------------------------------------------
 -----
 title
 -----
 Symbolic Z-matrix:
 Charge =  0 Multiplicity = 1

 SCF Done:  E(RHF) =  -299.596126089     A.U. after   15 cycles
 Normal termination of Gaussian 16 at Wed Apr  9 15:40:37 2025.
 Gaussian 16:  ES64L-G16RevC.01  3-Jul-2019

 ----------------------------------------------------------------------
 #t hf aug-cc-pvdz iop(5/13=1,5/36=2,99/5=2) pseudo=read geom=check gue
 ss=(read,tcheck) scf=(maxcycle=1)
 ----------------------------------------------------------------------
 -----
 title
 -----
 Structure from the checkpoint file:  "Grambow2020_b97d3_006604_reverse_mol2.chk"
 Charge =  0 Multiplicity = 1

                         Standard orientation:
 ---------------------------------------------------------------------
 Center     Atomic      Atomic             Coordinates (Angstroms)
 Number     Number       Type             X           Y           Z
 ---------------------------------------------------------------------
      1          6           0        2.099335   -0.458592   -0.000136
      2          6           0        0.771124    0.226872   -0.000009
      3          7           0        0.545376    1.460779    0.000178
      4          6           0       -2.584965    0.098956   -0.000354
      5          7           0       -1.483758   -0.362949    0.000276
      6          8           0       -0.247173   -0.837021    0.000113
      7          1           0        2.886464    0.300116   -0.003685
      8          1           0        2.198782   -1.100794   -0.885508
      9          1           0        2.201686   -1.095699    0.888492
     10          1           0       -0.453828    1.704320   -0.000384
 ---------------------------------------------------------------------

 SCF Done:  E(RHF) =  -300.928935163     A.U. after    2 cycles

 The electronic state is 1-A.
 Alpha  occ. eigenvalues --  -21.17885 -15.83729 -15.77004 -11.53080 -11.47189
 Alpha  occ. eigenvalues --  -11.41547  -1.90934  -1.37527  -1.29120  -1.11527
 Alpha  occ. eigenvalues --   -0.86100  -0.75121  -0.66911  -0.64659  -0.58974
 Alpha  occ. eigenvalues --   -0.58816  -0.56790  -0.48401  -0.46906  -0.46652
 Alpha  occ. eigenvalues --   -0.39193  -0.35384
 Alpha virt. eigenvalues --    0.03057   0.05907   0.06006   0.06376   0.08477
 Alpha virt. eigenvalues --    0.09923   0.10611   0.11548   0.12048   0.13146
 Alpha virt. eigenvalues --    0.13858   0.13935   0.14447   0.15074   0.15595

 Mulliken charges:
               1
     1  C   -3.972035
     2  C    4.589537
     3  N   -3.184689
     4  C    0.227296
     5  N    0.935874
     6  O   -3.102562
     7  H    1.170742
     8  H    1.264894
     9  H    1.264547
    10  H    0.806397
 Sum of Mulliken charges =  -0.00000

 Dipole moment (field-independent basis, Debye):
    X=              3.4979    Y=             -2.0950    Z=             -0.0003  Tot=              4.0773

 Test job not archived.
 1\1\GINC-SE162\SP\RHF\Aug-CC-pVDZ\C3H4N2O1\OHZDE\09-Apr-2025\0\\#t hf
 aug-cc-pvdz iop(5/13=1,5/36=2,99/5=2) pseudo=read geom=check guess=(re
 ad,tcheck) scf=(maxcycle=1)\\title\\0,1\C,0,-1.5791976,0.07158764,0.06
 266691\C,0,-0.09643283,0.19094514,0.20815644\N,0,0.53913338,0.91890375
 ,1.00791845\C,0,3.01175415,-0.68568327,-0.71401149\N,0,1.81893665,-0.7
 1672214,-0.76131793\O,0,0.49478866,-0.72396488,-0.7829008\H,0,-2.05808
 151,0.73594019,0.78691045\H,0,-1.89933296,-0.9638368,0.24044616\H,0,-1
 .88769432,0.34716591,-0.9546472\H,0,1.56119438,0.83589647,0.92903801\\

 Normal termination of Gaussian 16 at Wed Apr  9 15:40:39 2025.
