 Gaussian 16, Revision C.01,

 ----------------------------------------------------------------------
 #t hf aug-cc-pvdz symm=none int=(grid=ultrafine) guess=(read,tcheck) s
 table=(opt,rrhf)
 ----------------------------------------------------------------------
 -----
 title
 -----
 Symbolic Z-matrix:
 Charge =  0 Multiplicity = 1

 SCF Done:  E(RHF) =  -306.502997733     A.U. after   15 cycles
 Normal termination of Gaussian 16 at Wed Apr  9 19:10:01 2025.
 Gaussian 16:  ES64L-G16RevC.01  3-Jul-2019

 ----------------------------------------------------------------------
 #t hf aug-cc-pvdz iop(5/13=1,5/36=2,99/5=2) pseudo=read geom=check gue
 ss=(read,tcheck) scf=(maxcycle=1)
 ----------------------------------------------------------------------
 -----
 title
 -----
 Structure from the checkpoint file:  "Grambow2020_wb97xd3_008181_forward_mol1.chk"
 Charge =  0 Multiplicity = 1

                         Standard orientation:
 ---------------------------------------------------------------------
 Center     Atomic      Atomic             Coordinates (Angstroms)
 Number     Number       Type             X           Y           Z
 ---------------------------------------------------------------------
      1          6           0        1.729446   -0.070593   -0.211624
      2          6           0        0.426065   -0.731173   -0.607695
      3          8           0       -0.229184   -1.148866    0.608097
      4          6           0       -0.828370    0.094031    0.785646
      5          6           0       -1.823348    0.293129   -0.307209
      6          6           0       -0.430721    0.516783   -0.770814
      7          6           0        1.159557    1.013126    0.701061
      8          1           0        2.404711   -0.752655    0.308941
      9          1           0        2.213145    0.296624   -1.126629
     10          1           0        0.435846   -1.527683   -1.354286
     11          1           0       -0.914390    0.502130    1.779229
     12          1           0       -2.363084   -0.589320   -0.639023
     13          1           0       -2.418839    1.196128   -0.235386
     14          1           0       -0.127887    1.377846   -1.344865
     15          1           0        1.208200    1.996039    0.211054
 ---------------------------------------------------------------------

 SCF Done:  E(RHF) =  -307.944305693     A.U. after    2 cycles

 The electronic state is 1-A.
 Alpha  occ. eigenvalues --  -21.05509 -11.52209 -11.49606 -11.45887 -11.40457
 Alpha  occ. eigenvalues --  -11.39922 -11.36062  -1.82430  -1.28147  -1.17356
 Alpha  occ. eigenvalues --   -0.97302  -0.89327  -0.82497  -0.75993  -0.73704
 Alpha  occ. eigenvalues --   -0.67541  -0.64339  -0.58370  -0.50534  -0.48851
 Alpha  occ. eigenvalues --   -0.47485  -0.46742  -0.41365  -0.36951  -0.29771
 Alpha  occ. eigenvalues --   -0.27897
 Alpha virt. eigenvalues --    0.03975   0.04781   0.04955   0.05157   0.05449
 Alpha virt. eigenvalues --    0.06407   0.06625   0.07271   0.09383   0.11020
 Alpha virt. eigenvalues --    0.11977   0.12381   0.13258   0.13652   0.14253

 Mulliken charges:
               1
     1  C   -2.902363
     2  C    0.318663
     3  O   -3.385885
     4  C    1.404514
     5  C   -3.429758
     6  C   -1.017213
     7  C   -1.631845
     8  H    1.451388
     9  H    1.392962
    10  H    1.565057
    11  H    1.325505
    12  H    1.246748
    13  H    1.319080
    14  H    1.209158
    15  H    1.133989
 Sum of Mulliken charges =  -0.00000

 Dipole moment (field-independent basis, Debye):
    X=             -1.5369    Y=             -0.2084    Z=             -2.1159  Tot=              2.6234

 Test job not archived.
 1\1\GINC-SE145\SP\RHF\Aug-CC-pVDZ\C6H8O1\OHZDE\09-Apr-2025\0\\#t hf au
 g-cc-pvdz iop(5/13=1,5/36=2,99/5=2) pseudo=read geom=check guess=(read
 ,tcheck) scf=(maxcycle=1)\\title\\0,1\C,0,-1.69478291,-0.12635985,-0.2
 5039743\C,0,-0.62107099,-0.45427275,0.76530704\O,0,0.18795949,-1.51075
 934,0.20738583\C,0,1.00316258,-0.61182837,-0.47284043\C,0,1.77821132,0
 .16948302,0.53354053\C,0,0.37573981,0.64264394,0.41713149\C,0,-0.78651
 988,0.21642321,-1.42928312\H,0,-2.35331458,-0.97325217,-0.45359234\H,0
 ,-2.28600202,0.71162261,0.14240535\H,0,-0.90845913,-0.6685952,1.796517

 Normal termination of Gaussian 16 at Wed Apr  9 19:10:07 2025.
