 Gaussian 16, Revision C.01,

 ----------------------------------------------------------------------
 #t hf aug-cc-pvdz symm=none int=(grid=ultrafine) guess=(read,tcheck) s
 table=(opt,rrhf)
 ----------------------------------------------------------------------
 -----
 title
 -----
 Symbolic Z-matrix:
 Charge =  0 Multiplicity = 1

 SCF Done:  E(RHF) =  -359.627974055     A.U. after   15 cycles
 Normal termination of Gaussian 16 at Wed Apr  9 19:34:09 2025.
 Gaussian 16:  ES64L-G16RevC.01  3-Jul-2019

 ----------------------------------------------------------------------
 #t hf aug-cc-pvdz iop(5/13=1,5/36=2,99/5=2) pseudo=read geom=check gue
 ss=(read,tcheck) scf=(maxcycle=1)
 ----------------------------------------------------------------------
 -----
 title
 -----
 Structure from the checkpoint file:  "Grambow2020_wb97xd3_009409_reverse_mol2.chk"
 Charge =  0 Multiplicity = 1

                         Standard orientation:
 ---------------------------------------------------------------------
 Center     Atomic      Atomic             Coordinates (Angstroms)
 Number     Number       Type             X           Y           Z
 ---------------------------------------------------------------------
      1          8           0       -1.294890   -1.448963   -0.511513
      2          6           0       -1.574725   -0.495571    0.484806
      3          6           0        2.487744   -0.892006    0.167770
      4          8           0        1.279473   -0.424514    0.102659
      5          6           0        1.031190    0.973411   -0.135496
      6          7           0       -0.075226    1.507834   -0.165777
      7          6           0       -1.395847    0.946010    0.025493
      8          1           0       -0.351682   -1.625160   -0.500008
      9          1           0       -2.631644   -0.613702    0.737763
     10          1           0        3.179307   -0.017615    0.017023
     11          1           0       -1.000358   -0.686045    1.398156
     12          1           0        1.977234    1.497660   -0.290254
     13          1           0       -1.895012    1.607948    0.739231
     14          1           0       -1.918103    1.078837   -0.926073
 ---------------------------------------------------------------------

 SCF Done:  E(RHF) =  -361.215709593     A.U. after    2 cycles

 The electronic state is 1-A.
 Alpha  occ. eigenvalues --  -21.15555 -21.06260 -15.76342 -11.49227 -11.45902
 Alpha  occ. eigenvalues --  -11.44828 -11.39623  -1.85914  -1.71055  -1.40045
 Alpha  occ. eigenvalues --   -1.11445  -0.95446  -0.89031  -0.82800  -0.68588
 Alpha  occ. eigenvalues --   -0.67169  -0.63288  -0.62278  -0.58481  -0.54277
 Alpha  occ. eigenvalues --   -0.50660  -0.48611  -0.44251  -0.40794  -0.39365
 Alpha  occ. eigenvalues --   -0.34190  -0.30455
 Alpha virt. eigenvalues --    0.03550   0.05040   0.05831   0.05957   0.06144
 Alpha virt. eigenvalues --    0.06461   0.07155   0.08087   0.10045   0.11061
 Alpha virt. eigenvalues --    0.12181   0.12867   0.13249   0.13673   0.14664

 Mulliken charges:
               1
     1  O   -2.662505
     2  C   -1.300865
     3  C   -0.923936
     4  O   -2.283139
     5  C    2.375778
     6  N   -3.367248
     7  C   -1.801463
     8  H    1.014463
     9  H    1.144034
    10  H    1.639931
    11  H    1.542899
    12  H    1.735610
    13  H    1.441470
    14  H    1.444971
 Sum of Mulliken charges =   0.00000

 Dipole moment (field-independent basis, Debye):
    X=             -0.9219    Y=              1.9432    Z=              0.2756  Tot=              2.1684

 Test job not archived.
 1\1\GINC-SE028\SP\RHF\Aug-CC-pVDZ\C4H7N1O2\OHZDE\09-Apr-2025\0\\#t hf
 aug-cc-pvdz iop(5/13=1,5/36=2,99/5=2) pseudo=read geom=check guess=(re
 ad,tcheck) scf=(maxcycle=1)\\title\\0,1\O,0,-1.29280329,-0.48081668,1.
 46627907\C,0,-1.53645636,-0.41469119,0.08201874\C,0,1.51200427,2.16250
 241,0.99102402\O,0,0.83877023,1.14879895,0.54172701\C,0,1.39759385,0.2
 5722965,-0.44080992\N,0,0.81578818,-0.69614705,-0.95389405\C,0,-0.5305
 8368,-1.1914024,-0.7582557\H,0,-0.66304183,0.20711655,1.69203989\H,0,-
 2.50980933,-0.88397514,-0.08343736\H,0,2.50459739,2.14924523,0.4617541

 Normal termination of Gaussian 16 at Wed Apr  9 19:34:14 2025.
