 Gaussian 16, Revision C.01,

 ----------------------------------------------------------------------
 #t hf aug-cc-pvdz symm=none int=(grid=ultrafine) guess=(read,tcheck) s
 table=(opt,rrhf)
 ----------------------------------------------------------------------
 -----
 title
 -----
 Symbolic Z-matrix:
 Charge =  0 Multiplicity = 1

 SCF Done:  E(RHF) =  -320.630248244     A.U. after   13 cycles
 Normal termination of Gaussian 16 at Wed Apr  9 17:28:10 2025.
 Gaussian 16:  ES64L-G16RevC.01  3-Jul-2019

 ----------------------------------------------------------------------
 #t hf aug-cc-pvdz iop(5/13=1,5/36=2,99/5=2) pseudo=read geom=check gue
 ss=(read,tcheck) scf=(maxcycle=1)
 ----------------------------------------------------------------------
 -----
 title
 -----
 Structure from the checkpoint file:  "Grambow2020_b97d3_007149_reverse_mol2.chk"
 Charge =  0 Multiplicity = 1

                         Standard orientation:
 ---------------------------------------------------------------------
 Center     Atomic      Atomic             Coordinates (Angstroms)
 Number     Number       Type             X           Y           Z
 ---------------------------------------------------------------------
      1          8           0        1.781813   -0.390995    0.208901
      2          6           0        0.482639   -0.059322   -0.022433
      3          7           0        0.152178    1.197508   -0.659753
      4          6           0       -0.574518    0.758755    0.614352
      5          6           0       -1.532768   -0.321560    0.139563
      6          8           0       -0.417160   -1.083362   -0.459787
      7          1           0        0.863907    1.875572   -0.355624
      8          1           0        1.776898   -1.192868    0.768513
      9          1           0       -0.610135    1.385205    1.501250
     10          1           0       -2.260775   -0.027246   -0.626227
     11          1           0       -2.004475   -0.895594    0.948554
 ---------------------------------------------------------------------

 SCF Done:  E(RHF) =  -322.031822080     A.U. after    2 cycles

 The electronic state is 1-A.
 Alpha  occ. eigenvalues --  -21.11412 -21.05382 -15.74483 -11.54500 -11.47539
 Alpha  occ. eigenvalues --  -11.41835  -1.83926  -1.70915  -1.39552  -1.05040
 Alpha  occ. eigenvalues --   -0.91421  -0.80113  -0.73482  -0.65707  -0.61425
 Alpha  occ. eigenvalues --   -0.57416  -0.55253  -0.47726  -0.43066  -0.40684
 Alpha  occ. eigenvalues --   -0.38683  -0.32839  -0.27982
 Alpha virt. eigenvalues --    0.03569   0.04949   0.05171   0.06043   0.06431
 Alpha virt. eigenvalues --    0.09837   0.10822   0.11876   0.12055   0.13289
 Alpha virt. eigenvalues --    0.13783   0.14941   0.15173   0.17396   0.18284

 Mulliken charges:
               1
     1  O   -3.426897
     2  C    7.287708
     3  N   -2.442085
     4  C   -2.075193
     5  C   -1.582811
     6  O   -2.947306
     7  H    0.692398
     8  H    0.583146
     9  H    1.055824
    10  H    1.350342
    11  H    1.504875
 Sum of Mulliken charges =  -0.00000

 Dipole moment (field-independent basis, Debye):
    X=              0.2006    Y=              0.1390    Z=              1.9522  Tot=              1.9674

 Test job not archived.
 1\1\GINC-SE113\SP\RHF\Aug-CC-pVDZ\C3H5N1O2\OHZDE\09-Apr-2025\0\\#t hf
 aug-cc-pvdz iop(5/13=1,5/36=2,99/5=2) pseudo=read geom=check guess=(re
 ad,tcheck) scf=(maxcycle=1)\\title\\0,1\O,0,1.46926459,-1.20618921,-0.
 80716492\C,0,0.67513983,-0.29265411,-0.18571868\N,0,0.64870189,-0.2108
 6063,1.25913863\C,0,-0.65660104,-0.25042309,0.46004264\C,0,-0.76952676
 ,1.14503411,-0.13215422\O,0,0.56505054,1.01677312,-0.75392373\H,0,0.79
 093817,-1.16810435,1.60882086\H,0,1.230923,-1.1941481,-1.75544675\H,0,
 -1.42527787,-0.99430894,0.64995518\H,0,-0.79001164,1.97847091,0.580595

 Normal termination of Gaussian 16 at Wed Apr  9 17:28:14 2025.
