 Gaussian 16, Revision C.01,

 ----------------------------------------------------------------------
 #t hf aug-cc-pvdz symm=none int=(grid=ultrafine) guess=(read,tcheck) s
 table=(opt,rrhf)
 ----------------------------------------------------------------------
 -----
 title
 -----
 Symbolic Z-matrix:
 Charge =  0 Multiplicity = 1

 SCF Done:  E(RHF) =  -322.555893393     A.U. after   16 cycles
 Normal termination of Gaussian 16 at Wed Apr  9 18:03:07 2025.
 Gaussian 16:  ES64L-G16RevC.01  3-Jul-2019

 ----------------------------------------------------------------------
 #t hf aug-cc-pvdz iop(5/13=1,5/36=2,99/5=2) pseudo=read geom=check gue
 ss=(read,tcheck) scf=(maxcycle=1)
 ----------------------------------------------------------------------
 -----
 title
 -----
 Structure from the checkpoint file:  "Grambow2020_wb97xd3_006558_reverse_mol2.chk"
 Charge =  0 Multiplicity = 1

                         Standard orientation:
 ---------------------------------------------------------------------
 Center     Atomic      Atomic             Coordinates (Angstroms)
 Number     Number       Type             X           Y           Z
 ---------------------------------------------------------------------
      1          8           0       -1.719294   -0.648955   -0.571689
      2          6           0       -1.093673    0.174340    0.373720
      3          6           0        0.290940   -0.293333    0.960468
      4          6           0        0.847550   -1.377252    0.095505
      5          6           0        1.503753   -0.246554   -0.627850
      6          7           0        0.981184    0.844616    0.235288
      7          6           0       -0.331124    1.333468   -0.268144
      8          1           0       -1.961893   -1.483019   -0.163156
      9          1           0       -1.783599    0.463758    1.171476
     10          1           0        0.342206   -0.373455    2.047226
     11          1           0       -0.416153    1.377622   -1.355333
     12          1           0        2.575951   -0.396355   -0.414735
     13          1           0        1.399369   -0.162313   -1.712842
     14          1           0       -0.574497    2.309075    0.151669
 ---------------------------------------------------------------------

 SCF Done:  E(RHF) =  -324.022992680     A.U. after    2 cycles

 The electronic state is 1-A.
 Alpha  occ. eigenvalues --  -21.08877 -15.70806 -11.53189 -11.43545 -11.42795
 Alpha  occ. eigenvalues --  -11.40158 -11.38149  -1.74625  -1.51334  -1.14289
 Alpha  occ. eigenvalues --   -1.04377  -0.94420  -0.84759  -0.74517  -0.69226
 Alpha  occ. eigenvalues --   -0.66046  -0.62688  -0.57206  -0.56083  -0.52075
 Alpha  occ. eigenvalues --   -0.46015  -0.41889  -0.41069  -0.40539  -0.31411
 Alpha  occ. eigenvalues --   -0.28514
 Alpha virt. eigenvalues --    0.03706   0.04976   0.05353   0.05712   0.05974
 Alpha virt. eigenvalues --    0.06617   0.07182   0.07801   0.09477   0.10619
 Alpha virt. eigenvalues --    0.11891   0.12482   0.13003   0.13799   0.14300

 Mulliken charges:
               1
     1  O   -3.200917
     2  C    1.582730
     3  C   -0.429814
     4  C   -1.213125
     5  C   -1.776625
     6  N   -1.752421
     7  C   -2.524332
     8  H    0.697035
     9  H    1.450283
    10  H    1.565867
    11  H    1.436935
    12  H    1.387830
    13  H    1.459739
    14  H    1.316815
 Sum of Mulliken charges =  -0.00000

 Dipole moment (field-independent basis, Debye):
    X=             -1.0833    Y=              1.4595    Z=              0.0606  Tot=              1.8186

 Test job not archived.
 1\1\GINC-SE041\SP\RHF\Aug-CC-pVDZ\C5H7N1O1\OHZDE\09-Apr-2025\0\\#t hf
 aug-cc-pvdz iop(5/13=1,5/36=2,99/5=2) pseudo=read geom=check guess=(re
 ad,tcheck) scf=(maxcycle=1)\\title\\0,1\O,0,1.7295945,-0.31713501,0.86
 913173\C,0,1.10451935,0.31825736,-0.21187383\C,0,-0.0248071,-0.4670357
 8,-0.97873721\C,0,-0.46481742,-1.62753409,-0.14657636\C,0,-1.46575103,
 -0.65859141,0.39343042\N,0,-1.06035653,0.50125138,-0.44272575\C,0,0.00
 872528,1.28861998,0.2293525\H,0,2.21503792,-1.08381106,0.5561322\H,0,1
 .83679846,0.73745803,-0.90772767\H,0,0.12505963,-0.58360521,-2.0530006

 Normal termination of Gaussian 16 at Wed Apr  9 18:03:12 2025.
