 Gaussian 16, Revision C.01,

 ----------------------------------------------------------------------
 #t hf aug-cc-pvdz symm=none int=(grid=ultrafine) guess=(read,tcheck) s
 table=(opt,rrhf)
 ----------------------------------------------------------------------
 -----
 title
 -----
 Symbolic Z-matrix:
 Charge =  0 Multiplicity = 1

 SCF Done:  E(RHF) =  -333.622851953     A.U. after   15 cycles
 Normal termination of Gaussian 16 at Wed Apr  9 18:25:04 2025.
 Gaussian 16:  ES64L-G16RevC.01  3-Jul-2019

 ----------------------------------------------------------------------
 #t hf aug-cc-pvdz iop(5/13=1,5/36=2,99/5=2) pseudo=read geom=check gue
 ss=(read,tcheck) scf=(maxcycle=1)
 ----------------------------------------------------------------------
 -----
 title
 -----
 Structure from the checkpoint file:  "Grambow2020_wb97xd3_006985_reverse_mol2.chk"
 Charge =  0 Multiplicity = 1

                         Standard orientation:
 ---------------------------------------------------------------------
 Center     Atomic      Atomic             Coordinates (Angstroms)
 Number     Number       Type             X           Y           Z
 ---------------------------------------------------------------------
      1          7           0       -2.089345   -0.003352   -0.439383
      2          6           0       -0.751696    0.027046   -0.120697
      3          6           0        0.319822    1.043770    0.034542
      4          7           0        1.583580    0.570532   -0.454670
      5          6           0        1.441666   -0.675844   -0.283674
      6          7           0        0.188344   -1.050383    0.293866
      7          7           0       -0.172278    0.164839    1.145767
      8          1           0       -2.277351   -0.260685   -1.395126
      9          1           0       -2.639544   -0.541251    0.214353
     10          1           0        0.127056    2.103107    0.125394
     11          1           0        2.158981   -1.442445   -0.544709
 ---------------------------------------------------------------------

 SCF Done:  E(RHF) =  -335.112537472     A.U. after    2 cycles

 The electronic state is 1-A.
 Alpha  occ. eigenvalues --  -15.78173 -15.78039 -15.76975 -15.74427 -11.55522
 Alpha  occ. eigenvalues --  -11.47241 -11.44091  -1.72853  -1.38513  -1.31984
 Alpha  occ. eigenvalues --   -1.19415  -0.91375  -0.85935  -0.85043  -0.74252
 Alpha  occ. eigenvalues --   -0.68329  -0.64139  -0.55962  -0.52840  -0.51330
 Alpha  occ. eigenvalues --   -0.46366  -0.42660  -0.39064  -0.37717  -0.32734
 Alpha virt. eigenvalues --    0.03432   0.05108   0.05724   0.06054   0.09704
 Alpha virt. eigenvalues --    0.10383   0.10840   0.11194   0.12092   0.12700
 Alpha virt. eigenvalues --    0.13036   0.14309   0.15245   0.16175   0.16554

 Mulliken charges:
               1
     1  N   -3.447720
     2  C    4.836783
     3  C   -0.688340
     4  N   -2.747976
     5  C    1.401233
     6  N   -2.056368
     7  N   -1.274001
     8  H    0.530106
     9  H    0.476674
    10  H    1.453994
    11  H    1.515615
 Sum of Mulliken charges =   0.00000

 Dipole moment (field-independent basis, Debye):
    X=             -1.7719    Y=             -0.6944    Z=             -1.1397  Tot=              2.2183

 Test job not archived.
 1\1\GINC-SE115\SP\RHF\Aug-CC-pVDZ\C3H4N4\OHZDE\09-Apr-2025\0\\#t hf au
 g-cc-pvdz iop(5/13=1,5/36=2,99/5=2) pseudo=read geom=check guess=(read
 ,tcheck) scf=(maxcycle=1)\\title\\0,1\N,0,1.79015606,-0.59410755,-0.31
 061106\C,0,0.49503204,-0.15623694,-0.15990424\C,0,-0.20713582,1.110265
 05,0.17010725\N,0,-1.36117565,0.88523204,0.99346651\C,0,-1.66638959,-0
 .29179579,0.64092815\N,0,-0.80906672,-0.84580842,-0.36042817\N,0,-0.34
 833436,0.38658674,-1.1359769\H,0,2.15299879,-1.08463546,0.49109948\H,0
 ,1.9372276,-1.10628331,-1.16820678\H,0,0.26949946,2.07968091,0.1443984

 Normal termination of Gaussian 16 at Wed Apr  9 18:25:08 2025.
