 Gaussian 16, Revision C.01,

 ----------------------------------------------------------------------
 #t hf aug-cc-pvdz symm=none int=(grid=ultrafine) guess=(read,tcheck) s
 table=(opt,rrhf)
 ----------------------------------------------------------------------
 -----
 title
 -----
 Symbolic Z-matrix:
 Charge =  0 Multiplicity = 1

 SCF Done:  E(RHF) =  -322.688699341     A.U. after   15 cycles
 Normal termination of Gaussian 16 at Wed Apr  9 19:10:57 2025.
 Gaussian 16:  ES64L-G16RevC.01  3-Jul-2019

 ----------------------------------------------------------------------
 #t hf aug-cc-pvdz iop(5/13=1,5/36=2,99/5=2) pseudo=read geom=check gue
 ss=(read,tcheck) scf=(maxcycle=1)
 ----------------------------------------------------------------------
 -----
 title
 -----
 Structure from the checkpoint file:  "Grambow2020_wb97xd3_008261_reverse_mol2.chk"
 Charge =  0 Multiplicity = 1

                         Standard orientation:
 ---------------------------------------------------------------------
 Center     Atomic      Atomic             Coordinates (Angstroms)
 Number     Number       Type             X           Y           Z
 ---------------------------------------------------------------------
      1          6           0        0.485016    1.621417   -0.277170
      2          6           0        0.107020    0.222733    0.140226
      3          7           0        2.365913   -0.703486   -0.237057
      4          6           0        1.167124   -0.821383    0.138762
      5          6           0       -0.981254    0.044757    1.267037
      6          6           0       -1.274506   -0.242637   -0.128495
      7          8           0       -2.063711   -0.571950   -0.953464
      8          1           0        0.863921    1.632033   -1.300868
      9          1           0        1.251870    2.030365    0.385107
     10          1           0       -0.379134    2.285730   -0.243870
     11          1           0        2.566354    0.239319   -0.570018
     12          1           0        0.853902   -1.801650    0.510393
     13          1           0       -1.386490    0.947556    1.709592
     14          1           0       -0.842520   -0.782676    1.954618
 ---------------------------------------------------------------------

 SCF Done:  E(RHF) =  -324.162489176     A.U. after    2 cycles

 The electronic state is 1-A.
 Alpha  occ. eigenvalues --  -21.09101 -15.74885 -11.52593 -11.48203 -11.45239
 Alpha  occ. eigenvalues --  -11.42747 -11.40383  -1.73389  -1.39765  -1.28549
 Alpha  occ. eigenvalues --   -1.07873  -0.94332  -0.84569  -0.75531  -0.68502
 Alpha  occ. eigenvalues --   -0.62721  -0.61868  -0.58608  -0.56833  -0.54603
 Alpha  occ. eigenvalues --   -0.52643  -0.47445  -0.45392  -0.40030  -0.37907
 Alpha  occ. eigenvalues --   -0.27363
 Alpha virt. eigenvalues --    0.02981   0.04773   0.05069   0.05316   0.06267
 Alpha virt. eigenvalues --    0.06663   0.08012   0.08865   0.09649   0.11233
 Alpha virt. eigenvalues --    0.12085   0.13002   0.13596   0.13910   0.14125

 Mulliken charges:
               1
     1  C   -4.564691
     2  C    0.402624
     3  N   -3.379561
     4  C    0.183817
     5  C   -2.640331
     6  C    4.679077
     7  O   -3.157919
     8  H    1.089355
     9  H    1.142177
    10  H    1.195862
    11  H    0.684423
    12  H    1.484283
    13  H    1.454621
    14  H    1.426263
 Sum of Mulliken charges =  -0.00000

 Dipole moment (field-independent basis, Debye):
    X=             -0.9068    Y=              1.8372    Z=              1.1362  Tot=              2.3428

 Test job not archived.
 1\1\GINC-SE104\SP\RHF\Aug-CC-pVDZ\C5H7N1O1\OHZDE\09-Apr-2025\0\\#t hf
 aug-cc-pvdz iop(5/13=1,5/36=2,99/5=2) pseudo=read geom=check guess=(re
 ad,tcheck) scf=(maxcycle=1)\\title\\0,1\C,0,-1.15978355,-0.75434486,-0
 .36933236\C,0,0.03592109,0.10482596,-0.04447413\N,0,-0.24263947,-0.101
 59008,2.40146417\C,0,0.38529567,0.30990957,1.38726491\C,0,1.27522647,0
 .06421601,-1.01822634\C,0,0.38047741,1.21017154,-0.97015639\O,0,0.0744
 1749,2.27807431,-1.39179036\H,0,-2.06877874,-0.33532984,0.06631907\H,0
 ,-1.02360973,-1.76931867,0.01171819\H,0,-1.31482491,-0.81621315,-1.446

 Normal termination of Gaussian 16 at Wed Apr  9 19:11:01 2025.
