 Gaussian 16, Revision C.01,

 ----------------------------------------------------------------------
 #t hf aug-cc-pvdz symm=none int=(grid=ultrafine) guess=(read,tcheck) s
 table=(opt,rrhf)
 ----------------------------------------------------------------------
 -----
 title
 -----
 Symbolic Z-matrix:
 Charge =  0 Multiplicity = 1

 SCF Done:  E(RHF) =  -206.799112624     A.U. after   14 cycles
 Normal termination of Gaussian 16 at Wed Apr  9 03:09:36 2025.
 Gaussian 16:  ES64L-G16RevC.01  3-Jul-2019

 ----------------------------------------------------------------------
 #t hf aug-cc-pvdz iop(5/13=1,5/36=2,99/5=2) pseudo=read geom=check gue
 ss=(read,tcheck) scf=(maxcycle=1)
 ----------------------------------------------------------------------
 -----
 title
 -----
 Structure from the checkpoint file:  "Grambow2020_b97d3_006673_forward_mol2.chk"
 Charge =  0 Multiplicity = 1

                         Standard orientation:
 ---------------------------------------------------------------------
 Center     Atomic      Atomic             Coordinates (Angstroms)
 Number     Number       Type             X           Y           Z
 ---------------------------------------------------------------------
      1          8           0        1.516592   -0.457790   -0.108036
      2          6           0        0.576517    0.592782    0.038830
      3          6           0       -0.826195    0.124521   -0.007316
      4          7           0       -1.922317   -0.284514   -0.015734
      5          1           0        1.362402   -1.097423    0.612665
      6          1           0        0.747747    1.279389   -0.800022
      7          1           0        0.711407    1.168139    0.972702
 ---------------------------------------------------------------------

 SCF Done:  E(RHF) =  -207.698036411     A.U. after    2 cycles

 The electronic state is 1-A.
 Alpha  occ. eigenvalues --  -21.11209 -15.77915 -11.49625 -11.43754  -1.74902
 Alpha  occ. eigenvalues --   -1.31001  -1.06809  -0.74227  -0.68988  -0.60821
 Alpha  occ. eigenvalues --   -0.54467  -0.48526  -0.44667  -0.42727  -0.36347
 Alpha virt. eigenvalues --    0.02711   0.05561   0.05664   0.08678   0.10707
 Alpha virt. eigenvalues --    0.11137   0.11968   0.12754   0.13515   0.16389
 Alpha virt. eigenvalues --    0.17441   0.18023   0.20224   0.21376   0.22832

 Mulliken charges:
               1
     1  O   -2.216541
     2  C   -0.988104
     3  C    1.990326
     4  N   -2.244144
     5  H    0.775896
     6  H    1.369720
     7  H    1.312847
 Sum of Mulliken charges =  -0.00000

 Dipole moment (field-independent basis, Debye):
    X=              2.7909    Y=              0.9912    Z=              0.5919  Tot=              3.0203

 Test job not archived.
 1\1\GINC-SE164\SP\RHF\Aug-CC-pVDZ\C2H3N1O1\OHZDE\09-Apr-2025\0\\#t hf
 aug-cc-pvdz iop(5/13=1,5/36=2,99/5=2) pseudo=read geom=check guess=(re
 ad,tcheck) scf=(maxcycle=1)\\title\\0,1\O,0,-1.21323217,0.51760048,-0.
 42301722\C,0,-0.23619525,-0.42616548,-0.01839772\C,0,1.13509214,0.1292
 2502,-0.00778237\N,0,2.20133734,0.61003364,0.02061455\H,0,-1.17160614,
 1.27184762,0.19479683\H,0,-0.27971876,-1.24645156,-0.74617471\H,0,-0.4
 3567716,-0.85608971,0.97996064\\Version=ES64L-G16RevC.01\State=1-A\HF=
 -207.6980364\RMSD=1.746e-01\Dipole=-1.0927478,-0.426943,0.1887413\Quad

 Normal termination of Gaussian 16 at Wed Apr  9 03:09:37 2025.
