 Gaussian 16, Revision C.01,

 ----------------------------------------------------------------------
 #t hf aug-cc-pvdz symm=none int=(grid=ultrafine) guess=(read,tcheck) s
 table=(opt,rrhf)
 ----------------------------------------------------------------------
 -----
 title
 -----
 Symbolic Z-matrix:
 Charge =  0 Multiplicity = 1

 SCF Done:  E(RHF) =  -224.682808620     A.U. after   15 cycles
 Normal termination of Gaussian 16 at Wed Apr  9 16:57:52 2025.
 Gaussian 16:  ES64L-G16RevC.01  3-Jul-2019

 ----------------------------------------------------------------------
 #t hf aug-cc-pvdz iop(5/13=1,5/36=2,99/5=2) pseudo=read geom=check gue
 ss=(read,tcheck) scf=(maxcycle=1)
 ----------------------------------------------------------------------
 -----
 title
 -----
 Structure from the checkpoint file:  "Grambow2020_b97d3_006886_reverse_mol2.chk"
 Charge =  0 Multiplicity = 1

                         Standard orientation:
 ---------------------------------------------------------------------
 Center     Atomic      Atomic             Coordinates (Angstroms)
 Number     Number       Type             X           Y           Z
 ---------------------------------------------------------------------
      1          7           0       -1.300577   -0.058662    0.471330
      2          6           0       -0.379230    0.743685   -0.316418
      3          6           0        1.062337    0.663712    0.157952
      4          6           0        1.002298   -0.676637    0.042625
      5          7           0       -0.383285   -0.721506   -0.533529
      6          1           0       -0.904067   -0.190792    1.415242
      7          1           0       -0.801175    1.429772   -1.050498
      8          1           0        1.794080    1.399017    0.480478
      9          1           0        1.585763   -1.561389    0.285217
 ---------------------------------------------------------------------

 SCF Done:  E(RHF) =  -225.709479519     A.U. after    2 cycles

 The electronic state is 1-A.
 Alpha  occ. eigenvalues --  -15.77273 -15.75341 -11.49253 -11.46122 -11.40441
 Alpha  occ. eigenvalues --   -1.61000  -1.18695  -1.00870  -0.93340  -0.76755
 Alpha  occ. eigenvalues --   -0.72394  -0.63948  -0.57653  -0.47484  -0.45853
 Alpha  occ. eigenvalues --   -0.44035  -0.36925  -0.31579
 Alpha virt. eigenvalues --    0.03574   0.05008   0.05677   0.06320   0.08955
 Alpha virt. eigenvalues --    0.10113   0.10561   0.11491   0.12800   0.13930
 Alpha virt. eigenvalues --    0.14287   0.15812   0.16250   0.17028   0.17127

 Mulliken charges:
               1
     1  N   -1.774519
     2  C    0.618230
     3  C   -1.344678
     4  C    0.223844
     5  N   -1.731619
     6  H    0.692725
     7  H    1.371485
     8  H    0.893416
     9  H    1.051116
 Sum of Mulliken charges =  -0.00000

 Dipole moment (field-independent basis, Debye):
    X=              1.6982    Y=              0.9273    Z=              1.0885  Tot=              2.2200

 Test job not archived.
 1\1\GINC-SE112\SP\RHF\Aug-CC-pVDZ\C3H4N2\OHZDE\09-Apr-2025\0\\#t hf au
 g-cc-pvdz iop(5/13=1,5/36=2,99/5=2) pseudo=read geom=check guess=(read
 ,tcheck) scf=(maxcycle=1)\\title\\0,1\N,0,-1.41484782,-0.5995295,0.122
 80002\C,0,-0.68579955,0.61147096,-0.21654538\C,0,0.7279581,0.65138843,
 0.33954073\C,0,0.97522279,-0.52581623,-0.26584356\N,0,-0.35396536,-0.6
 2818229,-0.95619673\H,0,-1.01510587,-0.99784054,0.98720812\H,0,-1.2394
 7457,1.42431246,-0.68596893\H,0,1.26834462,1.34034376,0.98255509\H,0,1
 .73971467,-1.29776306,-0.30730235\\Version=ES64L-G16RevC.01\State=1-A\

 Normal termination of Gaussian 16 at Wed Apr  9 16:57:54 2025.
