 Gaussian 16, Revision C.01,

 ----------------------------------------------------------------------
 #t hf aug-cc-pvdz symm=none int=(grid=ultrafine) guess=(read,tcheck) s
 table=(opt,rrhf)
 ----------------------------------------------------------------------
 -----
 title
 -----
 Symbolic Z-matrix:
 Charge =  0 Multiplicity = 1

 SCF Done:  E(RHF) =  -343.474025111     A.U. after   16 cycles
 Normal termination of Gaussian 16 at Wed Apr  9 18:49:47 2025.
 Gaussian 16:  ES64L-G16RevC.01  3-Jul-2019

 ----------------------------------------------------------------------
 #t hf aug-cc-pvdz iop(5/13=1,5/36=2,99/5=2) pseudo=read geom=check gue
 ss=(read,tcheck) scf=(maxcycle=1)
 ----------------------------------------------------------------------
 -----
 title
 -----
 Structure from the checkpoint file:  "Grambow2020_wb97xd3_007687_reverse_mol1.chk"
 Charge =  0 Multiplicity = 1

                         Standard orientation:
 ---------------------------------------------------------------------
 Center     Atomic      Atomic             Coordinates (Angstroms)
 Number     Number       Type             X           Y           Z
 ---------------------------------------------------------------------
      1          6           0        0.339022    1.855225   -0.258493
      2          6           0        0.019841    0.763759    0.694782
      3          6           0       -1.352162    0.394540    0.166315
      4          8           0       -1.151370   -0.619811   -0.849997
      5          6           0       -0.528780   -1.289524    0.142192
      6          6           0        0.740739   -0.669673    0.549463
      7          8           0        1.772959   -0.682295   -0.392467
      8          1           0        0.384174    1.554021   -1.304803
      9          1           0        1.044068    2.646480   -0.007033
     10          1           0       -1.267406    1.574913   -0.379804
     11          1           0       -0.003047    1.069884    1.737337
     12          1           0       -2.202686    0.211844    0.826014
     13          1           0       -1.085509   -2.047087    0.687063
     14          1           0        1.111103   -1.070967    1.492862
     15          1           0        1.734629    0.151798   -0.877484
 ---------------------------------------------------------------------

 SCF Done:  E(RHF) =  -345.070619559     A.U. after    2 cycles

 The electronic state is 1-A.
 Alpha  occ. eigenvalues --  -21.11452 -21.07517 -11.58735 -11.48274 -11.45271
 Alpha  occ. eigenvalues --  -11.41082 -11.36607  -1.85433  -1.71991  -1.24886
 Alpha  occ. eigenvalues --   -1.08420  -0.94283  -0.86623  -0.80825  -0.75635
 Alpha  occ. eigenvalues --   -0.68787  -0.63729  -0.58228  -0.56617  -0.54379
 Alpha  occ. eigenvalues --   -0.50012  -0.45467  -0.44328  -0.38047  -0.36833
 Alpha  occ. eigenvalues --   -0.32347  -0.24167
 Alpha virt. eigenvalues --    0.03584   0.03964   0.04595   0.05315   0.05595
 Alpha virt. eigenvalues --    0.06259   0.07230   0.07555   0.08586   0.10029
 Alpha virt. eigenvalues --    0.12129   0.12915   0.13256   0.13369   0.13834

 Mulliken charges:
               1
     1  C   -2.746402
     2  C   -2.114414
     3  C   -1.097051
     4  O   -3.092914
     5  C    0.236013
     6  C    1.414560
     7  O   -3.149200
     8  H    1.089333
     9  H    1.227736
    10  H    1.397889
    11  H    1.467395
    12  H    1.509549
    13  H    1.490225
    14  H    1.633814
    15  H    0.733466
 Sum of Mulliken charges =   0.00000

 Dipole moment (field-independent basis, Debye):
    X=             -0.5917    Y=             -1.2836    Z=              1.1341  Tot=              1.8121

 Test job not archived.
 1\1\GINC-SE029\SP\RHF\Aug-CC-pVDZ\C5H8O2\OHZDE\09-Apr-2025\0\\#t hf au
 g-cc-pvdz iop(5/13=1,5/36=2,99/5=2) pseudo=read geom=check guess=(read
 ,tcheck) scf=(maxcycle=1)\\title\\0,1\C,0,1.63385938,-0.38411353,0.048
 39429\C,0,0.41329194,0.30898866,0.52977999\C,0,0.12570618,1.14446797,-
 0.70199219\O,0,-0.7271198,0.34616027,-1.56077606\C,0,-1.53593095,0.304
 83202,-0.48156808\C,0,-0.9825899,-0.48976892,0.62486114\O,0,-0.8553511
 8,-1.86392669,0.40493261\H,0,1.49071102,-1.01037493,-0.83185168\H,0,2.
 37952483,-0.77559356,0.73914204\H,0,1.37389585,0.87457765,-0.96255375\

 Normal termination of Gaussian 16 at Wed Apr  9 18:49:52 2025.
