 Gaussian 16, Revision C.01,

 ----------------------------------------------------------------------
 #t hf aug-cc-pvdz symm=none int=(grid=ultrafine) guess=(read,tcheck) s
 table=(opt,rrhf)
 ----------------------------------------------------------------------
 -----
 title
 -----
 Symbolic Z-matrix:
 Charge =  0 Multiplicity = 1

 SCF Done:  E(RHF) =  -353.401133191     A.U. after   15 cycles
 Normal termination of Gaussian 16 at Wed Apr  9 18:57:27 2025.
 Gaussian 16:  ES64L-G16RevC.01  3-Jul-2019

 ----------------------------------------------------------------------
 #t hf aug-cc-pvdz iop(5/13=1,5/36=2,99/5=2) pseudo=read geom=check gue
 ss=(read,tcheck) scf=(maxcycle=1)
 ----------------------------------------------------------------------
 -----
 title
 -----
 Structure from the checkpoint file:  "Grambow2020_wb97xd3_007941_reverse_mol2.chk"
 Charge =  0 Multiplicity = 1

                         Standard orientation:
 ---------------------------------------------------------------------
 Center     Atomic      Atomic             Coordinates (Angstroms)
 Number     Number       Type             X           Y           Z
 ---------------------------------------------------------------------
      1          8           0       -2.146016   -0.070358   -0.000512
      2          6           0        1.930978   -0.003339    0.000708
      3          6           0        1.068260    1.157706   -0.000401
      4          7           0       -0.244666    1.157888   -0.000780
      5          7           0       -0.781794   -0.029336   -0.000114
      6          6           0       -0.094958   -1.164276   -0.000163
      7          7           0        1.216161   -1.174706    0.000026
      8          1           0       -2.395483    0.865929    0.007546
      9          1           0        1.495721    2.154010    0.001186
     10          1           0       -0.685702   -2.074542    0.000577
 ---------------------------------------------------------------------

 SCF Done:  E(RHF) =  -354.932270765     A.U. after    2 cycles

 The electronic state is 1-A.
 Alpha  occ. eigenvalues --  -21.17478 -15.90629 -15.83303 -15.75362 -11.52242
 Alpha  occ. eigenvalues --  -11.44696 -11.37722  -1.92513  -1.58388  -1.37925
 Alpha  occ. eigenvalues --   -1.23836  -0.99832  -0.94050  -0.77236  -0.72078
 Alpha  occ. eigenvalues --   -0.71042  -0.68874  -0.62488  -0.53871  -0.49269
 Alpha  occ. eigenvalues --   -0.48982  -0.45129  -0.40492  -0.33719  -0.28742
 Alpha virt. eigenvalues --    0.03213   0.04873   0.05582   0.07664   0.08482
 Alpha virt. eigenvalues --    0.09535   0.10579   0.10622   0.11360   0.13293
 Alpha virt. eigenvalues --    0.14054   0.14073   0.15139   0.16653   0.16908

 Mulliken charges:
               1
     1  O   -2.945777
     2  C   -0.464915
     3  C    0.983554
     4  N   -1.745542
     5  N    0.884841
     6  C    1.460841
     7  N   -2.583336
     8  H    0.850959
     9  H    1.786027
    10  H    1.773348
 Sum of Mulliken charges =  -0.00000

 Dipole moment (field-independent basis, Debye):
    X=             -6.6558    Y=              0.7445    Z=              0.0048  Tot=              6.6973

 Test job not archived.
 1\1\GINC-SE162\SP\RHF\Aug-CC-pVDZ\C3H3N3O1\OHZDE\09-Apr-2025\0\\#t hf
 aug-cc-pvdz iop(5/13=1,5/36=2,99/5=2) pseudo=read geom=check guess=(re
 ad,tcheck) scf=(maxcycle=1)\\title\\0,1\O,0,0.13292714,-1.09557165,1.7
 5296534\C,0,-0.26978061,0.8759224,-1.79349952\C,0,0.32641639,1.4157878
 2,-0.59125066\N,0,0.46559132,0.79861542,0.55918614\N,0,0.00626334,-0.4
 2073825,0.57341463\C,0,-0.5609231,-1.02167129,-0.46437734\N,0,-0.70453
 842,-0.4136271,-1.61711266\H,0,0.57432276,-0.45340311,2.32891819\H,0,0
 .71627059,2.42737039,-0.58341121\H,0,-0.89389241,-2.04079264,-0.296783

 Normal termination of Gaussian 16 at Wed Apr  9 18:57:31 2025.
