 Gaussian 16, Revision C.01,

 ----------------------------------------------------------------------
 #t hf aug-cc-pvdz symm=none int=(grid=ultrafine) guess=(read,tcheck) s
 table=(opt,rrhf)
 ----------------------------------------------------------------------
 -----
 title
 -----
 Symbolic Z-matrix:
 Charge =  0 Multiplicity = 1

 SCF Done:  E(RHF) =  -306.635653071     A.U. after   13 cycles
 Normal termination of Gaussian 16 at Wed Apr  9 19:08:56 2025.
 Gaussian 16:  ES64L-G16RevC.01  3-Jul-2019

 ----------------------------------------------------------------------
 #t hf aug-cc-pvdz iop(5/13=1,5/36=2,99/5=2) pseudo=read geom=check gue
 ss=(read,tcheck) scf=(maxcycle=1)
 ----------------------------------------------------------------------
 -----
 title
 -----
 Structure from the checkpoint file:  "Grambow2020_wb97xd3_008165_reverse_mol2.chk"
 Charge =  0 Multiplicity = 1

                         Standard orientation:
 ---------------------------------------------------------------------
 Center     Atomic      Atomic             Coordinates (Angstroms)
 Number     Number       Type             X           Y           Z
 ---------------------------------------------------------------------
      1          8           0        2.049943   -0.768579   -0.073143
      2          6           0        0.806116   -0.089316   -0.003735
      3          6           0       -0.328168   -1.097812   -0.023419
      4          6           0       -1.766999   -0.667872    0.000477
      5          6           0       -2.314187    0.539399    0.004912
      6          6           0        0.784315    1.234549    0.658067
      7          6           0        0.794942    1.236822   -0.636625
      8          1           0        2.078360   -1.432528    0.619700
      9          1           0       -0.187099   -1.777663    0.828656
     10          1           0       -0.182538   -1.729082   -0.907550
     11          1           0       -2.447595   -1.517289    0.012021
     12          1           0       -1.740285    1.454235   -0.006967
     13          1           0       -3.392942    0.639539    0.020666
     14          1           0        0.794413    1.788346    1.581356
     15          1           0        0.822018    1.788447   -1.560797
 ---------------------------------------------------------------------

 SCF Done:  E(RHF) =  -308.081036635     A.U. after    2 cycles

 The electronic state is 1-A.
 Alpha  occ. eigenvalues --  -21.05839 -11.49610 -11.42880 -11.42845 -11.41704
 Alpha  occ. eigenvalues --  -11.39454 -11.37132  -1.71454  -1.29119  -1.18239
 Alpha  occ. eigenvalues --   -1.02296  -0.83074  -0.80775  -0.77098  -0.66005
 Alpha  occ. eigenvalues --   -0.64660  -0.61650  -0.58964  -0.53123  -0.49855
 Alpha  occ. eigenvalues --   -0.48740  -0.44330  -0.38773  -0.34508  -0.32514
 Alpha  occ. eigenvalues --   -0.29922
 Alpha virt. eigenvalues --    0.03508   0.04638   0.05165   0.05460   0.06053
 Alpha virt. eigenvalues --    0.06816   0.07364   0.07807   0.09114   0.10501
 Alpha virt. eigenvalues --    0.12479   0.12950   0.13553   0.13957   0.14643

 Mulliken charges:
               1
     1  O   -3.316218
     2  C    3.883863
     3  C   -3.897981
     4  C   -0.254334
     5  C   -3.283519
     6  C   -1.071122
     7  C   -0.976424
     8  H    0.754034
     9  H    1.140270
    10  H    1.140402
    11  H    1.029659
    12  H    1.756229
    13  H    1.358704
    14  H    0.853014
    15  H    0.883423
 Sum of Mulliken charges =   0.00000

 Dipole moment (field-independent basis, Debye):
    X=             -0.3637    Y=              0.3519    Z=              0.4373  Tot=              0.6688

 Test job not archived.
 1\1\GINC-SE036\SP\RHF\Aug-CC-pVDZ\C6H8O1\OHZDE\09-Apr-2025\0\\#t hf au
 g-cc-pvdz iop(5/13=1,5/36=2,99/5=2) pseudo=read geom=check guess=(read
 ,tcheck) scf=(maxcycle=1)\\title\\0,1\O,0,2.28059933,0.4951756,-0.7399
 673\C,0,0.89889437,0.44875381,-0.42050035\C,0,0.58508551,-0.84912688,0
 .30135923\C,0,-0.81162832,-1.19515388,0.73160449\C,0,-1.95733428,-0.54
 881931,0.56866977\C,0,0.19283568,1.73762827,-0.2434204\C,0,0.02396519,
 1.13846147,-1.37868535\H,0,2.78795144,0.33657408,0.0594748\H,0,1.21324
 77,-0.89197217,1.20230701\H,0,0.95228379,-1.66600522,-0.33052126\H,0,-

 Normal termination of Gaussian 16 at Wed Apr  9 19:09:01 2025.
