 Gaussian 16, Revision C.01,

 ----------------------------------------------------------------------
 #t hf aug-cc-pvdz symm=none int=(grid=ultrafine) guess=(read,tcheck) s
 table=(opt,rrhf)
 ----------------------------------------------------------------------
 -----
 title
 -----
 Symbolic Z-matrix:
 Charge =  0 Multiplicity = 1

 SCF Done:  E(RHF) =  -358.434760782     A.U. after   17 cycles
 Normal termination of Gaussian 16 at Wed Apr  9 18:11:59 2025.
 Gaussian 16:  ES64L-G16RevC.01  3-Jul-2019

 ----------------------------------------------------------------------
 #t hf aug-cc-pvdz iop(5/13=1,5/36=2,99/5=2) pseudo=read geom=check gue
 ss=(read,tcheck) scf=(maxcycle=1)
 ----------------------------------------------------------------------
 -----
 title
 -----
 Structure from the checkpoint file:  "Grambow2020_wb97xd3_006748_reverse_mol1.chk"
 Charge =  0 Multiplicity = 1

                         Standard orientation:
 ---------------------------------------------------------------------
 Center     Atomic      Atomic             Coordinates (Angstroms)
 Number     Number       Type             X           Y           Z
 ---------------------------------------------------------------------
      1          8           0        1.935857   -1.096050   -0.114883
      2          6           0        1.703419    0.056528    0.093442
      3          6           0        0.310084    0.676398   -0.037218
      4          8           0        0.160139    1.868821    0.060487
      5          7           0       -0.675746   -0.221712   -0.368433
      6          6           0       -2.047416    0.073701   -0.038763
      7          6           0       -0.953927   -1.400572    0.394094
      8          1           0        2.470701    0.791825    0.396394
      9          1           0       -2.736141   -0.034353   -0.868484
     10          1           0       -2.139082    0.991255    0.537033
     11          1           0       -2.266744   -0.727702    0.802014
     12          1           0       -1.439440   -2.087548   -0.322083
 ---------------------------------------------------------------------

 SCF Done:  E(RHF) =  -359.989018791     A.U. after    2 cycles

 The electronic state is 1-A.
 Alpha  occ. eigenvalues --  -21.10309 -21.07858 -15.77887 -11.53313 -11.48891
 Alpha  occ. eigenvalues --  -11.47063 -11.43472  -1.76939  -1.72916  -1.50498
 Alpha  occ. eigenvalues --   -1.09393  -0.95912  -0.94518  -0.76881  -0.71033
 Alpha  occ. eigenvalues --   -0.65672  -0.61304  -0.58381  -0.57455  -0.55842
 Alpha  occ. eigenvalues --   -0.49844  -0.45742  -0.41569  -0.37115  -0.33558
 Alpha  occ. eigenvalues --   -0.28356
 Alpha virt. eigenvalues --    0.03197   0.05453   0.05545   0.05805   0.07006
 Alpha virt. eigenvalues --    0.09162   0.09929   0.10272   0.10712   0.11419
 Alpha virt. eigenvalues --    0.11702   0.13373   0.13458   0.14217   0.14489

 Mulliken charges:
               1
     1  O   -2.708887
     2  C    0.611916
     3  C    5.120265
     4  O   -3.368585
     5  N   -2.149501
     6  C   -2.777651
     7  C   -1.321729
     8  H    1.640116
     9  H    1.296113
    10  H    1.222677
    11  H    1.271430
    12  H    1.163835
 Sum of Mulliken charges =  -0.00000

 Dipole moment (field-independent basis, Debye):
    X=             -1.9565    Y=              0.3064    Z=             -0.8896  Tot=              2.1709

 Test job not archived.
 1\1\GINC-SE103\SP\RHF\Aug-CC-pVDZ\C4H5N1O2\OHZDE\09-Apr-2025\0\\#t hf
 aug-cc-pvdz iop(5/13=1,5/36=2,99/5=2) pseudo=read geom=check guess=(re
 ad,tcheck) scf=(maxcycle=1)\\title\\0,1\O,0,1.86850229,1.38486244,1.16
 569335\C,0,2.07479242,0.42590726,0.48472978\C,0,0.97278942,-0.51359558
 ,-0.0108685\O,0,1.25384666,-1.53519684,-0.58640357\N,0,-0.29632718,-0.
 132199,0.35251192\C,0,-1.4243511,-0.58326057,-0.4230748\C,0,-0.8501494
 4,1.15115091,0.04455325\H,0,3.08126761,0.11776139,0.14825192\H,0,-2.21
 767614,-1.0287925,0.16564487\H,0,-1.11587788,-1.14215661,-1.30303331\H

 Normal termination of Gaussian 16 at Wed Apr  9 18:12:03 2025.
