 Gaussian 16, Revision C.01,

 ----------------------------------------------------------------------
 #t hf aug-cc-pvdz symm=none int=(grid=ultrafine) guess=(read,tcheck) s
 table=(opt,rrhf)
 ----------------------------------------------------------------------
 -----
 title
 -----
 Symbolic Z-matrix:
 Charge =  0 Multiplicity = 1

 SCF Done:  E(RHF) =  -307.699698538     A.U. after   16 cycles

 1\1\GINC-SE168\Stability\RHF\Aug-CC-pVDZ\C6H10O1\OHZDE\09-Apr-2025\0\\
 #t hf aug-cc-pvdz symm=none int=(grid=ultrafine) guess=(read,tcheck) s
 table=(opt,rrhf)\\title\\0,1\O,0,1.83257219,-0.92227244,1.0622181\C,0,
 1.39194779,-0.63223048,-0.10942689\C,0,-0.1204838,-1.24139868,-0.47445
 249\C,0,-1.2908244,-0.64633925,0.27669818\C,0,-1.5303705,0.79160043,-0
 .16006764\C,0,-0.1786514,1.48173738,-0.20412798\C,0,0.87132742,0.72548
 113,-0.25732412\H,0,2.43754838,0.67427547,1.17847431\H,0,1.98571343,-0
 .94043499,-0.99109886\H,0,0.04709651,-2.28322215,-0.20877455\H,0,-0.24

 Normal termination of Gaussian 16 at Wed Apr  9 19:13:14 2025.
 Gaussian 16:  ES64L-G16RevC.01  3-Jul-2019

 ----------------------------------------------------------------------
 #t hf aug-cc-pvdz iop(5/13=1,5/36=2,99/5=2) pseudo=read geom=check gue
 ss=(read,tcheck) scf=(maxcycle=1)
 ----------------------------------------------------------------------
 -----
 title
 -----
 Structure from the checkpoint file:  "Grambow2020_wb97xd3_008415_forward_mol1.chk"
 Charge =  0 Multiplicity = 1

                         Standard orientation:
 ---------------------------------------------------------------------
 Center     Atomic      Atomic             Coordinates (Angstroms)
 Number     Number       Type             X           Y           Z
 ---------------------------------------------------------------------
      1          8           0       -2.021238   -0.189732   -0.646428
      2          6           0       -1.296110   -0.093813    0.409988
      3          6           0       -0.048890   -1.199937    0.522741
      4          6           0        1.092235   -1.037745   -0.456824
      5          6           0        1.892806    0.217355   -0.141188
      6          6           0        0.898041    1.335553    0.114646
      7          6           0       -0.319177    0.993232    0.394657
      8          1           0       -2.045493    1.519435   -0.727898
      9          1           0       -1.783411   -0.191289    1.398890
     10          1           0       -0.613915   -2.112319    0.342829
     11          1           0        0.297033   -1.193844    1.559031
     12          1           0        0.681998   -0.974770   -1.467195
     13          1           0        1.732635   -1.922325   -0.415928
     14          1           0        2.526104    0.079292    0.740763
     15          1           0        2.549153    0.503237   -0.965024
     16          1           0        1.184513    2.376209    0.031034
     17          1           0       -1.672146    2.146346   -0.389191
 ---------------------------------------------------------------------

 SCF Done:  E(RHF) =  -309.200702288     A.U. after    2 cycles

 The electronic state is 1-A.
 Alpha  occ. eigenvalues --  -20.95598 -11.51030 -11.48463 -11.47279 -11.43734
 Alpha  occ. eigenvalues --  -11.42975 -11.38765  -1.63637  -1.33549  -1.11800
 Alpha  occ. eigenvalues --   -1.09092  -0.90864  -0.87577  -0.73666  -0.69882
 Alpha  occ. eigenvalues --   -0.66849  -0.62979  -0.61051  -0.58065  -0.52337
 Alpha  occ. eigenvalues --   -0.51270  -0.47784  -0.44582  -0.44576  -0.37908
 Alpha  occ. eigenvalues --   -0.25264  -0.23995
 Alpha virt. eigenvalues --    0.02766   0.04422   0.04698   0.04796   0.05243
 Alpha virt. eigenvalues --    0.05829   0.06731   0.07283   0.07814   0.08767
 Alpha virt. eigenvalues --    0.09870   0.11775   0.11999   0.12581   0.13252

 Mulliken charges:
               1
     1  O   -2.903638
     2  C    1.157617
     3  C   -2.826885
     4  C   -3.007501
     5  C   -4.151327
     6  C   -1.005635
     7  C    2.385129
     8  H   -0.577077
     9  H    1.263601
    10  H    1.270284
    11  H    1.363899
    12  H    1.480699
    13  H    1.282185
    14  H    1.276326
    15  H    1.240423
    16  H    1.432822
    17  H    0.319077
 Sum of Mulliken charges =   0.00000

 Dipole moment (field-independent basis, Debye):
    X=              4.2157    Y=             -0.4490    Z=              0.8037  Tot=              4.3150

 Test job not archived.
 1\1\GINC-SE168\SP\RHF\Aug-CC-pVDZ\C6H10O1\OHZDE\09-Apr-2025\0\\#t hf a
 ug-cc-pvdz iop(5/13=1,5/36=2,99/5=2) pseudo=read geom=check guess=(rea
 d,tcheck) scf=(maxcycle=1)\\title\\0,1\O,0,1.83257219,-0.92227244,1.06
 22181\C,0,1.39194779,-0.63223048,-0.10942689\C,0,-0.1204838,-1.2413986
 8,-0.47445249\C,0,-1.2908244,-0.64633925,0.27669818\C,0,-1.5303705,0.7
 9160043,-0.16006764\C,0,-0.1786514,1.48173738,-0.20412798\C,0,0.871327
 42,0.72548113,-0.25732412\H,0,2.43754838,0.67427547,1.17847431\H,0,1.9
 8571343,-0.94043499,-0.99109886\H,0,0.04709651,-2.28322215,-0.20877455

 Normal termination of Gaussian 16 at Wed Apr  9 19:13:20 2025.
