 Gaussian 16, Revision C.01,

 ----------------------------------------------------------------------
 #t hf aug-cc-pvdz symm=none int=(grid=ultrafine) guess=(read,tcheck) s
 table=(opt,rrhf)
 ----------------------------------------------------------------------
 -----
 title
 -----
 Symbolic Z-matrix:
 Charge =  0 Multiplicity = 1

 SCF Done:  E(RHF) =  -317.538409819     A.U. after   17 cycles
 Normal termination of Gaussian 16 at Wed Apr  9 18:59:34 2025.
 Gaussian 16:  ES64L-G16RevC.01  3-Jul-2019

 ----------------------------------------------------------------------
 #t hf aug-cc-pvdz iop(5/13=1,5/36=2,99/5=2) pseudo=read geom=check gue
 ss=(read,tcheck) scf=(maxcycle=1)
 ----------------------------------------------------------------------
 -----
 title
 -----
 Structure from the checkpoint file:  "Grambow2020_wb97xd3_007981_forward_mol1.chk"
 Charge =  0 Multiplicity = 1

                         Standard orientation:
 ---------------------------------------------------------------------
 Center     Atomic      Atomic             Coordinates (Angstroms)
 Number     Number       Type             X           Y           Z
 ---------------------------------------------------------------------
      1          7           0       -0.001884   -0.791149    1.060158
      2          6           0       -0.000364   -1.134166   -0.314514
      3          7           0       -1.232281   -0.396998   -0.739081
      4          6           0       -1.180448    0.771149   -0.231229
      5          6           0        0.000636    0.991145    0.646453
      6          6           0        1.182055    0.769639   -0.230026
      7          7           0        1.233196   -0.398759   -0.737247
      8          1           0        0.841221   -1.046882    1.565559
      9          1           0       -0.848491   -1.043709    1.561521
     10          1           0       -1.930287    1.531204   -0.428854
     11          1           0        0.000520    1.752476    1.418885
     12          1           0        1.932535    1.528653   -0.428023
 ---------------------------------------------------------------------

 SCF Done:  E(RHF) =  -319.013934507     A.U. after    2 cycles

 The electronic state is 1-A.
 Alpha  occ. eigenvalues --  -15.86126 -15.72602 -15.72583 -11.50629 -11.45148
 Alpha  occ. eigenvalues --  -11.42343 -11.37793  -1.59869  -1.30502  -1.30387
 Alpha  occ. eigenvalues --   -1.12286  -0.90862  -0.86887  -0.76773  -0.73346
 Alpha  occ. eigenvalues --   -0.72781  -0.63470  -0.59564  -0.54806  -0.51972
 Alpha  occ. eigenvalues --   -0.45467  -0.38707  -0.37488  -0.34125  -0.24359
 Alpha virt. eigenvalues --    0.02323   0.04170   0.04810   0.04896   0.05464
 Alpha virt. eigenvalues --    0.07409   0.09581   0.09882   0.11080   0.11772
 Alpha virt. eigenvalues --    0.12488   0.12663   0.13919   0.14333   0.14568

 Mulliken charges:
               1
     1  N   -0.740097
     2  C    0.614089
     3  N   -2.139342
     4  C    0.855227
     5  C   -2.938444
     6  C    0.853112
     7  N   -2.140502
     8  H    0.753537
     9  H    0.753575
    10  H    1.416668
    11  H    1.294984
    12  H    1.417192
 Sum of Mulliken charges =  -0.00000

 Dipole moment (field-independent basis, Debye):
    X=             -0.0037    Y=              3.9194    Z=              5.4202  Tot=              6.6888

 Test job not archived.
 1\1\GINC-SE116\SP\RHF\Aug-CC-pVDZ\C4H5N3\OHZDE\09-Apr-2025\0\\#t hf au
 g-cc-pvdz iop(5/13=1,5/36=2,99/5=2) pseudo=read geom=check guess=(read
 ,tcheck) scf=(maxcycle=1)\\title\\0,1\N,0,1.23911914,-0.06874029,0.358
 07492\C,0,0.97437873,-0.27226259,-1.01883354\N,0,0.0083565,-1.41018013
 ,-0.90377114\C,0,-0.82896267,-1.11790081,0.01199985\C,0,-0.54287882,0.
 17200549,0.6960901\C,0,-0.59135514,1.20002938,-0.37808394\N,0,0.256730
 13,1.00881537,-1.31040933\H,0,1.76542198,0.7731217,0.57238658\H,0,1.59
 226163,-0.88472592,0.8493525\H,0,-1.6726829,-1.75433647,0.2611651\H,0,

 Normal termination of Gaussian 16 at Wed Apr  9 18:59:39 2025.
