 Gaussian 16, Revision C.01,

 ----------------------------------------------------------------------
 #t hf aug-cc-pvdz symm=none int=(grid=ultrafine) guess=(read,tcheck) s
 table=(opt,rrhf)
 ----------------------------------------------------------------------
 -----
 title
 -----
 Symbolic Z-matrix:
 Charge =  0 Multiplicity = 1

 SCF Done:  E(RHF) =  -322.532102781     A.U. after   17 cycles
 Normal termination of Gaussian 16 at Wed Apr  9 03:27:08 2025.
 Gaussian 16:  ES64L-G16RevC.01  3-Jul-2019

 ----------------------------------------------------------------------
 #t hf aug-cc-pvdz iop(5/13=1,5/36=2,99/5=2) pseudo=read geom=check gue
 ss=(read,tcheck) scf=(maxcycle=1)
 ----------------------------------------------------------------------
 -----
 title
 -----
 Structure from the checkpoint file:  "Grambow2020_wb97xd3_006639_forward_mol1.chk"
 Charge =  0 Multiplicity = 1

                         Standard orientation:
 ---------------------------------------------------------------------
 Center     Atomic      Atomic             Coordinates (Angstroms)
 Number     Number       Type             X           Y           Z
 ---------------------------------------------------------------------
      1          8           0       -1.244965   -1.134441    0.124098
      2          6           0       -1.616870    0.055967   -0.020060
      3          6           0       -0.782040    1.152370    0.162050
      4          6           0        0.674542    0.950611    0.346233
      5          6           0        1.126093   -0.413671    0.927915
      6          6           0        0.902344   -0.863648   -0.496718
      7          7           0        0.768008    0.412935   -1.052506
      8          1           0       -2.641722    0.259250   -0.368121
      9          1           0       -1.121276    2.141773   -0.111263
     10          1           0        1.248770    1.848287    0.559957
     11          1           0        0.499789   -0.873587    1.682327
     12          1           0        2.174144   -0.429671    1.233686
     13          1           0        0.738368   -1.799957   -1.014321
     14          1           0        1.861173   -0.250891   -1.124035
 ---------------------------------------------------------------------

 SCF Done:  E(RHF) =  -324.034053153     A.U. after    2 cycles

 The electronic state is 1-A.
 Alpha  occ. eigenvalues --  -20.98702 -15.81762 -11.52883 -11.50049 -11.42911
 Alpha  occ. eigenvalues --  -11.42533 -11.35507  -1.66835  -1.53617  -1.13433
 Alpha  occ. eigenvalues --   -1.07958  -0.95495  -0.82438  -0.76255  -0.72700
 Alpha  occ. eigenvalues --   -0.65922  -0.62801  -0.59238  -0.54836  -0.51457
 Alpha  occ. eigenvalues --   -0.47976  -0.42999  -0.41953  -0.41324  -0.26102
 Alpha  occ. eigenvalues --   -0.23115
 Alpha virt. eigenvalues --    0.03199   0.04763   0.04939   0.05249   0.06045
 Alpha virt. eigenvalues --    0.06647   0.07206   0.09002   0.09567   0.11722
 Alpha virt. eigenvalues --    0.12261   0.13334   0.13515   0.13842   0.14409

 Mulliken charges:
               1
     1  O   -2.864683
     2  C    1.160159
     3  C   -0.683214
     4  C   -1.894089
     5  C   -3.009304
     6  C   -0.140247
     7  N   -1.590615
     8  H    1.566154
     9  H    1.432886
    10  H    1.500483
    11  H    1.366891
    12  H    0.997407
    13  H    1.314396
    14  H    0.843776
 Sum of Mulliken charges =  -0.00000

 Dipole moment (field-independent basis, Debye):
    X=              3.3722    Y=             -0.4929    Z=              0.0810  Tot=              3.4090

 Test job not archived.
 1\1\GINC-SE092\SP\RHF\Aug-CC-pVDZ\C5H7N1O1\OHZDE\09-Apr-2025\0\\#t hf
 aug-cc-pvdz iop(5/13=1,5/36=2,99/5=2) pseudo=read geom=check guess=(re
 ad,tcheck) scf=(maxcycle=1)\\title\\0,1\O,0,0.91999104,0.68314107,1.47
 988922\C,0,1.23525372,1.2526287,0.40636315\C,0,0.89400882,0.77026703,-
 0.85184307\C,0,-0.05260965,-0.36299035,-0.97794484\C,0,-0.14739121,-1.
 33555552,0.22565387\C,0,-1.01579589,-0.23344578,0.78542843\N,0,-1.1422
 6851,0.49462186,-0.40223061\H,0,1.75946089,2.22030238,0.4464444\H,0,1.
 0727623,1.37523359,-1.72977386\H,0,-0.20920793,-0.73278019,-1.98788049

 Normal termination of Gaussian 16 at Wed Apr  9 03:27:17 2025.
