 Gaussian 16, Revision C.01,

 ----------------------------------------------------------------------
 #t hf aug-cc-pvdz symm=none int=(grid=ultrafine) guess=(read,tcheck) s
 table=(opt,rrhf)
 ----------------------------------------------------------------------
 -----
 title
 -----
 Symbolic Z-matrix:
 Charge =  0 Multiplicity = 1

 SCF Done:  E(RHF) =  -358.457160134     A.U. after   16 cycles
 Normal termination of Gaussian 16 at Wed Apr  9 04:04:03 2025.
 Gaussian 16:  ES64L-G16RevC.01  3-Jul-2019

 ----------------------------------------------------------------------
 #t hf aug-cc-pvdz iop(5/13=1,5/36=2,99/5=2) pseudo=read geom=check gue
 ss=(read,tcheck) scf=(maxcycle=1)
 ----------------------------------------------------------------------
 -----
 title
 -----
 Structure from the checkpoint file:  "Grambow2020_wb97xd3_009139_reverse_mol1.chk"
 Charge =  0 Multiplicity = 1

                         Standard orientation:
 ---------------------------------------------------------------------
 Center     Atomic      Atomic             Coordinates (Angstroms)
 Number     Number       Type             X           Y           Z
 ---------------------------------------------------------------------
      1          6           0        2.477141   -0.056885   -0.168778
      2          6           0        0.997530   -0.074463   -0.029951
      3          6           0        0.085590    0.969535   -0.342328
      4          8           0       -0.992390    0.998271    0.676214
      5          6           0       -1.223004   -0.082992   -0.028164
      6          8           0       -2.152775   -0.634313   -0.501669
      7          7           0        0.250476   -1.062696    0.361922
      8          1           0        2.914581    0.485912    0.672413
      9          1           0        2.894227   -1.061975   -0.207201
     10          1           0        2.755448    0.478422   -1.077832
     11          1           0        0.234514    1.899700   -0.863874
     12          1           0        0.585675   -1.806027    0.962014
 ---------------------------------------------------------------------

 SCF Done:  E(RHF) =  -360.058610402     A.U. after    2 cycles

 The electronic state is 1-A.
 Alpha  occ. eigenvalues --  -21.11527 -21.05099 -15.76459 -11.58801 -11.51919
 Alpha  occ. eigenvalues --  -11.44368 -11.41655  -1.87502  -1.68613  -1.41774
 Alpha  occ. eigenvalues --   -1.13197  -1.02130  -0.82786  -0.80201  -0.68756
 Alpha  occ. eigenvalues --   -0.66509  -0.62611  -0.59883  -0.57357  -0.55255
 Alpha  occ. eigenvalues --   -0.50470  -0.49317  -0.39291  -0.35294  -0.31806
 Alpha  occ. eigenvalues --   -0.25653
 Alpha virt. eigenvalues --    0.02401   0.04515   0.05102   0.05271   0.06676
 Alpha virt. eigenvalues --    0.09055   0.09937   0.10388   0.11328   0.11812
 Alpha virt. eigenvalues --    0.12693   0.13105   0.13428   0.14871   0.15477

 Mulliken charges:
               1
     1  C   -4.243417
     2  C    4.009143
     3  C   -2.128947
     4  O   -2.802645
     5  C    6.209452
     6  O   -3.373324
     7  N   -3.202549
     8  H    1.230104
     9  H    1.220187
    10  H    1.170990
    11  H    1.208053
    12  H    0.702954
 Sum of Mulliken charges =   0.00000

 Dipole moment (field-independent basis, Debye):
    X=              3.5321    Y=              0.2870    Z=              1.1246  Tot=              3.7179

 Test job not archived.
 1\1\GINC-SE054\SP\RHF\Aug-CC-pVDZ\C4H5N1O2\OHZDE\09-Apr-2025\0\\#t hf
 aug-cc-pvdz iop(5/13=1,5/36=2,99/5=2) pseudo=read geom=check guess=(re
 ad,tcheck) scf=(maxcycle=1)\\title\\0,1\C,0,-1.53938643,-0.39955857,-0
 .71809502\C,0,-0.20853289,-0.13438354,-0.11200693\C,0,0.35039799,1.125
 40137,0.23394812\O,0,1.79964151,1.12082887,-0.08222669\C,0,1.67940564,
 0.33373424,0.95915968\O,0,2.24809114,0.13626085,1.97416604\N,0,0.68099
 78,-1.0060838,0.25830352\H,0,-1.49629851,-0.19938807,-1.79124963\H,0,-
 1.86401597,-1.42589233,-0.55409246\H,0,-2.27973953,0.2796758,-0.292765

 Normal termination of Gaussian 16 at Wed Apr  9 04:04:08 2025.
