 Gaussian 16, Revision C.01,

 ----------------------------------------------------------------------
 #t hf aug-cc-pvdz symm=none int=(grid=ultrafine) guess=(read,tcheck) s
 table=(opt,rrhf)
 ----------------------------------------------------------------------
 -----
 title
 -----
 Symbolic Z-matrix:
 Charge =  0 Multiplicity = 1

 SCF Done:  E(RHF) =  -307.792112327     A.U. after   14 cycles

 1\1\GINC-SE105\Stability\RHF\Aug-CC-pVDZ\C6H10O1\OHZDE\09-Apr-2025\0\\
 #t hf aug-cc-pvdz symm=none int=(grid=ultrafine) guess=(read,tcheck) s
 table=(opt,rrhf)\\title\\0,1\C,0,2.02811493,-0.46903209,0.23007385\C,0
 ,0.779875,0.31536293,0.57127458\C,0,-0.00741196,0.98702731,-0.58032823
 \C,0,-1.28636234,0.59558073,0.15586826\O,0,-2.46246577,0.19896543,-0.6
 1881261\C,0,-2.44857033,-0.73229187,-1.50357036\C,0,-0.50820258,-0.465
 67981,0.93010448\H,0,2.41456234,-0.99500026,1.1057746\H,0,2.81755771,0
 .18907829,-0.13952637\H,0,1.82005903,-1.2121698,-0.5438595\H,0,0.99665

 Normal termination of Gaussian 16 at Wed Apr  9 19:16:12 2025.
 Gaussian 16:  ES64L-G16RevC.01  3-Jul-2019

 ----------------------------------------------------------------------
 #t hf aug-cc-pvdz iop(5/13=1,5/36=2,99/5=2) pseudo=read geom=check gue
 ss=(read,tcheck) scf=(maxcycle=1)
 ----------------------------------------------------------------------
 -----
 title
 -----
 Structure from the checkpoint file:  "Grambow2020_wb97xd3_008509_reverse_mol2.chk"
 Charge =  0 Multiplicity = 1

                         Standard orientation:
 ---------------------------------------------------------------------
 Center     Atomic      Atomic             Coordinates (Angstroms)
 Number     Number       Type             X           Y           Z
 ---------------------------------------------------------------------
      1          6           0       -2.465705    0.666232   -0.009618
      2          6           0       -1.372880   -0.380335    0.005496
      3          6           0       -0.264530   -0.305532   -1.072979
      4          6           0        0.724415   -0.729264    0.010243
      5          8           0        2.076546   -0.170437   -0.000168
      6          6           0        2.323430    1.090156   -0.013639
      7          6           0       -0.264218   -0.275021    1.081464
      8          1           0       -3.106597    0.579353    0.870464
      9          1           0       -3.097583    0.562462   -0.894431
     10          1           0       -2.039293    1.672528   -0.017071
     11          1           0       -1.808931   -1.382016    0.018721
     12          1           0       -0.343291   -0.930302   -1.961240
     13          1           0       -0.093713    0.732005   -1.370316
     14          1           0        0.893750   -1.803812    0.026019
     15          1           0        1.339536    1.639188   -0.013565
     16          1           0       -0.096842    0.770941    1.349773
     17          1           0       -0.342476   -0.874269    1.987183
 ---------------------------------------------------------------------

 SCF Done:  E(RHF) =  -309.266888635     A.U. after    2 cycles

 The electronic state is 1-A.
 Alpha  occ. eigenvalues --  -21.11319 -11.53324 -11.43495 -11.41685 -11.41410
 Alpha  occ. eigenvalues --  -11.39647 -11.36000  -1.81016  -1.35033  -1.08680
 Alpha  occ. eigenvalues --   -0.98539  -0.94019  -0.83284  -0.77136  -0.70339
 Alpha  occ. eigenvalues --   -0.65758  -0.60062  -0.59569  -0.56507  -0.53361
 Alpha  occ. eigenvalues --   -0.53301  -0.47960  -0.46266  -0.42501  -0.40368
 Alpha  occ. eigenvalues --   -0.39960  -0.31007
 Alpha virt. eigenvalues --    0.03664   0.04486   0.04713   0.05007   0.05346
 Alpha virt. eigenvalues --    0.05579   0.06644   0.06932   0.07983   0.09595
 Alpha virt. eigenvalues --    0.10742   0.11099   0.11960   0.13298   0.13537

 Mulliken charges:
               1
     1  C   -4.339856
     2  C    0.365358
     3  C   -3.545106
     4  C    1.984687
     5  O   -2.925274
     6  C   -1.558207
     7  C   -3.545682
     8  H    1.190840
     9  H    1.192221
    10  H    1.204813
    11  H    1.318097
    12  H    1.174552
    13  H    1.665462
    14  H    1.358624
    15  H    1.617415
    16  H    1.669289
    17  H    1.172767
 Sum of Mulliken charges =  -0.00000

 Dipole moment (field-independent basis, Debye):
    X=             -3.5611    Y=             -2.1541    Z=              0.0339  Tot=              4.1620

 Test job not archived.
 1\1\GINC-SE105\SP\RHF\Aug-CC-pVDZ\C6H10O1\OHZDE\09-Apr-2025\0\\#t hf a
 ug-cc-pvdz iop(5/13=1,5/36=2,99/5=2) pseudo=read geom=check guess=(rea
 d,tcheck) scf=(maxcycle=1)\\title\\0,1\C,0,2.02811493,-0.46903209,0.23
 007385\C,0,0.779875,0.31536293,0.57127458\C,0,-0.00741196,0.98702731,-
 0.58032823\C,0,-1.28636234,0.59558073,0.15586826\O,0,-2.46246577,0.198
 96543,-0.61881261\C,0,-2.44857033,-0.73229187,-1.50357036\C,0,-0.50820
 258,-0.46567981,0.93010448\H,0,2.41456234,-0.99500026,1.1057746\H,0,2.
 81755771,0.18907829,-0.13952637\H,0,1.82005903,-1.2121698,-0.5438595\H

 Normal termination of Gaussian 16 at Wed Apr  9 19:16:18 2025.
