 Gaussian 16, Revision C.01,

 ----------------------------------------------------------------------
 #t hf aug-cc-pvdz symm=none int=(grid=ultrafine) guess=(read,tcheck) s
 table=(opt,rrhf)
 ----------------------------------------------------------------------
 -----
 title
 -----
 Symbolic Z-matrix:
 Charge =  0 Multiplicity = 1

 SCF Done:  E(RHF) =  -232.788974385     A.U. after   15 cycles
 Normal termination of Gaussian 16 at Wed Apr  9 03:15:06 2025.
 Gaussian 16:  ES64L-G16RevC.01  3-Jul-2019

 ----------------------------------------------------------------------
 #t hf aug-cc-pvdz iop(5/13=1,5/36=2,99/5=2) pseudo=read geom=check gue
 ss=(read,tcheck) scf=(maxcycle=1)
 ----------------------------------------------------------------------
 -----
 title
 -----
 Structure from the checkpoint file:  "Grambow2020_b97d3_006949_forward_mol1.chk"
 Charge =  0 Multiplicity = 1

                         Standard orientation:
 ---------------------------------------------------------------------
 Center     Atomic      Atomic             Coordinates (Angstroms)
 Number     Number       Type             X           Y           Z
 ---------------------------------------------------------------------
      1          6           0       -2.100394    0.100640   -0.337077
      2          6           0       -0.871393   -0.144188    0.509737
      3          6           0        0.389304    1.379644    0.070137
      4          6           0        1.799527    0.652947   -0.155365
      5          6           0        1.532917   -0.678057   -0.199495
      6          6           0        0.092054   -1.247879    0.115632
      7          1           0       -2.862960   -0.676678   -0.170110
      8          1           0       -1.846196    0.092162   -1.407432
      9          1           0       -2.557474    1.072854   -0.103159
     10          1           0       -1.062021   -0.072251    1.585808
     11          1           0       -0.038737    1.461686   -0.926243
     12          1           0        0.330937    2.312061    0.638364
     13          1           0        0.789709    0.603059    0.811596
     14          1           0        2.271463   -1.409114   -0.535415
     15          1           0       -0.255239   -1.740357   -0.806203
     16          1           0        0.178425   -2.022055    0.891379
 ---------------------------------------------------------------------

 SCF Done:  E(RHF) =  -233.994018116     A.U. after    2 cycles

 The electronic state is 1-A.
 Alpha  occ. eigenvalues --  -11.47556 -11.44852 -11.41682 -11.39403 -11.38399
 Alpha  occ. eigenvalues --  -11.35421  -1.33343  -1.13549  -1.04653  -0.94563
 Alpha  occ. eigenvalues --   -0.82557  -0.73521  -0.66977  -0.63255  -0.60654
 Alpha  occ. eigenvalues --   -0.57230  -0.56112  -0.51241  -0.49679  -0.46421
 Alpha  occ. eigenvalues --   -0.42528  -0.32227  -0.27511
 Alpha virt. eigenvalues --    0.03269   0.04753   0.04989   0.05295   0.05356
 Alpha virt. eigenvalues --    0.05680   0.06396   0.07340   0.07648   0.09051
 Alpha virt. eigenvalues --    0.10574   0.11703   0.12563   0.13312   0.14125

 Mulliken charges:
               1
     1  C   -4.337608
     2  C   -0.996691
     3  C   -3.819580
     4  C   -2.425991
     5  C    0.527533
     6  C   -3.400882
     7  H    1.151254
     8  H    1.335312
     9  H    1.186409
    10  H    1.221841
    11  H    1.477096
    12  H    0.830471
    13  H    3.232648
    14  H    1.342639
    15  H    1.400238
    16  H    1.275312
 Sum of Mulliken charges =   0.00000

 Dipole moment (field-independent basis, Debye):
    X=             -3.9488    Y=             -0.9574    Z=              0.4763  Tot=              4.0911

 Test job not archived.
 1\1\GINC-SE366\SP\RHF\Aug-CC-pVDZ\C6H10\OHZDE\09-Apr-2025\0\\#t hf aug
 -cc-pvdz iop(5/13=1,5/36=2,99/5=2) pseudo=read geom=check guess=(read,
 tcheck) scf=(maxcycle=1)\\title\\0,1\C,0,1.870598,-0.15080103,-0.10833
 803\C,0,0.52793554,-0.21409033,0.58500773\C,0,-0.69661319,-1.17196231,
 -0.71408039\C,0,-2.02288059,-0.27271004,-0.71940731\C,0,-1.70485058,0.
 86883432,-0.0558311\C,0,-0.31650678,1.04267461,0.68062604\H,0,2.622483
 48,0.35226624,0.52031163\H,0,1.79768863,0.40997427,-1.05203511\H,0,2.2
 4727622,-1.15773716,-0.3386263\H,0,0.53496116,-0.82526524,1.49377586\H

 Normal termination of Gaussian 16 at Wed Apr  9 03:15:10 2025.
