 Gaussian 16, Revision C.01,

 ----------------------------------------------------------------------
 #t hf aug-cc-pvdz symm=none int=(grid=ultrafine) guess=(read,tcheck) s
 table=(opt,rrhf)
 ----------------------------------------------------------------------
 -----
 title
 -----
 Symbolic Z-matrix:
 Charge =  0 Multiplicity = 1

 SCF Done:  E(RHF) =  -193.853940817     A.U. after   14 cycles
 Normal termination of Gaussian 16 at Wed Apr  9 03:06:46 2025.
 Gaussian 16:  ES64L-G16RevC.01  3-Jul-2019

 ----------------------------------------------------------------------
 #t hf aug-cc-pvdz iop(5/13=1,5/36=2,99/5=2) pseudo=read geom=check gue
 ss=(read,tcheck) scf=(maxcycle=1)
 ----------------------------------------------------------------------
 -----
 title
 -----
 Structure from the checkpoint file:  "Grambow2020_b97d3_006546_reverse_mol2.chk"
 Charge =  0 Multiplicity = 1

                         Standard orientation:
 ---------------------------------------------------------------------
 Center     Atomic      Atomic             Coordinates (Angstroms)
 Number     Number       Type             X           Y           Z
 ---------------------------------------------------------------------
      1          6           0        0.823238   -1.147081    0.076268
      2          6           0        0.879142    0.001818   -0.793289
      3          6           0       -1.741324   -0.003965   -0.108457
      4          6           0       -0.306898   -0.000301    0.394902
      5          6           0        0.813262    1.151088    0.076956
      6          1           0        1.415138   -1.274897    1.004537
      7          1           0        0.485925   -2.096316   -0.352436
      8          1           0       -1.772021    0.010526   -1.201695
      9          1           0       -2.266513   -0.900323    0.252857
     10          1           0       -2.278874    0.875233    0.276511
     11          1           0       -0.265305   -0.004579    1.491653
     12          1           0        0.470092    2.097741   -0.352761
     13          1           0        1.407037    1.283263    1.003059
 ---------------------------------------------------------------------

 SCF Done:  E(RHF) =  -194.834990937     A.U. after    2 cycles

 The electronic state is 1-A.
 Alpha  occ. eigenvalues --  -11.45721 -11.42370 -11.40860 -11.37998 -11.36612
 Alpha  occ. eigenvalues --   -1.38057  -1.06362  -0.98138  -0.82329  -0.78196
 Alpha  occ. eigenvalues --   -0.65265  -0.58802  -0.57156  -0.56294  -0.48601
 Alpha  occ. eigenvalues --   -0.48243  -0.47013  -0.39973  -0.29400
 Alpha virt. eigenvalues --    0.03938   0.05370   0.05569   0.05817   0.05953
 Alpha virt. eigenvalues --    0.05989   0.06801   0.07573   0.09493   0.12351
 Alpha virt. eigenvalues --    0.13049   0.13236   0.13988   0.14127   0.15390

 Mulliken charges:
               1
     1  C   -2.495104
     2  C   -0.332459
     3  C   -4.002808
     4  C   -0.747049
     5  C   -2.505453
     6  H    1.128161
     7  H    1.505770
     8  H    1.258886
     9  H    1.137505
    10  H    1.134798
    11  H    1.285316
    12  H    1.506028
    13  H    1.126409
 Sum of Mulliken charges =   0.00000

 Dipole moment (field-independent basis, Debye):
    X=             -0.6110    Y=             -0.0076    Z=              2.3800  Tot=              2.4572

 Test job not archived.
 1\1\GINC-SE112\SP\RHF\Aug-CC-pVDZ\C5H8\OHZDE\09-Apr-2025\0\\#t hf aug-
 cc-pvdz iop(5/13=1,5/36=2,99/5=2) pseudo=read geom=check guess=(read,t
 check) scf=(maxcycle=1)\\title\\0,1\C,0,-0.57423534,1.40067325,0.00187
 678\C,0,0.3067344,0.89217144,1.02390497\C,0,-0.74910252,-1.40719884,0.
 05748029\C,0,-0.0171101,-0.11766752,-0.2775724\C,0,1.43790811,0.336996
 93,0.32054522\H,0,-0.25964242,2.01766102,-0.86341139\H,0,-1.63277314,1
 .52174078,0.25378146\H,0,-0.94129762,-1.47981416,1.13177492\H,0,-1.706
 9976,-1.44920896,-0.48150049\H,0,-0.15045865,-2.27431414,-0.25856818\H

 Normal termination of Gaussian 16 at Wed Apr  9 03:06:49 2025.
