 Gaussian 16, Revision C.01,

 ----------------------------------------------------------------------
 #t hf aug-cc-pvdz symm=none int=(grid=ultrafine) guess=(read,tcheck) s
 table=(opt,rrhf)
 ----------------------------------------------------------------------
 -----
 title
 -----
 Symbolic Z-matrix:
 Charge =  0 Multiplicity = 1

 SCF Done:  E(RHF) =  -354.631439955     A.U. after   15 cycles
 Normal termination of Gaussian 16 at Wed Apr  9 18:36:13 2025.
 Gaussian 16:  ES64L-G16RevC.01  3-Jul-2019

 ----------------------------------------------------------------------
 #t hf aug-cc-pvdz iop(5/13=1,5/36=2,99/5=2) pseudo=read geom=check gue
 ss=(read,tcheck) scf=(maxcycle=1)
 ----------------------------------------------------------------------
 -----
 title
 -----
 Structure from the checkpoint file:  "Grambow2020_wb97xd3_007316_reverse_mol2.chk"
 Charge =  0 Multiplicity = 1

                         Standard orientation:
 ---------------------------------------------------------------------
 Center     Atomic      Atomic             Coordinates (Angstroms)
 Number     Number       Type             X           Y           Z
 ---------------------------------------------------------------------
      1          8           0       -2.562263   -0.348638    0.003270
      2          6           0       -1.577707    0.587624   -0.000457
      3          6           0       -0.280115    0.243834   -0.004289
      4          7           0        0.206160   -1.053775   -0.005902
      5          7           0        1.624195   -0.857713    0.001906
      6          6           0        1.820262    0.623458    0.002636
      7          7           0        0.717840    1.226098   -0.001409
      8          1           0       -2.138729   -1.214425    0.007807
      9          1           0        2.055694   -1.290088    0.825227
     10          1           0       -1.912680    1.612214   -0.000891
     11          1           0        2.064166   -1.290004   -0.816650
     12          1           0        2.817648    1.039646    0.008841
 ---------------------------------------------------------------------

 SCF Done:  E(RHF) =  -356.212566000     A.U. after    2 cycles

 The electronic state is 1-A.
 Alpha  occ. eigenvalues --  -21.06766 -15.88932 -15.78013 -15.67744 -11.46821
 Alpha  occ. eigenvalues --  -11.43666 -11.37530  -1.72254  -1.62066  -1.36036
 Alpha  occ. eigenvalues --   -1.20262  -0.99948  -0.88522  -0.77715  -0.77562
 Alpha  occ. eigenvalues --   -0.74675  -0.62614  -0.58570  -0.54521  -0.53138
 Alpha  occ. eigenvalues --   -0.45543  -0.44042  -0.40831  -0.37841  -0.36085
 Alpha  occ. eigenvalues --   -0.19563
 Alpha virt. eigenvalues --    0.01891   0.04156   0.04988   0.06239   0.07801
 Alpha virt. eigenvalues --    0.09126   0.09511   0.10148   0.12389   0.13223
 Alpha virt. eigenvalues --    0.13862   0.14508   0.14676   0.15291   0.16454

 Mulliken charges:
               1
     1  O   -3.466072
     2  C    0.327076
     3  C    3.934569
     4  N   -1.932528
     5  N   -2.138400
     6  C    0.953658
     7  N   -3.387515
     8  H    1.029049
     9  H    0.807381
    10  H    1.585772
    11  H    0.808934
    12  H    1.478076
 Sum of Mulliken charges =   0.00000

 Dipole moment (field-independent basis, Debye):
    X=              5.2669    Y=             -1.1517    Z=              0.0308  Tot=              5.3914

 Test job not archived.
 1\1\GINC-SE174\SP\RHF\Aug-CC-pVDZ\C3H5N3O1\OHZDE\09-Apr-2025\0\\#t hf
 aug-cc-pvdz iop(5/13=1,5/36=2,99/5=2) pseudo=read geom=check guess=(re
 ad,tcheck) scf=(maxcycle=1)\\title\\0,1\O,0,-2.62518367,0.97789534,-0.
 18233692\C,0,-1.78573483,0.15886253,0.50356622\C,0,-0.51312794,-0.0260
 7461,0.11856999\N,0,0.08722761,0.56801132,-0.98001547\N,0,1.41414449,0
 .03222325,-0.94070398\C,0,1.44420189,-0.86674203,0.25230361\N,0,0.3323
 1901,-0.88024583,0.83716369\H,0,-2.13191085,1.34072067,-0.92666737\H,0
 ,1.63378737,-0.48263042,-1.79958778\H,0,-2.21264952,-0.32337299,1.3679

 Normal termination of Gaussian 16 at Wed Apr  9 18:36:18 2025.
