 Gaussian 16, Revision C.01,

 ----------------------------------------------------------------------
 #t hf aug-cc-pvdz symm=none int=(grid=ultrafine) guess=(read,tcheck) s
 table=(opt,rrhf)
 ----------------------------------------------------------------------
 -----
 title
 -----
 Symbolic Z-matrix:
 Charge =  0 Multiplicity = 1

 SCF Done:  E(RHF) =  -343.542945565     A.U. after   16 cycles
 Normal termination of Gaussian 16 at Wed Apr  9 18:31:31 2025.
 Gaussian 16:  ES64L-G16RevC.01  3-Jul-2019

 ----------------------------------------------------------------------
 #t hf aug-cc-pvdz iop(5/13=1,5/36=2,99/5=2) pseudo=read geom=check gue
 ss=(read,tcheck) scf=(maxcycle=1)
 ----------------------------------------------------------------------
 -----
 title
 -----
 Structure from the checkpoint file:  "Grambow2020_wb97xd3_007227_reverse_mol1.chk"
 Charge =  0 Multiplicity = 1

                         Standard orientation:
 ---------------------------------------------------------------------
 Center     Atomic      Atomic             Coordinates (Angstroms)
 Number     Number       Type             X           Y           Z
 ---------------------------------------------------------------------
      1          8           0       -2.548967   -0.338683   -0.177163
      2          6           0       -1.119376    1.076686    0.201263
      3          6           0       -0.144403    0.189631    0.681826
      4          6           0        0.027008   -1.111549   -0.241442
      5          6           0        1.551226   -1.188098    0.113349
      6          6           0        1.312212    0.269205    0.126812
      7          8           0        1.805264    1.206994   -0.447213
      8          1           0       -2.872159   -0.322896   -1.082000
      9          1           0       -1.799102    1.606405    0.854383
     10          1           0       -1.016788    1.455898   -0.809563
     11          1           0       -0.224828   -0.077826    1.733958
     12          1           0       -1.820883   -1.037825   -0.151529
     13          1           0       -0.053433   -0.785289   -1.289090
     14          1           0        2.259923   -1.538384   -0.632728
     15          1           0        1.716896   -1.661822    1.080731
 ---------------------------------------------------------------------

 SCF Done:  E(RHF) =  -345.124697576     A.U. after    2 cycles

 The electronic state is 1-A.
 Alpha  occ. eigenvalues --  -21.12666 -21.02922 -11.54546 -11.49821 -11.42280
 Alpha  occ. eigenvalues --  -11.40588 -11.34401  -1.72319  -1.68773  -1.32646
 Alpha  occ. eigenvalues --   -1.11836  -0.92150  -0.82979  -0.76495  -0.69106
 Alpha  occ. eigenvalues --   -0.67047  -0.63654  -0.57183  -0.55494  -0.53188
 Alpha  occ. eigenvalues --   -0.50453  -0.46387  -0.44905  -0.41491  -0.39511
 Alpha  occ. eigenvalues --   -0.26323  -0.23159
 Alpha virt. eigenvalues --    0.03269   0.03556   0.04767   0.05202   0.06156
 Alpha virt. eigenvalues --    0.06920   0.07168   0.07888   0.08479   0.10341
 Alpha virt. eigenvalues --    0.11417   0.12007   0.13030   0.13571   0.14712

 Mulliken charges:
               1
     1  O   -2.146059
     2  C   -2.548677
     3  C   -2.519666
     4  C   -0.707346
     5  C   -4.006773
     6  C    5.062834
     7  O   -3.546530
     8  H    0.702108
     9  H    1.359118
    10  H    1.277034
    11  H    1.340965
    12  H    1.961291
    13  H    1.121458
    14  H    1.206137
    15  H    1.444104
 Sum of Mulliken charges =   0.00000

 Dipole moment (field-independent basis, Debye):
    X=             -3.8241    Y=              2.2307    Z=              0.1474  Tot=              4.4296

 Test job not archived.
 1\1\GINC-SE113\SP\RHF\Aug-CC-pVDZ\C5H8O2\OHZDE\09-Apr-2025\0\\#t hf au
 g-cc-pvdz iop(5/13=1,5/36=2,99/5=2) pseudo=read geom=check guess=(read
 ,tcheck) scf=(maxcycle=1)\\title\\0,1\O,0,2.11910084,1.03292216,0.3077
 2916\C,0,1.31597304,-0.8402545,0.11694171\C,0,0.01041328,-0.48965418,0
 .4924082\C,0,-0.51047015,0.84597094,-0.22846758\C,0,-1.97847155,0.2982
 9312,-0.22865871\C,0,-1.19451303,-0.94282569,-0.39013788\O,0,-1.186903
 13,-1.83219628,-1.20316545\H,0,2.55854386,1.34314157,-0.48856611\H,0,2
 .03865527,-1.23492621,0.81776925\H,0,1.52735374,-0.98415791,-0.9369582

 Normal termination of Gaussian 16 at Wed Apr  9 18:31:36 2025.
