 Gaussian 16, Revision C.01,

 ----------------------------------------------------------------------
 #t hf aug-cc-pvdz symm=none int=(grid=ultrafine) guess=(read,tcheck) s
 table=(opt,rrhf)
 ----------------------------------------------------------------------
 -----
 title
 -----
 Symbolic Z-matrix:
 Charge =  0 Multiplicity = 1

 SCF Done:  E(RHF) =  -318.827685159     A.U. after   15 cycles
 Normal termination of Gaussian 16 at Wed Apr  9 18:22:20 2025.
 Gaussian 16:  ES64L-G16RevC.01  3-Jul-2019

 ----------------------------------------------------------------------
 #t hf aug-cc-pvdz iop(5/13=1,5/36=2,99/5=2) pseudo=read geom=check gue
 ss=(read,tcheck) scf=(maxcycle=1)
 ----------------------------------------------------------------------
 -----
 title
 -----
 Structure from the checkpoint file:  "Grambow2020_wb97xd3_006932_reverse_mol1.chk"
 Charge =  0 Multiplicity = 1

                         Standard orientation:
 ---------------------------------------------------------------------
 Center     Atomic      Atomic             Coordinates (Angstroms)
 Number     Number       Type             X           Y           Z
 ---------------------------------------------------------------------
      1          7           0        2.443738   -0.465794    0.037223
      2          6           0        1.087959   -0.182111   -0.009806
      3          6           0        0.000091   -0.981560    0.045278
      4          6           0       -1.143080   -0.072239    0.094855
      5          7           0       -2.459820   -0.472265   -0.208754
      6          6           0       -0.694045    1.304377   -0.025739
      7          7           0        0.666501    1.135386   -0.028871
      8          1           0        2.650883   -1.444913   -0.072396
      9          1           0        3.003703    0.093979   -0.587308
     10          1           0       -0.022626   -2.059352    0.039468
     11          1           0       -3.073820    0.326926   -0.271908
     12          1           0       -2.831684   -1.157681    0.431004
     13          1           0       -1.083826    0.540625    1.155641
     14          1           0        1.298888    1.908331    0.080787
 ---------------------------------------------------------------------

 SCF Done:  E(RHF) =  -320.332395903     A.U. after    2 cycles

 The electronic state is 1-A.
 Alpha  occ. eigenvalues --  -15.77761 -15.77079 -15.74125 -11.48365 -11.45689
 Alpha  occ. eigenvalues --  -11.38033 -11.35942  -1.53613  -1.35403  -1.30797
 Alpha  occ. eigenvalues --   -1.10885  -1.01618  -0.81920  -0.77838  -0.71261
 Alpha  occ. eigenvalues --   -0.66595  -0.65920  -0.63166  -0.55460  -0.53930
 Alpha  occ. eigenvalues --   -0.50763  -0.46211  -0.41800  -0.33743  -0.32458
 Alpha  occ. eigenvalues --   -0.29393
 Alpha virt. eigenvalues --    0.03218   0.04919   0.05089   0.05773   0.06646
 Alpha virt. eigenvalues --    0.07109   0.08046   0.10853   0.11721   0.12507
 Alpha virt. eigenvalues --    0.12915   0.13354   0.14569   0.14716   0.15082

 Mulliken charges:
               1
     1  N   -3.302488
     2  C    3.593220
     3  C   -2.255977
     4  C    3.341018
     5  N   -3.264395
     6  C   -1.559875
     7  N   -2.867640
     8  H    0.533849
     9  H    0.624972
    10  H    1.440786
    11  H    0.659458
    12  H    0.514441
    13  H    1.754203
    14  H    0.788427
 Sum of Mulliken charges =   0.00000

 Dipole moment (field-independent basis, Debye):
    X=              2.6874    Y=             -1.9448    Z=              0.1591  Tot=              3.3211

 Test job not archived.
 1\1\GINC-SE108\SP\RHF\Aug-CC-pVDZ\C4H7N3\OHZDE\09-Apr-2025\0\\#t hf au
 g-cc-pvdz iop(5/13=1,5/36=2,99/5=2) pseudo=read geom=check guess=(read
 ,tcheck) scf=(maxcycle=1)\\title\\0,1\N,0,-2.43531867,-0.41258474,-0.1
 7314151\C,0,-1.09226934,-0.10564686,-0.02203327\C,0,0.01125026,-0.8850
 9253,-0.00424071\C,0,1.13796087,0.04475187,0.04130692\N,0,2.43560489,-
 0.33562013,0.43809449\C,0,0.65586202,1.41170401,0.14265126\N,0,-0.6977
 9049,1.21874754,0.04242169\H,0,-2.63194088,-1.39644145,-0.08969006\H,0
 ,-3.0504568,0.12972752,0.41375411\H,0,0.0533618,-1.96231003,-0.0081912

 Normal termination of Gaussian 16 at Wed Apr  9 18:22:25 2025.
