 Gaussian 16, Revision C.01,

 ----------------------------------------------------------------------
 #t hf aug-cc-pvdz symm=none int=(grid=ultrafine) guess=(read,tcheck) s
 table=(opt,rrhf)
 ----------------------------------------------------------------------
 -----
 title
 -----
 Symbolic Z-matrix:
 Charge =  0 Multiplicity = 1

 SCF Done:  E(RHF) =  -324.896429190     A.U. after   15 cycles
 Normal termination of Gaussian 16 at Wed Apr  9 19:07:17 2025.
 Gaussian 16:  ES64L-G16RevC.01  3-Jul-2019

 ----------------------------------------------------------------------
 #t hf aug-cc-pvdz iop(5/13=1,5/36=2,99/5=2) pseudo=read geom=check gue
 ss=(read,tcheck) scf=(maxcycle=1)
 ----------------------------------------------------------------------
 -----
 title
 -----
 Structure from the checkpoint file:  "Grambow2020_wb97xd3_008112_reverse_mol1.chk"
 Charge =  0 Multiplicity = 1

                         Standard orientation:
 ---------------------------------------------------------------------
 Center     Atomic      Atomic             Coordinates (Angstroms)
 Number     Number       Type             X           Y           Z
 ---------------------------------------------------------------------
      1          6           0        2.444224   -0.059895   -0.113138
      2          7           0        1.279765    0.155218   -0.658228
      3          6           0        0.103460   -0.466480   -0.138483
      4          8           0        0.217146   -1.435214    0.581538
      5          6           0       -1.120815    0.341345   -0.438195
      6          6           0       -2.431807   -0.363020   -0.158336
      7          6           0       -0.622291    1.355890    0.555546
      8          1           0        1.878490    1.062018    1.459421
      9          1           0        3.310199    0.465859   -0.485287
     10          1           0        2.525145   -0.905873    0.552272
     11          1           0        1.148133    0.950654   -1.264633
     12          1           0       -1.096249    0.735753   -1.457367
     13          1           0       -2.415556   -0.805977    0.837708
     14          1           0       -2.614450   -1.164467   -0.877309
     15          1           0       -3.259358    0.346401   -0.209894
     16          1           0        1.096949    1.259169    1.350830
     17          1           0       -0.524660    2.388036    0.236569
     18          1           0       -0.980794    1.216568    1.568632
 ---------------------------------------------------------------------

 SCF Done:  E(RHF) =  -326.480071446     A.U. after    2 cycles

 The electronic state is 1-A.
 Alpha  occ. eigenvalues --  -21.01645 -15.83755 -11.51374 -11.47708 -11.42630
 Alpha  occ. eigenvalues --  -11.37099 -11.35084  -1.71187  -1.45993  -1.23313
 Alpha  occ. eigenvalues --   -1.02945  -0.96640  -0.86092  -0.81483  -0.71785
 Alpha  occ. eigenvalues --   -0.68326  -0.65352  -0.61303  -0.58696  -0.55646
 Alpha  occ. eigenvalues --   -0.52426  -0.51330  -0.48552  -0.45685  -0.43543
 Alpha  occ. eigenvalues --   -0.38220  -0.29168  -0.22188
 Alpha virt. eigenvalues --    0.02925   0.04319   0.04726   0.05264   0.06166
 Alpha virt. eigenvalues --    0.06527   0.06721   0.07310   0.07797   0.08753
 Alpha virt. eigenvalues --    0.09345   0.10796   0.11436   0.12223   0.13611

 Mulliken charges:
               1
     1  C   -2.487036
     2  N   -3.040117
     3  C    6.948501
     4  O   -3.752859
     5  C   -2.333336
     6  C   -4.099729
     7  C   -2.989326
     8  H    0.203000
     9  H    1.459823
    10  H    1.541586
    11  H    0.909960
    12  H    1.544291
    13  H    1.280598
    14  H    1.252847
    15  H    1.130603
    16  H   -0.170871
    17  H    1.282584
    18  H    1.319479
 Sum of Mulliken charges =  -0.00000

 Dipole moment (field-independent basis, Debye):
    X=              2.1855    Y=              0.6815    Z=             -2.8719  Tot=              3.6727

 Test job not archived.
 1\1\GINC-SE115\SP\RHF\Aug-CC-pVDZ\C5H11N1O1\OHZDE\09-Apr-2025\0\\#t hf
  aug-cc-pvdz iop(5/13=1,5/36=2,99/5=2) pseudo=read geom=check guess=(r
 ead,tcheck) scf=(maxcycle=1)\\title\\0,1\C,0,2.36507414,0.86902054,-0.
 23499146\N,0,1.27197915,0.31970293,-0.68527446\C,0,0.42242945,-0.43415
 838,0.18092049\O,0,0.86577187,-0.84348872,1.23244133\C,0,-0.99503941,-
 0.42769468,-0.30074184\C,0,-1.91002764,-1.40854948,0.40201666\C,0,-1.0
 5906342,1.02410545,0.0910853\H,0,1.2421534,2.22070551,0.7466814\H,0,2.
 96105134,1.48289347,-0.89286388\H,0,2.73234174,0.52005955,0.71807665\H

 Normal termination of Gaussian 16 at Wed Apr  9 19:07:24 2025.
