 Gaussian 16, Revision C.01,

 ----------------------------------------------------------------------
 #t hf aug-cc-pvdz symm=none int=(grid=ultrafine) guess=(read,tcheck) s
 table=(opt,rrhf)
 ----------------------------------------------------------------------
 -----
 title
 -----
 Symbolic Z-matrix:
 Charge =  0 Multiplicity = 1

 SCF Done:  E(RHF) =  -268.860729304     A.U. after   14 cycles
 Normal termination of Gaussian 16 at Wed Apr  9 17:14:21 2025.
 Gaussian 16:  ES64L-G16RevC.01  3-Jul-2019

 ----------------------------------------------------------------------
 #t hf aug-cc-pvdz iop(5/13=1,5/36=2,99/5=2) pseudo=read geom=check gue
 ss=(read,tcheck) scf=(maxcycle=1)
 ----------------------------------------------------------------------
 -----
 title
 -----
 Structure from the checkpoint file:  "Grambow2020_b97d3_007073_reverse_mol2.chk"
 Charge =  0 Multiplicity = 1

                         Standard orientation:
 ---------------------------------------------------------------------
 Center     Atomic      Atomic             Coordinates (Angstroms)
 Number     Number       Type             X           Y           Z
 ---------------------------------------------------------------------
      1          6           0       -2.237976    0.008536    0.022256
      2          6           0       -0.742707   -0.040627    0.012460
      3          6           0        0.140699    1.192243   -0.062195
      4          6           0        1.557443    0.578504    0.069694
      5          8           0        1.409522   -0.869443   -0.046170
      6          6           0        0.060297   -1.118826   -0.003335
      7          1           0       -2.628529    0.527687   -0.869625
      8          1           0       -2.620984    0.556496    0.899409
      9          1           0       -2.673660   -1.000123    0.040211
     10          1           0       -0.070155    1.912081    0.743973
     11          1           0        2.000201    0.785501    1.054229
     12          1           0        2.254662    0.902781   -0.711720
     13          1           0       -0.200373   -2.174788   -0.003588
     14          1           0       -0.003874    1.726928   -1.016806
 ---------------------------------------------------------------------

 SCF Done:  E(RHF) =  -270.128953468     A.U. after    2 cycles

 The electronic state is 1-A.
 Alpha  occ. eigenvalues --  -21.05423 -11.46895 -11.43546 -11.40088 -11.38786
 Alpha  occ. eigenvalues --  -11.35866  -1.76936  -1.21965  -1.07938  -0.98979
 Alpha  occ. eigenvalues --   -0.85025  -0.76476  -0.65597  -0.64961  -0.57260
 Alpha  occ. eigenvalues --   -0.56582  -0.51889  -0.50587  -0.48197  -0.44442
 Alpha  occ. eigenvalues --   -0.43836  -0.38908  -0.24146
 Alpha virt. eigenvalues --    0.03473   0.05177   0.05815   0.05911   0.06144
 Alpha virt. eigenvalues --    0.06180   0.07235   0.08134   0.09892   0.11985
 Alpha virt. eigenvalues --    0.12424   0.13242   0.13731   0.14249   0.14708

 Mulliken charges:
               1
     1  C   -4.287466
     2  C    3.465188
     3  C   -4.267792
     4  C   -1.639381
     5  O   -3.257741
     6  C   -0.189234
     7  H    1.181438
     8  H    1.190104
     9  H    1.243689
    10  H    1.142736
    11  H    1.413674
    12  H    1.391169
    13  H    1.478764
    14  H    1.134853
 Sum of Mulliken charges =   0.00000

 Dipole moment (field-independent basis, Debye):
    X=             -0.1045    Y=              0.4257    Z=             -0.0491  Tot=              0.4410

 Test job not archived.
 1\1\GINC-SE174\SP\RHF\Aug-CC-pVDZ\C5H8O1\OHZDE\09-Apr-2025\0\\#t hf au
 g-cc-pvdz iop(5/13=1,5/36=2,99/5=2) pseudo=read geom=check guess=(read
 ,tcheck) scf=(maxcycle=1)\\title\\0,1\C,0,-1.93151909,0.17087224,-0.38
 519172\C,0,-0.52311024,-0.0608703,0.06316644\C,0,0.69647558,0.3570533,
 -0.73926591\C,0,1.85396536,-0.01673556,0.22080385\O,0,1.27349864,-0.80
 188561,1.30636934\C,0,-0.08800562,-0.70642205,1.15930744\H,0,-2.121912
 41,-0.29428669,-1.36747316\H,0,-2.15082105,1.24590975,-0.49722907\H,0,
 -2.65498905,-0.24654666,0.32887356\H,0,0.69537142,1.43152698,-0.980173

 Normal termination of Gaussian 16 at Wed Apr  9 17:14:25 2025.
