 Gaussian 16, Revision C.01,

 ----------------------------------------------------------------------
 #t hf aug-cc-pvdz symm=none int=(grid=ultrafine) guess=(read,tcheck) s
 table=(opt,rrhf)
 ----------------------------------------------------------------------
 -----
 title
 -----
 Symbolic Z-matrix:
 Charge =  0 Multiplicity = 1

 SCF Done:  E(RHF) =  -343.753062272     A.U. after   14 cycles
 Normal termination of Gaussian 16 at Wed Apr  9 19:07:56 2025.
 Gaussian 16:  ES64L-G16RevC.01  3-Jul-2019

 ----------------------------------------------------------------------
 #t hf aug-cc-pvdz iop(5/13=1,5/36=2,99/5=2) pseudo=read geom=check gue
 ss=(read,tcheck) scf=(maxcycle=1)
 ----------------------------------------------------------------------
 -----
 title
 -----
 Structure from the checkpoint file:  "Grambow2020_wb97xd3_008131_reverse_mol2.chk"
 Charge =  0 Multiplicity = 1

                         Standard orientation:
 ---------------------------------------------------------------------
 Center     Atomic      Atomic             Coordinates (Angstroms)
 Number     Number       Type             X           Y           Z
 ---------------------------------------------------------------------
      1          6           0       -0.085318   -0.634720    0.663628
      2          8           0        1.087389    0.136456    0.921946
      3          6           0        2.018458    0.154126   -0.034683
      4          6           0       -1.127230    1.456924   -0.188981
      5          6           0       -1.200335    0.154331    0.035865
      6          6           0       -2.402771   -0.675851   -0.304621
      7          8           0        1.974826   -0.429942   -1.075703
      8          1           0       -0.401892   -1.015290    1.637266
      9          1           0        0.172730   -1.484746    0.028009
     10          1           0        2.851689    0.792132    0.289919
     11          1           0       -1.953195    1.990082   -0.643549
     12          1           0       -0.247237    2.032315    0.067627
     13          1           0       -2.783201   -1.198341    0.577853
     14          1           0       -2.148835   -1.438026   -1.046342
     15          1           0       -3.204609   -0.059093   -0.707981
 ---------------------------------------------------------------------

 SCF Done:  E(RHF) =  -345.303745692     A.U. after    2 cycles

 The electronic state is 1-A.
 Alpha  occ. eigenvalues --  -21.10136 -21.06020 -11.51064 -11.45382 -11.41573
 Alpha  occ. eigenvalues --  -11.38862 -11.36709  -1.85478  -1.67378  -1.24296
 Alpha  occ. eigenvalues --   -1.02454  -1.00176  -0.84417  -0.75359  -0.70974
 Alpha  occ. eigenvalues --   -0.65440  -0.60665  -0.58805  -0.55489  -0.55194
 Alpha  occ. eigenvalues --   -0.54430  -0.49674  -0.47337  -0.41622  -0.34715
 Alpha  occ. eigenvalues --   -0.32492  -0.31176
 Alpha virt. eigenvalues --    0.03396   0.05068   0.05515   0.05744   0.06037
 Alpha virt. eigenvalues --    0.06717   0.07609   0.08203   0.09867   0.10832
 Alpha virt. eigenvalues --    0.11967   0.12679   0.13489   0.14236   0.14716

 Mulliken charges:
               1
     1  C   -1.249728
     2  O   -3.083044
     3  C    2.199099
     4  C   -4.285065
     5  C    2.318853
     6  C   -4.479578
     7  O   -2.493629
     8  H    1.113397
     9  H    1.395857
    10  H    1.583116
    11  H    1.617651
    12  H    1.724188
    13  H    1.151281
    14  H    1.166075
    15  H    1.321526
 Sum of Mulliken charges =   0.00000

 Dipole moment (field-independent basis, Debye):
    X=             -1.0713    Y=             -0.1296    Z=              0.9567  Tot=              1.4421

 Test job not archived.
 1\1\GINC-SE097\SP\RHF\Aug-CC-pVDZ\C5H8O2\OHZDE\09-Apr-2025\0\\#t hf au
 g-cc-pvdz iop(5/13=1,5/36=2,99/5=2) pseudo=read geom=check guess=(read
 ,tcheck) scf=(maxcycle=1)\\title\\0,1\C,0,-0.68066834,0.69309502,0.161
 41104\O,0,-0.97617384,0.95656126,-1.20969922\C,0,-0.06482261,1.6463334
 9,-1.89962189\C,0,0.26998054,-1.48069861,-0.58584111\C,0,0.01802913,-0
 .6187475,0.38689152\C,0,0.39560238,-0.85707538,1.81924083\O,0,0.962943
 02,2.08271529,-1.47532289\H,0,-1.6468793,0.69178517,0.67078124\H,0,-0.
 07840639,1.50979146,0.56568\H,0,-0.41351021,1.76248982,-2.93481116\H,0

 Normal termination of Gaussian 16 at Wed Apr  9 19:08:01 2025.
