 Gaussian 16, Revision C.01,

 ----------------------------------------------------------------------
 #t hf aug-cc-pvdz symm=none int=(grid=ultrafine) guess=(read,tcheck) s
 table=(opt,rrhf)
 ----------------------------------------------------------------------
 -----
 title
 -----
 Symbolic Z-matrix:
 Charge =  0 Multiplicity = 1

 SCF Done:  E(RHF) =  -323.743873465     A.U. after   16 cycles
 Normal termination of Gaussian 16 at Wed Apr  9 18:25:32 2025.
 Gaussian 16:  ES64L-G16RevC.01  3-Jul-2019

 ----------------------------------------------------------------------
 #t hf aug-cc-pvdz iop(5/13=1,5/36=2,99/5=2) pseudo=read geom=check gue
 ss=(read,tcheck) scf=(maxcycle=1)
 ----------------------------------------------------------------------
 -----
 title
 -----
 Structure from the checkpoint file:  "Grambow2020_wb97xd3_006975_forward_mol1.chk"
 Charge =  0 Multiplicity = 1

                         Standard orientation:
 ---------------------------------------------------------------------
 Center     Atomic      Atomic             Coordinates (Angstroms)
 Number     Number       Type             X           Y           Z
 ---------------------------------------------------------------------
      1          6           0        0.801379    1.443375    0.124464
      2          6           0       -0.639989    1.210839   -0.262556
      3          6           0       -1.060979   -0.125268    0.345689
      4          8           0       -2.312197   -0.590102   -0.109287
      5          6           0       -0.006112   -1.131302   -0.067124
      6          6           0        1.352496   -0.498821   -0.003065
      7          7           0        2.549640   -0.688343   -0.043997
      8          1           0        2.023932    0.558280   -0.071519
      9          1           0        1.315568    2.159957   -0.522912
     10          1           0        0.921922    1.739157    1.167969
     11          1           0       -0.746620    1.138233   -1.348902
     12          1           0       -1.304249    2.011725    0.079240
     13          1           0       -1.065383   -0.033308    1.441142
     14          1           0       -2.988684    0.037541    0.152444
     15          1           0       -0.197840   -1.441659   -1.097903
     16          1           0        0.010681   -2.023652    0.558279
 ---------------------------------------------------------------------

 SCF Done:  E(RHF) =  -325.287658848     A.U. after    2 cycles

 The electronic state is 1-A.
 Alpha  occ. eigenvalues --  -21.08463 -15.73090 -11.51015 -11.47476 -11.43372
 Alpha  occ. eigenvalues --  -11.40564 -11.36766  -1.73774  -1.39274  -1.23112
 Alpha  occ. eigenvalues --   -1.09391  -0.95250  -0.85239  -0.74302  -0.72010
 Alpha  occ. eigenvalues --   -0.63015  -0.61223  -0.60056  -0.58515  -0.54639
 Alpha  occ. eigenvalues --   -0.50795  -0.49128  -0.47402  -0.42413  -0.41438
 Alpha  occ. eigenvalues --   -0.33039  -0.26735
 Alpha virt. eigenvalues --    0.03558   0.04687   0.05020   0.05263   0.06101
 Alpha virt. eigenvalues --    0.06353   0.06496   0.06890   0.08162   0.11487
 Alpha virt. eigenvalues --    0.12439   0.13250   0.13563   0.13812   0.14257

 Mulliken charges:
               1
     1  C   -3.342086
     2  C   -3.395650
     3  C    2.003095
     4  O   -3.322416
     5  C   -3.976125
     6  C    3.050347
     7  N   -2.915211
     8  H    1.963150
     9  H    1.028318
    10  H    1.176606
    11  H    1.354576
    12  H    1.311836
    13  H    1.693009
    14  H    0.708405
    15  H    1.325018
    16  H    1.337128
 Sum of Mulliken charges =  -0.00000

 Dipole moment (field-independent basis, Debye):
    X=             -2.8042    Y=              0.9848    Z=              0.2763  Tot=              2.9849

 Test job not archived.
 1\1\GINC-SE108\SP\RHF\Aug-CC-pVDZ\C5H9N1O1\OHZDE\09-Apr-2025\0\\#t hf
 aug-cc-pvdz iop(5/13=1,5/36=2,99/5=2) pseudo=read geom=check guess=(re
 ad,tcheck) scf=(maxcycle=1)\\title\\0,1\C,0,1.21013058,0.79099809,0.33
 387436\C,0,0.74780259,-0.62635249,0.57630048\C,0,-0.33964808,-0.928838
 1,-0.45245174\O,0,-1.02766376,-2.13700364,-0.21667495\C,0,-1.33790421,
 0.20720158,-0.36211977\C,0,-0.61354333,1.50661326,-0.17033669\N,0,-0.7
 0952653,2.71547217,-0.15636341\H,0,0.41095004,2.08444352,0.26498135\H,
 0,1.70977172,1.23946663,1.19770843\H,0,1.84426928,0.88922103,-0.548815

 Normal termination of Gaussian 16 at Wed Apr  9 18:25:37 2025.
