 Gaussian 16, Revision C.01,

 ----------------------------------------------------------------------
 #t hf aug-cc-pvdz symm=none int=(grid=ultrafine) guess=(read,tcheck) s
 table=(opt,rrhf)
 ----------------------------------------------------------------------
 -----
 title
 -----
 Symbolic Z-matrix:
 Charge =  0 Multiplicity = 1

 SCF Done:  E(RHF) =  -224.726593697     A.U. after   15 cycles
 Normal termination of Gaussian 16 at Wed Apr  9 16:58:53 2025.
 Gaussian 16:  ES64L-G16RevC.01  3-Jul-2019

 ----------------------------------------------------------------------
 #t hf aug-cc-pvdz iop(5/13=1,5/36=2,99/5=2) pseudo=read geom=check gue
 ss=(read,tcheck) scf=(maxcycle=1)
 ----------------------------------------------------------------------
 -----
 title
 -----
 Structure from the checkpoint file:  "Grambow2020_b97d3_006889_reverse_mol1.chk"
 Charge =  0 Multiplicity = 1

                         Standard orientation:
 ---------------------------------------------------------------------
 Center     Atomic      Atomic             Coordinates (Angstroms)
 Number     Number       Type             X           Y           Z
 ---------------------------------------------------------------------
      1          7           0        0.743846   -0.945057   -0.082398
      2          6           0        1.038191    0.492812   -0.026452
      3          6           0       -0.187387    1.183852    0.004476
      4          6           0       -1.147139    0.168286   -0.005579
      5          7           0       -0.586594   -1.068782    0.002220
      6          1           0        1.207255   -0.331857    0.958367
      7          1           0        2.040124    0.838353   -0.271688
      8          1           0       -0.340616    2.256303    0.029534
      9          1           0       -2.229517    0.264367    0.010358
 ---------------------------------------------------------------------

 SCF Done:  E(RHF) =  -225.776202161     A.U. after    2 cycles

 The electronic state is 1-A.
 Alpha  occ. eigenvalues --  -15.79879 -15.75584 -11.48121 -11.44838 -11.39458
 Alpha  occ. eigenvalues --   -1.59020  -1.17349  -1.14522  -0.83767  -0.80395
 Alpha  occ. eigenvalues --   -0.73011  -0.66068  -0.55583  -0.54112  -0.45807
 Alpha  occ. eigenvalues --   -0.40289  -0.37491  -0.34965
 Alpha virt. eigenvalues --    0.03041   0.05010   0.05423   0.06410   0.09914
 Alpha virt. eigenvalues --    0.10517   0.11044   0.11886   0.12360   0.13479
 Alpha virt. eigenvalues --    0.14427   0.14766   0.16216   0.16342   0.18524

 Mulliken charges:
               1
     1  N   -1.314906
     2  C   -1.424749
     3  C   -0.231980
     4  C   -0.141988
     5  N   -1.764388
     6  H    1.179884
     7  H    1.185512
     8  H    1.145455
     9  H    1.367160
 Sum of Mulliken charges =   0.00000

 Dipole moment (field-independent basis, Debye):
    X=              0.7094    Y=              2.7884    Z=              0.2520  Tot=              2.8883

 Test job not archived.
 1\1\GINC-SE232\SP\RHF\Aug-CC-pVDZ\C3H4N2\OHZDE\09-Apr-2025\0\\#t hf au
 g-cc-pvdz iop(5/13=1,5/36=2,99/5=2) pseudo=read geom=check guess=(read
 ,tcheck) scf=(maxcycle=1)\\title\\0,1\N,0,-1.07813563,-0.89885519,0.32
 290954\C,0,-0.83100211,0.5391849,0.1549748\C,0,0.55095979,0.72024617,-
 0.03979229\C,0,1.06815523,-0.57754967,-0.01093705\N,0,0.09716301,-1.51
 452015,0.14355694\H,0,-1.39677443,-0.21864633,-0.73053294\H,0,-1.60395
 293,1.24707569,0.44625686\H,0,1.08169052,1.65477237,-0.17851568\H,0,2.
 10201253,-0.8931648,-0.12297917\\Version=ES64L-G16RevC.01\State=1-A\HF

 Normal termination of Gaussian 16 at Wed Apr  9 16:58:55 2025.
