 Gaussian 16, Revision C.01,

 ----------------------------------------------------------------------
 #t hf aug-cc-pvdz symm=none int=(grid=ultrafine) guess=(read,tcheck) s
 table=(opt,rrhf)
 ----------------------------------------------------------------------
 -----
 title
 -----
 Symbolic Z-matrix:
 Charge =  0 Multiplicity = 1

 SCF Done:  E(RHF) =  -375.676195933     A.U. after   14 cycles
 Normal termination of Gaussian 16 at Wed Apr  9 03:45:26 2025.
 Gaussian 16:  ES64L-G16RevC.01  3-Jul-2019

 ----------------------------------------------------------------------
 #t hf aug-cc-pvdz iop(5/13=1,5/36=2,99/5=2) pseudo=read geom=check gue
 ss=(read,tcheck) scf=(maxcycle=1)
 ----------------------------------------------------------------------
 -----
 title
 -----
 Structure from the checkpoint file:  "Grambow2020_wb97xd3_007856_forward_mol1.chk"
 Charge =  0 Multiplicity = 1

                         Standard orientation:
 ---------------------------------------------------------------------
 Center     Atomic      Atomic             Coordinates (Angstroms)
 Number     Number       Type             X           Y           Z
 ---------------------------------------------------------------------
      1          7           0       -2.038298   -0.827816    0.040272
      2          6           0       -0.857563   -0.261878    0.113231
      3          8           0        0.129209   -0.985023   -0.303811
      4          6           0       -0.624852    1.185757    0.470976
      5          8           0        0.092323    1.628931   -0.560135
      6          6           0        1.410338   -0.360860   -0.381319
      7          7           0        2.148297   -0.489834    0.612334
      8          1           0       -2.152041   -1.751478   -0.344925
      9          1           0       -2.847001   -0.312630    0.338594
     10          1           0       -0.140667    1.208181    1.475664
     11          1           0       -1.630990    1.642158    0.613005
     12          1           0        1.595751    0.004946   -1.381182
     13          1           0        3.065155   -0.097004    0.424839
 ---------------------------------------------------------------------

 SCF Done:  E(RHF) =  -377.327781732     A.U. after    2 cycles

 The electronic state is 1-A.
 Alpha  occ. eigenvalues --  -21.14277 -20.91898 -15.85217 -15.74291 -11.56620
 Alpha  occ. eigenvalues --  -11.47824 -11.41064  -1.89157  -1.57868  -1.43712
 Alpha  occ. eigenvalues --   -1.32371  -1.03023  -0.92240  -0.81481  -0.75756
 Alpha  occ. eigenvalues --   -0.72039  -0.70788  -0.63389  -0.58997  -0.55046
 Alpha  occ. eigenvalues --   -0.49956  -0.42742  -0.41277  -0.40845  -0.39247
 Alpha  occ. eigenvalues --   -0.22011  -0.21607
 Alpha virt. eigenvalues --    0.02151   0.04383   0.05385   0.06145   0.06945
 Alpha virt. eigenvalues --    0.07263   0.09898   0.11017   0.11358   0.12413
 Alpha virt. eigenvalues --    0.12799   0.14057   0.14905   0.15437   0.15639

 Mulliken charges:
               1
     1  N   -3.150361
     2  C    4.423232
     3  O   -3.753198
     4  C   -0.707232
     5  O   -2.293038
     6  C    2.241524
     7  N   -2.797613
     8  H    0.778821
     9  H    0.571226
    10  H    1.305211
    11  H    1.098014
    12  H    1.594970
    13  H    0.688444
 Sum of Mulliken charges =   0.00000

 Dipole moment (field-independent basis, Debye):
    X=             -3.1850    Y=             -3.8053    Z=             -0.6939  Tot=              5.0106

 Test job not archived.
 1\1\GINC-SE334\SP\RHF\Aug-CC-pVDZ\C3H6N2O2\OHZDE\09-Apr-2025\0\\#t hf
 aug-cc-pvdz iop(5/13=1,5/36=2,99/5=2) pseudo=read geom=check guess=(re
 ad,tcheck) scf=(maxcycle=1)\\title\\0,1\N,0,-2.1170633,-0.16857453,-0.
 20419947\C,0,-0.8125555,-0.12128796,-0.07863078\O,0,-0.25393028,0.9605
 8465,-0.51230374\C,0,0.01038736,-1.13733319,0.67515862\O,0,0.68333482,
 -0.38211315,1.54159867\C,0,1.14241052,1.12026971,-0.26408709\N,0,1.910
 58753,0.73850958,-1.16560071\H,0,-2.63352343,0.60676092,-0.58706999\H,
 0,-2.6111422,-0.97859348,0.12469018\H,0,0.60744402,-1.70710858,-0.0753

 Normal termination of Gaussian 16 at Wed Apr  9 03:45:31 2025.
