 Gaussian 16, Revision C.01,

 ----------------------------------------------------------------------
 #t hf aug-cc-pvdz symm=none int=(grid=ultrafine) guess=(read,tcheck) s
 table=(opt,rrhf)
 ----------------------------------------------------------------------
 -----
 title
 -----
 Symbolic Z-matrix:
 Charge =  0 Multiplicity = 1

 SCF Done:  E(RHF) =  -305.676642612     A.U. after   15 cycles
 Normal termination of Gaussian 16 at Wed Apr  9 17:51:51 2025.
 Gaussian 16:  ES64L-G16RevC.01  3-Jul-2019

 ----------------------------------------------------------------------
 #t hf aug-cc-pvdz iop(5/13=1,5/36=2,99/5=2) pseudo=read geom=check gue
 ss=(read,tcheck) scf=(maxcycle=1)
 ----------------------------------------------------------------------
 -----
 title
 -----
 Structure from the checkpoint file:  "Grambow2020_wb97xd3_006216_forward_mol1.chk"
 Charge =  0 Multiplicity = 1

                         Standard orientation:
 ---------------------------------------------------------------------
 Center     Atomic      Atomic             Coordinates (Angstroms)
 Number     Number       Type             X           Y           Z
 ---------------------------------------------------------------------
      1          6           0       -2.181844   -0.219222    0.235543
      2          8           0       -0.906944   -0.551546   -0.267394
      3          6           0       -0.119933    0.555666   -0.564993
      4          6           0        0.623358    1.260626    0.528135
      5          6           0        1.366372    0.402675   -0.449475
      6          8           0        1.606867   -1.141440    0.312771
      7          1           0       -2.760139    0.347497   -0.502829
      8          1           0       -2.102095    0.372754    1.153233
      9          1           0       -2.697789   -1.153473    0.451848
     10          1           0       -0.469894    1.131112   -1.420854
     11          1           0        0.515068    0.861666    1.529479
     12          1           0        0.780137    2.331531    0.475065
     13          1           0        2.163658   -0.708869   -0.519540
     14          1           0        0.843952   -1.636798   -0.024681
 ---------------------------------------------------------------------

 SCF Done:  E(RHF) =  -307.079813807     A.U. after    2 cycles

 The electronic state is 1-A.
 Alpha  occ. eigenvalues --  -21.10369 -21.06402 -11.44972 -11.42729 -11.41159
 Alpha  occ. eigenvalues --  -11.37528  -1.78997  -1.71451  -1.24854  -1.00020
 Alpha  occ. eigenvalues --   -0.84734  -0.80553  -0.71058  -0.66478  -0.61136
 Alpha  occ. eigenvalues --   -0.59178  -0.57594  -0.52277  -0.50517  -0.41302
 Alpha  occ. eigenvalues --   -0.39778  -0.37461  -0.33066  -0.27157
 Alpha virt. eigenvalues --    0.03893   0.05295   0.05551   0.05794   0.06173
 Alpha virt. eigenvalues --    0.06689   0.07252   0.07569   0.10955   0.11639
 Alpha virt. eigenvalues --    0.12675   0.13073   0.13963   0.15103   0.15428

 Mulliken charges:
               1
     1  C   -2.884621
     2  O   -3.364031
     3  C    1.189109
     4  C   -2.537341
     5  C   -0.675914
     6  O   -2.185433
     7  H    1.322712
     8  H    1.318372
     9  H    1.258138
    10  H    1.461785
    11  H    1.433754
    12  H    1.251338
    13  H    1.485148
    14  H    0.926984
 Sum of Mulliken charges =  -0.00000

 Dipole moment (field-independent basis, Debye):
    X=             -1.4837    Y=             -1.4317    Z=              1.1881  Tot=              2.3797

 Test job not archived.
 1\1\GINC-SE030\SP\RHF\Aug-CC-pVDZ\C4H8O2\OHZDE\09-Apr-2025\0\\#t hf au
 g-cc-pvdz iop(5/13=1,5/36=2,99/5=2) pseudo=read geom=check guess=(read
 ,tcheck) scf=(maxcycle=1)\\title\\0,1\C,0,1.6484805,-0.4038364,-1.0492
 4921\O,0,0.34747458,0.13430903,-0.96838259\C,0,-0.48857777,-0.55859268
 ,-0.09960581\C,0,-0.41568147,-0.29987467,1.37420812\C,0,-1.57753509,0.
 21421331,0.58068444\O,0,-1.24543925,1.88226903,0.21950341\H,0,1.626501
 21,-1.42870604,-1.4364808\H,0,2.13639067,-0.40586299,-0.06899954\H,0,2
 .2162172,0.22410877,-1.7342092\H,0,-0.76268752,-1.55357819,-0.44742412

 Normal termination of Gaussian 16 at Wed Apr  9 17:51:55 2025.
