 Gaussian 16, Revision C.01,

 ----------------------------------------------------------------------
 #t hf aug-cc-pvdz symm=none int=(grid=ultrafine) guess=(read,tcheck) s
 table=(opt,rrhf)
 ----------------------------------------------------------------------
 -----
 title
 -----
 Symbolic Z-matrix:
 Charge =  0 Multiplicity = 1

 SCF Done:  E(RHF) =  -338.539293576     A.U. after   19 cycles
 Normal termination of Gaussian 16 at Wed Apr  9 19:18:00 2025.
 Gaussian 16:  ES64L-G16RevC.01  3-Jul-2019

 ----------------------------------------------------------------------
 #t hf aug-cc-pvdz iop(5/13=1,5/36=2,99/5=2) pseudo=read geom=check gue
 ss=(read,tcheck) scf=(maxcycle=1)
 ----------------------------------------------------------------------
 -----
 title
 -----
 Structure from the checkpoint file:  "Grambow2020_wb97xd3_008564_forward_mol1.chk"
 Charge =  0 Multiplicity = 1

                         Standard orientation:
 ---------------------------------------------------------------------
 Center     Atomic      Atomic             Coordinates (Angstroms)
 Number     Number       Type             X           Y           Z
 ---------------------------------------------------------------------
      1          7           0        2.403103    1.095793   -0.094042
      2          6           0        2.351790   -0.149452   -0.033501
      3          8           0        1.164955   -0.832010    0.067302
      4          6           0        0.021310   -0.148265    0.176737
      5          6           0       -1.211271   -0.859000   -0.161491
      6          6           0       -2.191519    0.268562    0.207297
      7          7           0       -3.195718    0.737768   -0.217379
      8          1           0        3.358575    1.427137   -0.156189
      9          1           0        3.168484   -0.868573   -0.041603
     10          1           0        0.108638    0.926138    0.117012
     11          1           0       -1.521859    0.610669    1.166587
     12          1           0       -1.197227   -1.337543   -1.152304
     13          1           0       -1.509814   -1.607745    0.573775
 ---------------------------------------------------------------------

 SCF Done:  E(RHF) =  -340.065802531     A.U. after    2 cycles

 The electronic state is 1-A.
 Alpha  occ. eigenvalues --  -21.17739 -15.79026 -15.70275 -11.54430 -11.51681
 Alpha  occ. eigenvalues --  -11.46023 -11.39256  -1.90063  -1.37389  -1.30745
 Alpha  occ. eigenvalues --   -1.16149  -0.97209  -0.86154  -0.78085  -0.76069
 Alpha  occ. eigenvalues --   -0.67478  -0.63773  -0.59154  -0.58351  -0.53785
 Alpha  occ. eigenvalues --   -0.48690  -0.46655  -0.44194  -0.43251  -0.38918
 Alpha  occ. eigenvalues --   -0.23159
 Alpha virt. eigenvalues --    0.00756   0.02194   0.04163   0.05056   0.06174
 Alpha virt. eigenvalues --    0.06905   0.08289   0.08595   0.09571   0.09972
 Alpha virt. eigenvalues --    0.11725   0.12548   0.13038   0.14393   0.14595

 Mulliken charges:
               1
     1  N   -2.705361
     2  C    1.791741
     3  O   -3.575111
     4  C    1.458625
     5  C   -3.802055
     6  C    2.083765
     7  N   -2.881059
     8  H    0.826970
     9  H    1.776497
    10  H    1.514321
    11  H    0.910389
    12  H    1.221923
    13  H    1.379355
 Sum of Mulliken charges =   0.00000

 Dipole moment (field-independent basis, Debye):
    X=              7.6192    Y=             -2.9663    Z=             -0.2380  Tot=              8.1797

 Test job not archived.
 1\1\GINC-SE083\SP\RHF\Aug-CC-pVDZ\C4H6N2O1\OHZDE\09-Apr-2025\0\\#t hf
 aug-cc-pvdz iop(5/13=1,5/36=2,99/5=2) pseudo=read geom=check guess=(re
 ad,tcheck) scf=(maxcycle=1)\\title\\0,1\N,0,-2.29784218,0.55198311,-0.
 91526369\C,0,-2.18995119,0.13097758,0.25437191\O,0,-0.97946523,-0.2136
 2131,0.80264217\C,0,0.12129011,-0.16860908,0.04519886\C,0,1.40462953,-
 0.1035469,0.74348499\C,0,2.30568675,-0.17093033,-0.50224461\N,0,3.3092
 7196,0.32849441,-0.89251699\H,0,-3.26291125,0.74799973,-1.15358403\H,0
 ,-2.96896742,-0.0350537,0.99582782\H,0,-0.01428721,0.20362554,-0.95908

 Normal termination of Gaussian 16 at Wed Apr  9 19:18:04 2025.
