 Gaussian 16, Revision C.01,

 ----------------------------------------------------------------------
 #t hf aug-cc-pvdz symm=none int=(grid=ultrafine) guess=(read,tcheck) s
 table=(opt,rrhf)
 ----------------------------------------------------------------------
 -----
 title
 -----
 Symbolic Z-matrix:
 Charge =  0 Multiplicity = 1

 SCF Done:  E(RHF) =  -323.726951261     A.U. after   15 cycles
 Normal termination of Gaussian 16 at Wed Apr  9 18:41:43 2025.
 Gaussian 16:  ES64L-G16RevC.01  3-Jul-2019

 ----------------------------------------------------------------------
 #t hf aug-cc-pvdz iop(5/13=1,5/36=2,99/5=2) pseudo=read geom=check gue
 ss=(read,tcheck) scf=(maxcycle=1)
 ----------------------------------------------------------------------
 -----
 title
 -----
 Structure from the checkpoint file:  "Grambow2020_wb97xd3_007535_reverse_mol1.chk"
 Charge =  0 Multiplicity = 1

                         Standard orientation:
 ---------------------------------------------------------------------
 Center     Atomic      Atomic             Coordinates (Angstroms)
 Number     Number       Type             X           Y           Z
 ---------------------------------------------------------------------
      1          6           0       -2.805874   -0.389585    0.016928
      2          8           0       -1.641868    0.126442   -0.276197
      3          6           0       -0.505688   -0.480543   -0.082996
      4          6           0        0.717436    0.326838   -0.428390
      5          6           0        0.760353    1.690032    0.272257
      6          6           0        1.907025   -0.464102   -0.097376
      7          7           0        2.841803   -1.075893    0.161395
      8          1           0       -3.633936    0.283445   -0.140906
      9          1           0       -2.004388   -0.678283    1.760610
     10          1           0       -2.926721   -1.464342   -0.035293
     11          1           0       -0.485902   -1.563102   -0.144403
     12          1           0       -1.203612   -0.717187    1.742630
     13          1           0        0.759248    0.490666   -1.514279
     14          1           0        1.641725    2.252067   -0.036094
     15          1           0       -0.128364    2.263008    0.011374
     16          1           0        0.784759    1.557609    1.353633
 ---------------------------------------------------------------------

 SCF Done:  E(RHF) =  -325.282600560     A.U. after    2 cycles

 The electronic state is 1-A.
 Alpha  occ. eigenvalues --  -21.18697 -15.76006 -11.50343 -11.45976 -11.43641
 Alpha  occ. eigenvalues --  -11.42983 -11.39775  -1.89293  -1.33733  -1.22064
 Alpha  occ. eigenvalues --   -1.04014  -0.96824  -0.85902  -0.74142  -0.69786
 Alpha  occ. eigenvalues --   -0.68079  -0.65200  -0.61629  -0.58164  -0.54585
 Alpha  occ. eigenvalues --   -0.52901  -0.50104  -0.48707  -0.44024  -0.43210
 Alpha  occ. eigenvalues --   -0.42609  -0.29603
 Alpha virt. eigenvalues --    0.03526   0.04369   0.04868   0.05315   0.06098
 Alpha virt. eigenvalues --    0.06574   0.07099   0.08053   0.08856   0.09124
 Alpha virt. eigenvalues --    0.10366   0.11649   0.12340   0.13015   0.13900

 Mulliken charges:
               1
     1  C   -2.090646
     2  O   -3.521784
     3  C    1.543279
     4  C   -2.475141
     5  C   -3.831712
     6  C    2.781983
     7  N   -2.636991
     8  H    1.562917
     9  H    0.395115
    10  H    1.402127
    11  H    1.760363
    12  H   -0.437816
    13  H    1.568249
    14  H    1.232057
    15  H    1.337875
    16  H    1.410127
 Sum of Mulliken charges =  -0.00000

 Dipole moment (field-independent basis, Debye):
    X=             -3.1226    Y=              1.7436    Z=             -1.7310  Tot=              3.9733

 Test job not archived.
 1\1\GINC-SE029\SP\RHF\Aug-CC-pVDZ\C5H9N1O1\OHZDE\09-Apr-2025\0\\#t hf
 aug-cc-pvdz iop(5/13=1,5/36=2,99/5=2) pseudo=read geom=check guess=(re
 ad,tcheck) scf=(maxcycle=1)\\title\\0,1\C,0,2.40756695,0.5872739,0.171
 73589\O,0,1.10658649,0.70742319,0.18314822\C,0,0.28751476,-0.26073166,
 0.48057243\C,0,-1.17448749,0.07971354,0.36292795\C,0,-1.55560168,0.644
 64734,-1.0106256\C,0,-1.95883565,-1.1217943,0.66534156\N,0,-2.57865563
 ,-2.05809734,0.89819651\H,0,2.92446994,1.47017205,-0.17012701\H,0,2.04
 744719,-0.93176308,-0.98108434\H,0,2.87103774,-0.11799955,0.85012924\H

 Normal termination of Gaussian 16 at Wed Apr  9 18:41:49 2025.
