 Gaussian 16, Revision C.01,

 ----------------------------------------------------------------------
 #t hf aug-cc-pvdz symm=none int=(grid=ultrafine) guess=(read,tcheck) s
 table=(opt,rrhf)
 ----------------------------------------------------------------------
 -----
 title
 -----
 Symbolic Z-matrix:
 Charge =  0 Multiplicity = 1

 SCF Done:  E(RHF) =  -245.675833347     A.U. after   14 cycles
 Normal termination of Gaussian 16 at Wed Apr  9 17:42:15 2025.
 Gaussian 16:  ES64L-G16RevC.01  3-Jul-2019

 ----------------------------------------------------------------------
 #t hf aug-cc-pvdz iop(5/13=1,5/36=2,99/5=2) pseudo=read geom=check gue
 ss=(read,tcheck) scf=(maxcycle=1)
 ----------------------------------------------------------------------
 -----
 title
 -----
 Structure from the checkpoint file:  "Grambow2020_wb97xd3_006122_reverse_mol1.chk"
 Charge =  0 Multiplicity = 1

                         Standard orientation:
 ---------------------------------------------------------------------
 Center     Atomic      Atomic             Coordinates (Angstroms)
 Number     Number       Type             X           Y           Z
 ---------------------------------------------------------------------
      1          6           0       -1.031800   -0.548028   -0.173664
      2          6           0       -0.706849    0.927024   -0.149075
      3          7           0        0.726660    1.018109    0.163178
      4          6           0        1.138357   -0.162907    0.077109
      5          8           0        0.194700   -1.141068   -0.196200
      6          1           0       -1.299754   -0.625820    1.528453
      7          1           0       -1.724200   -0.982175    0.847314
      8          1           0       -0.849952    1.309012   -1.166558
      9          1           0       -1.322151    1.526828    0.515728
     10          1           0        2.153593   -0.522592    0.176196
 ---------------------------------------------------------------------

 SCF Done:  E(RHF) =  -246.796707671     A.U. after    2 cycles

 The electronic state is 1-A.
 Alpha  occ. eigenvalues --  -21.11725 -15.74311 -11.46583 -11.46338 -11.40539
 Alpha  occ. eigenvalues --   -1.85917  -1.37690  -1.11320  -0.87011  -0.83484
 Alpha  occ. eigenvalues --   -0.72667  -0.68117  -0.60471  -0.55497  -0.51516
 Alpha  occ. eigenvalues --   -0.45367  -0.39813  -0.36845  -0.32013
 Alpha virt. eigenvalues --    0.03310   0.05261   0.05759   0.06264   0.07056
 Alpha virt. eigenvalues --    0.10052   0.10116   0.10235   0.10858   0.12278
 Alpha virt. eigenvalues --    0.13943   0.15240   0.15647   0.16592   0.16975

 Mulliken charges:
               1
     1  C    0.095218
     2  C   -2.119969
     3  N   -2.504613
     4  C    2.116158
     5  O   -2.868811
     6  H    0.305720
     7  H    0.518767
     8  H    1.428598
     9  H    1.367961
    10  H    1.660971
 Sum of Mulliken charges =  -0.00000

 Dipole moment (field-independent basis, Debye):
    X=              0.3792    Y=             -0.4336    Z=              0.2483  Tot=              0.6273

 Test job not archived.
 1\1\GINC-SE045\SP\RHF\Aug-CC-pVDZ\C3H5N1O1\OHZDE\09-Apr-2025\0\\#t hf
 aug-cc-pvdz iop(5/13=1,5/36=2,99/5=2) pseudo=read geom=check guess=(re
 ad,tcheck) scf=(maxcycle=1)\\title\\0,1\C,0,-0.70815405,-0.50192964,-0
 .60513538\C,0,-0.56061626,0.81687215,0.116647\N,0,0.86372591,0.9293744
 4,0.46210021\C,0,1.40926642,-0.01138063,-0.16165264\O,0,0.57823828,-0.
 85648168,-0.88080509\H,0,-0.89269229,-1.40163045,0.85484416\H,0,-1.300
 05506,-1.44688379,0.07824819\H,0,-0.79114129,1.61008787,-0.60400055\H,
 0,-1.21436294,0.95260297,0.97368792\H,0,2.46341728,-0.24535624,-0.2242

 Normal termination of Gaussian 16 at Wed Apr  9 17:42:19 2025.
