 Gaussian 16, Revision C.01,

 ----------------------------------------------------------------------
 #t hf aug-cc-pvdz symm=none int=(grid=ultrafine) guess=(read,tcheck) s
 table=(opt,rrhf)
 ----------------------------------------------------------------------
 -----
 title
 -----
 Symbolic Z-matrix:
 Charge =  0 Multiplicity = 1

 SCF Done:  E(RHF) =  -268.820305522     A.U. after   14 cycles
 Normal termination of Gaussian 16 at Wed Apr  9 17:16:19 2025.
 Gaussian 16:  ES64L-G16RevC.01  3-Jul-2019

 ----------------------------------------------------------------------
 #t hf aug-cc-pvdz iop(5/13=1,5/36=2,99/5=2) pseudo=read geom=check gue
 ss=(read,tcheck) scf=(maxcycle=1)
 ----------------------------------------------------------------------
 -----
 title
 -----
 Structure from the checkpoint file:  "Grambow2020_b97d3_007086_forward_mol2.chk"
 Charge =  0 Multiplicity = 1

                         Standard orientation:
 ---------------------------------------------------------------------
 Center     Atomic      Atomic             Coordinates (Angstroms)
 Number     Number       Type             X           Y           Z
 ---------------------------------------------------------------------
      1          6           0        1.954401   -0.907131    0.119354
      2          6           0        1.200639    0.334185   -0.365746
      3          6           0       -0.145698    0.536664    0.350090
      4          8           0       -0.669708    1.794146   -0.099450
      5          6           0       -1.084789   -0.566931    0.088446
      6          6           0       -1.884455   -1.458617   -0.131093
      7          1           0        2.158460   -0.851487    1.198913
      8          1           0        2.917009   -1.003234   -0.400631
      9          1           0        1.371975   -1.819235   -0.068734
     10          1           0        1.005125    0.275363   -1.445377
     11          1           0        1.793344    1.242993   -0.187539
     12          1           0        0.045687    0.566629    1.441534
     13          1           0       -1.589765    1.850756    0.219935
     14          1           0       -2.584752   -2.243979   -0.328803
 ---------------------------------------------------------------------

 SCF Done:  E(RHF) =  -270.090956153     A.U. after    2 cycles

 The electronic state is 1-A.
 Alpha  occ. eigenvalues --  -21.07521 -11.48946 -11.42466 -11.41968 -11.39892
 Alpha  occ. eigenvalues --  -11.36280  -1.71710  -1.21209  -1.09599  -0.97747
 Alpha  occ. eigenvalues --   -0.86732  -0.74178  -0.66534  -0.64009  -0.59863
 Alpha  occ. eigenvalues --   -0.57361  -0.49334  -0.47814  -0.47224  -0.44310
 Alpha  occ. eigenvalues --   -0.37397  -0.36291  -0.32631
 Alpha virt. eigenvalues --    0.03477   0.04800   0.05631   0.05940   0.06313
 Alpha virt. eigenvalues --    0.06716   0.07583   0.07934   0.10097   0.11216
 Alpha virt. eigenvalues --    0.12166   0.12446   0.13718   0.14262   0.15137

 Mulliken charges:
               1
     1  C   -3.467083
     2  C   -3.421120
     3  C    0.254654
     4  O   -2.974888
     5  C    4.437491
     6  C   -4.266756
     7  H    1.221540
     8  H    1.127625
     9  H    1.334610
    10  H    1.366344
    11  H    1.254507
    12  H    1.568179
    13  H    0.752410
    14  H    0.812487
 Sum of Mulliken charges =  -0.00000

 Dipole moment (field-independent basis, Debye):
    X=              0.0273    Y=             -0.2043    Z=              0.2199  Tot=              0.3014

 Test job not archived.
 1\1\GINC-SE229\SP\RHF\Aug-CC-pVDZ\C5H8O1\OHZDE\09-Apr-2025\0\\#t hf au
 g-cc-pvdz iop(5/13=1,5/36=2,99/5=2) pseudo=read geom=check guess=(read
 ,tcheck) scf=(maxcycle=1)\\title\\0,1\C,0,-1.43518525,1.07035201,-0.27
 31692\C,0,-1.01070193,-0.37021702,0.02502696\C,0,0.44229682,-0.4778547
 8,0.51823035\O,0,0.65550434,-1.84816989,0.88526467\C,0,1.40835533,-0.0
 3247429,-0.4999252\C,0,2.22565384,0.31162044,-1.3344241\H,0,-1.3408235
 2,1.70542451,0.62011892\H,0,-2.48259969,1.10508975,-0.60172895\H,0,-0.
 81362867,1.50713874,-1.06652686\H,0,-1.11281455,-1.00056737,-0.8691319

 Normal termination of Gaussian 16 at Wed Apr  9 17:16:23 2025.
