 Gaussian 16, Revision C.01,

 ----------------------------------------------------------------------
 #t hf aug-cc-pvdz symm=none int=(grid=ultrafine) guess=(read,tcheck) s
 table=(opt,rrhf)
 ----------------------------------------------------------------------
 -----
 title
 -----
 Symbolic Z-matrix:
 Charge =  0 Multiplicity = 1

 SCF Done:  E(RHF) =  -322.556726752     A.U. after   16 cycles
 Normal termination of Gaussian 16 at Wed Apr  9 18:55:48 2025.
 Gaussian 16:  ES64L-G16RevC.01  3-Jul-2019

 ----------------------------------------------------------------------
 #t hf aug-cc-pvdz iop(5/13=1,5/36=2,99/5=2) pseudo=read geom=check gue
 ss=(read,tcheck) scf=(maxcycle=1)
 ----------------------------------------------------------------------
 -----
 title
 -----
 Structure from the checkpoint file:  "Grambow2020_wb97xd3_007798_forward_mol1.chk"
 Charge =  0 Multiplicity = 1

                         Standard orientation:
 ---------------------------------------------------------------------
 Center     Atomic      Atomic             Coordinates (Angstroms)
 Number     Number       Type             X           Y           Z
 ---------------------------------------------------------------------
      1          6           0       -1.984909   -0.429078    0.549412
      2          6           0       -1.082184   -0.305651   -0.525984
      3          6           0       -0.696144    1.030804   -0.585765
      4          7           0        0.449267    1.216094    0.108754
      5          6           0        1.156530   -0.048277    0.033201
      6          8           0        2.299191   -0.188357    0.333958
      7          6           0        0.179860   -1.115040   -0.467470
      8          1           0       -2.211116   -1.405242    0.968128
      9          1           0       -2.794828    0.290644    0.643060
     10          1           0       -1.044722    0.110761    1.491144
     11          1           0       -1.398879    1.855430   -0.644513
     12          1           0       -0.185007    0.789704    1.307412
     13          1           0        0.152629   -1.958621    0.222827
     14          1           0        0.504610   -1.485020   -1.441374
 ---------------------------------------------------------------------

 SCF Done:  E(RHF) =  -324.089024184     A.U. after    2 cycles

 The electronic state is 1-A.
 Alpha  occ. eigenvalues --  -21.06006 -15.76847 -11.51786 -11.47776 -11.45459
 Alpha  occ. eigenvalues --  -11.44650 -11.39448  -1.73103  -1.48931  -1.20762
 Alpha  occ. eigenvalues --   -1.08704  -0.96736  -0.82256  -0.75479  -0.71993
 Alpha  occ. eigenvalues --   -0.66654  -0.64247  -0.59026  -0.56545  -0.51520
 Alpha  occ. eigenvalues --   -0.50185  -0.48765  -0.42830  -0.38315  -0.33897
 Alpha  occ. eigenvalues --   -0.27783
 Alpha virt. eigenvalues --    0.03212   0.04526   0.04924   0.05525   0.06755
 Alpha virt. eigenvalues --    0.07021   0.07293   0.07963   0.08947   0.10710
 Alpha virt. eigenvalues --    0.11107   0.12257   0.12868   0.13554   0.13851

 Mulliken charges:
               1
     1  C   -2.851208
     2  C    0.003636
     3  C   -0.171519
     4  N   -2.373929
     5  C    4.727536
     6  O   -3.314977
     7  C   -3.516492
     8  H    1.340598
     9  H    1.195175
    10  H    0.663072
    11  H    1.543786
    12  H    0.010076
    13  H    1.368395
    14  H    1.375851
 Sum of Mulliken charges =  -0.00000

 Dipole moment (field-independent basis, Debye):
    X=             -2.8561    Y=             -0.8098    Z=             -0.2516  Tot=              2.9793

 Test job not archived.
 1\1\GINC-SE104\SP\RHF\Aug-CC-pVDZ\C5H7N1O1\OHZDE\09-Apr-2025\0\\#t hf
 aug-cc-pvdz iop(5/13=1,5/36=2,99/5=2) pseudo=read geom=check guess=(re
 ad,tcheck) scf=(maxcycle=1)\\title\\0,1\C,0,-1.46466466,0.62004059,-0.
 03315529\C,0,-0.3168329,0.31671142,-0.7928245\C,0,0.71192082,1.1290591
 7,-0.32328262\N,0,1.43065134,0.47383616,0.61627291\C,0,1.32400027,-0.9
 3199917,0.27448953\O,0,2.01120222,-1.78276829,0.74320673\C,0,0.1932973
 4,-1.09350333,-0.74431658\H,0,-2.31068666,-0.0607306,-0.01949276\H,0,-
 1.73326054,1.66226578,0.12292433\H,0,-0.80394623,0.33112652,1.2087046\

 Normal termination of Gaussian 16 at Wed Apr  9 18:55:53 2025.
