 Gaussian 16, Revision C.01,

 ----------------------------------------------------------------------
 #t hf aug-cc-pvdz symm=none int=(grid=ultrafine) guess=(read,tcheck) s
 table=(opt,rrhf)
 ----------------------------------------------------------------------
 -----
 title
 -----
 Symbolic Z-matrix:
 Charge =  0 Multiplicity = 1

 SCF Done:  E(RHF) =  -224.714340124     A.U. after   15 cycles
 Normal termination of Gaussian 16 at Wed Apr  9 16:58:59 2025.
 Gaussian 16:  ES64L-G16RevC.01  3-Jul-2019

 ----------------------------------------------------------------------
 #t hf aug-cc-pvdz iop(5/13=1,5/36=2,99/5=2) pseudo=read geom=check gue
 ss=(read,tcheck) scf=(maxcycle=1)
 ----------------------------------------------------------------------
 -----
 title
 -----
 Structure from the checkpoint file:  "Grambow2020_b97d3_006893_reverse_mol2.chk"
 Charge =  0 Multiplicity = 1

                         Standard orientation:
 ---------------------------------------------------------------------
 Center     Atomic      Atomic             Coordinates (Angstroms)
 Number     Number       Type             X           Y           Z
 ---------------------------------------------------------------------
      1          7           0       -0.699750    0.831415    0.046618
      2          6           0       -1.065357   -0.501411    0.010366
      3          6           0        0.032766   -1.376996   -0.000779
      4          6           0        1.090341   -0.449587   -0.005569
      5          7           0        0.658498    0.864932   -0.050183
      6          1           0       -1.217269    1.669077   -0.226155
      7          1           0       -2.138997   -0.694302   -0.009959
      8          1           0        1.130839    1.722615    0.238945
      9          1           0        2.167697   -0.603852   -0.001980
 ---------------------------------------------------------------------

 SCF Done:  E(RHF) =  -225.749143391     A.U. after    2 cycles

 The electronic state is 1-A.
 Alpha  occ. eigenvalues --  -15.82888 -15.82153 -11.44091 -11.42058 -11.30476
 Alpha  occ. eigenvalues --   -1.62285  -1.21330  -1.13304  -0.86369  -0.80450
 Alpha  occ. eigenvalues --   -0.76997  -0.64204  -0.59667  -0.58503  -0.48756
 Alpha  occ. eigenvalues --   -0.37169  -0.31613  -0.28584
 Alpha virt. eigenvalues --    0.02490   0.04255   0.05069   0.06326   0.10241
 Alpha virt. eigenvalues --    0.10543   0.10980   0.13015   0.13729   0.14923
 Alpha virt. eigenvalues --    0.16115   0.16212   0.16792   0.16835   0.17193

 Mulliken charges:
               1
     1  N   -2.037755
     2  C    0.619293
     3  C   -1.708249
     4  C    0.594958
     5  N   -2.046533
     6  H    0.806096
     7  H    1.481333
     8  H    0.800959
     9  H    1.489897
 Sum of Mulliken charges =   0.00000

 Dipole moment (field-independent basis, Debye):
    X=             -0.1809    Y=              7.1123    Z=              0.0103  Tot=              7.1146

 Test job not archived.
 1\1\GINC-SE113\SP\RHF\Aug-CC-pVDZ\C3H4N2\OHZDE\09-Apr-2025\0\\#t hf au
 g-cc-pvdz iop(5/13=1,5/36=2,99/5=2) pseudo=read geom=check guess=(read
 ,tcheck) scf=(maxcycle=1)\\title\\0,1\N,0,-0.84970358,-0.31809329,-0.3
 7886323\C,0,-0.79202669,0.88405402,0.30152176\C,0,0.5014117,1.21036718
 ,0.74104814\C,0,1.20827881,0.07862231,0.29599919\N,0,0.39535229,-0.865
 81858,-0.30700986\H,0,-1.63698168,-0.94631755,-0.55043536\H,0,-1.74222
 732,1.4090194,0.41039531\H,0,0.62627353,-1.60139639,-0.97628043\H,0,2.
 26490293,-0.1712371,0.37097847\\Version=ES64L-G16RevC.01\State=1-A\HF=

 Normal termination of Gaussian 16 at Wed Apr  9 16:59:03 2025.
