 Gaussian 16, Revision C.01,

 ----------------------------------------------------------------------
 #t hf aug-cc-pvdz symm=none int=(grid=ultrafine) guess=(read,tcheck) s
 table=(opt,rrhf)
 ----------------------------------------------------------------------
 -----
 title
 -----
 Symbolic Z-matrix:
 Charge =  0 Multiplicity = 1

 SCF Done:  E(RHF) =  -320.563189863     A.U. after   15 cycles
 Normal termination of Gaussian 16 at Wed Apr  9 17:24:09 2025.
 Gaussian 16:  ES64L-G16RevC.01  3-Jul-2019

 ----------------------------------------------------------------------
 #t hf aug-cc-pvdz iop(5/13=1,5/36=2,99/5=2) pseudo=read geom=check gue
 ss=(read,tcheck) scf=(maxcycle=1)
 ----------------------------------------------------------------------
 -----
 title
 -----
 Structure from the checkpoint file:  "Grambow2020_b97d3_007130_reverse_mol1.chk"
 Charge =  0 Multiplicity = 1

                         Standard orientation:
 ---------------------------------------------------------------------
 Center     Atomic      Atomic             Coordinates (Angstroms)
 Number     Number       Type             X           Y           Z
 ---------------------------------------------------------------------
      1          6           0        2.033599   -0.963099   -0.002218
      2          7           0        0.624144   -0.580589    0.002081
      3          6           0        0.183961    0.691043    0.003348
      4          8           0        0.838167    1.725808    0.000025
      5          6           0       -2.057491    0.320765   -0.003255
      6          8           0       -2.188551   -0.863123    0.000730
      7          1           0        2.618668   -0.037453   -0.032756
      8          1           0        2.295113   -1.526442    0.905356
      9          1           0        2.274237   -1.573033   -0.884892
     10          1           0       -0.088787   -1.306774    0.009282
     11          1           0       -1.625581    1.314079   -0.004845
 ---------------------------------------------------------------------

 SCF Done:  E(RHF) =  -321.979862897     A.U. after    2 cycles

 The electronic state is 1-A.
 Alpha  occ. eigenvalues --  -21.17353 -21.02997 -15.76288 -11.56739 -11.45625
 Alpha  occ. eigenvalues --  -11.39963  -1.78889  -1.68160  -1.38115  -1.01631
 Alpha  occ. eigenvalues --   -0.93355  -0.77484  -0.67107  -0.62056  -0.61269
 Alpha  occ. eigenvalues --   -0.56596  -0.54065  -0.52607  -0.50075  -0.48390
 Alpha  occ. eigenvalues --   -0.41863  -0.30501  -0.20435
 Alpha virt. eigenvalues --    0.03398   0.04742   0.06014   0.06785   0.07664
 Alpha virt. eigenvalues --    0.07817   0.08680   0.10977   0.11359   0.12684
 Alpha virt. eigenvalues --    0.12893   0.13600   0.13970   0.14952   0.16543

 Mulliken charges:
               1
     1  C   -3.169392
     2  N   -2.474320
     3  C    3.488330
     4  O   -2.776023
     5  C    0.022177
     6  O   -2.015339
     7  H    1.331383
     8  H    1.309075
     9  H    1.305727
    10  H    0.820988
    11  H    2.157396
 Sum of Mulliken charges =  -0.00000

 Dipole moment (field-independent basis, Debye):
    X=             -0.8298    Y=             -2.5183    Z=             -0.0014  Tot=              2.6515

 Test job not archived.
 1\1\GINC-SE112\SP\RHF\Aug-CC-pVDZ\C3H5N1O2\OHZDE\09-Apr-2025\0\\#t hf
 aug-cc-pvdz iop(5/13=1,5/36=2,99/5=2) pseudo=read geom=check guess=(re
 ad,tcheck) scf=(maxcycle=1)\\title\\0,1\C,0,-1.03376109,1.39751331,-0.
 02329575\N,0,-0.0000422,0.36654148,-0.06096394\C,0,-0.21563696,-0.9332
 163,0.21282254\O,0,-1.26223761,-1.48370774,0.52955784\C,0,1.88280386,-
 1.74456982,-0.10262753\O,0,2.5495256,-0.80496936,-0.40497738\H,0,-1.97
 556185,0.9003732,0.23345376\H,0,-0.80777106,2.15906303,0.73723483\H,0,
 -1.13797787,1.88773405,-1.00199973\H,0,0.95363923,0.62635363,-0.303158

 Normal termination of Gaussian 16 at Wed Apr  9 17:24:12 2025.
