 Gaussian 16, Revision C.01,

 ----------------------------------------------------------------------
 #t hf aug-cc-pvdz symm=none int=(grid=ultrafine) guess=(read,tcheck) s
 table=(opt,rrhf)
 ----------------------------------------------------------------------
 -----
 title
 -----
 Symbolic Z-matrix:
 Charge =  0 Multiplicity = 1

 SCF Done:  E(RHF) =  -232.803835258     A.U. after   16 cycles
 Normal termination of Gaussian 16 at Wed Apr  9 03:08:04 2025.
 Gaussian 16:  ES64L-G16RevC.01  3-Jul-2019

 ----------------------------------------------------------------------
 #t hf aug-cc-pvdz iop(5/13=1,5/36=2,99/5=2) pseudo=read geom=check gue
 ss=(read,tcheck) scf=(maxcycle=1)
 ----------------------------------------------------------------------
 -----
 title
 -----
 Structure from the checkpoint file:  "Grambow2020_b97d3_006591_forward_mol1.chk"
 Charge =  0 Multiplicity = 1

                         Standard orientation:
 ---------------------------------------------------------------------
 Center     Atomic      Atomic             Coordinates (Angstroms)
 Number     Number       Type             X           Y           Z
 ---------------------------------------------------------------------
      1          6           0       -1.334536   -0.013399    0.930741
      2          6           0       -1.532237    0.005796   -0.585446
      3          6           0       -0.052509    0.004126   -0.775034
      4          6           0        0.854862   -1.072032   -0.276202
      5          6           0        1.372656   -0.003445    0.762437
      6          6           0        0.844453    1.079308   -0.257136
      7          1           0       -1.691070   -0.936915    1.395257
      8          1           0       -1.690942    0.897578    1.419684
      9          1           0       -2.016801    0.910355   -0.976078
     10          1           0       -2.027895   -0.881296   -1.000532
     11          1           0        1.660370   -1.253875   -1.006894
     12          1           0        0.401587   -2.026313    0.018358
     13          1           0        2.463196   -0.002753    0.954568
     14          1           0       -0.045307   -0.015407    1.323638
     15          1           0        1.649058    1.284277   -0.982526
     16          1           0        0.381671    2.022224    0.058368
 ---------------------------------------------------------------------

 SCF Done:  E(RHF) =  -234.022076432     A.U. after    2 cycles

 The electronic state is 1-A.
 Alpha  occ. eigenvalues --  -11.48337 -11.43866 -11.41858 -11.41794 -11.35183
 Alpha  occ. eigenvalues --  -11.34366  -1.38741  -1.13399  -0.96929  -0.91975
 Alpha  occ. eigenvalues --   -0.82545  -0.76005  -0.66573  -0.64039  -0.60509
 Alpha  occ. eigenvalues --   -0.53611  -0.52961  -0.51248  -0.48207  -0.44784
 Alpha  occ. eigenvalues --   -0.42329  -0.37657  -0.23386
 Alpha virt. eigenvalues --    0.04031   0.05146   0.05322   0.05424   0.05826
 Alpha virt. eigenvalues --    0.06046   0.06515   0.06560   0.07973   0.08757
 Alpha virt. eigenvalues --    0.08908   0.11449   0.13137   0.13638   0.13662

 Mulliken charges:
               1
     1  C   -3.065652
     2  C   -3.252672
     3  C    0.817596
     4  C   -2.737422
     5  C   -2.139224
     6  C   -2.754567
     7  H    1.075733
     8  H    1.070831
     9  H    1.217087
    10  H    1.216100
    11  H    1.249946
    12  H    1.384107
    13  H    1.158029
    14  H    2.116715
    15  H    1.249989
    16  H    1.393403
 Sum of Mulliken charges =   0.00000

 Dipole moment (field-independent basis, Debye):
    X=             -0.8065    Y=              0.0128    Z=             -1.7718  Tot=              1.9467

 Test job not archived.
 1\1\GINC-SE080\SP\RHF\Aug-CC-pVDZ\C6H10\OHZDE\09-Apr-2025\0\\#t hf aug
 -cc-pvdz iop(5/13=1,5/36=2,99/5=2) pseudo=read geom=check guess=(read,
 tcheck) scf=(maxcycle=1)\\title\\0,1\C,0,-1.09413457,0.36393253,1.0549
 3261\C,0,-1.58510144,0.02501586,-0.35303237\C,0,-0.1758148,-0.20322937
 ,-0.78587934\C,0,0.73280444,-1.22094983,-0.1784858\C,0,1.52033016,0.00
 374439,0.42870912\C,0,0.88020615,0.85099389,-0.73889137\H,0,-1.4171478
 3,-0.36297373,1.80529401\H,0,-1.28104009,1.40478271,1.33362154\H,0,-2.
 07125161,0.85402462,-0.88409262\H,0,-2.21502311,-0.87127213,-0.4221209

 Normal termination of Gaussian 16 at Wed Apr  9 03:08:09 2025.
