 Gaussian 16, Revision C.01,

 ----------------------------------------------------------------------
 #t hf aug-cc-pvdz symm=none int=(grid=ultrafine) guess=(read,tcheck) s
 table=(opt,rrhf)
 ----------------------------------------------------------------------
 -----
 title
 -----
 Symbolic Z-matrix:
 Charge =  0 Multiplicity = 1

 SCF Done:  E(RHF) =  -245.827401488     A.U. after   15 cycles
 Normal termination of Gaussian 16 at Wed Apr  9 17:35:10 2025.
 Gaussian 16:  ES64L-G16RevC.01  3-Jul-2019

 ----------------------------------------------------------------------
 #t hf aug-cc-pvdz iop(5/13=1,5/36=2,99/5=2) pseudo=read geom=check gue
 ss=(read,tcheck) scf=(maxcycle=1)
 ----------------------------------------------------------------------
 -----
 title
 -----
 Structure from the checkpoint file:  "Grambow2020_b97d3_007187_reverse_mol2.chk"
 Charge =  0 Multiplicity = 1

                         Standard orientation:
 ---------------------------------------------------------------------
 Center     Atomic      Atomic             Coordinates (Angstroms)
 Number     Number       Type             X           Y           Z
 ---------------------------------------------------------------------
      1          8           0       -2.101177   -0.588622   -0.079477
      2          6           0       -1.261859    0.272603   -0.250932
      3          6           0        1.248676    0.353071   -0.220549
      4          6           0       -0.017655    0.444129    0.615022
      5          7           0        2.160210   -0.539818   -0.172049
      6          1           0       -1.343885    1.011983   -1.084990
      7          1           0        1.377115    1.152155   -0.965183
      8          1           0       -0.065969    1.453277    1.061834
      9          1           0       -0.030990   -0.306168    1.415628
     10          1           0        1.936704   -1.242364    0.551624
 ---------------------------------------------------------------------

 SCF Done:  E(RHF) =  -246.924389076     A.U. after    2 cycles

 The electronic state is 1-A.
 Alpha  occ. eigenvalues --  -21.08288 -15.76090 -11.50333 -11.46500 -11.41600
 Alpha  occ. eigenvalues --   -1.71986  -1.35955  -1.14023  -0.87064  -0.83389
 Alpha  occ. eigenvalues --   -0.66442  -0.64923  -0.61335  -0.54661  -0.52659
 Alpha  occ. eigenvalues --   -0.45722  -0.43110  -0.39215  -0.30624
 Alpha virt. eigenvalues --    0.03417   0.05189   0.05434   0.05870   0.06786
 Alpha virt. eigenvalues --    0.09369   0.10099   0.10933   0.12687   0.13146
 Alpha virt. eigenvalues --    0.14267   0.14332   0.15086   0.15747   0.16198

 Mulliken charges:
               1
     1  O   -2.627694
     2  C    1.506992
     3  C    1.407538
     4  C   -3.414207
     5  N   -3.141709
     6  H    1.437077
     7  H    1.593786
     8  H    1.403666
     9  H    1.229469
    10  H    0.605083
 Sum of Mulliken charges =  -0.00000

 Dipole moment (field-independent basis, Debye):
    X=             -0.6839    Y=              1.2277    Z=              0.9023  Tot=              1.6701

 Test job not archived.
 1\1\GINC-SE103\SP\RHF\Aug-CC-pVDZ\C3H5N1O1\OHZDE\09-Apr-2025\0\\#t hf
 aug-cc-pvdz iop(5/13=1,5/36=2,99/5=2) pseudo=read geom=check guess=(re
 ad,tcheck) scf=(maxcycle=1)\\title\\0,1\O,0,1.21214983,-1.42094744,1.5
 6262962\C,0,0.95742249,-1.07154053,0.42746951\C,0,-0.20516973,0.893810
 84,-0.61941126\C,0,-0.38198509,-0.48800423,-0.01163863\N,0,-0.62974406
 ,2.01087818,-0.16952925\H,0,1.71340914,-1.14828907,-0.39207758\H,0,0.3
 7410052,0.92403921,-1.55377974\H,0,-0.7925234,-1.1579682,-0.7881444\H,
 0,-1.06474466,-0.46978948,0.84719783\H,0,-1.15066703,1.86878069,0.7111

 Normal termination of Gaussian 16 at Wed Apr  9 17:35:13 2025.
