 Gaussian 16, Revision C.01,

 ----------------------------------------------------------------------
 #t hf aug-cc-pvdz symm=none int=(grid=ultrafine) guess=(read,tcheck) s
 table=(opt,rrhf)
 ----------------------------------------------------------------------
 -----
 title
 -----
 Symbolic Z-matrix:
 Charge =  0 Multiplicity = 1

 SCF Done:  E(RHF) =  -306.476683077     A.U. after   16 cycles
 Normal termination of Gaussian 16 at Wed Apr  9 19:14:06 2025.
 Gaussian 16:  ES64L-G16RevC.01  3-Jul-2019

 ----------------------------------------------------------------------
 #t hf aug-cc-pvdz iop(5/13=1,5/36=2,99/5=2) pseudo=read geom=check gue
 ss=(read,tcheck) scf=(maxcycle=1)
 ----------------------------------------------------------------------
 -----
 title
 -----
 Structure from the checkpoint file:  "Grambow2020_wb97xd3_008431_forward_mol1.chk"
 Charge =  0 Multiplicity = 1

                         Standard orientation:
 ---------------------------------------------------------------------
 Center     Atomic      Atomic             Coordinates (Angstroms)
 Number     Number       Type             X           Y           Z
 ---------------------------------------------------------------------
      1          6           0       -0.473818   -0.678591    1.023163
      2          6           0       -1.976487   -0.022599   -0.111565
      3          6           0       -0.131903    0.985671    0.184077
      4          8           0        1.222471    0.882198    0.324271
      5          6           0        1.547968   -0.391387   -0.283865
      6          6           0        0.160463   -0.989783   -0.368375
      7          6           0       -0.697165    0.180550   -0.920140
      8          1           0        0.198057   -0.483366    1.860707
      9          1           0       -1.251577   -1.358179    1.345410
     10          1           0       -2.390882    0.971033    0.145697
     11          1           0       -0.518245    1.935839    0.530163
     12          1           0        2.233107   -0.925617    0.374521
     13          1           0        2.025388   -0.218645   -1.252313
     14          1           0        0.055858   -1.991401   -0.776940
     15          1           0       -0.705819    0.509583   -1.961186
 ---------------------------------------------------------------------

 SCF Done:  E(RHF) =  -307.930068409     A.U. after    2 cycles

 The electronic state is 1-A.
 Alpha  occ. eigenvalues --  -21.07253 -11.50778 -11.47390 -11.44817 -11.41200
 Alpha  occ. eigenvalues --  -11.39414 -11.36546  -1.82405  -1.34856  -1.09457
 Alpha  occ. eigenvalues --   -0.97519  -0.90009  -0.84005  -0.77670  -0.73115
 Alpha  occ. eigenvalues --   -0.66444  -0.63624  -0.56106  -0.53277  -0.50725
 Alpha  occ. eigenvalues --   -0.45563  -0.44014  -0.42126  -0.39559  -0.31290
 Alpha  occ. eigenvalues --   -0.26486
 Alpha virt. eigenvalues --    0.03889   0.04285   0.05122   0.05282   0.06235
 Alpha virt. eigenvalues --    0.06366   0.06579   0.07185   0.08747   0.11291
 Alpha virt. eigenvalues --    0.11951   0.12508   0.12777   0.12829   0.13859

 Mulliken charges:
               1
     1  C   -2.030980
     2  C   -1.926061
     3  C    1.920147
     4  O   -3.443113
     5  C   -1.673299
     6  C   -2.229701
     7  C   -1.514853
     8  H    0.968222
     9  H    1.146431
    10  H    1.111832
    11  H    1.509515
    12  H    1.469647
    13  H    1.512067
    14  H    1.724491
    15  H    1.455657
 Sum of Mulliken charges =  -0.00000

 Dipole moment (field-independent basis, Debye):
    X=              2.5171    Y=              0.9072    Z=             -0.6039  Tot=              2.7429

 Test job not archived.
 1\1\GINC-SE048\SP\RHF\Aug-CC-pVDZ\C6H8O1\OHZDE\09-Apr-2025\0\\#t hf au
 g-cc-pvdz iop(5/13=1,5/36=2,99/5=2) pseudo=read geom=check guess=(read
 ,tcheck) scf=(maxcycle=1)\\title\\0,1\C,0,0.66055395,0.905889,0.524902
 47\C,0,1.64851452,0.09025301,-1.00304372\C,0,0.41528334,-0.966216,0.36
 425942\O,0,-0.7303817,-0.97241429,1.10729712\C,0,-1.58561389,-0.004018
 38,0.45263505\C,0,-0.56001248,0.68415655,-0.42197708\C,0,0.2403279,-0.
 49975345,-1.02816266\H,0,0.47930398,0.91642532,1.60102769\H,0,1.307936
 07,1.73375767,0.26776034\H,0,2.36319564,-0.71716424,-0.7530061\H,0,1.1

 Normal termination of Gaussian 16 at Wed Apr  9 19:14:11 2025.
