 Gaussian 16, Revision C.01,

 ----------------------------------------------------------------------
 #t hf aug-cc-pvdz symm=none int=(grid=ultrafine) guess=(read,tcheck) s
 table=(opt,rrhf)
 ----------------------------------------------------------------------
 -----
 title
 -----
 Symbolic Z-matrix:
 Charge =  0 Multiplicity = 1

 SCF Done:  E(RHF) =  -343.677980971     A.U. after   13 cycles
 Normal termination of Gaussian 16 at Wed Apr  9 19:31:14 2025.
 Gaussian 16:  ES64L-G16RevC.01  3-Jul-2019

 ----------------------------------------------------------------------
 #t hf aug-cc-pvdz iop(5/13=1,5/36=2,99/5=2) pseudo=read geom=check gue
 ss=(read,tcheck) scf=(maxcycle=1)
 ----------------------------------------------------------------------
 -----
 title
 -----
 Structure from the checkpoint file:  "Grambow2020_wb97xd3_009110_reverse_mol2.chk"
 Charge =  0 Multiplicity = 1

                         Standard orientation:
 ---------------------------------------------------------------------
 Center     Atomic      Atomic             Coordinates (Angstroms)
 Number     Number       Type             X           Y           Z
 ---------------------------------------------------------------------
      1          6           0        1.990068   -0.550783   -0.086899
      2          6           0       -0.365460    0.276504   -0.762923
      3          8           0       -0.818798   -1.025503   -0.376961
      4          6           0       -1.805561   -0.474134    0.511047
      5          6           0       -1.411591    0.957672    0.136566
      6          8           0        1.452442    0.288210    0.926744
      7          6           0        1.073221    0.533884   -0.414360
      8          1           0        1.609918   -1.566699   -0.084249
      9          1           0        3.053143   -0.429284   -0.272976
     10          1           0       -0.501107    0.440924   -1.838238
     11          1           0       -1.613397   -0.758311    1.547958
     12          1           0       -2.815228   -0.780240    0.226106
     13          1           0       -2.171745    1.530321   -0.390082
     14          1           0       -0.993126    1.549064    0.948187
     15          1           0        1.478326    1.453712   -0.835551
 ---------------------------------------------------------------------

 SCF Done:  E(RHF) =  -345.231502649     A.U. after    2 cycles

 The electronic state is 1-A.
 Alpha  occ. eigenvalues --  -21.05726 -21.03380 -11.49792 -11.46170 -11.43770
 Alpha  occ. eigenvalues --  -11.41460 -11.37595  -1.80439  -1.75281  -1.13251
 Alpha  occ. eigenvalues --   -1.05726  -0.95710  -0.88772  -0.77420  -0.72138
 Alpha  occ. eigenvalues --   -0.67288  -0.65480  -0.59597  -0.54786  -0.52058
 Alpha  occ. eigenvalues --   -0.50969  -0.44972  -0.43163  -0.36993  -0.34466
 Alpha  occ. eigenvalues --   -0.31315  -0.29179
 Alpha virt. eigenvalues --    0.04048   0.04829   0.05116   0.05620   0.05876
 Alpha virt. eigenvalues --    0.06382   0.06883   0.07289   0.09987   0.11944
 Alpha virt. eigenvalues --    0.12555   0.13130   0.13782   0.13847   0.14779

 Mulliken charges:
               1
     1  C   -1.807820
     2  C    0.360052
     3  O   -2.790537
     4  C   -1.730382
     5  C   -3.160216
     6  O   -2.709023
     7  C    0.645617
     8  H    1.512254
     9  H    1.384705
    10  H    1.488344
    11  H    1.480484
    12  H    1.394028
    13  H    1.188399
    14  H    1.360250
    15  H    1.383847
 Sum of Mulliken charges =   0.00000

 Dipole moment (field-independent basis, Debye):
    X=             -0.3465    Y=              0.5313    Z=             -0.0870  Tot=              0.6402

 Test job not archived.
 1\1\GINC-SE222\SP\RHF\Aug-CC-pVDZ\C5H8O2\OHZDE\09-Apr-2025\0\\#t hf au
 g-cc-pvdz iop(5/13=1,5/36=2,99/5=2) pseudo=read geom=check guess=(read
 ,tcheck) scf=(maxcycle=1)\\title\\0,1\C,0,-1.73058901,-0.10032321,1.37
 06173\C,0,-0.2001636,-0.23971418,-0.70983778\O,0,-0.15220091,1.1894774
 1,-0.64043463\C,0,1.28521955,1.19129495,-0.63109105\C,0,1.33525411,-0.
 3357309,-0.73695224\O,0,-0.41547479,-0.48297132,1.75072004\C,0,-0.8806
 1208,-0.87094905,0.47171832\H,0,-1.85777749,0.95998878,1.18043827\H,0,
 -2.53159463,-0.59775879,1.90956339\H,0,-0.70191028,-0.57560048,-1.6248

 Normal termination of Gaussian 16 at Wed Apr  9 19:31:19 2025.
