 Gaussian 16, Revision C.01,

 ----------------------------------------------------------------------
 #t hf aug-cc-pvdz symm=none int=(grid=ultrafine) guess=(read,tcheck) s
 table=(opt,rrhf)
 ----------------------------------------------------------------------
 -----
 title
 -----
 Symbolic Z-matrix:
 Charge =  0 Multiplicity = 1

 SCF Done:  E(RHF) =  -373.359301433     A.U. after   16 cycles
 Normal termination of Gaussian 16 at Wed Apr  9 03:27:59 2025.
 Gaussian 16:  ES64L-G16RevC.01  3-Jul-2019

 ----------------------------------------------------------------------
 #t hf aug-cc-pvdz iop(5/13=1,5/36=2,99/5=2) pseudo=read geom=check gue
 ss=(read,tcheck) scf=(maxcycle=1)
 ----------------------------------------------------------------------
 -----
 title
 -----
 Structure from the checkpoint file:  "Grambow2020_wb97xd3_006700_reverse_mol2.chk"
 Charge =  0 Multiplicity = 1

                         Standard orientation:
 ---------------------------------------------------------------------
 Center     Atomic      Atomic             Coordinates (Angstroms)
 Number     Number       Type             X           Y           Z
 ---------------------------------------------------------------------
      1          8           0       -2.200222   -0.028821   -0.001301
      2          6           0       -1.007979   -0.000857   -0.000125
      3          6           0       -0.190327    1.228539    0.000930
      4          7           0        1.082539    1.218417   -0.000189
      5          6           0        1.666355   -0.040132   -0.001187
      6          7           0        1.081197   -1.173231    0.000287
      7          8           0       -0.296122   -1.162365    0.001281
      8          1           0       -0.731412    2.170735    0.003812
      9          1           0        2.747717   -0.082853   -0.002051
 ---------------------------------------------------------------------

 SCF Done:  E(RHF) =  -374.936792514     A.U. after    2 cycles

 The electronic state is 1-A.
 Alpha  occ. eigenvalues --  -21.15090 -21.08611 -15.83050 -15.81293 -11.56339
 Alpha  occ. eigenvalues --  -11.49248 -11.47351  -1.93342  -1.72287  -1.47861
 Alpha  occ. eigenvalues --   -1.29201  -1.03101  -0.94366  -0.78461  -0.72960
 Alpha  occ. eigenvalues --   -0.65776  -0.63219  -0.60859  -0.52738  -0.51176
 Alpha  occ. eigenvalues --   -0.49204  -0.46916  -0.44292  -0.31449  -0.31224
 Alpha virt. eigenvalues --    0.03110   0.04798   0.05277   0.08663   0.09151
 Alpha virt. eigenvalues --    0.09510   0.10825   0.11485   0.11956   0.12535
 Alpha virt. eigenvalues --    0.13225   0.14044   0.15241   0.15355   0.16353

 Mulliken charges:
               1
     1  O   -3.140740
     2  C    5.369326
     3  C   -0.310708
     4  N   -2.980866
     5  C    1.342551
     6  N   -0.626387
     7  O   -2.953160
     8  H    1.619384
     9  H    1.680600
 Sum of Mulliken charges =  -0.00000

 Dipole moment (field-independent basis, Debye):
    X=              1.1136    Y=              1.0005    Z=              0.0015  Tot=              1.4970

 Test job not archived.
 1\1\GINC-SE393\SP\RHF\Aug-CC-pVDZ\C3H2N2O2\OHZDE\09-Apr-2025\0\\#t hf
 aug-cc-pvdz iop(5/13=1,5/36=2,99/5=2) pseudo=read geom=check guess=(re
 ad,tcheck) scf=(maxcycle=1)\\title\\0,1\O,0,-2.22820676,-0.97451153,-0
 .27275313\C,0,-1.10451998,-0.59382302,-0.15179587\C,0,-0.70712805,0.80
 752572,0.08960572\N,0,0.50500058,1.17665609,0.21117349\C,0,1.44768857,
 0.16456661,0.10254066\N,0,1.24128391,-1.07730414,-0.1011289\O,0,-0.070
 27468,-1.47677388,-0.2328983\H,0,-1.51176758,1.53395278,0.16290593\H,0
 ,2.48796899,0.44599637,0.20144439\\Version=ES64L-G16RevC.01\State=1-A\

 Normal termination of Gaussian 16 at Wed Apr  9 03:28:03 2025.
