 Gaussian 16, Revision C.01,

 ----------------------------------------------------------------------
 #t hf aug-cc-pvdz symm=none int=(grid=ultrafine) guess=(read,tcheck) s
 table=(opt,rrhf)
 ----------------------------------------------------------------------
 -----
 title
 -----
 Symbolic Z-matrix:
 Charge =  0 Multiplicity = 1

 SCF Done:  E(RHF) =  -283.526814916     A.U. after   17 cycles
 Normal termination of Gaussian 16 at Wed Apr  9 03:15:49 2025.
 Gaussian 16:  ES64L-G16RevC.01  3-Jul-2019

 ----------------------------------------------------------------------
 #t hf aug-cc-pvdz iop(5/13=1,5/36=2,99/5=2) pseudo=read geom=check gue
 ss=(read,tcheck) scf=(maxcycle=1)
 ----------------------------------------------------------------------
 -----
 title
 -----
 Structure from the checkpoint file:  "Grambow2020_b97d3_006992_forward_mol1.chk"
 Charge =  0 Multiplicity = 1

                         Standard orientation:
 ---------------------------------------------------------------------
 Center     Atomic      Atomic             Coordinates (Angstroms)
 Number     Number       Type             X           Y           Z
 ---------------------------------------------------------------------
      1          6           0       -0.764183    1.845911    0.049806
      2          6           0        1.145400    0.230185    0.097743
      3          8           0        2.282712    0.354219   -0.095494
      4          6           0        0.071538   -1.742621    0.057251
      5          6           0       -1.073876   -1.002958   -0.037631
      6          7           0       -1.856983   -0.100524   -0.096094
      7          1           0        0.110548    2.284851   -0.426646
      8          1           0       -0.790368    1.919764    1.134246
      9          1           0       -1.696853    2.062401   -0.458480
     10          1           0        0.351555   -2.171005    1.019725
     11          1           0        0.489025   -2.209211   -0.835252
 ---------------------------------------------------------------------

 SCF Done:  E(RHF) =  -284.822534735     A.U. after    2 cycles

 The electronic state is 1-A.
 Alpha  occ. eigenvalues --  -21.14326 -15.75818 -11.49058 -11.47162 -11.44575
 Alpha  occ. eigenvalues --  -11.40451  -1.76920  -1.31404  -1.07044  -1.03117
 Alpha  occ. eigenvalues --   -0.72659  -0.69473  -0.62553  -0.62025  -0.61185
 Alpha  occ. eigenvalues --   -0.56230  -0.52410  -0.49593  -0.48820  -0.42125
 Alpha  occ. eigenvalues --   -0.40222  -0.27149
 Alpha virt. eigenvalues --    0.01950   0.04964   0.05539   0.06523   0.06586
 Alpha virt. eigenvalues --    0.06848   0.09561   0.10157   0.11736   0.11875
 Alpha virt. eigenvalues --    0.13137   0.13633   0.13986   0.14826   0.15096

 Mulliken charges:
               1
     1  C   -3.884044
     2  C    2.220975
     3  O   -2.022634
     4  C   -2.772180
     5  C    2.003272
     6  N   -2.217495
     7  H    1.299807
     8  H    1.351049
     9  H    1.292807
    10  H    1.354101
    11  H    1.374342
 Sum of Mulliken charges =   0.00000

 Dipole moment (field-independent basis, Debye):
    X=              2.6669    Y=              1.5730    Z=              0.0926  Tot=              3.0977

 Test job not archived.
 1\1\GINC-SE412\SP\RHF\Aug-CC-pVDZ\C4H5N1O1\OHZDE\09-Apr-2025\0\\#t hf
 aug-cc-pvdz iop(5/13=1,5/36=2,99/5=2) pseudo=read geom=check guess=(re
 ad,tcheck) scf=(maxcycle=1)\\title\\0,1\C,0,-1.47444701,1.01591247,-0.
 27426155\C,0,-0.43839087,-1.1475934,0.43651769\O,0,-0.84374675,-2.0489
 3046,1.04436833\C,0,1.74489714,-0.73586621,0.10407846\C,0,1.34957756,0
 .52175715,-0.25673165\N,0,0.69806077,1.49073107,-0.51687873\H,0,-2.086
 40271,0.54023142,0.48998135\H,0,-1.63569959,0.6596346,-1.28876342\H,0,
 -1.38747136,2.09058804,-0.16200298\H,0,1.99472546,-1.45955899,-0.67189

 Normal termination of Gaussian 16 at Wed Apr  9 03:15:53 2025.
