 Gaussian 16, Revision C.01,

 ----------------------------------------------------------------------
 #t hf aug-cc-pvdz symm=none int=(grid=ultrafine) guess=(read,tcheck) s
 table=(opt,rrhf)
 ----------------------------------------------------------------------
 -----
 title
 -----
 Symbolic Z-matrix:
 Charge =  0 Multiplicity = 1

 SCF Done:  E(RHF) =  -305.319928130     A.U. after   17 cycles
 Normal termination of Gaussian 16 at Wed Apr  9 03:53:07 2025.
 Gaussian 16:  ES64L-G16RevC.01  3-Jul-2019

 ----------------------------------------------------------------------
 #t hf aug-cc-pvdz iop(5/13=1,5/36=2,99/5=2) pseudo=read geom=check gue
 ss=(read,tcheck) scf=(maxcycle=1)
 ----------------------------------------------------------------------
 -----
 title
 -----
 Structure from the checkpoint file:  "Grambow2020_wb97xd3_008359_forward_mol1.chk"
 Charge =  0 Multiplicity = 1

                         Standard orientation:
 ---------------------------------------------------------------------
 Center     Atomic      Atomic             Coordinates (Angstroms)
 Number     Number       Type             X           Y           Z
 ---------------------------------------------------------------------
      1          6           0       -1.934222    0.098899   -0.700434
      2          6           0       -1.431762   -0.543967    0.255196
      3          6           0       -0.198561   -0.547921    0.840037
      4          6           0        0.118253    0.816596    1.003354
      5          6           0        0.742315    1.107756   -0.219217
      6          8           0        1.396370   -0.003455   -0.725569
      7          6           0        0.914629   -1.150288    0.000047
      8          1           0       -2.785936    0.218544   -1.341981
      9          1           0       -0.515840    1.522509    1.518445
     10          1           0       -0.598671    1.022564   -0.794672
     11          1           0        1.185059    2.044301   -0.533257
     12          1           0        1.738481   -1.568999    0.583832
     13          1           0        0.542041   -1.897730   -0.701722
 ---------------------------------------------------------------------

 SCF Done:  E(RHF) =  -306.775141478     A.U. after    2 cycles

 The electronic state is 1-A.
 Alpha  occ. eigenvalues --  -21.06211 -11.47028 -11.45539 -11.43409 -11.42962
 Alpha  occ. eigenvalues --  -11.41535 -11.39740  -1.79585  -1.30873  -1.09172
 Alpha  occ. eigenvalues --   -1.05416  -0.88096  -0.81741  -0.75153  -0.68521
 Alpha  occ. eigenvalues --   -0.65775  -0.59937  -0.54176  -0.52949  -0.52047
 Alpha  occ. eigenvalues --   -0.42598  -0.40950  -0.36847  -0.32001  -0.26915
 Alpha virt. eigenvalues --    0.03351   0.04819   0.05303   0.06079   0.06925
 Alpha virt. eigenvalues --    0.07589   0.07969   0.08352   0.09370   0.10669
 Alpha virt. eigenvalues --    0.11454   0.12647   0.13362   0.14346   0.14438

 Mulliken charges:
               1
     1  C   -2.425060
     2  C    2.304577
     3  C   -1.951933
     4  C   -1.407608
     5  C    0.004923
     6  O   -2.984846
     7  C   -1.606534
     8  H    0.975626
     9  H    1.448353
    10  H    1.185778
    11  H    1.459224
    12  H    1.448615
    13  H    1.548884
 Sum of Mulliken charges =  -0.00000

 Dipole moment (field-independent basis, Debye):
    X=              0.2842    Y=              0.9563    Z=             -0.4848  Tot=              1.1092

 Test job not archived.
 1\1\GINC-SE249\SP\RHF\Aug-CC-pVDZ\C6H6O1\OHZDE\09-Apr-2025\0\\#t hf au
 g-cc-pvdz iop(5/13=1,5/36=2,99/5=2) pseudo=read geom=check guess=(read
 ,tcheck) scf=(maxcycle=1)\\title\\0,1\C,0,1.53930784,0.06535212,1.4604
 8502\C,0,1.52754882,-0.22089317,0.23700841\C,0,0.5594668,-0.1962636,-0
 .72478617\C,0,-0.07835372,1.04947623,-0.55080987\C,0,-1.07224818,0.727
 1522,0.38577231\O,0,-1.49237991,-0.5847706,0.23976448\C,0,-0.52024809,
 -1.25553746,-0.58415909\H,0,2.10861869,0.06016287,2.36997561\H,0,0.442
 45239,1.99523579,-0.54808552\H,0,0.02290596,0.64337787,1.35027704\H,0,

 Normal termination of Gaussian 16 at Wed Apr  9 03:53:11 2025.
