 Gaussian 16, Revision C.01,

 ----------------------------------------------------------------------
 #t hf aug-cc-pvdz symm=none int=(grid=ultrafine) guess=(read,tcheck) s
 table=(opt,rrhf)
 ----------------------------------------------------------------------
 -----
 title
 -----
 Symbolic Z-matrix:
 Charge =  0 Multiplicity = 1

 SCF Done:  E(RHF) =  -301.624083688     A.U. after   17 cycles
 Normal termination of Gaussian 16 at Wed Apr  9 03:47:02 2025.
 Gaussian 16:  ES64L-G16RevC.01  3-Jul-2019

 ----------------------------------------------------------------------
 #t hf aug-cc-pvdz iop(5/13=1,5/36=2,99/5=2) pseudo=read geom=check gue
 ss=(read,tcheck) scf=(maxcycle=1)
 ----------------------------------------------------------------------
 -----
 title
 -----
 Structure from the checkpoint file:  "Grambow2020_wb97xd3_007934_reverse_mol2.chk"
 Charge =  0 Multiplicity = 1

                         Standard orientation:
 ---------------------------------------------------------------------
 Center     Atomic      Atomic             Coordinates (Angstroms)
 Number     Number       Type             X           Y           Z
 ---------------------------------------------------------------------
      1          6           0        1.182421    0.942821   -0.008323
      2          6           0        1.528003   -0.536475    0.325690
      3          6           0        0.556024   -1.255529   -0.560766
      4          7           0       -0.580738   -1.322057   -0.089460
      5          6           0       -1.545931   -0.529793    0.214019
      6          6           0       -1.288684    0.887882   -0.002620
      7          7           0       -0.164620    1.466179   -0.158595
      8          1           0        1.715824    1.239039   -0.912500
      9          1           0        1.622899    1.535346    0.800233
     10          1           0        2.572878   -0.715095    0.079994
     11          1           0        1.350624   -0.750058    1.382335
     12          1           0       -2.471535   -0.910192    0.624240
     13          1           0       -2.164177    1.538677   -0.045916
 ---------------------------------------------------------------------

 SCF Done:  E(RHF) =  -303.033820327     A.U. after    2 cycles

 The electronic state is 1-A.
 Alpha  occ. eigenvalues --  -15.80687 -15.73917 -11.46969 -11.44840 -11.43278
 Alpha  occ. eigenvalues --  -11.41587 -11.39164  -1.49885  -1.35229  -1.19774
 Alpha  occ. eigenvalues --   -1.01353  -0.98526  -0.79303  -0.71604  -0.70689
 Alpha  occ. eigenvalues --   -0.66990  -0.59865  -0.57816  -0.55155  -0.54830
 Alpha  occ. eigenvalues --   -0.49594  -0.45509  -0.40273  -0.33637  -0.29230
 Alpha virt. eigenvalues --    0.03321   0.05172   0.05609   0.05939   0.06131
 Alpha virt. eigenvalues --    0.06735   0.08173   0.09642   0.10389   0.10766
 Alpha virt. eigenvalues --    0.12182   0.12486   0.13274   0.13375   0.14232

 Mulliken charges:
               1
     1  C   -1.500663
     2  C   -2.783388
     3  C    0.392207
     4  N   -2.547811
     5  C    0.195856
     6  C    0.749663
     7  N   -3.234868
     8  H    1.482864
     9  H    1.365643
    10  H    1.345354
    11  H    1.415117
    12  H    1.481027
    13  H    1.638999
 Sum of Mulliken charges =   0.00000

 Dipole moment (field-independent basis, Debye):
    X=             -0.2062    Y=              0.0004    Z=              1.9345  Tot=              1.9454

 Test job not archived.
 1\1\GINC-SE090\SP\RHF\Aug-CC-pVDZ\C5H6N2\OHZDE\09-Apr-2025\0\\#t hf au
 g-cc-pvdz iop(5/13=1,5/36=2,99/5=2) pseudo=read geom=check guess=(read
 ,tcheck) scf=(maxcycle=1)\\title\\0,1\C,0,-1.19324741,-0.50963937,-0.1
 2178699\C,0,-1.11166106,1.01355835,0.18238637\C,0,0.01966677,1.4156631
 7,-0.71538666\N,0,1.13126801,1.17174178,-0.24249391\C,0,1.83815153,0.1
 4783171,0.07891543\C,0,1.19517405,-1.1458218,-0.11068705\N,0,-0.046009
 92,-1.39067189,-0.25828904\H,0,-1.7907366,-0.66292225,-1.02140431\H,0,
 -1.77910365,-0.93997898,0.69702298\H,0,-2.066004,1.47162722,-0.0694837

 Normal termination of Gaussian 16 at Wed Apr  9 03:47:06 2025.
