 Gaussian 16, Revision C.01,

 ----------------------------------------------------------------------
 #t hf aug-cc-pvdz symm=none int=(grid=ultrafine) guess=(read,tcheck) s
 table=(opt,rrhf)
 ----------------------------------------------------------------------
 -----
 title
 -----
 Symbolic Z-matrix:
 Charge =  0 Multiplicity = 1

 SCF Done:  E(RHF) =  -305.362549490     A.U. after   18 cycles
 Normal termination of Gaussian 16 at Wed Apr  9 03:52:39 2025.
 Gaussian 16:  ES64L-G16RevC.01  3-Jul-2019

 ----------------------------------------------------------------------
 #t hf aug-cc-pvdz iop(5/13=1,5/36=2,99/5=2) pseudo=read geom=check gue
 ss=(read,tcheck) scf=(maxcycle=1)
 ----------------------------------------------------------------------
 -----
 title
 -----
 Structure from the checkpoint file:  "Grambow2020_wb97xd3_008351_forward_mol1.chk"
 Charge =  0 Multiplicity = 1

                         Standard orientation:
 ---------------------------------------------------------------------
 Center     Atomic      Atomic             Coordinates (Angstroms)
 Number     Number       Type             X           Y           Z
 ---------------------------------------------------------------------
      1          8           0        2.041707   -0.165745   -0.592772
      2          6           0        1.085810   -0.164605    0.418183
      3          6           0        0.196202    1.385845    0.320535
      4          6           0       -1.102670    1.167044   -0.140347
      5          6           0       -1.912108    0.247535   -0.367083
      6          6           0        0.141344   -1.214585    0.392645
      7          6           0       -1.066294   -1.374253    0.111754
      8          1           0        1.652021   -0.566556   -1.374401
      9          1           0        1.601430   -0.021400    1.365727
     10          1           0        0.860685    1.916840   -0.358838
     11          1           0        0.237455    1.818070    1.320089
     12          1           0       -2.904048    0.021257   -0.706461
     13          1           0       -1.834907   -2.124136    0.081942
 ---------------------------------------------------------------------

 SCF Done:  E(RHF) =  -306.819926263     A.U. after    2 cycles

 The electronic state is 1-A.
 Alpha  occ. eigenvalues --  -21.09145 -11.50113 -11.44798 -11.43860 -11.41726
 Alpha  occ. eigenvalues --  -11.39561 -11.38286  -1.74457  -1.26100  -1.09949
 Alpha  occ. eigenvalues --   -1.04677  -0.92525  -0.79574  -0.71112  -0.64296
 Alpha  occ. eigenvalues --   -0.64026  -0.60335  -0.56938  -0.55524  -0.47269
 Alpha  occ. eigenvalues --   -0.45007  -0.40457  -0.33635  -0.32943  -0.29034
 Alpha virt. eigenvalues --    0.03206   0.05045   0.05305   0.06278   0.06336
 Alpha virt. eigenvalues --    0.07011   0.07207   0.10187   0.10630   0.11135
 Alpha virt. eigenvalues --    0.12589   0.13410   0.13963   0.14047   0.14519

 Mulliken charges:
               1
     1  O   -3.037802
     2  C    0.967794
     3  C   -3.634571
     4  C    2.902842
     5  C   -3.103849
     6  C    1.753161
     7  C   -2.541659
     8  H    0.795825
     9  H    1.472918
    10  H    1.313501
    11  H    1.065352
    12  H    0.970707
    13  H    1.075780
 Sum of Mulliken charges =  -0.00000

 Dipole moment (field-independent basis, Debye):
    X=             -0.2215    Y=              0.2932    Z=             -0.1670  Tot=              0.4036

 Test job not archived.
 1\1\GINC-SE455\SP\RHF\Aug-CC-pVDZ\C6H6O1\OHZDE\09-Apr-2025\0\\#t hf au
 g-cc-pvdz iop(5/13=1,5/36=2,99/5=2) pseudo=read geom=check guess=(read
 ,tcheck) scf=(maxcycle=1)\\title\\0,1\O,0,-0.23290753,-1.22323483,1.84
 205715\C,0,0.39448126,-1.00842188,0.61894185\C,0,-0.88362202,-0.843408
 11,-0.62365855\C,0,-0.95872,0.47865767,-1.0639505\C,0,-0.34373837,1.56
 039761,-1.00285113\C,0,1.23752936,0.12168801,0.53381792\C,0,1.22155457
 ,1.25838605,0.01377514\H,0,-0.37478756,-0.37011227,2.26098469\H,0,0.83
 92227,-1.94949162,0.30144536\H,0,-1.73034713,-1.20115339,-0.04046468\H

 Normal termination of Gaussian 16 at Wed Apr  9 03:52:43 2025.
