 Gaussian 16, Revision C.01,

 ----------------------------------------------------------------------
 #t hf aug-cc-pvdz symm=none int=(grid=ultrafine) guess=(read,tcheck) s
 table=(opt,rrhf)
 ----------------------------------------------------------------------
 -----
 title
 -----
 Symbolic Z-matrix:
 Charge =  0 Multiplicity = 1

 SCF Done:  E(RHF) =  -339.802825032     A.U. after   15 cycles
 Normal termination of Gaussian 16 at Wed Apr  9 18:00:41 2025.
 Gaussian 16:  ES64L-G16RevC.01  3-Jul-2019

 ----------------------------------------------------------------------
 #t hf aug-cc-pvdz iop(5/13=1,5/36=2,99/5=2) pseudo=read geom=check gue
 ss=(read,tcheck) scf=(maxcycle=1)
 ----------------------------------------------------------------------
 -----
 title
 -----
 Structure from the checkpoint file:  "Grambow2020_wb97xd3_006545_reverse_mol2.chk"
 Charge =  0 Multiplicity = 1

                         Standard orientation:
 ---------------------------------------------------------------------
 Center     Atomic      Atomic             Coordinates (Angstroms)
 Number     Number       Type             X           Y           Z
 ---------------------------------------------------------------------
      1          6           0       -1.270161    1.975216   -0.295126
      2          7           0       -0.184647    1.131972    0.365686
      3          6           0        0.011882   -0.154635   -0.338864
      4          6           0        1.308408   -0.836871    0.087559
      5          8           0        2.328036    0.117426   -0.099876
      6          6           0       -1.125992   -1.042883   -0.096562
      7          7           0       -1.968074   -1.787378    0.125937
      8          1           0       -2.211540    1.515274    0.030140
      9          1           0       -1.194154    2.943126    0.214658
     10          1           0        0.694111    1.634824    0.258259
     11          1           0       -0.289180    0.935118    1.367972
     12          1           0        0.030388    0.115546   -1.397145
     13          1           0        1.451812   -1.725206   -0.535124
     14          1           0        1.242910   -1.157518    1.134714
     15          1           0        3.175595   -0.257700    0.142134
 ---------------------------------------------------------------------

 SCF Done:  E(RHF) =  -341.360494062     A.U. after    2 cycles

 The electronic state is 1-A.
 Alpha  occ. eigenvalues --  -21.12265 -15.85436 -15.78317 -11.52615 -11.48203
 Alpha  occ. eigenvalues --  -11.44439 -11.30284  -1.77565  -1.49075  -1.32419
 Alpha  occ. eigenvalues --   -1.15725  -0.96212  -0.91831  -0.80866  -0.71368
 Alpha  occ. eigenvalues --   -0.69027  -0.68476  -0.62119  -0.59123  -0.53467
 Alpha  occ. eigenvalues --   -0.51765  -0.49247  -0.46637  -0.45443  -0.44707
 Alpha  occ. eigenvalues --   -0.37660  -0.26098
 Alpha virt. eigenvalues --    0.02251   0.04157   0.04620   0.04899   0.06222
 Alpha virt. eigenvalues --    0.06902   0.07164   0.08648   0.10210   0.11005
 Alpha virt. eigenvalues --    0.11129   0.11891   0.13069   0.13731   0.14573

 Mulliken charges:
               1
     1  C   -2.990314
     2  N   -1.928566
     3  C   -2.244548
     4  C   -0.309457
     5  O   -2.765942
     6  C    3.516303
     7  N   -2.703849
     8  H    1.297816
     9  H    1.149589
    10  H    0.771756
    11  H    0.673696
    12  H    1.920440
    13  H    1.343909
    14  H    1.435665
    15  H    0.833502
 Sum of Mulliken charges =  -0.00000

 Dipole moment (field-independent basis, Debye):
    X=              6.0296    Y=             -1.3123    Z=              2.6937  Tot=              6.7331

 Test job not archived.
 1\1\GINC-SE131\SP\RHF\Aug-CC-pVDZ\C4H8N2O1\OHZDE\09-Apr-2025\0\\#t hf
 aug-cc-pvdz iop(5/13=1,5/36=2,99/5=2) pseudo=read geom=check guess=(re
 ad,tcheck) scf=(maxcycle=1)\\title\\0,1\C,0,-2.12220601,0.67133282,0.3
 7494155\N,0,-0.69486515,0.25938686,0.72000823\C,0,0.08252191,-0.083478
 59,-0.49180234\C,0,1.57853318,-0.15205816,-0.19938453\O,0,1.91161635,1
 .07612735,0.40565444\C,0,-0.37962809,-1.35713968,-1.04556986\N,0,-0.67
 10715,-2.38196208,-1.46709132\H,0,-2.63789451,-0.27393978,0.16502663\H
 ,0,-2.52064622,1.04914397,1.32415798\H,0,-0.23280081,1.0765652,1.11413

 Normal termination of Gaussian 16 at Wed Apr  9 18:00:46 2025.
