 Gaussian 16, Revision C.01,

 ----------------------------------------------------------------------
 #t hf aug-cc-pvdz symm=none int=(grid=ultrafine) guess=(read,tcheck) s
 table=(opt,rrhf)
 ----------------------------------------------------------------------
 -----
 title
 -----
 Symbolic Z-matrix:
 Charge =  0 Multiplicity = 1

 SCF Done:  E(RHF) =  -317.538566519     A.U. after   16 cycles
 Normal termination of Gaussian 16 at Wed Apr  9 19:26:54 2025.
 Gaussian 16:  ES64L-G16RevC.01  3-Jul-2019

 ----------------------------------------------------------------------
 #t hf aug-cc-pvdz iop(5/13=1,5/36=2,99/5=2) pseudo=read geom=check gue
 ss=(read,tcheck) scf=(maxcycle=1)
 ----------------------------------------------------------------------
 -----
 title
 -----
 Structure from the checkpoint file:  "Grambow2020_wb97xd3_008987_forward_mol1.chk"
 Charge =  0 Multiplicity = 1

                         Standard orientation:
 ---------------------------------------------------------------------
 Center     Atomic      Atomic             Coordinates (Angstroms)
 Number     Number       Type             X           Y           Z
 ---------------------------------------------------------------------
      1          7           0        2.267524   -0.341221   -0.089083
      2          6           0        0.976339    0.096922    0.052947
      3          6           0       -0.142823   -0.637790    0.673700
      4          7           0       -1.055265   -1.231151   -0.204589
      5          6           0       -1.695435   -0.143939   -0.411410
      6          7           0       -1.054146    0.913509    0.310448
      7          6           0        0.294163    1.223575   -0.168068
      8          1           0        2.378309   -1.335691   -0.195761
      9          1           0        2.836922    0.188877   -0.726182
     10          1           0       -0.825492    0.305638    1.341277
     11          1           0       -2.631824   -0.004530   -0.937214
     12          1           0        0.541831    2.225142   -0.482569
 ---------------------------------------------------------------------

 SCF Done:  E(RHF) =  -319.010830198     A.U. after    2 cycles

 The electronic state is 1-A.
 Alpha  occ. eigenvalues --  -15.78185 -15.75797 -15.75489 -11.50734 -11.45997
 Alpha  occ. eigenvalues --  -11.44125 -11.40443  -1.61894  -1.37334  -1.27596
 Alpha  occ. eigenvalues --   -1.09764  -0.94494  -0.85577  -0.73098  -0.69855
 Alpha  occ. eigenvalues --   -0.69143  -0.65685  -0.63338  -0.54884  -0.49285
 Alpha  occ. eigenvalues --   -0.45944  -0.42015  -0.38540  -0.30753  -0.30145
 Alpha virt. eigenvalues --    0.03496   0.05050   0.05344   0.06162   0.07179
 Alpha virt. eigenvalues --    0.09151   0.10008   0.11039   0.11445   0.12388
 Alpha virt. eigenvalues --    0.12991   0.13378   0.13813   0.14967   0.15189

 Mulliken charges:
               1
     1  N   -3.499037
     2  C    4.055810
     3  C   -0.991175
     4  N   -2.213217
     5  C    1.274825
     6  N   -2.391550
     7  C   -1.166089
     8  H    0.690928
     9  H    0.685907
    10  H    1.120301
    11  H    1.331654
    12  H    1.101644
 Sum of Mulliken charges =   0.00000

 Dipole moment (field-independent basis, Debye):
    X=              1.5940    Y=              0.6839    Z=             -1.6101  Tot=              2.3666

 Test job not archived.
 1\1\GINC-SE174\SP\RHF\Aug-CC-pVDZ\C4H5N3\OHZDE\09-Apr-2025\0\\#t hf au
 g-cc-pvdz iop(5/13=1,5/36=2,99/5=2) pseudo=read geom=check guess=(read
 ,tcheck) scf=(maxcycle=1)\\title\\0,1\N,0,-2.09052829,0.17636752,-0.44
 590405\C,0,-0.8191806,-0.02816099,0.02435491\C,0,0.17740792,1.00820648
 ,0.35663561\N,0,1.18557644,1.22180316,-0.58887535\C,0,1.8824652,0.2233
 3096,-0.19897717\N,0,1.17930494,-0.44750171,0.85272413\C,0,-0.07748166
 ,-1.0641399,0.42459026\H,0,-2.21641228,0.99987335,-1.01036388\H,0,-2.5
 4727501,-0.63489263,-0.82584157\H,0,0.78834934,0.53681422,1.45494861\H

 Normal termination of Gaussian 16 at Wed Apr  9 19:26:58 2025.
