 Gaussian 16, Revision C.01,

 ----------------------------------------------------------------------
 #t hf aug-cc-pvdz symm=none int=(grid=ultrafine) guess=(read,tcheck) s
 table=(opt,rrhf)
 ----------------------------------------------------------------------
 -----
 title
 -----
 Symbolic Z-matrix:
 Charge =  0 Multiplicity = 1

 SCF Done:  E(RHF) =  -286.839805648     A.U. after   15 cycles
 Normal termination of Gaussian 16 at Wed Apr  9 18:46:46 2025.
 Gaussian 16:  ES64L-G16RevC.01  3-Jul-2019

 ----------------------------------------------------------------------
 #t hf aug-cc-pvdz iop(5/13=1,5/36=2,99/5=2) pseudo=read geom=check gue
 ss=(read,tcheck) scf=(maxcycle=1)
 ----------------------------------------------------------------------
 -----
 title
 -----
 Structure from the checkpoint file:  "Grambow2020_wb97xd3_007632_reverse_mol2.chk"
 Charge =  0 Multiplicity = 1

                         Standard orientation:
 ---------------------------------------------------------------------
 Center     Atomic      Atomic             Coordinates (Angstroms)
 Number     Number       Type             X           Y           Z
 ---------------------------------------------------------------------
      1          6           0       -2.083247   -0.472924   -0.422937
      2          6           0       -0.699251   -0.159619    0.072592
      3          6           0       -0.446694    1.071409    0.904470
      4          6           0        0.164042    0.977681   -0.455932
      5          6           0        1.571394    0.448154   -0.503544
      6          7           0        1.407962   -0.873076    0.135485
      7          6           0        0.207372   -1.286428    0.449292
      8          1           0       -2.046269   -1.098333   -1.316955
      9          1           0       -2.630124    0.439688   -0.669334
     10          1           0       -2.642472   -1.016559    0.340221
     11          1           0       -1.284125    1.746733    1.028925
     12          1           0        0.197007    0.985184    1.773454
     13          1           0       -0.181809    1.631653   -1.244722
     14          1           0        2.288591    1.052354    0.058050
     15          1           0        2.219758   -1.432332    0.343896
     16          1           0        1.942008    0.333503   -1.525572
 ---------------------------------------------------------------------

 SCF Done:  E(RHF) =  -288.239423188     A.U. after    2 cycles

 The electronic state is 1-A.
 Alpha  occ. eigenvalues --  -15.77187 -11.47007 -11.42529 -11.41008 -11.38048
 Alpha  occ. eigenvalues --  -11.37498 -11.35046  -1.49820  -1.26539  -1.08341
 Alpha  occ. eigenvalues --   -1.01550  -0.90595  -0.82380  -0.74931  -0.68734
 Alpha  occ. eigenvalues --   -0.64648  -0.60241  -0.57558  -0.56035  -0.53151
 Alpha  occ. eigenvalues --   -0.49005  -0.45965  -0.44441  -0.38863  -0.35450
 Alpha  occ. eigenvalues --   -0.30498
 Alpha virt. eigenvalues --    0.03763   0.05227   0.05348   0.05397   0.05747
 Alpha virt. eigenvalues --    0.06118   0.06300   0.07439   0.07503   0.11082
 Alpha virt. eigenvalues --    0.11588   0.11785   0.12304   0.13507   0.14070

 Mulliken charges:
               1
     1  C   -4.989525
     2  C    3.579669
     3  C   -2.560646
     4  C   -0.871100
     5  C   -2.929918
     6  N   -2.111572
     7  C   -1.460755
     8  H    1.293624
     9  H    1.188074
    10  H    1.266318
    11  H    1.377221
    12  H    1.365530
    13  H    1.405565
    14  H    1.303748
    15  H    0.747316
    16  H    1.396449
 Sum of Mulliken charges =   0.00000

 Dipole moment (field-independent basis, Debye):
    X=              1.7117    Y=              2.4370    Z=             -1.2103  Tot=              3.2146

 Test job not archived.
 1\1\GINC-SE135\SP\RHF\Aug-CC-pVDZ\C6H9N1\OHZDE\09-Apr-2025\0\\#t hf au
 g-cc-pvdz iop(5/13=1,5/36=2,99/5=2) pseudo=read geom=check guess=(read
 ,tcheck) scf=(maxcycle=1)\\title\\0,1\C,0,1.79704504,-0.72723855,0.739
 30971\C,0,0.56670907,-0.32141088,-0.02274664\C,0,0.56008026,0.94137831
 ,-0.84527663\C,0,-0.32714064,0.85223357,0.35362553\C,0,-1.73898883,0.4
 056746,0.08796027\N,0,-1.51482748,-0.90767957,-0.54888258\C,0,-0.29863
 04,-1.38371868,-0.61961772\H,0,1.53993398,-1.3699939,1.58342511\H,0,2.
 32728656,0.14555171,1.12625594\H,0,2.47474277,-1.28502155,0.09101451\H

 Normal termination of Gaussian 16 at Wed Apr  9 18:46:52 2025.
