 Gaussian 16, Revision C.01,

 ----------------------------------------------------------------------
 #t hf aug-cc-pvdz symm=none int=(grid=ultrafine) guess=(read,tcheck) s
 table=(opt,rrhf)
 ----------------------------------------------------------------------
 -----
 title
 -----
 Symbolic Z-matrix:
 Charge =  0 Multiplicity = 1

 SCF Done:  E(RHF) =  -302.919325565     A.U. after   14 cycles
 Normal termination of Gaussian 16 at Wed Apr  9 18:32:30 2025.
 Gaussian 16:  ES64L-G16RevC.01  3-Jul-2019

 ----------------------------------------------------------------------
 #t hf aug-cc-pvdz iop(5/13=1,5/36=2,99/5=2) pseudo=read geom=check gue
 ss=(read,tcheck) scf=(maxcycle=1)
 ----------------------------------------------------------------------
 -----
 title
 -----
 Structure from the checkpoint file:  "Grambow2020_wb97xd3_007234_reverse_mol2.chk"
 Charge =  0 Multiplicity = 1

                         Standard orientation:
 ---------------------------------------------------------------------
 Center     Atomic      Atomic             Coordinates (Angstroms)
 Number     Number       Type             X           Y           Z
 ---------------------------------------------------------------------
      1          6           0       -2.211953   -0.626494    0.450115
      2          7           0       -0.758296    1.276032   -0.106327
      3          6           0       -1.104386   -0.096209   -0.446026
      4          7           0        0.096004   -0.908214   -0.368212
      5          6           0        1.035965   -0.116013   -0.027659
      6          6           0        2.458496   -0.506314    0.170231
      7          6           0        0.489307    1.252353    0.136377
      8          1           0       -3.097884    0.000483    0.356336
      9          1           0       -2.460268   -1.649270    0.169888
     10          1           0       -1.885720   -0.616863    1.491284
     11          1           0       -1.443520   -0.098866   -1.488802
     12          1           0        2.595088   -1.561140   -0.057556
     13          1           0        3.109850    0.089113   -0.473536
     14          1           0        2.765491   -0.319939    1.202068
     15          1           0        1.048429    2.137815    0.423862
 ---------------------------------------------------------------------

 SCF Done:  E(RHF) =  -304.364949324     A.U. after    2 cycles

 The electronic state is 1-A.
 Alpha  occ. eigenvalues --  -15.73888 -15.72765 -11.46160 -11.44123 -11.42512
 Alpha  occ. eigenvalues --  -11.39254 -11.36662  -1.53728  -1.26723  -1.16414
 Alpha  occ. eigenvalues --   -1.06836  -0.94192  -0.80665  -0.77147  -0.68835
 Alpha  occ. eigenvalues --   -0.63693  -0.59131  -0.57300  -0.56691  -0.53731
 Alpha  occ. eigenvalues --   -0.50565  -0.46915  -0.42596  -0.39754  -0.37276
 Alpha  occ. eigenvalues --   -0.36921
 Alpha virt. eigenvalues --    0.03308   0.05230   0.05376   0.05779   0.06391
 Alpha virt. eigenvalues --    0.06641   0.06970   0.07055   0.09812   0.10647
 Alpha virt. eigenvalues --    0.11347   0.11860   0.12183   0.12970   0.13625

 Mulliken charges:
               1
     1  C   -3.071984
     2  N   -2.680229
     3  C   -0.501243
     4  N   -3.211013
     5  C    4.303411
     6  C   -4.686616
     7  C   -0.870277
     8  H    1.237714
     9  H    1.308128
    10  H    1.358326
    11  H    1.812880
    12  H    1.255922
    13  H    1.201494
    14  H    1.189239
    15  H    1.354249
 Sum of Mulliken charges =   0.00000

 Dipole moment (field-independent basis, Debye):
    X=              1.4108    Y=              0.2066    Z=              0.3274  Tot=              1.4629

 Test job not archived.
 1\1\GINC-SE014\SP\RHF\Aug-CC-pVDZ\C5H8N2\OHZDE\09-Apr-2025\0\\#t hf au
 g-cc-pvdz iop(5/13=1,5/36=2,99/5=2) pseudo=read geom=check guess=(read
 ,tcheck) scf=(maxcycle=1)\\title\\0,1\C,0,-2.24355691,0.18351237,0.634
 13091\N,0,-0.85753553,-0.42538627,-1.30249983\C,0,-1.0827693,-0.651162
 71,0.11754056\N,0,0.14986695,-0.37189218,0.8309535\C,0,0.9996253,-0.02
 647517,-0.05543342\C,0,2.41478739,0.34898171,0.21185041\C,0,0.35714053
 ,-0.06113171,-1.39116473\H,0,-3.15117463,-0.06148258,0.08369859\H,0,-2
 .39904924,-0.01058698,1.69451152\H,0,-2.02872407,1.24471589,0.49904798

 Normal termination of Gaussian 16 at Wed Apr  9 18:32:35 2025.
