 Gaussian 16, Revision C.01,

 ----------------------------------------------------------------------
 #t hf aug-cc-pvdz symm=none int=(grid=ultrafine) guess=(read,tcheck) s
 table=(opt,rrhf)
 ----------------------------------------------------------------------
 -----
 title
 -----
 Symbolic Z-matrix:
 Charge =  0 Multiplicity = 1

 SCF Done:  E(RHF) =  -302.297950256     A.U. after   15 cycles
 Normal termination of Gaussian 16 at Wed Apr  9 16:04:10 2025.
 Gaussian 16:  ES64L-G16RevC.01  3-Jul-2019

 ----------------------------------------------------------------------
 #t hf aug-cc-pvdz iop(5/13=1,5/36=2,99/5=2) pseudo=read geom=check gue
 ss=(read,tcheck) scf=(maxcycle=1)
 ----------------------------------------------------------------------
 -----
 title
 -----
 Structure from the checkpoint file:  "Grambow2020_b97d3_006709_reverse_mol2.chk"
 Charge =  0 Multiplicity = 1

                         Standard orientation:
 ---------------------------------------------------------------------
 Center     Atomic      Atomic             Coordinates (Angstroms)
 Number     Number       Type             X           Y           Z
 ---------------------------------------------------------------------
      1          8           0        0.172763    1.846721   -0.001372
      2          6           0       -2.225857   -0.706021    0.000514
      3          6           0       -1.168108   -0.099416   -0.000030
      4          6           0        0.083930    0.622408    0.000182
      5          6           0        1.372550   -0.225035    0.002360
      6          8           0        1.389304   -1.438006   -0.002078
      7          1           0       -3.158330   -1.234597    0.001743
      8          1           0        2.286693    0.413266    0.007702
 ---------------------------------------------------------------------

 SCF Done:  E(RHF) =  -303.572415395     A.U. after    2 cycles

 The electronic state is 1-A.
 Alpha  occ. eigenvalues --  -21.11340 -21.11134 -11.55444 -11.50897 -11.46517
 Alpha  occ. eigenvalues --  -11.44263  -1.76291  -1.72473  -1.16282  -1.01911
 Alpha  occ. eigenvalues --   -0.89172  -0.74956  -0.67337  -0.60510  -0.56051
 Alpha  occ. eigenvalues --   -0.54447  -0.45680  -0.41234  -0.38449  -0.37800
 Alpha  occ. eigenvalues --   -0.30958
 Alpha virt. eigenvalues --    0.02862   0.05210   0.06824   0.08707   0.09982
 Alpha virt. eigenvalues --    0.10267   0.10418   0.10704   0.11705   0.12826
 Alpha virt. eigenvalues --    0.13829   0.14035   0.14463   0.14677   0.16805

 Mulliken charges:
               1
     1  O   -3.227595
     2  C   -2.836393
     3  C    2.517558
     4  C    3.335742
     5  C    0.572152
     6  O   -2.637826
     7  H    0.767935
     8  H    1.508427
 Sum of Mulliken charges =   0.00000

 Dipole moment (field-independent basis, Debye):
    X=             -0.7954    Y=             -0.5842    Z=              0.0058  Tot=              0.9869

 Test job not archived.
 1\1\GINC-SE138\SP\RHF\Aug-CC-pVDZ\C4H2O2\OHZDE\09-Apr-2025\0\\#t hf au
 g-cc-pvdz iop(5/13=1,5/36=2,99/5=2) pseudo=read geom=check guess=(read
 ,tcheck) scf=(maxcycle=1)\\title\\0,1\O,0,-0.38951787,1.9426823,-0.139
 29836\C,0,-1.73457348,-1.28605782,-0.32886314\C,0,-0.9630608,-0.348774
 71,-0.21453624\C,0,-0.05127184,0.76423388,-0.07858596\C,0,1.43344121,0
 .41920971,0.15655259\O,0,1.86652717,-0.71183126,0.22569691\H,0,-2.4169
 5206,-2.10653196,-0.42927174\H,0,2.06011668,1.33616986,0.25441095\\Ver
 sion=ES64L-G16RevC.01\State=1-A\HF=-303.5724154\RMSD=7.013e-01\Dipole=

 Normal termination of Gaussian 16 at Wed Apr  9 16:04:12 2025.
