 Gaussian 16, Revision C.01,

 ----------------------------------------------------------------------
 #t hf aug-cc-pvdz symm=none int=(grid=ultrafine) guess=(read,tcheck) s
 table=(opt,rrhf)
 ----------------------------------------------------------------------
 -----
 title
 -----
 Symbolic Z-matrix:
 Charge =  0 Multiplicity = 1

 SCF Done:  E(RHF) =  -342.572468639     A.U. after   15 cycles
 Normal termination of Gaussian 16 at Wed Apr  9 19:16:55 2025.
 Gaussian 16:  ES64L-G16RevC.01  3-Jul-2019

 ----------------------------------------------------------------------
 #t hf aug-cc-pvdz iop(5/13=1,5/36=2,99/5=2) pseudo=read geom=check gue
 ss=(read,tcheck) scf=(maxcycle=1)
 ----------------------------------------------------------------------
 -----
 title
 -----
 Structure from the checkpoint file:  "Grambow2020_wb97xd3_008530_reverse_mol2.chk"
 Charge =  0 Multiplicity = 1

                         Standard orientation:
 ---------------------------------------------------------------------
 Center     Atomic      Atomic             Coordinates (Angstroms)
 Number     Number       Type             X           Y           Z
 ---------------------------------------------------------------------
      1          8           0       -2.268603   -0.047458   -0.149318
      2          6           0       -1.076978    0.024705   -0.003592
      3          6           0       -0.256723   -1.226140    0.258484
      4          8           0        1.075143   -1.195475   -0.220169
      5          6           0        1.732000   -0.018954   -0.070535
      6          6           0       -0.333506    1.339800    0.021540
      7          6           0        1.152940    1.164282    0.078483
      8          1           0       -0.749670   -2.080906   -0.199575
      9          1           0       -0.246410   -1.369742    1.348353
     10          1           0        2.805621   -0.155057   -0.107198
     11          1           0       -0.713351    1.907903    0.877273
     12          1           0       -0.638563    1.903827   -0.864808
     13          1           0        1.783647    2.035279    0.195576
 ---------------------------------------------------------------------

 SCF Done:  E(RHF) =  -344.091421398     A.U. after    2 cycles

 The electronic state is 1-A.
 Alpha  occ. eigenvalues --  -21.08778 -21.06219 -11.51267 -11.46847 -11.43850
 Alpha  occ. eigenvalues --  -11.42681 -11.38450  -1.81264  -1.71552  -1.21858
 Alpha  occ. eigenvalues --   -1.11011  -0.98057  -0.84165  -0.75060  -0.68116
 Alpha  occ. eigenvalues --   -0.64818  -0.62876  -0.59935  -0.55219  -0.54253
 Alpha  occ. eigenvalues --   -0.49457  -0.47237  -0.42038  -0.40532  -0.29778
 Alpha  occ. eigenvalues --   -0.26936
 Alpha virt. eigenvalues --    0.02973   0.04878   0.05220   0.05630   0.06605
 Alpha virt. eigenvalues --    0.06821   0.08795   0.11270   0.11593   0.12386
 Alpha virt. eigenvalues --    0.12855   0.13442   0.13722   0.14554   0.14992

 Mulliken charges:
               1
     1  O   -3.460379
     2  C    4.432350
     3  C   -2.331708
     4  O   -3.351621
     5  C    0.478258
     6  C   -3.766328
     7  C   -0.285871
     8  H    1.329165
     9  H    1.364112
    10  H    1.580803
    11  H    1.311329
    12  H    1.348677
    13  H    1.351213
 Sum of Mulliken charges =   0.00000

 Dipole moment (field-independent basis, Debye):
    X=              1.1414    Y=              0.1027    Z=              0.2872  Tot=              1.1815

 Test job not archived.
 1\1\GINC-SE159\SP\RHF\Aug-CC-pVDZ\C5H6O2\OHZDE\09-Apr-2025\0\\#t hf au
 g-cc-pvdz iop(5/13=1,5/36=2,99/5=2) pseudo=read geom=check guess=(read
 ,tcheck) scf=(maxcycle=1)\\title\\0,1\O,0,1.483664,-0.03282349,2.00150
 847\C,0,0.81027795,-0.00362472,1.00545979\C,0,1.42846981,-0.29749019,-
 0.35012061\O,0,0.55989077,-0.87778576,-1.30549596\C,0,-0.70555329,-0.3
 9181517,-1.32870126\C,0,-0.64382835,0.40672344,1.01213902\C,0,-1.30134
 731,0.23260265,-0.32237346\H,0,2.27147487,-0.97287924,-0.22115713\H,0,
 1.80297674,0.66111609,-0.73659367\H,0,-1.19190034,-0.59306792,-2.27500

 Normal termination of Gaussian 16 at Wed Apr  9 19:16:59 2025.
