 Gaussian 16, Revision C.01,

 ----------------------------------------------------------------------
 #t hf aug-cc-pvdz symm=none int=(grid=ultrafine) guess=(read,tcheck) s
 table=(opt,rrhf)
 ----------------------------------------------------------------------
 -----
 title
 -----
 Symbolic Z-matrix:
 Charge =  0 Multiplicity = 1

 SCF Done:  E(RHF) =  -341.378582190     A.U. after   15 cycles
 Normal termination of Gaussian 16 at Wed Apr  9 19:29:53 2025.
 Gaussian 16:  ES64L-G16RevC.01  3-Jul-2019

 ----------------------------------------------------------------------
 #t hf aug-cc-pvdz iop(5/13=1,5/36=2,99/5=2) pseudo=read geom=check gue
 ss=(read,tcheck) scf=(maxcycle=1)
 ----------------------------------------------------------------------
 -----
 title
 -----
 Structure from the checkpoint file:  "Grambow2020_wb97xd3_009087_reverse_mol2.chk"
 Charge =  0 Multiplicity = 1

                         Standard orientation:
 ---------------------------------------------------------------------
 Center     Atomic      Atomic             Coordinates (Angstroms)
 Number     Number       Type             X           Y           Z
 ---------------------------------------------------------------------
      1          8           0        2.534563   -0.998397    0.001496
      2          6           0        1.427112   -0.519629    0.003316
      3          6           0        1.161567    0.915284   -0.005033
      4          6           0       -0.050961    1.491305   -0.002341
      5          6           0       -1.388643    0.931160    0.005961
      6          6           0       -1.748151   -0.339698    0.000258
      7          8           0       -2.120506   -1.427578   -0.004800
      8          1           0        0.545300   -1.192733    0.012169
      9          1           0        2.040322    1.548989   -0.010797
     10          1           0       -0.066638    2.576082   -0.005050
     11          1           0       -2.236983    1.604934    0.017149
 ---------------------------------------------------------------------

 SCF Done:  E(RHF) =  -342.860333748     A.U. after    2 cycles

 The electronic state is 1-A.
 Alpha  occ. eigenvalues --  -21.17650 -21.05857 -11.58684 -11.49682 -11.48588
 Alpha  occ. eigenvalues --  -11.44316 -11.40803  -1.81306  -1.70664  -1.27059
 Alpha  occ. eigenvalues --   -1.10978  -0.93862  -0.81688  -0.74046  -0.67836
 Alpha  occ. eigenvalues --   -0.63423  -0.60134  -0.60083  -0.55896  -0.50702
 Alpha  occ. eigenvalues --   -0.49858  -0.48517  -0.40643  -0.29497  -0.28021
 Alpha virt. eigenvalues --    0.02334   0.04717   0.05600   0.06965   0.08366
 Alpha virt. eigenvalues --    0.08613   0.09606   0.11243   0.11869   0.11995
 Alpha virt. eigenvalues --    0.12858   0.13304   0.13839   0.14103   0.14738

 Mulliken charges:
               1
     1  O   -2.962836
     2  C    0.456813
     3  C   -0.381609
     4  C   -0.286441
     5  C   -0.295778
     6  C    0.805642
     7  O   -2.387487
     8  H    1.182685
     9  H    1.295664
    10  H    1.208734
    11  H    1.364613
 Sum of Mulliken charges =   0.00000

 Dipole moment (field-independent basis, Debye):
    X=             -2.8155    Y=              0.4125    Z=              0.0023  Tot=              2.8456

 Test job not archived.
 1\1\GINC-SE036\SP\RHF\Aug-CC-pVDZ\C5H4O2\OHZDE\09-Apr-2025\0\\#t hf au
 g-cc-pvdz iop(5/13=1,5/36=2,99/5=2) pseudo=read geom=check guess=(read
 ,tcheck) scf=(maxcycle=1)\\title\\0,1\O,0,-2.08819491,1.96766106,-0.36
 857466\C,0,-1.14534402,1.24263358,-0.16599733\C,0,-1.13440103,-0.18312
 585,-0.47688141\C,0,-0.11089825,-1.02629941,-0.26823669\C,0,1.21400287
 ,-0.82213465,0.28509691\C,0,1.75798167,0.29820134,0.72474616\O,0,2.283
 35948,1.24151437,1.1200898\H,0,-0.22291045,1.66510715,0.28274755\H,0,-
 2.04857175,-0.56953714,-0.91139829\H,0,-0.27476727,-2.05974268,-0.5548

 Normal termination of Gaussian 16 at Wed Apr  9 19:29:57 2025.
