 Gaussian 16, Revision C.01,

 ----------------------------------------------------------------------
 #t hf aug-cc-pvdz symm=none int=(grid=ultrafine) guess=(read,tcheck) s
 table=(opt,rrhf)
 ----------------------------------------------------------------------
 -----
 title
 -----
 Symbolic Z-matrix:
 Charge =  0 Multiplicity = 1

 SCF Done:  E(RHF) =  -343.520808169     A.U. after   15 cycles
 Normal termination of Gaussian 16 at Wed Apr  9 03:28:24 2025.
 Gaussian 16:  ES64L-G16RevC.01  3-Jul-2019

 ----------------------------------------------------------------------
 #t hf aug-cc-pvdz iop(5/13=1,5/36=2,99/5=2) pseudo=read geom=check gue
 ss=(read,tcheck) scf=(maxcycle=1)
 ----------------------------------------------------------------------
 -----
 title
 -----
 Structure from the checkpoint file:  "Grambow2020_wb97xd3_006722_reverse_mol1.chk"
 Charge =  0 Multiplicity = 1

                         Standard orientation:
 ---------------------------------------------------------------------
 Center     Atomic      Atomic             Coordinates (Angstroms)
 Number     Number       Type             X           Y           Z
 ---------------------------------------------------------------------
      1          8           0       -2.671134    0.040062   -0.432293
      2          6           0       -1.327902   -0.594567    0.674776
      3          6           0       -0.292392   -0.006624   -0.077579
      4          8           0        0.428668    1.133509    0.429669
      5          6           0        1.599547    0.661894   -0.227165
      6          6           0        2.046330   -0.650480    0.313744
      7          6           0        0.934961   -0.593248   -0.713801
      8          1           0       -3.137089    0.799322   -0.058448
      9          1           0       -1.641704   -0.160308    1.617720
     10          1           0       -1.564950   -1.640264    0.530133
     11          1           0       -1.528164    0.317721   -0.768403
     12          1           0        2.228785    1.386746   -0.725152
     13          1           0        1.829632   -0.906637    1.344726
     14          1           0        2.997710   -1.005187   -0.064398
     15          1           0        0.992242   -1.081818   -1.675039
 ---------------------------------------------------------------------

 SCF Done:  E(RHF) =  -345.109252694     A.U. after    2 cycles

 The electronic state is 1-A.
 Alpha  occ. eigenvalues --  -21.05282 -21.03615 -11.51379 -11.45492 -11.44527
 Alpha  occ. eigenvalues --  -11.40488 -11.36905  -1.78509  -1.65142  -1.24941
 Alpha  occ. eigenvalues --   -1.12331  -0.92146  -0.84821  -0.76667  -0.72525
 Alpha  occ. eigenvalues --   -0.66577  -0.63419  -0.58872  -0.57981  -0.47995
 Alpha  occ. eigenvalues --   -0.47193  -0.44580  -0.40777  -0.38907  -0.35850
 Alpha  occ. eigenvalues --   -0.31325  -0.20233
 Alpha virt. eigenvalues --    0.03732   0.04955   0.05179   0.05725   0.05925
 Alpha virt. eigenvalues --    0.06248   0.06660   0.09156   0.09578   0.10782
 Alpha virt. eigenvalues --    0.12400   0.12772   0.13591   0.14167   0.14571

 Mulliken charges:
               1
     1  O   -1.958358
     2  C   -2.646246
     3  C    2.294782
     4  O   -3.521520
     5  C    1.343497
     6  C   -3.280039
     7  C   -2.062972
     8  H    0.855889
     9  H    1.245546
    10  H    1.249466
    11  H    1.601930
    12  H    1.306084
    13  H    1.176045
    14  H    1.365768
    15  H    1.030129
 Sum of Mulliken charges =   0.00000

 Dipole moment (field-independent basis, Debye):
    X=             -0.6547    Y=             -0.5902    Z=              0.5501  Tot=              1.0390

 Test job not archived.
 1\1\GINC-SE073\SP\RHF\Aug-CC-pVDZ\C5H8O2\OHZDE\09-Apr-2025\0\\#t hf au
 g-cc-pvdz iop(5/13=1,5/36=2,99/5=2) pseudo=read geom=check guess=(read
 ,tcheck) scf=(maxcycle=1)\\title\\0,1\O,0,2.50726369,-0.26598032,1.160
 0912\C,0,1.54213534,0.29542341,-0.31841512\C,0,0.2919375,0.0096855,0.2
 6412636\O,0,-0.58012492,1.07432404,0.69212387\C,0,-1.70162008,0.270412
 58,0.34458787\C,0,-1.7419847,-0.02136307,-1.11409694\C,0,-0.85404009,-
 0.84185364,-0.20162048\H,0,2.84048288,0.46916189,1.69101474\H,0,1.8956
 6996,1.31780337,-0.39554702\H,0,1.98640022,-0.41467652,-1.00323774\H,0

 Normal termination of Gaussian 16 at Wed Apr  9 03:28:28 2025.
