 Gaussian 16, Revision C.01,

 ----------------------------------------------------------------------
 #t hf aug-cc-pvdz symm=none int=(grid=ultrafine) guess=(read,tcheck) s
 table=(opt,rrhf)
 ----------------------------------------------------------------------
 -----
 title
 -----
 Symbolic Z-matrix:
 Charge =  0 Multiplicity = 1

 SCF Done:  E(RHF) =  -316.353382850     A.U. after   17 cycles
 Normal termination of Gaussian 16 at Wed Apr  9 18:33:07 2025.
 Gaussian 16:  ES64L-G16RevC.01  3-Jul-2019

 ----------------------------------------------------------------------
 #t hf aug-cc-pvdz iop(5/13=1,5/36=2,99/5=2) pseudo=read geom=check gue
 ss=(read,tcheck) scf=(maxcycle=1)
 ----------------------------------------------------------------------
 -----
 title
 -----
 Structure from the checkpoint file:  "Grambow2020_wb97xd3_007266_forward_mol1.chk"
 Charge =  0 Multiplicity = 1

                         Standard orientation:
 ---------------------------------------------------------------------
 Center     Atomic      Atomic             Coordinates (Angstroms)
 Number     Number       Type             X           Y           Z
 ---------------------------------------------------------------------
      1          7           0       -2.320368   -0.379025   -0.084100
      2          6           0       -1.187884   -0.119142   -0.092533
      3          6           0        0.273232    0.303765   -0.908247
      4          7           0        1.201538   -0.746657   -0.716854
      5          6           0        1.048199   -0.867201    0.551379
      6          6           0        0.159755    0.278591    0.895265
      7          7           0        0.694434    1.323986   -0.009557
      8          1           0        1.443157   -1.654628    1.181640
      9          1           0       -0.266835    0.589806    1.840547
     10          1           0        0.034633    2.100616   -0.023795
 ---------------------------------------------------------------------

 SCF Done:  E(RHF) =  -317.788707173     A.U. after    2 cycles

 The electronic state is 1-A.
 Alpha  occ. eigenvalues --  -15.81012 -15.78173 -15.74255 -11.56144 -11.53761
 Alpha  occ. eigenvalues --  -11.48344 -11.43421  -1.66288  -1.33903  -1.28704
 Alpha  occ. eigenvalues --   -1.07414  -0.97728  -0.82339  -0.80795  -0.71116
 Alpha  occ. eigenvalues --   -0.64082  -0.57714  -0.55121  -0.52187  -0.47818
 Alpha  occ. eigenvalues --   -0.44731  -0.41855  -0.40965  -0.31789
 Alpha virt. eigenvalues --    0.02634   0.03970   0.04560   0.05535   0.08603
 Alpha virt. eigenvalues --    0.09342   0.10093   0.10873   0.11182   0.11474
 Alpha virt. eigenvalues --    0.12539   0.12851   0.13949   0.14864   0.14947

 Mulliken charges:
               1
     1  N   -3.054711
     2  C    3.448827
     3  C    1.184112
     4  N   -2.488680
     5  C    1.142898
     6  C   -1.906394
     7  N   -1.509471
     8  H    1.352912
     9  H    1.128170
    10  H    0.702336
 Sum of Mulliken charges =  -0.00000

 Dipole moment (field-independent basis, Debye):
    X=              2.9789    Y=              1.6265    Z=              3.0037  Tot=              4.5323

 Test job not archived.
 1\1\GINC-SE454\SP\RHF\Aug-CC-pVDZ\C4H3N3\OHZDE\09-Apr-2025\0\\#t hf au
 g-cc-pvdz iop(5/13=1,5/36=2,99/5=2) pseudo=read geom=check guess=(read
 ,tcheck) scf=(maxcycle=1)\\title\\0,1\N,0,1.94561017,-0.09786262,-1.50
 091192\C,0,1.13554458,-0.08196533,-0.66804218\C,0,0.61532952,-0.337068
 29,0.95781028\N,0,-0.3738276,-1.3486177,0.94759225\C,0,-1.08226591,-0.
 87060951,-0.00952927\C,0,-0.44814378,0.45204596,-0.27202314\N,0,-0.113
 0416,0.87650838,1.10818458\H,0,-1.90533601,-1.36003715,-0.51576801\H,0
 ,-0.67678181,1.21879685,-1.00154934\H,0,0.51739844,1.6752694,1.0514397

 Normal termination of Gaussian 16 at Wed Apr  9 18:33:11 2025.
