 Gaussian 16, Revision C.01,

 ----------------------------------------------------------------------
 #t hf aug-cc-pvdz symm=none int=(grid=ultrafine) guess=(read,tcheck) s
 table=(opt,rrhf)
 ----------------------------------------------------------------------
 -----
 title
 -----
 Symbolic Z-matrix:
 Charge =  0 Multiplicity = 1

 SCF Done:  E(RHF) =  -323.924449954     A.U. after   13 cycles
 Normal termination of Gaussian 16 at Wed Apr  9 18:32:32 2025.
 Gaussian 16:  ES64L-G16RevC.01  3-Jul-2019

 ----------------------------------------------------------------------
 #t hf aug-cc-pvdz iop(5/13=1,5/36=2,99/5=2) pseudo=read geom=check gue
 ss=(read,tcheck) scf=(maxcycle=1)
 ----------------------------------------------------------------------
 -----
 title
 -----
 Structure from the checkpoint file:  "Grambow2020_wb97xd3_007248_reverse_mol2.chk"
 Charge =  0 Multiplicity = 1

                         Standard orientation:
 ---------------------------------------------------------------------
 Center     Atomic      Atomic             Coordinates (Angstroms)
 Number     Number       Type             X           Y           Z
 ---------------------------------------------------------------------
      1          6           0        2.446036   -0.616854    0.161765
      2          6           0        1.039471   -0.169534   -0.029592
      3          6           0       -2.244429   -0.667623    0.415667
      4          6           0        0.605899    1.266973    0.114255
      5          8           0       -0.786556    1.197263   -0.045709
      6          6           0       -1.121511   -0.136797   -0.446255
      7          7           0        0.082188   -0.934045   -0.341790
      8          1           0        2.521730   -1.692357    0.017636
      9          1           0        2.793812   -0.361059    1.165373
     10          1           0        3.106601   -0.111420   -0.547008
     11          1           0       -1.923403   -0.716709    1.457292
     12          1           0       -3.109922   -0.008768    0.343758
     13          1           0       -2.529545   -1.667135    0.086450
     14          1           0        0.862950    1.683127    1.094848
     15          1           0        1.071572    1.900256   -0.654518
     16          1           0       -1.429462   -0.122713   -1.500669
 ---------------------------------------------------------------------

 SCF Done:  E(RHF) =  -325.438277593     A.U. after    2 cycles

 The electronic state is 1-A.
 Alpha  occ. eigenvalues --  -21.03996 -15.72187 -11.46443 -11.44999 -11.42598
 Alpha  occ. eigenvalues --  -11.38656 -11.36072  -1.78644  -1.37605  -1.17236
 Alpha  occ. eigenvalues --   -1.06470  -0.99079  -0.84911  -0.75430  -0.68757
 Alpha  occ. eigenvalues --   -0.65621  -0.60417  -0.57855  -0.57551  -0.56112
 Alpha  occ. eigenvalues --   -0.52109  -0.49368  -0.47025  -0.39846  -0.38893
 Alpha  occ. eigenvalues --   -0.35722  -0.29484
 Alpha virt. eigenvalues --    0.03405   0.05112   0.05362   0.06050   0.06201
 Alpha virt. eigenvalues --    0.06569   0.06750   0.07035   0.07240   0.10684
 Alpha virt. eigenvalues --    0.11503   0.11702   0.13128   0.13534   0.14023

 Mulliken charges:
               1
     1  C   -4.813385
     2  C    3.884644
     3  C   -3.288706
     4  C   -1.815119
     5  O   -3.178514
     6  C    0.653136
     7  N   -3.328562
     8  H    1.293906
     9  H    1.230914
    10  H    1.231482
    11  H    1.340989
    12  H    1.226073
    13  H    1.268554
    14  H    1.308474
    15  H    1.236480
    16  H    1.749635
 Sum of Mulliken charges =  -0.00000

 Dipole moment (field-independent basis, Debye):
    X=              1.2724    Y=              0.7341    Z=              0.2603  Tot=              1.4918

 Test job not archived.
 1\1\GINC-SE113\SP\RHF\Aug-CC-pVDZ\C5H9N1O1\OHZDE\09-Apr-2025\0\\#t hf
 aug-cc-pvdz iop(5/13=1,5/36=2,99/5=2) pseudo=read geom=check guess=(re
 ad,tcheck) scf=(maxcycle=1)\\title\\0,1\C,0,1.0023594,1.64870233,1.463
 99823\C,0,0.21955005,0.69682963,0.62956176\C,0,0.01158653,-1.32616923,
 -2.0340027\C,0,-0.68098372,-0.3614903,1.21370759\O,0,-1.1148685,-1.070
 48104,0.08301972\C,0,-0.66596574,-0.36727435,-1.08159854\N,0,0.2183465
 ,0.68802052,-0.63465968\H,0,1.58547059,2.31310207,0.83015026\H,0,1.673
 85557,1.1054496,2.13301168\H,0,0.3344603,2.24416964,2.0912929\H,0,0.89

 Normal termination of Gaussian 16 at Wed Apr  9 18:32:37 2025.
