 Gaussian 16, Revision C.01,

 ----------------------------------------------------------------------
 #t hf aug-cc-pvdz symm=none int=(grid=ultrafine) guess=(read,tcheck) s
 table=(opt,rrhf)
 ----------------------------------------------------------------------
 -----
 title
 -----
 Symbolic Z-matrix:
 Charge =  0 Multiplicity = 1

 SCF Done:  E(RHF) =  -375.764630879     A.U. after   15 cycles
 Normal termination of Gaussian 16 at Wed Apr  9 03:46:25 2025.
 Gaussian 16:  ES64L-G16RevC.01  3-Jul-2019

 ----------------------------------------------------------------------
 #t hf aug-cc-pvdz iop(5/13=1,5/36=2,99/5=2) pseudo=read geom=check gue
 ss=(read,tcheck) scf=(maxcycle=1)
 ----------------------------------------------------------------------
 -----
 title
 -----
 Structure from the checkpoint file:  "Grambow2020_wb97xd3_007909_reverse_mol2.chk"
 Charge =  0 Multiplicity = 1

                         Standard orientation:
 ---------------------------------------------------------------------
 Center     Atomic      Atomic             Coordinates (Angstroms)
 Number     Number       Type             X           Y           Z
 ---------------------------------------------------------------------
      1          6           0       -3.405624    0.658912   -0.040179
      2          8           0        4.153348    0.344969   -0.471930
      3          6           0        3.141711    0.021615    0.011984
      4          7           0        2.164777   -0.390710    0.571929
      5          7           0       -0.638426    0.277896    0.287186
      6          6           0       -1.432273   -0.628673   -0.088338
      7          8           0       -2.751302   -0.577982   -0.278920
      8          1           0       -3.017795    1.439446   -0.699770
      9          1           0       -3.295884    0.963882    1.003651
     10          1           0       -4.456301    0.490689   -0.259128
     11          1           0        1.182679   -0.099809    0.485141
     12          1           0       -1.076822    1.174277    0.472014
     13          1           0       -1.059585   -1.625801   -0.309712
 ---------------------------------------------------------------------

 SCF Done:  E(RHF) =  -377.404941886     A.U. after    2 cycles

 The electronic state is 1-A.
 Alpha  occ. eigenvalues --  -21.11883 -21.09482 -15.75598 -15.74221 -11.54271
 Alpha  occ. eigenvalues --  -11.48947 -11.44188  -1.83927  -1.74443  -1.34286
 Alpha  occ. eigenvalues --   -1.31962  -1.05824  -0.85941  -0.77613  -0.70405
 Alpha  occ. eigenvalues --   -0.66529  -0.66018  -0.59897  -0.57975  -0.56666
 Alpha  occ. eigenvalues --   -0.55467  -0.52219  -0.47835  -0.41047  -0.35062
 Alpha  occ. eigenvalues --   -0.34388  -0.31888
 Alpha virt. eigenvalues --    0.02391   0.04847   0.05279   0.05332   0.06188
 Alpha virt. eigenvalues --    0.07660   0.08867   0.09886   0.11475   0.11885
 Alpha virt. eigenvalues --    0.12662   0.13112   0.13535   0.14361   0.15568

 Mulliken charges:
               1
     1  C   -3.061928
     2  O   -2.226311
     3  C    3.794616
     4  N   -2.560125
     5  N   -2.701559
     6  C    2.313484
     7  O   -3.173445
     8  H    1.320317
     9  H    1.324170
    10  H    1.279990
    11  H    1.133567
    12  H    0.654077
    13  H    1.903147
 Sum of Mulliken charges =  -0.00000

 Dipole moment (field-independent basis, Debye):
    X=             -5.2368    Y=              1.0245    Z=             -0.9013  Tot=              5.4116

 Test job not archived.
 1\1\GINC-SE423\SP\RHF\Aug-CC-pVDZ\C3H6N2O2\OHZDE\09-Apr-2025\0\\#t hf
 aug-cc-pvdz iop(5/13=1,5/36=2,99/5=2) pseudo=read geom=check guess=(re
 ad,tcheck) scf=(maxcycle=1)\\title\\0,1\C,0,-0.96491434,-2.23648129,1.
 35103447\O,0,0.72389874,4.17083873,-2.32553873\C,0,0.93489862,3.385216
 49,-1.48862998\N,0,1.25346433,2.63675444,-0.60756731\N,0,0.00710129,0.
 23039241,0.41324435\C,0,0.64595313,-0.85468358,0.32631503\O,0,0.301256
 75,-2.07850483,0.72902531\H,0,-1.77197639,-1.94965569,0.67200033\H,0,-
 1.02445866,-1.64888234,2.27071506\H,0,-1.05293066,-3.29247875,1.590369

 Normal termination of Gaussian 16 at Wed Apr  9 03:46:29 2025.
