 Gaussian 16, Revision C.01,

 ----------------------------------------------------------------------
 #t hf aug-cc-pvdz symm=none int=(grid=ultrafine) guess=(read,tcheck) s
 table=(opt,rrhf)
 ----------------------------------------------------------------------
 -----
 title
 -----
 Symbolic Z-matrix:
 Charge =  0 Multiplicity = 1

 SCF Done:  E(RHF) =  -333.673702509     A.U. after   15 cycles
 Normal termination of Gaussian 16 at Wed Apr  9 18:25:02 2025.
 Gaussian 16:  ES64L-G16RevC.01  3-Jul-2019

 ----------------------------------------------------------------------
 #t hf aug-cc-pvdz iop(5/13=1,5/36=2,99/5=2) pseudo=read geom=check gue
 ss=(read,tcheck) scf=(maxcycle=1)
 ----------------------------------------------------------------------
 -----
 title
 -----
 Structure from the checkpoint file:  "Grambow2020_wb97xd3_006986_reverse_mol2.chk"
 Charge =  0 Multiplicity = 1

                         Standard orientation:
 ---------------------------------------------------------------------
 Center     Atomic      Atomic             Coordinates (Angstroms)
 Number     Number       Type             X           Y           Z
 ---------------------------------------------------------------------
      1          7           0        2.230623    0.067850   -0.018460
      2          6           0        0.882048    0.018594   -0.001043
      3          6           0        0.197068    1.304087    0.005029
      4          7           0       -1.109724    1.079724    0.000814
      5          6           0       -1.710205   -0.156122   -0.004873
      6          7           0       -1.028863   -1.243636    0.000998
      7          7           0        0.316323   -1.170941    0.007316
      8          1           0        2.678967    0.961590    0.042855
      9          1           0        2.762076   -0.781000    0.034530
     10          1           0       -1.721166    1.885123    0.005722
     11          1           0       -2.791849   -0.196045   -0.012463
 ---------------------------------------------------------------------

 SCF Done:  E(RHF) =  -335.180292793     A.U. after    2 cycles

 The electronic state is 1-A.
 Alpha  occ. eigenvalues --  -15.84192 -15.77046 -15.76991 -15.75038 -11.46320
 Alpha  occ. eigenvalues --  -11.44842 -11.40059  -1.60276  -1.41891  -1.37814
 Alpha  occ. eigenvalues --   -1.17099  -0.97867  -0.92644  -0.77000  -0.72803
 Alpha  occ. eigenvalues --   -0.68149  -0.63108  -0.62603  -0.58381  -0.50228
 Alpha  occ. eigenvalues --   -0.44372  -0.44211  -0.42421  -0.31342  -0.29678
 Alpha virt. eigenvalues --    0.03035   0.04971   0.05544   0.06856   0.08762
 Alpha virt. eigenvalues --    0.09816   0.09865   0.10521   0.12512   0.12691
 Alpha virt. eigenvalues --    0.13404   0.13861   0.14280   0.14609   0.16554

 Mulliken charges:
               1
     1  N   -3.127241
     2  C    4.276205
     3  C   -0.265195
     4  N   -2.350090
     5  C    1.207260
     6  N   -1.659863
     7  N   -1.969878
     8  H    0.687582
     9  H    0.810810
    10  H    0.778646
    11  H    1.611764
 Sum of Mulliken charges =  -0.00000

 Dipole moment (field-independent basis, Debye):
    X=             -1.0480    Y=              1.5701    Z=              0.1112  Tot=              1.8910

 Test job not archived.
 1\1\GINC-SE340\SP\RHF\Aug-CC-pVDZ\C3H4N4\OHZDE\09-Apr-2025\0\\#t hf au
 g-cc-pvdz iop(5/13=1,5/36=2,99/5=2) pseudo=read geom=check guess=(read
 ,tcheck) scf=(maxcycle=1)\\title\\0,1\N,0,1.95730758,-0.41735549,-0.81
 565749\C,0,0.69717043,-0.23941411,-0.36646468\C,0,0.51167896,0.8295614
 3,0.60544615\N,0,-0.77414498,0.88394358,0.92444665\C,0,-1.75889228,0.0
 6704602,0.42357026\N,0,-1.50609651,-0.86146053,-0.42549851\N,0,-0.2371
 2408,-1.03667804,-0.84246101\H,0,2.69169649,0.1341381,-0.41556695\H,0,
 2.16209611,-1.17326878,-1.44211803\H,0,-1.05857934,1.58350967,1.596948

 Normal termination of Gaussian 16 at Wed Apr  9 18:25:05 2025.
