 Gaussian 16, Revision C.01,

 ----------------------------------------------------------------------
 #t hf aug-cc-pvdz symm=none int=(grid=ultrafine) guess=(read,tcheck) s
 table=(opt,rrhf)
 ----------------------------------------------------------------------
 -----
 title
 -----
 Symbolic Z-matrix:
 Charge =  0 Multiplicity = 1

 SCF Done:  E(RHF) =  -306.693894191     A.U. after   15 cycles
 Normal termination of Gaussian 16 at Wed Apr  9 04:05:45 2025.
 Gaussian 16:  ES64L-G16RevC.01  3-Jul-2019

 ----------------------------------------------------------------------
 #t hf aug-cc-pvdz iop(5/13=1,5/36=2,99/5=2) pseudo=read geom=check gue
 ss=(read,tcheck) scf=(maxcycle=1)
 ----------------------------------------------------------------------
 -----
 title
 -----
 Structure from the checkpoint file:  "Grambow2020_wb97xd3_009287_reverse_mol2.chk"
 Charge =  0 Multiplicity = 1

                         Standard orientation:
 ---------------------------------------------------------------------
 Center     Atomic      Atomic             Coordinates (Angstroms)
 Number     Number       Type             X           Y           Z
 ---------------------------------------------------------------------
      1          6           0        0.413027    0.766024    1.397064
      2          6           0       -0.016324    0.283546    0.012976
      3          6           0        0.007041    1.432462   -1.013347
      4          6           0        0.940018   -0.789449   -0.515640
      5          8           0        1.988296   -1.068097   -0.011978
      6          6           0       -1.354524   -0.317114    0.050737
      7          6           0       -2.438073   -0.826770    0.070559
      8          1           0       -0.264492    1.545217    1.747190
      9          1           0        1.426298    1.165521    1.355605
     10          1           0        0.402983   -0.054043    2.114194
     11          1           0        0.593649   -1.288322   -1.444289
     12          1           0       -0.711965    2.199375   -0.724950
     13          1           0        1.002426    1.878645   -1.049829
     14          1           0       -0.258059    1.079187   -2.011219
     15          1           0       -3.404191   -1.272999    0.095035
 ---------------------------------------------------------------------

 SCF Done:  E(RHF) =  -308.134414785     A.U. after    2 cycles

 The electronic state is 1-A.
 Alpha  occ. eigenvalues --  -21.07145 -11.49340 -11.46966 -11.43026 -11.41584
 Alpha  occ. eigenvalues --  -11.40830 -11.38248  -1.72346  -1.30180  -1.08014
 Alpha  occ. eigenvalues --   -1.02725  -0.95081  -0.82227  -0.73979  -0.68098
 Alpha  occ. eigenvalues --   -0.63301  -0.59973  -0.56335  -0.54538  -0.51441
 Alpha  occ. eigenvalues --   -0.49918  -0.48617  -0.43785  -0.38783  -0.37368
 Alpha  occ. eigenvalues --   -0.29293
 Alpha virt. eigenvalues --    0.03163   0.04562   0.05294   0.05734   0.06232
 Alpha virt. eigenvalues --    0.06867   0.07133   0.07799   0.09501   0.10318
 Alpha virt. eigenvalues --    0.11424   0.12327   0.12731   0.13804   0.14070

 Mulliken charges:
               1
     1  C   -3.879119
     2  C   -3.047061
     3  C   -3.550411
     4  C    2.071951
     5  O   -2.926849
     6  C    6.662146
     7  C   -4.949614
     8  H    1.209985
     9  H    1.238461
    10  H    1.212063
    11  H    1.472817
    12  H    1.266156
    13  H    1.271448
    14  H    1.272719
    15  H    0.675307
 Sum of Mulliken charges =  -0.00000

 Dipole moment (field-independent basis, Debye):
    X=             -0.7740    Y=              0.8173    Z=             -0.1910  Tot=              1.1417

 Test job not archived.
 1\1\GINC-SE362\SP\RHF\Aug-CC-pVDZ\C6H8O1\OHZDE\09-Apr-2025\0\\#t hf au
 g-cc-pvdz iop(5/13=1,5/36=2,99/5=2) pseudo=read geom=check guess=(read
 ,tcheck) scf=(maxcycle=1)\\title\\0,1\C,0,-1.36875911,0.76737998,-0.07
 675673\C,0,0.02485654,0.14237807,-0.08285022\C,0,-0.03870662,-1.366222
 64,-0.38940182\C,0,0.9029703,0.76899709,-1.16986826\O,0,0.49982265,1.4
 9882135,-2.02720931\C,0,0.70958107,0.35732907,1.19697294\C,0,1.2872958
 5,0.5415431,2.22970245\H,0,-1.98666001,0.29360081,0.68645645\H,0,-1.84
 079767,0.63699312,-1.05051861\H,0,-1.31409059,1.83540018,0.13116081\H,

 Normal termination of Gaussian 16 at Wed Apr  9 04:05:49 2025.
