 Gaussian 16, Revision C.01,

 ----------------------------------------------------------------------
 #t hf aug-cc-pvdz symm=none int=(grid=ultrafine) guess=(read,tcheck) s
 table=(opt,rrhf)
 ----------------------------------------------------------------------
 -----
 title
 -----
 Symbolic Z-matrix:
 Charge =  0 Multiplicity = 1

 SCF Done:  E(RHF) =  -283.645342037     A.U. after   14 cycles
 Normal termination of Gaussian 16 at Wed Apr  9 17:32:14 2025.
 Gaussian 16:  ES64L-G16RevC.01  3-Jul-2019

 ----------------------------------------------------------------------
 #t hf aug-cc-pvdz iop(5/13=1,5/36=2,99/5=2) pseudo=read geom=check gue
 ss=(read,tcheck) scf=(maxcycle=1)
 ----------------------------------------------------------------------
 -----
 title
 -----
 Structure from the checkpoint file:  "Grambow2020_b97d3_007168_reverse_mol2.chk"
 Charge =  0 Multiplicity = 1

                         Standard orientation:
 ---------------------------------------------------------------------
 Center     Atomic      Atomic             Coordinates (Angstroms)
 Number     Number       Type             X           Y           Z
 ---------------------------------------------------------------------
      1          6           0       -0.374127    1.660623   -0.010416
      2          7           0       -0.784312    0.271347    0.041640
      3          6           0       -1.833703   -0.341502    0.000062
      4          8           0       -2.770163   -1.069683   -0.028346
      5          6           0        2.378499   -0.621357    0.044925
      6          6           0        3.574676   -0.425021   -0.035416
      7          1           0        0.718678    1.696963   -0.080570
      8          1           0       -0.684456    2.191609    0.900418
      9          1           0       -0.802600    2.169107   -0.885058
     10          1           0        1.316711   -0.771663    0.110334
     11          1           0        4.631084   -0.264445   -0.104774
 ---------------------------------------------------------------------

 SCF Done:  E(RHF) =  -284.912765470     A.U. after    2 cycles

 The electronic state is 1-A.
 Alpha  occ. eigenvalues --  -21.12239 -15.77494 -11.57989 -11.43404 -11.41965
 Alpha  occ. eigenvalues --  -11.40988  -1.75988  -1.40391  -1.09107  -1.04996
 Alpha  occ. eigenvalues --   -0.78540  -0.71716  -0.66032  -0.64458  -0.63154
 Alpha  occ. eigenvalues --   -0.60556  -0.55196  -0.54136  -0.38520  -0.38409
 Alpha  occ. eigenvalues --   -0.36489  -0.33410
 Alpha virt. eigenvalues --    0.02754   0.04201   0.05715   0.06205   0.07066
 Alpha virt. eigenvalues --    0.09177   0.10413   0.10531   0.11408   0.12080
 Alpha virt. eigenvalues --    0.12382   0.12679   0.14219   0.14317   0.15453

 Mulliken charges:
               1
     1  C   -3.290979
     2  N   -1.955541
     3  C    3.609128
     4  O   -2.483374
     5  C    0.073087
     6  C   -1.492084
     7  H    1.382824
     8  H    1.360908
     9  H    1.374694
    10  H    0.812793
    11  H    0.608543
 Sum of Mulliken charges =   0.00000

 Dipole moment (field-independent basis, Debye):
    X=             -0.3585    Y=              1.5365    Z=             -0.1069  Tot=              1.5814

 Test job not archived.
 1\1\GINC-SE041\SP\RHF\Aug-CC-pVDZ\C4H5N1O1\OHZDE\09-Apr-2025\0\\#t hf
 aug-cc-pvdz iop(5/13=1,5/36=2,99/5=2) pseudo=read geom=check guess=(re
 ad,tcheck) scf=(maxcycle=1)\\title\\0,1\C,0,-1.42413124,0.17186775,-0.
 53200398\N,0,-0.9450852,0.03108785,0.82878383\C,0,-1.44243667,-0.08818
 698,1.93193808\O,0,-1.78026359,-0.21152715,3.06272232\C,0,2.13344061,-
 0.11576694,-0.31201299\C,0,2.98054651,-0.17694039,-1.18063853\H,0,-0.5
 6691843,0.09906555,-1.21049534\H,0,-1.90262581,1.15073229,-0.6760047\H
 ,0,-2.14380484,-0.61917614,-0.7839234\H,0,1.36706609,-0.06393975,0.439

 Normal termination of Gaussian 16 at Wed Apr  9 17:32:17 2025.
