 Gaussian 16, Revision C.01,

 ----------------------------------------------------------------------
 #t hf aug-cc-pvdz symm=none int=(grid=ultrafine) guess=(read,tcheck) s
 table=(opt,rrhf)
 ----------------------------------------------------------------------
 -----
 title
 -----
 Symbolic Z-matrix:
 Charge =  0 Multiplicity = 1

 SCF Done:  E(RHF) =  -305.406338092     A.U. after   15 cycles
 Normal termination of Gaussian 16 at Wed Apr  9 03:52:33 2025.
 Gaussian 16:  ES64L-G16RevC.01  3-Jul-2019

 ----------------------------------------------------------------------
 #t hf aug-cc-pvdz iop(5/13=1,5/36=2,99/5=2) pseudo=read geom=check gue
 ss=(read,tcheck) scf=(maxcycle=1)
 ----------------------------------------------------------------------
 -----
 title
 -----
 Structure from the checkpoint file:  "Grambow2020_wb97xd3_008350_reverse_mol2.chk"
 Charge =  0 Multiplicity = 1

                         Standard orientation:
 ---------------------------------------------------------------------
 Center     Atomic      Atomic             Coordinates (Angstroms)
 Number     Number       Type             X           Y           Z
 ---------------------------------------------------------------------
      1          8           0        0.491228    1.482474   -0.739041
      2          6           0        0.707276    0.546923    0.280112
      3          6           0       -0.574831    0.274830    1.085416
      4          6           0       -1.633184   -0.266266    0.238333
      5          6           0       -2.468651   -0.697671   -0.503951
      6          6           0        2.477931   -1.155714   -0.023351
      7          6           0        1.274765   -0.758249   -0.264979
      8          1           0       -0.217328    1.161894   -1.306927
      9          1           0        1.439939    0.998717    0.948715
     10          1           0       -0.907064    1.218339    1.523969
     11          1           0       -0.357219   -0.419341    1.899647
     12          1           0       -3.229527   -1.085659   -1.139840
     13          1           0        0.641541   -1.396859   -0.882719
 ---------------------------------------------------------------------

 SCF Done:  E(RHF) =  -306.804012227     A.U. after    2 cycles

 The electronic state is 1-A.
 Alpha  occ. eigenvalues --  -21.08717 -11.49739 -11.46586 -11.43432 -11.42528
 Alpha  occ. eigenvalues --  -11.41967 -11.39041  -1.74488  -1.25099  -1.14611
 Alpha  occ. eigenvalues --   -1.04707  -0.90891  -0.76614  -0.74374  -0.65538
 Alpha  occ. eigenvalues --   -0.63739  -0.62047  -0.57682  -0.53795  -0.45843
 Alpha  occ. eigenvalues --   -0.42609  -0.40485  -0.38854  -0.36570  -0.33142
 Alpha virt. eigenvalues --    0.03007   0.04691   0.05173   0.05522   0.06408
 Alpha virt. eigenvalues --    0.07281   0.07822   0.08621   0.09630   0.10610
 Alpha virt. eigenvalues --    0.11828   0.11913   0.12145   0.12927   0.13871

 Mulliken charges:
               1
     1  O   -3.170797
     2  C    1.244681
     3  C   -4.158721
     4  C    4.515912
     5  C   -4.304945
     6  C   -3.078129
     7  C    1.515170
     8  H    0.819868
     9  H    1.632134
    10  H    1.163322
    11  H    1.327095
    12  H    0.776244
    13  H    1.718166
 Sum of Mulliken charges =   0.00000

 Dipole moment (field-independent basis, Debye):
    X=             -2.7908    Y=              0.6998    Z=             -0.0636  Tot=              2.8779

 Test job not archived.
 1\1\GINC-SE073\SP\RHF\Aug-CC-pVDZ\C6H6O1\OHZDE\09-Apr-2025\0\\#t hf au
 g-cc-pvdz iop(5/13=1,5/36=2,99/5=2) pseudo=read geom=check guess=(read
 ,tcheck) scf=(maxcycle=1)\\title\\0,1\O,0,-0.08665478,-0.66781545,1.70
 82686\C,0,0.51181478,-0.82045165,0.45162981\C,0,-0.51529447,-0.7010329
 2,-0.68728829\C,0,-1.16239434,0.60728946,-0.68826353\C,0,-1.66871626,1
 .6917594,-0.63665481\C,0,2.88643075,-0.17786004,0.17858127\C,0,1.64733
 397,0.17467689,0.2443722\H,0,-0.53957455,0.1816333,1.73310542\H,0,0.92
 047339,-1.83076318,0.43711176\H,0,-1.26899316,-1.47911486,-0.54785008\

 Normal termination of Gaussian 16 at Wed Apr  9 03:52:37 2025.
