 Gaussian 16, Revision C.01,

 ----------------------------------------------------------------------
 #t hf aug-cc-pvdz symm=none int=(grid=ultrafine) guess=(read,tcheck) s
 table=(opt,rrhf)
 ----------------------------------------------------------------------
 -----
 title
 -----
 Symbolic Z-matrix:
 Charge =  0 Multiplicity = 1

 SCF Done:  E(RHF) =  -286.816699665     A.U. after   13 cycles
 Normal termination of Gaussian 16 at Wed Apr  9 19:19:12 2025.
 Gaussian 16:  ES64L-G16RevC.01  3-Jul-2019

 ----------------------------------------------------------------------
 #t hf aug-cc-pvdz iop(5/13=1,5/36=2,99/5=2) pseudo=read geom=check gue
 ss=(read,tcheck) scf=(maxcycle=1)
 ----------------------------------------------------------------------
 -----
 title
 -----
 Structure from the checkpoint file:  "Grambow2020_wb97xd3_008595_forward_mol2.chk"
 Charge =  0 Multiplicity = 1

                         Standard orientation:
 ---------------------------------------------------------------------
 Center     Atomic      Atomic             Coordinates (Angstroms)
 Number     Number       Type             X           Y           Z
 ---------------------------------------------------------------------
      1          6           0       -1.770613    0.301372   -0.121204
      2          6           0       -0.795950   -0.753600   -0.467463
      3          6           0        0.609641   -0.383499   -0.939466
      4          6           0        1.379777   -0.701346    0.380954
      5          6           0        0.519419    0.485328    0.881000
      6          6           0        0.754085    1.091925   -0.518811
      7          7           0       -0.821012   -0.166186    0.885795
      8          1           0       -2.789507   -0.002605    0.089228
      9          1           0       -1.687754    1.295653   -0.538267
     10          1           0       -1.118651   -1.784459   -0.567736
     11          1           0        0.930789   -0.747508   -1.912936
     12          1           0        1.197932   -1.665386    0.856550
     13          1           0        2.445538   -0.480940    0.325960
     14          1           0        0.725089    1.024922    1.802327
     15          1           0        0.083674    1.848007   -0.921618
     16          1           0        1.781825    1.434540   -0.624139
 ---------------------------------------------------------------------

 SCF Done:  E(RHF) =  -288.228774404     A.U. after    2 cycles

 The electronic state is 1-A.
 Alpha  occ. eigenvalues --  -15.70617 -11.48973 -11.45651 -11.42427 -11.41179
 Alpha  occ. eigenvalues --  -11.39311 -11.35151  -1.55700  -1.25419  -1.03163
 Alpha  occ. eigenvalues --   -0.97325  -0.90698  -0.79384  -0.78107  -0.71964
 Alpha  occ. eigenvalues --   -0.68743  -0.63244  -0.54337  -0.53015  -0.49700
 Alpha  occ. eigenvalues --   -0.45505  -0.44626  -0.43196  -0.39810  -0.37002
 Alpha  occ. eigenvalues --   -0.31209
 Alpha virt. eigenvalues --    0.04215   0.04999   0.05230   0.05511   0.05982
 Alpha virt. eigenvalues --    0.06190   0.06387   0.07484   0.08863   0.10229
 Alpha virt. eigenvalues --    0.11838   0.12461   0.13098   0.13421   0.13759

 Mulliken charges:
               1
     1  C   -2.445220
     2  C   -0.434174
     3  C   -2.826790
     4  C   -1.905525
     5  C   -0.833624
     6  C   -2.228346
     7  N   -1.927503
     8  H    1.363881
     9  H    1.489436
    10  H    1.443308
    11  H    1.622627
    12  H    1.355140
    13  H    1.291879
    14  H    1.613142
    15  H    1.246723
    16  H    1.175045
 Sum of Mulliken charges =   0.00000

 Dipole moment (field-independent basis, Debye):
    X=              0.6074    Y=              0.4624    Z=             -0.8849  Tot=              1.1687

 Test job not archived.
 1\1\GINC-SE125\SP\RHF\Aug-CC-pVDZ\C6H9N1\OHZDE\09-Apr-2025\0\\#t hf au
 g-cc-pvdz iop(5/13=1,5/36=2,99/5=2) pseudo=read geom=check guess=(read
 ,tcheck) scf=(maxcycle=1)\\title\\0,1\C,0,1.69334867,0.81128679,-0.041
 79236\C,0,1.07039136,-0.40801107,0.51324376\C,0,-0.40072802,-0.4054163
 2,0.92706515\C,0,-0.97869997,-1.18307568,-0.29720628\C,0,-0.49767695,0
 .09564235,-1.02655702\C,0,-0.96723383,0.84985734,0.23565306\N,0,0.9760
 7408,-0.10297173,-0.92725731\H,0,2.76472864,0.80051631,-0.20567876\H,0
 ,1.29427091,1.7916268,0.17972643\H,0,1.6858904,-1.25305035,0.80295335\

 Normal termination of Gaussian 16 at Wed Apr  9 19:19:19 2025.
