 Gaussian 16, Revision C.01,

 ----------------------------------------------------------------------
 #t hf aug-cc-pvdz symm=none int=(grid=ultrafine) guess=(read,tcheck) s
 table=(opt,rrhf)
 ----------------------------------------------------------------------
 -----
 title
 -----
 Symbolic Z-matrix:
 Charge =  0 Multiplicity = 1

 SCF Done:  E(RHF) =  -305.593761715     A.U. after   20 cycles
 Normal termination of Gaussian 16 at Wed Apr  9 03:15:45 2025.
 Gaussian 16:  ES64L-G16RevC.01  3-Jul-2019

 ----------------------------------------------------------------------
 #t hf aug-cc-pvdz iop(5/13=1,5/36=2,99/5=2) pseudo=read geom=check gue
 ss=(read,tcheck) scf=(maxcycle=1)
 ----------------------------------------------------------------------
 -----
 title
 -----
 Structure from the checkpoint file:  "Grambow2020_b97d3_006973_reverse_mol1.chk"
 Charge =  0 Multiplicity = 1

                         Standard orientation:
 ---------------------------------------------------------------------
 Center     Atomic      Atomic             Coordinates (Angstroms)
 Number     Number       Type             X           Y           Z
 ---------------------------------------------------------------------
      1          8           0        1.812672   -1.057933   -0.161829
      2          6           0        1.928137    0.226217    0.152108
      3          6           0        0.579468    0.968707   -0.273283
      4          6           0       -0.449793    0.094920    0.429186
      5          6           0       -1.923552    0.440119   -0.030887
      6          8           0       -2.028615   -0.896165   -0.150674
      7          1           0       -0.002181   -0.925045    0.136216
      8          1           0        2.157824    0.469858    1.217258
      9          1           0        2.664098    0.770697   -0.493736
     10          1           0        0.503786    2.034124   -0.004240
     11          1           0        0.497470    0.853266   -1.359577
     12          1           0       -0.445372    0.093760    1.523255
     13          1           0       -1.960421    1.031070   -0.964455
     14          1           0       -2.493222    0.925278    0.782563
 ---------------------------------------------------------------------

 SCF Done:  E(RHF) =  -306.986514143     A.U. after    2 cycles

 The electronic state is 1-A.
 Alpha  occ. eigenvalues --  -21.18479 -20.95718 -11.53326 -11.48254 -11.44410
 Alpha  occ. eigenvalues --  -11.38849  -1.77028  -1.59449  -1.21128  -1.01368
 Alpha  occ. eigenvalues --   -0.93212  -0.83483  -0.71941  -0.66247  -0.65299
 Alpha  occ. eigenvalues --   -0.59005  -0.55798  -0.53525  -0.51533  -0.45270
 Alpha  occ. eigenvalues --   -0.40351  -0.38734  -0.23070  -0.20853
 Alpha virt. eigenvalues --    0.02161   0.03265   0.04369   0.04528   0.05059
 Alpha virt. eigenvalues --    0.06190   0.06444   0.07991   0.09151   0.10294
 Alpha virt. eigenvalues --    0.11330   0.12355   0.13164   0.14010   0.14702

 Mulliken charges:
               1
     1  O   -2.312319
     2  C   -0.743208
     3  C   -2.861329
     4  C   -1.748580
     5  C   -1.177390
     6  O   -1.738148
     7  H    1.378141
     8  H    1.347811
     9  H    1.004655
    10  H    1.395827
    11  H    1.345945
    12  H    1.389442
    13  H    1.353140
    14  H    1.366013
 Sum of Mulliken charges =  -0.00000

 Dipole moment (field-independent basis, Debye):
    X=             -5.2299    Y=              2.0831    Z=              0.3181  Tot=              5.6385

 Test job not archived.
 1\1\GINC-SE229\SP\RHF\Aug-CC-pVDZ\C4H8O2\OHZDE\09-Apr-2025\0\\#t hf au
 g-cc-pvdz iop(5/13=1,5/36=2,99/5=2) pseudo=read geom=check guess=(read
 ,tcheck) scf=(maxcycle=1)\\title\\0,1\O,0,2.08835064,0.86312432,0.0799
 894\C,0,1.8264391,-0.40838821,-0.19494082\C,0,0.336136,-0.72714647,0.2
 831246\C,0,-0.42439384,0.38504792,-0.42466386\C,0,-1.92120538,0.483475
 07,0.07799244\O,0,-1.64036385,1.79722014,0.15701764\H,0,0.30198226,1.2
 4309284,-0.17435902\H,0,1.94595616,-0.73339719,-1.2564235\H,0,2.397245
 04,-1.12311694,0.45201891\H,0,-0.04581641,-1.73365638,0.0501554\H,0,0.

 Normal termination of Gaussian 16 at Wed Apr  9 03:15:50 2025.
