 Gaussian 16, Revision C.01,

 ----------------------------------------------------------------------
 #t hf aug-cc-pvdz symm=none int=(grid=ultrafine) guess=(read,tcheck) s
 table=(opt,rrhf)
 ----------------------------------------------------------------------
 -----
 title
 -----
 Symbolic Z-matrix:
 Charge =  0 Multiplicity = 1

 SCF Done:  E(RHF) =  -284.649027478     A.U. after   16 cycles
 Normal termination of Gaussian 16 at Wed Apr  9 03:06:51 2025.
 Gaussian 16:  ES64L-G16RevC.01  3-Jul-2019

 ----------------------------------------------------------------------
 #t hf aug-cc-pvdz iop(5/13=1,5/36=2,99/5=2) pseudo=read geom=check gue
 ss=(read,tcheck) scf=(maxcycle=1)
 ----------------------------------------------------------------------
 -----
 title
 -----
 Structure from the checkpoint file:  "Grambow2020_b97d3_006563_forward_mol1.chk"
 Charge =  0 Multiplicity = 1

                         Standard orientation:
 ---------------------------------------------------------------------
 Center     Atomic      Atomic             Coordinates (Angstroms)
 Number     Number       Type             X           Y           Z
 ---------------------------------------------------------------------
      1          8           0        1.904200   -0.634401   -0.174616
      2          6           0        1.123092    0.145775    0.578845
      3          6           0        0.234664    1.152629   -0.177824
      4          7           0       -1.160779    0.690797   -0.047044
      5          6           0       -1.293820   -0.663477   -0.645376
      6          6           0       -0.992072   -0.550913    0.775659
      7          1           0        1.716433   -0.517148   -1.141379
      8          1           0        0.390655   -0.426347    1.348680
      9          1           0        0.517774    1.233728   -1.243772
     10          1           0        0.341545    2.154099    0.266971
     11          1           0       -0.515750   -1.030131   -1.331100
     12          1           0       -2.311093   -0.905371   -0.958491
     13          1           0       -1.678893   -0.773282    1.597493
 ---------------------------------------------------------------------

 SCF Done:  E(RHF) =  -285.980983405     A.U. after    2 cycles

 The electronic state is 1-A.
 Alpha  occ. eigenvalues --  -21.13295 -15.72915 -11.47582 -11.45582 -11.40914
 Alpha  occ. eigenvalues --  -11.39626  -1.77655  -1.48126  -1.10029  -0.94980
 Alpha  occ. eigenvalues --   -0.88467  -0.79253  -0.69790  -0.66304  -0.62716
 Alpha  occ. eigenvalues --   -0.59900  -0.55056  -0.48917  -0.46896  -0.41571
 Alpha  occ. eigenvalues --   -0.40786  -0.34393  -0.26344
 Alpha virt. eigenvalues --    0.03925   0.05268   0.05683   0.05878   0.05886
 Alpha virt. eigenvalues --    0.06938   0.07360   0.09745   0.10627   0.11651
 Alpha virt. eigenvalues --    0.12643   0.13379   0.13582   0.14213   0.15119

 Mulliken charges:
               1
     1  O   -2.813692
     2  C    0.963731
     3  C   -2.202861
     4  N   -1.693410
     5  C   -2.005234
     6  C   -1.502153
     7  H    0.769143
     8  H    1.701257
     9  H    1.431077
    10  H    1.364292
    11  H    1.463597
    12  H    1.291897
    13  H    1.232355
 Sum of Mulliken charges =  -0.00000

 Dipole moment (field-independent basis, Debye):
    X=              0.5089    Y=             -0.5986    Z=             -1.4679  Tot=              1.6649

 Test job not archived.
 1\1\GINC-SE457\SP\RHF\Aug-CC-pVDZ\C4H7N1O1\OHZDE\09-Apr-2025\0\\#t hf
 aug-cc-pvdz iop(5/13=1,5/36=2,99/5=2) pseudo=read geom=check guess=(re
 ad,tcheck) scf=(maxcycle=1)\\title\\0,1\O,0,-1.58238735,-0.75110476,1.
 19150504\C,0,-1.4017799,0.07939109,0.15992134\C,0,-0.28588675,1.130474
 24,0.31996482\N,0,0.80746355,0.75213969,-0.59606023\C,0,1.31555549,-0.
 59673109,-0.23253511\C,0,0.25614034,-0.49075222,-1.22725792\H,0,-0.884
 51678,-0.63073507,1.88585592\H,0,-1.21140107,-0.44276956,-0.91131039\H
 ,0,0.08267461,1.18641318,1.3611216\H,0,-0.66992767,2.12746995,0.054031

 Normal termination of Gaussian 16 at Wed Apr  9 03:06:54 2025.
