 Gaussian 16, Revision C.01,

 ----------------------------------------------------------------------
 #t hf aug-cc-pvdz symm=none int=(grid=ultrafine) guess=(read,tcheck) s
 table=(opt,rrhf)
 ----------------------------------------------------------------------
 -----
 title
 -----
 Symbolic Z-matrix:
 Charge =  0 Multiplicity = 1

 SCF Done:  E(RHF) =  -374.471347453     A.U. after   17 cycles
 Normal termination of Gaussian 16 at Wed Apr  9 19:33:58 2025.
 Gaussian 16:  ES64L-G16RevC.01  3-Jul-2019

 ----------------------------------------------------------------------
 #t hf aug-cc-pvdz iop(5/13=1,5/36=2,99/5=2) pseudo=read geom=check gue
 ss=(read,tcheck) scf=(maxcycle=1)
 ----------------------------------------------------------------------
 -----
 title
 -----
 Structure from the checkpoint file:  "Grambow2020_wb97xd3_009448_forward_mol1.chk"
 Charge =  0 Multiplicity = 1

                         Standard orientation:
 ---------------------------------------------------------------------
 Center     Atomic      Atomic             Coordinates (Angstroms)
 Number     Number       Type             X           Y           Z
 ---------------------------------------------------------------------
      1          8           0       -2.357876   -0.529872    0.084925
      2          6           0       -1.183905   -0.203350   -0.414508
      3          7           0       -0.125003   -0.893760   -0.078517
      4          6           0        0.987832   -0.208533    0.065630
      5          8           0        2.182050   -0.810905    0.087894
      6          6           0        0.866704    1.193302    0.004911
      7          7           0       -0.327002    1.730819    0.028876
      8          1           0       -2.269981   -1.216972    0.763366
      9          1           0        2.054021   -1.743752   -0.112903
     10          1           0        1.703018    1.776952   -0.368316
     11          1           0       -0.940205    1.362058    0.746600
 ---------------------------------------------------------------------

 SCF Done:  E(RHF) =  -376.103811302     A.U. after    2 cycles

 The electronic state is 1-A.
 Alpha  occ. eigenvalues --  -21.14060 -21.13844 -15.79013 -15.76321 -11.51429
 Alpha  occ. eigenvalues --  -11.44534 -11.42597  -1.80952  -1.79777  -1.45319
 Alpha  occ. eigenvalues --   -1.31046  -1.02588  -0.87848  -0.79824  -0.70312
 Alpha  occ. eigenvalues --   -0.69505  -0.62084  -0.60860  -0.53208  -0.52263
 Alpha  occ. eigenvalues --   -0.47105  -0.45603  -0.42092  -0.40554  -0.35562
 Alpha  occ. eigenvalues --   -0.28645
 Alpha virt. eigenvalues --    0.03510   0.04807   0.05734   0.06620   0.08945
 Alpha virt. eigenvalues --    0.09871   0.10877   0.11192   0.11725   0.12526
 Alpha virt. eigenvalues --    0.13138   0.13712   0.14818   0.15194   0.16071

 Mulliken charges:
               1
     1  O   -2.490367
     2  C    2.344481
     3  N   -2.695784
     4  C    4.942449
     5  O   -3.504393
     6  C    0.009141
     7  N   -2.350830
     8  H    0.636265
     9  H    0.878557
    10  H    1.472716
    11  H    0.757766
 Sum of Mulliken charges =   0.00000

 Dipole moment (field-independent basis, Debye):
    X=              0.9020    Y=             -1.8536    Z=              1.5218  Tot=              2.5623

 Test job not archived.
 1\1\GINC-SE232\SP\RHF\Aug-CC-pVDZ\C3H4N2O2\OHZDE\09-Apr-2025\0\\#t hf
 aug-cc-pvdz iop(5/13=1,5/36=2,99/5=2) pseudo=read geom=check guess=(re
 ad,tcheck) scf=(maxcycle=1)\\title\\0,1\O,0,-2.33520818,0.78537933,-0.
 14003546\C,0,-1.16138995,0.30512223,0.21459525\N,0,-0.0714706,0.927338
 3,-0.15385044\C,0,0.95171082,0.16235631,-0.46468443\O,0,2.19360044,0.6
 5335672,-0.54300255\C,0,0.69771517,-1.22168932,-0.52304917\N,0,-0.5411
 4403,-1.64380392,-0.48459334\H,0,-2.2373073,1.52682368,-0.75711803\H,0
 ,2.17617265,1.5688333,-0.24548905\H,0,1.50057748,-1.91337283,-0.285662

 Normal termination of Gaussian 16 at Wed Apr  9 19:34:02 2025.
