 Gaussian 16, Revision C.01,

 ----------------------------------------------------------------------
 #t hf aug-cc-pvdz symm=none int=(grid=ultrafine) guess=(read,tcheck) s
 table=(opt,rrhf)
 ----------------------------------------------------------------------
 -----
 title
 -----
 Symbolic Z-matrix:
 Charge =  0 Multiplicity = 1

 SCF Done:  E(RHF) =  -344.821373923     A.U. after   14 cycles

 1\1\GINC-SE292\Stability\RHF\Aug-CC-pVDZ\C5H10O2\OHZDE\09-Apr-2025\0\\
 #t hf aug-cc-pvdz symm=none int=(grid=ultrafine) guess=(read,tcheck) s
 table=(opt,rrhf)\\title\\0,1\C,0,1.42644784,2.18369473,0.30569799\O,0,
 0.48883114,1.22917769,-0.11472517\C,0,-0.31188859,-1.74784787,-1.01243
 743\C,0,0.13877671,-1.91580089,0.41074562\O,0,-0.62095118,-3.16931242,
 0.44818731\C,0,-0.96081139,-2.89925132,-0.85770538\C,0,-0.8351264,1.66
 169813,0.05706695\H,0,1.30715121,2.41908042,1.37179366\H,0,2.41866977,
 1.76397757,0.14476809\H,0,1.33687748,3.1161995,-0.26725474\H,0,-0.1510

 Normal termination of Gaussian 16 at Wed Apr  9 03:27:27 2025.
 Gaussian 16:  ES64L-G16RevC.01  3-Jul-2019

 ----------------------------------------------------------------------
 #t hf aug-cc-pvdz iop(5/13=1,5/36=2,99/5=2) pseudo=read geom=check gue
 ss=(read,tcheck) scf=(maxcycle=1)
 ----------------------------------------------------------------------
 -----
 title
 -----
 Structure from the checkpoint file:  "Grambow2020_wb97xd3_006658_reverse_mol2.chk"
 Charge =  0 Multiplicity = 1

                         Standard orientation:
 ---------------------------------------------------------------------
 Center     Atomic      Atomic             Coordinates (Angstroms)
 Number     Number       Type             X           Y           Z
 ---------------------------------------------------------------------
      1          6           0        2.967814   -0.782351   -0.252531
      2          8           0        1.786887   -0.026177   -0.228087
      3          6           0       -1.357453    0.330701   -0.771673
      4          6           0       -1.298237   -0.748611    0.271560
      5          8           0       -2.689380   -0.428490    0.606407
      6          6           0       -2.613949    0.527779   -0.380332
      7          6           0        1.904155    1.131770    0.556041
      8          1           0        3.253009   -1.111490    0.755700
      9          1           0        2.784836   -1.659088   -0.872543
     10          1           0        3.802979   -0.211725   -0.680020
     11          1           0       -0.674754    0.728884   -1.499886
     12          1           0       -0.649687   -0.580441    1.130376
     13          1           0       -1.220342   -1.777298   -0.080638
     14          1           0       -3.462650    1.157464   -0.611944
     15          1           0        2.676043    1.806105    0.162352
     16          1           0        0.941454    1.642320    0.534715
     17          1           0        2.155068    0.886876    1.596933
 ---------------------------------------------------------------------

 SCF Done:  E(RHF) =  -346.410317402     A.U. after    2 cycles

 The electronic state is 1-A.
 Alpha  occ. eigenvalues --  -21.04957 -21.04947 -11.44892 -11.43929 -11.40834
 Alpha  occ. eigenvalues --  -11.39747 -11.37117  -1.78913  -1.75825  -1.10249
 Alpha  occ. eigenvalues --   -1.03642  -0.96501  -0.92158  -0.75585  -0.69513
 Alpha  occ. eigenvalues --   -0.64569  -0.64193  -0.63545  -0.58817  -0.55978
 Alpha  occ. eigenvalues --   -0.53171  -0.50533  -0.44428  -0.42097  -0.39480
 Alpha  occ. eigenvalues --   -0.38546  -0.30313  -0.26289
 Alpha virt. eigenvalues --    0.03535   0.05105   0.05239   0.05469   0.05878
 Alpha virt. eigenvalues --    0.06189   0.06581   0.06907   0.07739   0.08279
 Alpha virt. eigenvalues --    0.11550   0.11977   0.12443   0.12817   0.14431

 Mulliken charges:
               1
     1  C   -2.668989
     2  O   -2.683203
     3  C   -1.762440
     4  C   -1.645859
     5  O   -2.800683
     6  C    0.924645
     7  C   -2.822823
     8  H    1.390264
     9  H    1.376832
    10  H    1.336280
    11  H    1.039201
    12  H    1.580134
    13  H    1.417389
    14  H    1.160551
    15  H    1.309845
    16  H    1.488995
    17  H    1.359860
 Sum of Mulliken charges =   0.00000

 Dipole moment (field-independent basis, Debye):
    X=              0.9992    Y=              0.1518    Z=             -0.0251  Tot=              1.0109

 Test job not archived.
 1\1\GINC-SE292\SP\RHF\Aug-CC-pVDZ\C5H10O2\OHZDE\09-Apr-2025\0\\#t hf a
 ug-cc-pvdz iop(5/13=1,5/36=2,99/5=2) pseudo=read geom=check guess=(rea
 d,tcheck) scf=(maxcycle=1)\\title\\0,1\C,0,1.42644784,2.18369473,0.305
 69799\O,0,0.48883114,1.22917769,-0.11472517\C,0,-0.31188859,-1.7478478
 7,-1.01243743\C,0,0.13877671,-1.91580089,0.41074562\O,0,-0.62095118,-3
 .16931242,0.44818731\C,0,-0.96081139,-2.89925132,-0.85770538\C,0,-0.83
 51264,1.66169813,0.05706695\H,0,1.30715121,2.41908042,1.37179366\H,0,2
 .41866977,1.76397757,0.14476809\H,0,1.33687748,3.1161995,-0.26725474\H

 Normal termination of Gaussian 16 at Wed Apr  9 03:27:33 2025.
