 Gaussian 16, Revision C.01,

 ----------------------------------------------------------------------
 #t hf aug-cc-pvdz symm=none int=(grid=ultrafine) guess=(read,tcheck) s
 table=(opt,rrhf)
 ----------------------------------------------------------------------
 -----
 title
 -----
 Symbolic Z-matrix:
 Charge =  0 Multiplicity = 1

 SCF Done:  E(RHF) =  -345.915451104     A.U. after   15 cycles

 1\1\GINC-SE292\Stability\RHF\Aug-CC-pVDZ\C5H12O2\OHZDE\09-Apr-2025\0\\
 #t hf aug-cc-pvdz symm=none int=(grid=ultrafine) guess=(read,tcheck) s
 table=(opt,rrhf)\\title\\0,1\C,0,2.52785118,0.29611785,-0.759893\O,0,1
 .1510364,0.56414183,-0.67226062\C,0,0.40184,-0.56750653,-0.28245688\C,
 0,-1.07296057,-0.26557905,-0.23283796\C,0,-1.88292846,-1.47889164,0.18
 258699\C,0,-1.02445098,1.57810026,0.98361637\O,0,-0.78676559,2.4899812
 9,0.02984482\H,0,2.73305109,-0.48732365,-1.49959734\H,0,3.02335635,1.2
 1436463,-1.0713111\H,0,2.93467209,-0.02144817,0.2083872\H,0,0.58177757

 Normal termination of Gaussian 16 at Wed Apr  9 04:06:10 2025.
 Gaussian 16:  ES64L-G16RevC.01  3-Jul-2019

 ----------------------------------------------------------------------
 #t hf aug-cc-pvdz iop(5/13=1,5/36=2,99/5=2) pseudo=read geom=check gue
 ss=(read,tcheck) scf=(maxcycle=1)
 ----------------------------------------------------------------------
 -----
 title
 -----
 Structure from the checkpoint file:  "Grambow2020_wb97xd3_009273_forward_mol1.chk"
 Charge =  0 Multiplicity = 1

                         Standard orientation:
 ---------------------------------------------------------------------
 Center     Atomic      Atomic             Coordinates (Angstroms)
 Number     Number       Type             X           Y           Z
 ---------------------------------------------------------------------
      1          6           0        2.583595   -0.592084    0.104637
      2          8           0        1.317436   -0.078800   -0.224779
      3          6           0        0.271561   -0.976421    0.082290
      4          6           0       -1.070689   -0.420095   -0.314604
      5          6           0       -2.197765   -1.381778    0.010386
      6          6           0       -0.929124    1.573614    0.626858
      7          8           0       -0.275613    2.246664   -0.331071
      8          1           0        2.791606   -1.517869   -0.445549
      9          1           0        3.324749    0.156570   -0.170847
     10          1           0        2.662990   -0.798222    1.179403
     11          1           0        0.445407   -1.924217   -0.456141
     12          1           0        0.284760   -1.213519    1.156917
     13          1           0       -1.067215   -0.111610   -1.361945
     14          1           0       -3.162935   -0.980988   -0.301562
     15          1           0       -2.249781   -1.577990    1.084245
     16          1           0       -2.057213   -2.342308   -0.495470
     17          1           0       -1.642917    0.666297    0.218306
     18          1           0       -0.248906    1.142798    1.371498
     19          1           0        0.639404    1.938736   -0.389454
 ---------------------------------------------------------------------

 SCF Done:  E(RHF) =  -347.549184828     A.U. after    2 cycles

 The electronic state is 1-A.
 Alpha  occ. eigenvalues --  -21.08092 -21.06046 -11.45947 -11.41877 -11.41540
 Alpha  occ. eigenvalues --  -11.40030 -11.37387  -1.77855  -1.72788  -1.21538
 Alpha  occ. eigenvalues --   -1.03465  -0.94835  -0.92403  -0.82394  -0.68290
 Alpha  occ. eigenvalues --   -0.65892  -0.63103  -0.61873  -0.60132  -0.58462
 Alpha  occ. eigenvalues --   -0.56189  -0.53910  -0.49817  -0.45744  -0.45008
 Alpha  occ. eigenvalues --   -0.40548  -0.35613  -0.31847  -0.26227
 Alpha virt. eigenvalues --    0.03587   0.04514   0.04857   0.05078   0.05669
 Alpha virt. eigenvalues --    0.06257   0.06630   0.07101   0.07550   0.08712
 Alpha virt. eigenvalues --    0.08889   0.09691   0.11992   0.12615   0.13169

 Mulliken charges:
               1
     1  C   -3.258237
     2  O   -3.147122
     3  C   -0.102513
     4  C   -3.500025
     5  C   -3.730549
     6  C   -1.709482
     7  O   -2.627034
     8  H    1.405225
     9  H    1.331881
    10  H    1.371274
    11  H    1.490437
    12  H    1.865487
    13  H    1.538363
    14  H    1.107788
    15  H    1.221647
    16  H    1.217229
    17  H    3.173012
    18  H    1.266464
    19  H    1.086157
 Sum of Mulliken charges =   0.00000

 Dipole moment (field-independent basis, Debye):
    X=              1.9404    Y=             -2.3751    Z=             -0.7467  Tot=              3.1565

 Test job not archived.
 1\1\GINC-SE292\SP\RHF\Aug-CC-pVDZ\C5H12O2\OHZDE\09-Apr-2025\0\\#t hf a
 ug-cc-pvdz iop(5/13=1,5/36=2,99/5=2) pseudo=read geom=check guess=(rea
 d,tcheck) scf=(maxcycle=1)\\title\\0,1\C,0,2.52785118,0.29611785,-0.75
 9893\O,0,1.1510364,0.56414183,-0.67226062\C,0,0.40184,-0.56750653,-0.2
 8245688\C,0,-1.07296057,-0.26557905,-0.23283796\C,0,-1.88292846,-1.478
 89164,0.18258699\C,0,-1.02445098,1.57810026,0.98361637\O,0,-0.78676559
 ,2.48998129,0.02984482\H,0,2.73305109,-0.48732365,-1.49959734\H,0,3.02
 335635,1.21436463,-1.0713111\H,0,2.93467209,-0.02144817,0.2083872\H,0,

 Normal termination of Gaussian 16 at Wed Apr  9 04:06:17 2025.
