 Gaussian 16, Revision C.01,

 ----------------------------------------------------------------------
 #t hf aug-cc-pvdz symm=none int=(grid=ultrafine) guess=(read,tcheck) s
 table=(opt,rrhf)
 ----------------------------------------------------------------------
 -----
 title
 -----
 Symbolic Z-matrix:
 Charge =  0 Multiplicity = 1

 SCF Done:  E(RHF) =  -305.868127589     A.U. after   13 cycles
 Normal termination of Gaussian 16 at Wed Apr  9 16:12:52 2025.
 Gaussian 16:  ES64L-G16RevC.01  3-Jul-2019

 ----------------------------------------------------------------------
 #t hf aug-cc-pvdz iop(5/13=1,5/36=2,99/5=2) pseudo=read geom=check gue
 ss=(read,tcheck) scf=(maxcycle=1)
 ----------------------------------------------------------------------
 -----
 title
 -----
 Structure from the checkpoint file:  "Grambow2020_b97d3_006751_reverse_mol2.chk"
 Charge =  0 Multiplicity = 1

                         Standard orientation:
 ---------------------------------------------------------------------
 Center     Atomic      Atomic             Coordinates (Angstroms)
 Number     Number       Type             X           Y           Z
 ---------------------------------------------------------------------
      1          6           0       -2.523217   -0.141886   -0.199442
      2          6           0       -1.139078   -0.698987    0.004038
      3          6           0       -0.006844    0.008330    0.187188
      4          8           0        0.086381    1.387387    0.193593
      5          6           0        1.356414   -0.588020    0.422954
      6          8           0        2.311779   -0.170165   -0.552120
      7          1           0       -3.248387   -0.640334    0.461240
      8          1           0       -2.874770   -0.288432   -1.233627
      9          1           0       -2.593109    0.936130    0.018469
     10          1           0       -0.775651    1.760806   -0.069801
     11          1           0       -1.041101   -1.784423   -0.010032
     12          1           0        1.690689   -0.319861    1.444359
     13          1           0        1.296337   -1.680427    0.360878
     14          1           0        2.237060    0.802143   -0.591695
 ---------------------------------------------------------------------

 SCF Done:  E(RHF) =  -307.255521744     A.U. after    2 cycles

 The electronic state is 1-A.
 Alpha  occ. eigenvalues --  -21.10324 -21.06310 -11.47547 -11.43098 -11.40910
 Alpha  occ. eigenvalues --  -11.37601  -1.76327  -1.68553  -1.18595  -1.05241
 Alpha  occ. eigenvalues --   -0.91921  -0.77771  -0.67921  -0.63442  -0.59654
 Alpha  occ. eigenvalues --   -0.57557  -0.54435  -0.52487  -0.50714  -0.46762
 Alpha  occ. eigenvalues --   -0.44191  -0.39887  -0.31318  -0.28234
 Alpha virt. eigenvalues --    0.03288   0.05192   0.05431   0.05554   0.06336
 Alpha virt. eigenvalues --    0.06770   0.07455   0.08624   0.10910   0.11495
 Alpha virt. eigenvalues --    0.12410   0.13083   0.14791   0.15321   0.16140

 Mulliken charges:
               1
     1  C   -4.159543
     2  C   -0.937250
     3  C    3.511167
     4  O   -3.754218
     5  C   -1.399935
     6  O   -2.370229
     7  H    1.122800
     8  H    1.215646
     9  H    1.287380
    10  H    0.874362
    11  H    1.441969
    12  H    1.159552
    13  H    1.279265
    14  H    0.729034
 Sum of Mulliken charges =  -0.00000

 Dipole moment (field-independent basis, Debye):
    X=             -0.9994    Y=              0.6099    Z=              0.1644  Tot=              1.1823

 Test job not archived.
 1\1\GINC-SE138\SP\RHF\Aug-CC-pVDZ\C4H8O2\OHZDE\09-Apr-2025\0\\#t hf au
 g-cc-pvdz iop(5/13=1,5/36=2,99/5=2) pseudo=read geom=check guess=(read
 ,tcheck) scf=(maxcycle=1)\\title\\0,1\C,0,-2.1601678,0.0545211,-0.1200
 8719\C,0,-0.80071533,-0.43173447,0.30775683\C,0,0.38268829,0.15713026,
 0.04585664\O,0,0.55908205,1.31134008,-0.69388182\C,0,1.72143042,-0.342
 97706,0.52267099\O,0,2.62384966,-0.59953612,-0.55339245\H,0,-2.8620772
 4,0.054462,0.72734773\H,0,-2.59703335,-0.58857683,-0.90122521\H,0,-2.1
 4829472,1.08347282,-0.5145569\H,0,-0.29630485,1.56346852,-1.08968743\H

 Normal termination of Gaussian 16 at Wed Apr  9 16:12:56 2025.
