 Gaussian 16, Revision C.01,

 ----------------------------------------------------------------------
 #t hf aug-cc-pvdz symm=none int=(grid=ultrafine) guess=(read,tcheck) s
 table=(opt,rrhf)
 ----------------------------------------------------------------------
 -----
 title
 -----
 Symbolic Z-matrix:
 Charge =  0 Multiplicity = 1

 SCF Done:  E(RHF) =  -268.803913917     A.U. after   14 cycles
 Normal termination of Gaussian 16 at Wed Apr  9 03:20:37 2025.
 Gaussian 16:  ES64L-G16RevC.01  3-Jul-2019

 ----------------------------------------------------------------------
 #t hf aug-cc-pvdz iop(5/13=1,5/36=2,99/5=2) pseudo=read geom=check gue
 ss=(read,tcheck) scf=(maxcycle=1)
 ----------------------------------------------------------------------
 -----
 title
 -----
 Structure from the checkpoint file:  "Grambow2020_wb97xd3_006047_reverse_mol2.chk"
 Charge =  0 Multiplicity = 1

                         Standard orientation:
 ---------------------------------------------------------------------
 Center     Atomic      Atomic             Coordinates (Angstroms)
 Number     Number       Type             X           Y           Z
 ---------------------------------------------------------------------
      1          6           0        1.672471   -1.039926   -0.032831
      2          8           0        2.560699   -0.239339    0.027674
      3          6           0       -0.035786    1.977234   -0.214827
      4          6           0       -0.730793    0.950514    0.174878
      5          6           0       -1.414731   -0.087404    0.565284
      6          6           0       -2.043495   -1.091564   -0.358697
      7          1           0        1.127120   -1.241036   -0.974018
      8          1           0        1.352426   -1.627821    0.848033
      9          1           0       -1.548049   -0.234503    1.634334
     10          1           0       -0.508538    2.933257   -0.407605
     11          1           0        1.038241    1.899159   -0.349544
     12          1           0       -3.124947   -1.129473   -0.209825
     13          1           0       -1.849700   -0.841926   -1.401506
     14          1           0       -1.658132   -2.096072   -0.164105
 ---------------------------------------------------------------------

 SCF Done:  E(RHF) =  -270.065424607     A.U. after    2 cycles

 The electronic state is 1-A.
 Alpha  occ. eigenvalues --  -21.07336 -11.47559 -11.43090 -11.42399 -11.40261
 Alpha  occ. eigenvalues --  -11.38063  -1.71250  -1.22862  -1.08041  -0.93301
 Alpha  occ. eigenvalues --   -0.89641  -0.71817  -0.66593  -0.62517  -0.60788
 Alpha  occ. eigenvalues --   -0.57340  -0.54983  -0.53031  -0.52133  -0.45229
 Alpha  occ. eigenvalues --   -0.35544  -0.34770  -0.30417
 Alpha virt. eigenvalues --    0.03043   0.04994   0.05339   0.05650   0.05933
 Alpha virt. eigenvalues --    0.06657   0.06982   0.07693   0.10973   0.11124
 Alpha virt. eigenvalues --    0.11557   0.12049   0.12573   0.13273   0.13536

 Mulliken charges:
               1
     1  C   -0.782019
     2  O   -2.097407
     3  C   -4.523789
     4  C    2.975474
     5  C   -1.682501
     6  C   -4.348116
     7  H    1.454149
     8  H    1.388398
     9  H    1.298343
    10  H    1.287505
    11  H    1.342528
    12  H    1.143543
    13  H    1.331633
    14  H    1.212258
 Sum of Mulliken charges =   0.00000

 Dipole moment (field-independent basis, Debye):
    X=             -1.1182    Y=             -0.7249    Z=             -0.0573  Tot=              1.3338

 Test job not archived.
 1\1\GINC-SE184\SP\RHF\Aug-CC-pVDZ\C5H8O1\OHZDE\09-Apr-2025\0\\#t hf au
 g-cc-pvdz iop(5/13=1,5/36=2,99/5=2) pseudo=read geom=check guess=(read
 ,tcheck) scf=(maxcycle=1)\\title\\0,1\C,0,-2.0737914,0.81203557,-0.428
 26831\O,0,-2.88308732,0.02399661,-0.82523629\C,0,-0.10389559,-1.931386
 95,-1.23304426\C,0,0.40983626,-1.0881339,-0.38802217\C,0,0.91163134,-0
 .23478841,0.45901198\C,0,1.6160226,1.03537156,0.07437223\H,0,-1.376968
 36,1.33214505,-1.11208835\H,0,-1.9826479,1.06863183,0.64402881\H,0,0.8
 2275891,-0.45988392,1.51906492\H,0,0.47937996,-2.75563832,-1.62678994\

 Normal termination of Gaussian 16 at Wed Apr  9 03:20:41 2025.
