 Gaussian 16, Revision C.01,

 ----------------------------------------------------------------------
 #t hf aug-cc-pvdz symm=none int=(grid=ultrafine) guess=(read,tcheck) s
 table=(opt,rrhf)
 ----------------------------------------------------------------------
 -----
 title
 -----
 Symbolic Z-matrix:
 Charge =  0 Multiplicity = 1

 SCF Done:  E(RHF) =  -342.323176718     A.U. after   16 cycles
 Normal termination of Gaussian 16 at Wed Apr  9 19:30:07 2025.
 Gaussian 16:  ES64L-G16RevC.01  3-Jul-2019

 ----------------------------------------------------------------------
 #t hf aug-cc-pvdz iop(5/13=1,5/36=2,99/5=2) pseudo=read geom=check gue
 ss=(read,tcheck) scf=(maxcycle=1)
 ----------------------------------------------------------------------
 -----
 title
 -----
 Structure from the checkpoint file:  "Grambow2020_wb97xd3_009062_reverse_mol2.chk"
 Charge =  0 Multiplicity = 1

                         Standard orientation:
 ---------------------------------------------------------------------
 Center     Atomic      Atomic             Coordinates (Angstroms)
 Number     Number       Type             X           Y           Z
 ---------------------------------------------------------------------
      1          8           0       -2.458752    0.305737    0.061471
      2          6           0        1.588992    1.191784   -0.051920
      3          6           0        2.014876   -0.217845    0.117351
      4          6           0        0.847296   -1.200907   -0.098271
      5          6           0       -0.322926   -0.278921   -0.043376
      6          8           0       -1.500924   -0.669429    0.029522
      7          6           0        0.104161    1.142403   -0.070265
      8          1           0        2.309373   -0.174863    1.183032
      9          1           0        2.942982   -0.457005   -0.402524
     10          1           0        0.776893   -2.001372    0.638576
     11          1           0        0.898618   -1.672510   -1.083982
     12          1           0       -0.339821    1.718207    0.754448
     13          1           0       -0.305033    1.677993   -0.938603
 ---------------------------------------------------------------------

 SCF Done:  E(RHF) =  -343.846552982     A.U. after    2 cycles

 The electronic state is 1-A.
 Alpha  occ. eigenvalues --  -21.16876 -20.98589 -11.55068 -11.48270 -11.44948
 Alpha  occ. eigenvalues --  -11.42759 -11.40412  -2.00219  -1.40441  -1.31715
 Alpha  occ. eigenvalues --   -1.11121  -1.02808  -0.81675  -0.80151  -0.69889
 Alpha  occ. eigenvalues --   -0.66172  -0.62074  -0.60215  -0.57387  -0.54131
 Alpha  occ. eigenvalues --   -0.50814  -0.49410  -0.42220  -0.33945  -0.26413
 Alpha  occ. eigenvalues --   -0.25624
 Alpha virt. eigenvalues --    0.01950   0.04106   0.04826   0.05018   0.05740
 Alpha virt. eigenvalues --    0.06295   0.07149   0.08277   0.09465   0.10667
 Alpha virt. eigenvalues --    0.11647   0.12277   0.13772   0.14351   0.14400

 Mulliken charges:
               1
     1  O   -0.445674
     2  C   -0.789251
     3  C   -2.242122
     4  C   -3.610394
     5  C    4.661108
     6  O   -2.965049
     7  C   -3.346626
     8  H    1.535674
     9  H    1.342796
    10  H    1.302890
    11  H    1.375043
    12  H    1.591093
    13  H    1.590513
 Sum of Mulliken charges =  -0.00000

 Dipole moment (field-independent basis, Debye):
    X=              2.0786    Y=             -1.8069    Z=              0.0552  Tot=              2.7547

 Test job not archived.
 1\1\GINC-SE041\SP\RHF\Aug-CC-pVDZ\C5H6O2\OHZDE\09-Apr-2025\0\\#t hf au
 g-cc-pvdz iop(5/13=1,5/36=2,99/5=2) pseudo=read geom=check guess=(read
 ,tcheck) scf=(maxcycle=1)\\title\\0,1\O,0,2.37765625,0.66828191,1.6006
 5657\C,0,0.04863189,-0.82079718,-1.4881061\C,0,-1.23439426,-0.43358079
 ,-0.85486608\C,0,-1.0240587,0.54070323,0.32100583\C,0,0.44296854,0.407
 31885,0.55020329\O,0,1.02624596,0.86866057,1.5464172\C,0,1.09662351,-0
 .35194852,-0.5450293\H,0,-1.54930871,-1.43152711,-0.49544444\H,0,-2.00
 719448,-0.15657929,-1.57243072\H,0,-1.60382339,0.31445411,1.21617494\H

 Normal termination of Gaussian 16 at Wed Apr  9 19:30:11 2025.
