 Gaussian 16, Revision C.01,

 ----------------------------------------------------------------------
 #t hf aug-cc-pvdz symm=none int=(grid=ultrafine) guess=(read,tcheck) s
 table=(opt,rrhf)
 ----------------------------------------------------------------------
 -----
 title
 -----
 Symbolic Z-matrix:
 Charge =  0 Multiplicity = 1

 SCF Done:  E(RHF) =  -322.545534062     A.U. after   17 cycles
 Normal termination of Gaussian 16 at Wed Apr  9 18:37:33 2025.
 Gaussian 16:  ES64L-G16RevC.01  3-Jul-2019

 ----------------------------------------------------------------------
 #t hf aug-cc-pvdz iop(5/13=1,5/36=2,99/5=2) pseudo=read geom=check gue
 ss=(read,tcheck) scf=(maxcycle=1)
 ----------------------------------------------------------------------
 -----
 title
 -----
 Structure from the checkpoint file:  "Grambow2020_wb97xd3_007343_forward_mol1.chk"
 Charge =  0 Multiplicity = 1

                         Standard orientation:
 ---------------------------------------------------------------------
 Center     Atomic      Atomic             Coordinates (Angstroms)
 Number     Number       Type             X           Y           Z
 ---------------------------------------------------------------------
      1          8           0        2.330531   -0.444936   -0.299303
      2          6           0        1.249027   -0.050245   -0.003292
      3          6           0        0.427781    1.207654   -0.280168
      4          7           0       -0.656790    0.680674    0.587541
      5          6           0       -1.850936    0.220000   -0.120915
      6          6           0       -1.485865   -1.184642   -0.604915
      7          6           0        0.101982   -0.579845    0.841383
      8          1           0        0.868939    2.130899    0.098986
      9          1           0        0.163016    1.343906   -1.332723
     10          1           0       -2.111629    0.888031   -0.947578
     11          1           0       -2.696160    0.196542    0.569558
     12          1           0       -0.754875   -1.073434   -1.427160
     13          1           0       -0.473205   -1.523115    0.446208
     14          1           0        0.305264   -0.845590    1.881792
 ---------------------------------------------------------------------

 SCF Done:  E(RHF) =  -324.024947457     A.U. after    2 cycles

 The electronic state is 1-A.
 Alpha  occ. eigenvalues --  -21.08485 -15.73594 -11.52138 -11.46418 -11.44384
 Alpha  occ. eigenvalues --  -11.43081 -11.40232  -1.73691  -1.51273  -1.15571
 Alpha  occ. eigenvalues --   -1.05741  -0.97772  -0.83397  -0.78055  -0.68540
 Alpha  occ. eigenvalues --   -0.67397  -0.60809  -0.59546  -0.56048  -0.55188
 Alpha  occ. eigenvalues --   -0.51085  -0.48275  -0.44548  -0.37516  -0.30735
 Alpha  occ. eigenvalues --   -0.29531
 Alpha virt. eigenvalues --    0.03566   0.05053   0.05216   0.05497   0.05886
 Alpha virt. eigenvalues --    0.06487   0.07253   0.07836   0.09518   0.10481
 Alpha virt. eigenvalues --    0.12417   0.12590   0.12810   0.13306   0.13679

 Mulliken charges:
               1
     1  O   -3.133055
     2  C    3.791285
     3  C   -2.537030
     4  N   -1.673946
     5  C   -2.152965
     6  C   -2.017929
     7  C   -2.370540
     8  H    1.304536
     9  H    1.487373
    10  H    1.564351
    11  H    1.399555
    12  H    1.171068
    13  H    1.944125
    14  H    1.223170
 Sum of Mulliken charges =  -0.00000

 Dipole moment (field-independent basis, Debye):
    X=              0.2228    Y=              1.7991    Z=             -0.0166  Tot=              1.8129

 Test job not archived.
 1\1\GINC-SE114\SP\RHF\Aug-CC-pVDZ\C5H7N1O1\OHZDE\09-Apr-2025\0\\#t hf
 aug-cc-pvdz iop(5/13=1,5/36=2,99/5=2) pseudo=read geom=check guess=(re
 ad,tcheck) scf=(maxcycle=1)\\title\\0,1\O,0,1.60212699,1.52868661,-1.5
 9040236\C,0,1.05015067,0.66114135,-0.99396256\C,0,1.36191054,-0.196712
 31,0.23090798\N,0,0.09066787,-0.93744618,0.02553617\C,0,-0.96607547,-0
 .63807852,0.99186297\C,0,-1.58455149,0.66612119,0.48480899\C,0,-0.2639
 6575,-0.08638543,-1.14877693\H,0,2.24629389,-0.82798813,0.13033642\H,0
 ,1.43061804,0.36870155,1.16478415\H,0,-0.5680963,-0.5405055,2.00659927

 Normal termination of Gaussian 16 at Wed Apr  9 18:37:37 2025.
