 Gaussian 16, Revision C.01,

 ----------------------------------------------------------------------
 #t hf aug-cc-pvdz symm=none int=(grid=ultrafine) guess=(read,tcheck) s
 table=(opt,rrhf)
 ----------------------------------------------------------------------
 -----
 title
 -----
 Symbolic Z-matrix:
 Charge =  0 Multiplicity = 1

 SCF Done:  E(RHF) =  -266.829121642     A.U. after   12 cycles
 Normal termination of Gaussian 16 at Wed Apr  9 03:09:40 2025.
 Gaussian 16:  ES64L-G16RevC.01  3-Jul-2019

 ----------------------------------------------------------------------
 #t hf aug-cc-pvdz iop(5/13=1,5/36=2,99/5=2) pseudo=read geom=check gue
 ss=(read,tcheck) scf=(maxcycle=1)
 ----------------------------------------------------------------------
 -----
 title
 -----
 Structure from the checkpoint file:  "Grambow2020_b97d3_006693_forward_mol2.chk"
 Charge =  0 Multiplicity = 1

                         Standard orientation:
 ---------------------------------------------------------------------
 Center     Atomic      Atomic             Coordinates (Angstroms)
 Number     Number       Type             X           Y           Z
 ---------------------------------------------------------------------
      1          6           0       -1.042190   -0.651297   -0.094527
      2          6           0       -0.841801    0.849226    0.179157
      3          8           0        0.495698    1.073202   -0.273249
      4          6           0        1.183361   -0.095382    0.119455
      5          8           0        0.282686   -1.195281   -0.009400
      6          1           0       -1.448889   -0.829440   -1.102555
      7          1           0       -1.693092   -1.133576    0.648870
      8          1           0       -1.509877    1.505398   -0.389759
      9          1           0       -0.934695    1.071825    1.257851
     10          1           0        2.042547   -0.231119   -0.550880
     11          1           0        1.520709   -0.021733    1.173157
 ---------------------------------------------------------------------

 SCF Done:  E(RHF) =  -268.003921853     A.U. after    2 cycles

 The electronic state is 1-A.
 Alpha  occ. eigenvalues --  -21.05716 -21.04804 -11.46353 -11.44301 -11.39888
 Alpha  occ. eigenvalues --   -1.84755  -1.65775  -1.11445  -0.89426  -0.87270
 Alpha  occ. eigenvalues --   -0.70659  -0.68154  -0.62257  -0.56096  -0.51606
 Alpha  occ. eigenvalues --   -0.51153  -0.42204  -0.37342  -0.31262  -0.30024
 Alpha virt. eigenvalues --    0.03617   0.05143   0.05717   0.05766   0.06410
 Alpha virt. eigenvalues --    0.06811   0.10165   0.10643   0.11727   0.14056
 Alpha virt. eigenvalues --    0.14780   0.15017   0.15193   0.17781   0.17980

 Mulliken charges:
               1
     1  C   -1.020099
     2  C   -1.827308
     3  O   -2.586759
     4  C   -0.276441
     5  O   -2.660150
     6  H    1.337924
     7  H    1.356739
     8  H    1.325876
     9  H    1.320179
    10  H    1.491426
    11  H    1.538611
 Sum of Mulliken charges =   0.00000

 Dipole moment (field-independent basis, Debye):
    X=             -0.6582    Y=              0.3392    Z=              0.1188  Tot=              0.7500

 Test job not archived.
 1\1\GINC-SE453\SP\RHF\Aug-CC-pVDZ\C3H6O2\OHZDE\09-Apr-2025\0\\#t hf au
 g-cc-pvdz iop(5/13=1,5/36=2,99/5=2) pseudo=read geom=check guess=(read
 ,tcheck) scf=(maxcycle=1)\\title\\0,1\C,0,0.52160679,0.96892658,0.1910
 7662\C,0,0.93593775,-0.48370506,-0.10015746\O,0,-0.2042897,-1.00127745
 ,-0.789896\C,0,-1.29811837,-0.40877319,-0.12268973\O,0,-0.90989795,0.9
 0869493,0.26609984\H,0,0.81899121,1.64724323,-0.62422022\H,0,0.9305677
 6,1.34311255,1.14062436\H,0,1.80712075,-0.58191186,-0.75738461\H,0,1.1
 1494361,-1.04098608,0.83747614\H,0,-2.14364516,-0.36178194,-0.82186814

 Normal termination of Gaussian 16 at Wed Apr  9 03:09:42 2025.
