 Gaussian 16, Revision C.01,

 ----------------------------------------------------------------------
 #t hf aug-cc-pvdz symm=none int=(grid=ultrafine) guess=(read,tcheck) s
 table=(opt,rrhf)
 ----------------------------------------------------------------------
 -----
 title
 -----
 Symbolic Z-matrix:
 Charge =  0 Multiplicity = 1

 SCF Done:  E(RHF) =  -343.697210836     A.U. after   13 cycles
 Normal termination of Gaussian 16 at Wed Apr  9 03:51:37 2025.
 Gaussian 16:  ES64L-G16RevC.01  3-Jul-2019

 ----------------------------------------------------------------------
 #t hf aug-cc-pvdz iop(5/13=1,5/36=2,99/5=2) pseudo=read geom=check gue
 ss=(read,tcheck) scf=(maxcycle=1)
 ----------------------------------------------------------------------
 -----
 title
 -----
 Structure from the checkpoint file:  "Grambow2020_wb97xd3_008199_reverse_mol2.chk"
 Charge =  0 Multiplicity = 1

                         Standard orientation:
 ---------------------------------------------------------------------
 Center     Atomic      Atomic             Coordinates (Angstroms)
 Number     Number       Type             X           Y           Z
 ---------------------------------------------------------------------
      1          8           0        2.537344    0.284158   -0.249563
      2          6           0        1.695238   -0.842764   -0.325806
      3          6           0        0.511742   -0.783162    0.641397
      4          6           0       -0.533404    0.207142    0.228142
      5          8           0       -0.032701    1.489061    0.134700
      6          6           0       -1.777297   -0.087569   -0.037178
      7          6           0       -3.019794   -0.381976   -0.292103
      8          1           0        1.984519    1.067885   -0.319295
      9          1           0        2.316991   -1.704386   -0.075695
     10          1           0        1.321344   -0.990569   -1.348506
     11          1           0        0.885124   -0.514567    1.634483
     12          1           0        0.045393   -1.766618    0.710923
     13          1           0       -3.776981   -0.365813    0.486191
     14          1           0       -0.727630    2.079730   -0.166130
     15          1           0       -3.344804   -0.661442   -1.289786
 ---------------------------------------------------------------------

 SCF Done:  E(RHF) =  -345.254671937     A.U. after    2 cycles

 The electronic state is 1-A.
 Alpha  occ. eigenvalues --  -21.11149 -21.05268 -11.48960 -11.43787 -11.42686
 Alpha  occ. eigenvalues --  -11.40750 -11.38462  -1.76913  -1.69733  -1.20882
 Alpha  occ. eigenvalues --   -1.11607  -0.97444  -0.87594  -0.74658  -0.66320
 Alpha  occ. eigenvalues --   -0.65397  -0.61567  -0.58531  -0.57240  -0.54249
 Alpha  occ. eigenvalues --   -0.51328  -0.46800  -0.46149  -0.39100  -0.36061
 Alpha  occ. eigenvalues --   -0.30633  -0.28626
 Alpha virt. eigenvalues --    0.02978   0.04717   0.05430   0.05909   0.06352
 Alpha virt. eigenvalues --    0.06747   0.07014   0.07848   0.10185   0.10318
 Alpha virt. eigenvalues --    0.11197   0.11753   0.13329   0.13809   0.14634

 Mulliken charges:
               1
     1  O   -2.797761
     2  C   -0.853972
     3  C   -3.300390
     4  C    4.003690
     5  O   -3.575545
     6  C    2.001618
     7  C   -5.374725
     8  H    1.056955
     9  H    1.298707
    10  H    1.461430
    11  H    1.286067
    12  H    1.393645
    13  H    1.250247
    14  H    0.905455
    15  H    1.244579
 Sum of Mulliken charges =   0.00000

 Dipole moment (field-independent basis, Debye):
    X=             -0.9718    Y=              0.2606    Z=              0.0176  Tot=              1.0063

 Test job not archived.
 1\1\GINC-SE120\SP\RHF\Aug-CC-pVDZ\C5H8O2\OHZDE\09-Apr-2025\0\\#t hf au
 g-cc-pvdz iop(5/13=1,5/36=2,99/5=2) pseudo=read geom=check guess=(read
 ,tcheck) scf=(maxcycle=1)\\title\\0,1\O,0,2.32659488,0.80710718,1.3537
 1054\C,0,1.46143407,1.28381782,0.34914471\C,0,0.81411692,0.16902774,-0
 .47421429\C,0,-0.23991599,-0.58079785,0.28115906\O,0,0.25501992,-1.169
 7372,1.42612199\C,0,-1.49367429,-0.6658792,-0.07291556\C,0,-2.74169636
 ,-0.7575769,-0.43277072\H,0,1.84995917,0.14225246,1.85917207\H,0,2.072
 46077,1.90427561,-0.309038\H,0,0.67611373,1.92508751,0.77294082\H,0,1.

 Normal termination of Gaussian 16 at Wed Apr  9 03:51:43 2025.
