 Gaussian 16, Revision C.01,

 ----------------------------------------------------------------------
 #t hf aug-cc-pvdz symm=none int=(grid=ultrafine) guess=(read,tcheck) s
 table=(opt,rrhf)
 ----------------------------------------------------------------------
 -----
 title
 -----
 Symbolic Z-matrix:
 Charge =  0 Multiplicity = 1

 SCF Done:  E(RHF) =  -358.430384758     A.U. after   20 cycles
 Normal termination of Gaussian 16 at Wed Apr  9 18:40:20 2025.
 Gaussian 16:  ES64L-G16RevC.01  3-Jul-2019

 ----------------------------------------------------------------------
 #t hf aug-cc-pvdz iop(5/13=1,5/36=2,99/5=2) pseudo=read geom=check gue
 ss=(read,tcheck) scf=(maxcycle=1)
 ----------------------------------------------------------------------
 -----
 title
 -----
 Structure from the checkpoint file:  "Grambow2020_wb97xd3_007456_forward_mol1.chk"
 Charge =  0 Multiplicity = 1

                         Standard orientation:
 ---------------------------------------------------------------------
 Center     Atomic      Atomic             Coordinates (Angstroms)
 Number     Number       Type             X           Y           Z
 ---------------------------------------------------------------------
      1          8           0        2.748579   -0.358865    0.073003
      2          6           0        1.734611    0.587158    0.163337
      3          6           0        0.326984    0.030038    0.012005
      4          7           0       -0.021409   -1.138219   -0.157613
      5          8           0       -2.437901   -0.728067    0.120002
      6          6           0       -2.111282    0.443235    0.048019
      7          6           0       -0.809921    0.931002   -0.193167
      8          1           0        2.682220   -0.821830   -0.765254
      9          1           0        1.779306    1.030631    1.160162
     10          1           0        1.837898    1.399512   -0.567903
     11          1           0       -2.846297    1.242180    0.267951
     12          1           0       -0.631037    1.863897   -0.716868
 ---------------------------------------------------------------------

 SCF Done:  E(RHF) =  -359.976424187     A.U. after    2 cycles

 The electronic state is 1-A.
 Alpha  occ. eigenvalues --  -21.11186 -21.03957 -15.84701 -11.50884 -11.47544
 Alpha  occ. eigenvalues --  -11.46961 -11.41160  -1.76365  -1.69444  -1.40046
 Alpha  occ. eigenvalues --   -1.10482  -1.05313  -0.84502  -0.74726  -0.70404
 Alpha  occ. eigenvalues --   -0.67511  -0.62245  -0.60849  -0.54007  -0.52518
 Alpha  occ. eigenvalues --   -0.48368  -0.45030  -0.44252  -0.36609  -0.31162
 Alpha  occ. eigenvalues --   -0.26049
 Alpha virt. eigenvalues --    0.02464   0.03568   0.04952   0.05335   0.05522
 Alpha virt. eigenvalues --    0.06820   0.08733   0.10882   0.11356   0.12026
 Alpha virt. eigenvalues --    0.12669   0.12890   0.13499   0.13838   0.15517

 Mulliken charges:
               1
     1  O   -2.703660
     2  C   -0.483286
     3  C    2.235606
     4  N   -2.520698
     5  O   -2.747956
     6  C    1.405562
     7  C   -1.355257
     8  H    0.726046
     9  H    1.288391
    10  H    1.234988
    11  H    1.424256
    12  H    1.496008
 Sum of Mulliken charges =  -0.00000

 Dipole moment (field-independent basis, Debye):
    X=              2.1723    Y=              1.5490    Z=             -0.5009  Tot=              2.7146

 Test job not archived.
 1\1\GINC-SE028\SP\RHF\Aug-CC-pVDZ\C4H5N1O2\OHZDE\09-Apr-2025\0\\#t hf
 aug-cc-pvdz iop(5/13=1,5/36=2,99/5=2) pseudo=read geom=check guess=(re
 ad,tcheck) scf=(maxcycle=1)\\title\\0,1\O,0,-2.5984515,0.4982306,-0.32
 402522\C,0,-1.5435772,-0.25594217,0.17568955\C,0,-0.16283101,0.3281006
 8,-0.08340731\N,0,0.13097387,1.37857175,-0.65363666\O,0,2.53197412,1.3
 1244387,-0.09189301\C,0,2.28195647,0.17249489,0.25713263\C,0,1.0385048
 7,-0.48187914,0.13363758\H,0,-2.48320995,0.62557689,-1.26843854\H,0,-1
 .65283232,-0.30520497,1.26102954\H,0,-1.53251693,-1.28549866,-0.205348

 Normal termination of Gaussian 16 at Wed Apr  9 18:40:24 2025.
