 Gaussian 16, Revision C.01,

 ----------------------------------------------------------------------
 #t hf aug-cc-pvdz symm=none int=(grid=ultrafine) guess=(read,tcheck) s
 table=(opt,rrhf)
 ----------------------------------------------------------------------
 -----
 title
 -----
 Symbolic Z-matrix:
 Charge =  0 Multiplicity = 1

 SCF Done:  E(RHF) =  -394.357704490     A.U. after   15 cycles
 Normal termination of Gaussian 16 at Wed Apr  9 18:30:25 2025.
 Gaussian 16:  ES64L-G16RevC.01  3-Jul-2019

 ----------------------------------------------------------------------
 #t hf aug-cc-pvdz iop(5/13=1,5/36=2,99/5=2) pseudo=read geom=check gue
 ss=(read,tcheck) scf=(maxcycle=1)
 ----------------------------------------------------------------------
 -----
 title
 -----
 Structure from the checkpoint file:  "Grambow2020_wb97xd3_007208_reverse_mol2.chk"
 Charge =  0 Multiplicity = 1

                         Standard orientation:
 ---------------------------------------------------------------------
 Center     Atomic      Atomic             Coordinates (Angstroms)
 Number     Number       Type             X           Y           Z
 ---------------------------------------------------------------------
      1          7           0       -1.163649    1.629873    0.368458
      2          6           0       -0.612700    0.589375   -0.051333
      3          8           0        0.521869    0.577783   -0.855997
      4          6           0        1.674456    0.041661   -0.475166
      5          8           0        1.573196   -0.283978    0.799466
      6          6           0       -1.276613   -0.744899    0.183585
      7          8           0       -0.862758   -1.775216   -0.255675
      8          1           0       -0.638781    2.467565    0.123615
      9          1           0        2.408345   -0.682342    1.060849
     10          1           0       -2.193333   -0.659875    0.791469
 ---------------------------------------------------------------------

 SCF Done:  E(RHF) =  -395.996011518     A.U. after    2 cycles

 The electronic state is 1-A.
 Alpha  occ. eigenvalues --  -21.15503 -21.13496 -21.09750 -15.78629 -11.53084
 Alpha  occ. eigenvalues --  -11.48347 -11.47035  -1.91895  -1.75654  -1.73016
 Alpha  occ. eigenvalues --   -1.36785  -1.01232  -0.89967  -0.77843  -0.70760
 Alpha  occ. eigenvalues --   -0.68340  -0.63110  -0.57152  -0.54881  -0.52956
 Alpha  occ. eigenvalues --   -0.47863  -0.46223  -0.41182  -0.39169  -0.34863
 Alpha  occ. eigenvalues --   -0.31989
 Alpha virt. eigenvalues --    0.03493   0.05267   0.05427   0.08160   0.09609
 Alpha virt. eigenvalues --    0.10279   0.10743   0.11193   0.11527   0.12665
 Alpha virt. eigenvalues --    0.13544   0.13836   0.15189   0.15559   0.17783

 Mulliken charges:
               1
     1  N   -3.283994
     2  C    4.388264
     3  O   -2.771817
     4  C    1.236166
     5  O   -1.987366
     6  C    1.626497
     7  O   -2.760984
     8  H    0.788584
     9  H    1.180021
    10  H    1.584629
 Sum of Mulliken charges =  -0.00000

 Dipole moment (field-independent basis, Debye):
    X=              0.1275    Y=              0.1212    Z=              1.7499  Tot=              1.7587

 Test job not archived.
 1\1\GINC-SE162\SP\RHF\Aug-CC-pVDZ\C3H3N1O3\OHZDE\09-Apr-2025\0\\#t hf
 aug-cc-pvdz iop(5/13=1,5/36=2,99/5=2) pseudo=read geom=check guess=(re
 ad,tcheck) scf=(maxcycle=1)\\title\\0,1\N,0,-0.83768226,1.54774824,-0.
 67130886\C,0,-0.50759617,0.3675515,-0.4251711\O,0,0.48436925,-0.324388
 71,-1.11225792\C,0,1.59189445,-0.7688647,-0.53196022\O,0,1.63198161,-0
 .28797589,0.69609502\C,0,-1.31341076,-0.4336914,0.56726398\O,0,-1.1189
 3007,-1.58927241,0.79658585\H,0,-0.2401659,1.97405287,-1.37728298\H,0,
 2.43094929,-0.62619119,1.11052187\H,0,-2.11029043,0.16199068,1.0439983

 Normal termination of Gaussian 16 at Wed Apr  9 18:30:29 2025.
