 Gaussian 16, Revision C.01,

 ----------------------------------------------------------------------
 #t hf aug-cc-pvdz symm=none int=(grid=ultrafine) guess=(read,tcheck) s
 table=(opt,rrhf)
 ----------------------------------------------------------------------
 -----
 title
 -----
 Symbolic Z-matrix:
 Charge =  0 Multiplicity = 1

 SCF Done:  E(RHF) =  -344.819497542     A.U. after   14 cycles

 1\1\GINC-SE250\Stability\RHF\Aug-CC-pVDZ\C5H10O2\OHZDE\09-Apr-2025\0\\
 #t hf aug-cc-pvdz symm=none int=(grid=ultrafine) guess=(read,tcheck) s
 table=(opt,rrhf)\\title\\0,1\C,0,-2.22411782,-0.67709619,-0.54484042\C
 ,0,-1.13594323,0.37716035,-0.68604015\C,0,0.00956572,0.17498975,0.2763
 6898\O,0,0.74273101,-1.0567208,-0.04916079\C,0,1.22029661,1.08758028,0
 .09433647\C,0,2.12039907,-0.13655737,-0.13390874\O,0,2.68648661,-0.702
 92778,0.89525942\H,0,-3.01887948,-0.51873758,-1.27483407\H,0,-1.815392
 58,-1.67654253,-0.70072658\H,0,-2.67465504,-0.64819271,0.45009689\H,0,

 Normal termination of Gaussian 16 at Wed Apr  9 03:45:44 2025.
 Gaussian 16:  ES64L-G16RevC.01  3-Jul-2019

 ----------------------------------------------------------------------
 #t hf aug-cc-pvdz iop(5/13=1,5/36=2,99/5=2) pseudo=read geom=check gue
 ss=(read,tcheck) scf=(maxcycle=1)
 ----------------------------------------------------------------------
 -----
 title
 -----
 Structure from the checkpoint file:  "Grambow2020_wb97xd3_007830_reverse_mol1.chk"
 Charge =  0 Multiplicity = 1

                         Standard orientation:
 ---------------------------------------------------------------------
 Center     Atomic      Atomic             Coordinates (Angstroms)
 Number     Number       Type             X           Y           Z
 ---------------------------------------------------------------------
      1          6           0        2.698628   -0.544659   -0.035824
      2          6           0        1.674422    0.557709    0.190682
      3          6           0        0.336030    0.258009   -0.440335
      4          8           0       -0.302483   -0.885039    0.227763
      5          6           0       -0.798005    1.230795   -0.124930
      6          6           0       -1.621515    0.086995    0.486909
      7          8           0       -2.412370   -0.603556   -0.286464
      8          1           0        3.641737   -0.309691    0.459100
      9          1           0        2.336369   -1.494834    0.359380
     10          1           0        2.905055   -0.678678   -1.100318
     11          1           0        1.521741    0.722077    1.261880
     12          1           0        2.032381    1.505279   -0.225163
     13          1           0        0.455956    0.026051   -1.501609
     14          1           0       -1.257652   -1.195801   -0.411626
     15          1           0       -1.300728    1.672970   -0.982028
     16          1           0       -0.515264    2.004518    0.589322
     17          1           0       -1.838141    0.123768    1.561666
 ---------------------------------------------------------------------

 SCF Done:  E(RHF) =  -346.440551850     A.U. after    2 cycles

 The electronic state is 1-A.
 Alpha  occ. eigenvalues --  -21.06090 -21.00232 -11.53109 -11.47945 -11.42776
 Alpha  occ. eigenvalues --  -11.40089 -11.36743  -1.84344  -1.61490  -1.22191
 Alpha  occ. eigenvalues --   -1.12332  -0.97074  -0.87236  -0.80603  -0.70696
 Alpha  occ. eigenvalues --   -0.68776  -0.64105  -0.59852  -0.59121  -0.54041
 Alpha  occ. eigenvalues --   -0.50057  -0.49148  -0.48613  -0.44340  -0.41476
 Alpha  occ. eigenvalues --   -0.38286  -0.28427  -0.25767
 Alpha virt. eigenvalues --    0.03894   0.04508   0.04691   0.05365   0.05610
 Alpha virt. eigenvalues --    0.05668   0.06314   0.07394   0.07885   0.08967
 Alpha virt. eigenvalues --    0.11025   0.11986   0.13330   0.13466   0.14154

 Mulliken charges:
               1
     1  C   -3.784961
     2  C   -3.228562
     3  C    1.055815
     4  O   -2.592926
     5  C   -3.504788
     6  C    2.184958
     7  O   -2.962636
     8  H    1.092938
     9  H    1.338171
    10  H    1.277112
    11  H    1.415389
    12  H    1.310204
    13  H    1.624835
    14  H    0.471678
    15  H    1.281892
    16  H    1.416968
    17  H    1.603913
 Sum of Mulliken charges =  -0.00000

 Dipole moment (field-independent basis, Debye):
    X=              2.5727    Y=              0.9745    Z=              0.4242  Tot=              2.7836

 Test job not archived.
 1\1\GINC-SE250\SP\RHF\Aug-CC-pVDZ\C5H10O2\OHZDE\09-Apr-2025\0\\#t hf a
 ug-cc-pvdz iop(5/13=1,5/36=2,99/5=2) pseudo=read geom=check guess=(rea
 d,tcheck) scf=(maxcycle=1)\\title\\0,1\C,0,-2.22411782,-0.67709619,-0.
 54484042\C,0,-1.13594323,0.37716035,-0.68604015\C,0,0.00956572,0.17498
 975,0.27636898\O,0,0.74273101,-1.0567208,-0.04916079\C,0,1.22029661,1.
 08758028,0.09433647\C,0,2.12039907,-0.13655737,-0.13390874\O,0,2.68648
 661,-0.70292778,0.89525942\H,0,-3.01887948,-0.51873758,-1.27483407\H,0
 ,-1.81539258,-1.67654253,-0.70072658\H,0,-2.67465504,-0.64819271,0.450

 Normal termination of Gaussian 16 at Wed Apr  9 03:45:51 2025.
