 Gaussian 16, Revision C.01,

 ----------------------------------------------------------------------
 #t hf aug-cc-pvdz symm=none int=(grid=ultrafine) guess=(read,tcheck) s
 table=(opt,rrhf)
 ----------------------------------------------------------------------
 -----
 title
 -----
 Symbolic Z-matrix:
 Charge =  0 Multiplicity = 1

 SCF Done:  E(RHF) =  -322.575838006     A.U. after   15 cycles
 Normal termination of Gaussian 16 at Wed Apr  9 18:22:21 2025.
 Gaussian 16:  ES64L-G16RevC.01  3-Jul-2019

 ----------------------------------------------------------------------
 #t hf aug-cc-pvdz iop(5/13=1,5/36=2,99/5=2) pseudo=read geom=check gue
 ss=(read,tcheck) scf=(maxcycle=1)
 ----------------------------------------------------------------------
 -----
 title
 -----
 Structure from the checkpoint file:  "Grambow2020_wb97xd3_006939_forward_mol1.chk"
 Charge =  0 Multiplicity = 1

                         Standard orientation:
 ---------------------------------------------------------------------
 Center     Atomic      Atomic             Coordinates (Angstroms)
 Number     Number       Type             X           Y           Z
 ---------------------------------------------------------------------
      1          8           0       -2.036178   -0.508046   -0.316451
      2          6           0       -1.834321    0.729449   -0.259261
      3          7           0       -0.791180    1.142197    0.367974
      4          6           0       -0.259180   -0.904465    0.731265
      5          6           0        0.807330   -1.032447   -0.309573
      6          6           0        1.900725   -0.074518   -0.192060
      7          6           0        2.815782    0.688986   -0.084838
      8          1           0       -2.540092    1.409881   -0.749129
      9          1           0       -0.574887    2.130378    0.394848
     10          1           0       -0.876242   -1.783161    0.842186
     11          1           0        0.041578   -0.476380    1.674629
     12          1           0        1.212790   -2.048654   -0.222604
     13          1           0        0.356769   -0.978475   -1.302044
     14          1           0        3.625751    1.373371    0.004708
 ---------------------------------------------------------------------

 SCF Done:  E(RHF) =  -324.073832496     A.U. after    2 cycles

 The electronic state is 1-A.
 Alpha  occ. eigenvalues --  -21.00652 -15.70097 -11.52357 -11.46276 -11.43638
 Alpha  occ. eigenvalues --  -11.40933 -11.40693  -1.69573  -1.27567  -1.23338
 Alpha  occ. eigenvalues --   -1.06516  -0.93082  -0.79778  -0.74846  -0.69970
 Alpha  occ. eigenvalues --   -0.67557  -0.62777  -0.58496  -0.56426  -0.49371
 Alpha  occ. eigenvalues --   -0.46962  -0.39226  -0.37876  -0.37538  -0.29146
 Alpha  occ. eigenvalues --   -0.27554
 Alpha virt. eigenvalues --    0.03191   0.04657   0.05298   0.05735   0.06197
 Alpha virt. eigenvalues --    0.06714   0.07257   0.09507   0.10193   0.11107
 Alpha virt. eigenvalues --    0.11254   0.12171   0.12787   0.13520   0.14289

 Mulliken charges:
               1
     1  O   -2.448395
     2  C    2.313691
     3  N   -2.315358
     4  C   -2.637978
     5  C   -3.891435
     6  C    5.112266
     7  C   -4.613590
     8  H    1.654731
     9  H    0.759044
    10  H    1.290664
    11  H    1.428485
    12  H    1.128810
    13  H    1.456377
    14  H    0.762688
 Sum of Mulliken charges =   0.00000

 Dipole moment (field-independent basis, Debye):
    X=              0.8742    Y=             -0.5310    Z=              0.2397  Tot=              1.0505

 Test job not archived.
 1\1\GINC-SE173\SP\RHF\Aug-CC-pVDZ\C5H7N1O1\OHZDE\09-Apr-2025\0\\#t hf
 aug-cc-pvdz iop(5/13=1,5/36=2,99/5=2) pseudo=read geom=check guess=(re
 ad,tcheck) scf=(maxcycle=1)\\title\\0,1\O,0,-2.18587456,-0.47931476,-0
 .00415853\C,0,-2.01184685,0.61573116,0.58405766\N,0,-0.89491385,0.8033
 2442,1.19167366\C,0,-0.25602342,-1.12890681,0.51186943\C,0,0.6367823,-
 0.67620566,-0.59949322\C,0,1.70813778,0.22869834,-0.19912366\C,0,2.607
 20088,0.94807263,0.1263766\H,0,-2.80438232,1.37200473,0.55230084\H,0,-
 0.70450293,1.69142449,1.63779852\H,0,-0.82344037,-2.01949615,0.2881193

 Normal termination of Gaussian 16 at Wed Apr  9 18:22:25 2025.
