 Gaussian 16, Revision C.01,

 ----------------------------------------------------------------------
 #t hf aug-cc-pvdz symm=none int=(grid=ultrafine) guess=(read,tcheck) s
 table=(opt,rrhf)
 ----------------------------------------------------------------------
 -----
 title
 -----
 Symbolic Z-matrix:
 Charge =  0 Multiplicity = 1

 SCF Done:  E(RHF) =  -353.454041435     A.U. after   15 cycles
 Normal termination of Gaussian 16 at Wed Apr  9 18:57:28 2025.
 Gaussian 16:  ES64L-G16RevC.01  3-Jul-2019

 ----------------------------------------------------------------------
 #t hf aug-cc-pvdz iop(5/13=1,5/36=2,99/5=2) pseudo=read geom=check gue
 ss=(read,tcheck) scf=(maxcycle=1)
 ----------------------------------------------------------------------
 -----
 title
 -----
 Structure from the checkpoint file:  "Grambow2020_wb97xd3_007943_reverse_mol2.chk"
 Charge =  0 Multiplicity = 1

                         Standard orientation:
 ---------------------------------------------------------------------
 Center     Atomic      Atomic             Coordinates (Angstroms)
 Number     Number       Type             X           Y           Z
 ---------------------------------------------------------------------
      1          8           0        1.797109   -0.377101   -0.326457
      2          6           0        0.545919   -0.104656    0.090572
      3          6           0       -0.315410   -1.249042    0.553594
      4          7           0       -1.343405   -0.973083   -0.149385
      5          7           0       -0.653810    0.154008   -0.829136
      6          6           0       -0.743250    1.319807   -0.016020
      7          7           0        0.305154    1.215515    0.711524
      8          1           0        2.250835    0.451811   -0.507627
      9          1           0       -0.184258   -2.079689    1.234994
     10          1           0       -1.522573    2.072942   -0.015614
 ---------------------------------------------------------------------

 SCF Done:  E(RHF) =  -354.990860952     A.U. after    2 cycles

 The electronic state is 1-A.
 Alpha  occ. eigenvalues --  -21.12269 -15.78869 -15.76459 -15.75828 -11.56125
 Alpha  occ. eigenvalues --  -11.47669 -11.44059  -1.80814  -1.64506  -1.38626
 Alpha  occ. eigenvalues --   -1.13595  -1.00314  -0.88374  -0.75753  -0.70356
 Alpha  occ. eigenvalues --   -0.68335  -0.66155  -0.61416  -0.51614  -0.46564
 Alpha  occ. eigenvalues --   -0.44164  -0.41551  -0.39223  -0.37580  -0.32954
 Alpha virt. eigenvalues --    0.03676   0.05013   0.05495   0.08248   0.09514
 Alpha virt. eigenvalues --    0.10096   0.10234   0.11573   0.12189   0.12422
 Alpha virt. eigenvalues --    0.14226   0.14862   0.15868   0.16638   0.17105

 Mulliken charges:
               1
     1  O   -3.658822
     2  C    4.902674
     3  C    0.204862
     4  N   -1.472614
     5  N   -1.730410
     6  C    1.092346
     7  N   -2.546718
     8  H    0.608982
     9  H    1.293575
    10  H    1.306126
 Sum of Mulliken charges =  -0.00000

 Dipole moment (field-independent basis, Debye):
    X=              0.5220    Y=              0.2272    Z=              0.3602  Tot=              0.6737

 Test job not archived.
 1\1\GINC-SE029\SP\RHF\Aug-CC-pVDZ\C3H3N3O1\OHZDE\09-Apr-2025\0\\#t hf
 aug-cc-pvdz iop(5/13=1,5/36=2,99/5=2) pseudo=read geom=check guess=(re
 ad,tcheck) scf=(maxcycle=1)\\title\\0,1\O,0,1.76608624,-0.3033305,0.54
 091923\C,0,0.54550572,-0.05032943,0.03122465\C,0,0.18939439,1.37671055
 ,-0.28914851\N,0,-0.93303206,1.40361694,0.31627586\N,0,-0.75181865,0.0
 2702892,0.84552379\C,0,-1.16518613,-0.91442982,-0.13988338\N,0,-0.0815
 7056,-1.10418071,-0.79495575\H,0,1.88047143,-1.25595405,0.61309417\H,0
 ,0.6688776,2.18331257,-0.82856514\H,0,-2.15517699,-1.32880148,-0.29077

 Normal termination of Gaussian 16 at Wed Apr  9 18:57:31 2025.
