 Gaussian 16, Revision C.01,

 ----------------------------------------------------------------------
 #t hf aug-cc-pvdz symm=none int=(grid=ultrafine) guess=(read,tcheck) s
 table=(opt,rrhf)
 ----------------------------------------------------------------------
 -----
 title
 -----
 Symbolic Z-matrix:
 Charge =  0 Multiplicity = 1

 SCF Done:  E(RHF) =  -269.888825406     A.U. after   14 cycles

 1\1\GINC-SE103\Stability\RHF\Aug-CC-pVDZ\C5H10O1\OHZDE\09-Apr-2025\0\\
 #t hf aug-cc-pvdz symm=none int=(grid=ultrafine) guess=(read,tcheck) s
 table=(opt,rrhf)\\title\\0,1\O,0,2.57646391,0.22439943,0.20085238\C,0,
 1.44708434,-0.57609645,0.47935108\C,0,0.24000221,-0.20211953,-0.355740
 06\C,0,-0.9887397,-1.07686768,-0.12943936\C,0,-1.78651851,0.90556809,-
 0.59941205\C,0,-0.38042678,1.17203122,-0.08226857\H,0,2.37982236,1.129
 3854,0.45066\H,0,1.74437317,-1.60507396,0.25976045\H,0,1.18827808,-0.5
 3153235,1.54727428\H,0,0.51225452,-0.25516239,-1.41316812\H,0,-1.27424

 Normal termination of Gaussian 16 at Wed Apr  9 17:46:36 2025.
 Gaussian 16:  ES64L-G16RevC.01  3-Jul-2019

 ----------------------------------------------------------------------
 #t hf aug-cc-pvdz iop(5/13=1,5/36=2,99/5=2) pseudo=read geom=check gue
 ss=(read,tcheck) scf=(maxcycle=1)
 ----------------------------------------------------------------------
 -----
 title
 -----
 Structure from the checkpoint file:  "Grambow2020_wb97xd3_006159_reverse_mol1.chk"
 Charge =  0 Multiplicity = 1

                         Standard orientation:
 ---------------------------------------------------------------------
 Center     Atomic      Atomic             Coordinates (Angstroms)
 Number     Number       Type             X           Y           Z
 ---------------------------------------------------------------------
      1          8           0       -2.331570   -0.391426   -0.154052
      2          6           0       -1.342747    0.530424    0.253716
      3          6           0        0.019385    0.232959   -0.338226
      4          6           0        1.108215    1.235584    0.029733
      5          6           0        2.146847   -0.680875   -0.159489
      6          6           0        0.701189   -1.056545    0.131168
      7          1           0       -2.102570   -1.257826    0.187972
      8          1           0       -1.686628    1.511726   -0.084199
      9          1           0       -1.270828    0.569170    1.350417
     10          1           0       -0.068294    0.201876   -1.427462
     11          1           0        1.197866    1.413612    1.100071
     12          1           0        1.106367    2.181581   -0.515074
     13          1           0        2.084003    0.728809   -0.418892
     14          1           0        2.715676   -0.614359    0.781384
     15          1           0        0.474779   -1.230011    1.192598
     16          1           0        0.404856   -1.942448   -0.435817
 ---------------------------------------------------------------------

 SCF Done:  E(RHF) =  -271.188547948     A.U. after    2 cycles

 The electronic state is 1-A.
 Alpha  occ. eigenvalues --  -21.07234 -11.46102 -11.44520 -11.41642 -11.39539
 Alpha  occ. eigenvalues --  -11.36511  -1.71699  -1.31257  -1.04062  -1.00287
 Alpha  occ. eigenvalues --   -0.87749  -0.78799  -0.68870  -0.63631  -0.61833
 Alpha  occ. eigenvalues --   -0.58978  -0.57241  -0.53385  -0.49840  -0.46269
 Alpha  occ. eigenvalues --   -0.43607  -0.40315  -0.32238  -0.30377
 Alpha virt. eigenvalues --    0.04039   0.04913   0.05245   0.05410   0.05673
 Alpha virt. eigenvalues --    0.05843   0.06652   0.06796   0.07195   0.09319
 Alpha virt. eigenvalues --    0.10530   0.12250   0.13384   0.14004   0.14516

 Mulliken charges:
               1
     1  O   -2.760691
     2  C   -0.796037
     3  C   -1.287030
     4  C   -3.371116
     5  C   -2.362859
     6  C   -2.490093
     7  H    0.791681
     8  H    1.321103
     9  H    1.341475
    10  H    1.611434
    11  H    1.304866
    12  H    1.100012
    13  H    1.673677
    14  H    1.140545
    15  H    1.381522
    16  H    1.401509
 Sum of Mulliken charges =  -0.00000

 Dipole moment (field-independent basis, Debye):
    X=             -0.8336    Y=              1.0802    Z=              1.4816  Tot=              2.0141

 Test job not archived.
 1\1\GINC-SE103\SP\RHF\Aug-CC-pVDZ\C5H10O1\OHZDE\09-Apr-2025\0\\#t hf a
 ug-cc-pvdz iop(5/13=1,5/36=2,99/5=2) pseudo=read geom=check guess=(rea
 d,tcheck) scf=(maxcycle=1)\\title\\0,1\O,0,2.57646391,0.22439943,0.200
 85238\C,0,1.44708434,-0.57609645,0.47935108\C,0,0.24000221,-0.20211953
 ,-0.35574006\C,0,-0.9887397,-1.07686768,-0.12943936\C,0,-1.78651851,0.
 90556809,-0.59941205\C,0,-0.38042678,1.17203122,-0.08226857\H,0,2.3798
 2236,1.1293854,0.45066\H,0,1.74437317,-1.60507396,0.25976045\H,0,1.188
 27808,-0.53153235,1.54727428\H,0,0.51225452,-0.25516239,-1.41316812\H,

 Normal termination of Gaussian 16 at Wed Apr  9 17:46:42 2025.
