 Gaussian 16, Revision C.01,

 ----------------------------------------------------------------------
 #t hf aug-cc-pvdz symm=none int=(grid=ultrafine) guess=(read,tcheck) s
 table=(opt,rrhf)
 ----------------------------------------------------------------------
 -----
 title
 -----
 Symbolic Z-matrix:
 Charge =  0 Multiplicity = 1

 SCF Done:  E(RHF) =  -301.564993074     A.U. after   16 cycles
 Normal termination of Gaussian 16 at Wed Apr  9 03:46:30 2025.
 Gaussian 16:  ES64L-G16RevC.01  3-Jul-2019

 ----------------------------------------------------------------------
 #t hf aug-cc-pvdz iop(5/13=1,5/36=2,99/5=2) pseudo=read geom=check gue
 ss=(read,tcheck) scf=(maxcycle=1)
 ----------------------------------------------------------------------
 -----
 title
 -----
 Structure from the checkpoint file:  "Grambow2020_wb97xd3_007926_forward_mol1.chk"
 Charge =  0 Multiplicity = 1

                         Standard orientation:
 ---------------------------------------------------------------------
 Center     Atomic      Atomic             Coordinates (Angstroms)
 Number     Number       Type             X           Y           Z
 ---------------------------------------------------------------------
      1          6           0       -1.933658    0.789763    0.022262
      2          6           0       -1.788067   -0.749161    0.074073
      3          6           0       -0.344907   -0.371590   -0.049209
      4          7           0        0.816581   -1.131520   -0.065496
      5          6           0        1.809548   -0.338694   -0.027488
      6          6           0        2.379163    0.825772    0.230574
      7          7           0       -0.456146    0.906968   -0.117362
      8          1           0       -2.306448    1.258027    0.933938
      9          1           0       -2.468586    1.190293   -0.839815
     10          1           0       -2.069633   -1.238371    1.006165
     11          1           0       -2.200478   -1.300385   -0.770590
     12          1           0        2.931101   -0.680372    0.005183
     13          1           0        2.858528    1.406127   -0.556146
 ---------------------------------------------------------------------

 SCF Done:  E(RHF) =  -302.969793401     A.U. after    2 cycles

 The electronic state is 1-A.
 Alpha  occ. eigenvalues --  -15.73967 -15.70842 -11.49889 -11.46653 -11.45682
 Alpha  occ. eigenvalues --  -11.43960 -11.37243  -1.51171  -1.36648  -1.13895
 Alpha  occ. eigenvalues --   -1.03989  -0.93889  -0.79657  -0.69938  -0.67827
 Alpha  occ. eigenvalues --   -0.66293  -0.62218  -0.56185  -0.52911  -0.51560
 Alpha  occ. eigenvalues --   -0.45428  -0.41567  -0.38613  -0.35782  -0.31250
 Alpha virt. eigenvalues --    0.03322   0.04932   0.05554   0.06268   0.06549
 Alpha virt. eigenvalues --    0.06768   0.07465   0.09158   0.09546   0.10612
 Alpha virt. eigenvalues --    0.11932   0.12195   0.12736   0.13901   0.14018

 Mulliken charges:
               1
     1  C   -1.981405
     2  C   -3.908208
     3  C    5.020301
     4  N   -3.569362
     5  C    1.086658
     6  C   -1.965476
     7  N   -2.543420
     8  H    1.451716
     9  H    1.448953
    10  H    1.143754
    11  H    1.143925
    12  H    1.417232
    13  H    1.255333
 Sum of Mulliken charges =  -0.00000

 Dipole moment (field-independent basis, Debye):
    X=              0.3862    Y=             -0.0250    Z=             -1.0606  Tot=              1.1289

 Test job not archived.
 1\1\GINC-SE074\SP\RHF\Aug-CC-pVDZ\C5H6N2\OHZDE\09-Apr-2025\0\\#t hf au
 g-cc-pvdz iop(5/13=1,5/36=2,99/5=2) pseudo=read geom=check guess=(read
 ,tcheck) scf=(maxcycle=1)\\title\\0,1\C,0,-1.82030449,-0.45766804,0.08
 770178\C,0,-1.42075462,1.03615254,0.11977486\C,0,-0.05741745,0.4198618
 8,0.07544421\N,0,1.21313229,0.97662225,0.02510033\C,0,2.05005673,0.038
 10503,-0.16129909\C,0,2.38921011,-1.17946437,-0.54800164\N,0,-0.377644
 71,-0.82479692,0.07277035\H,0,-2.3449334,-0.7851752,-0.8105735\H,0,-2.
 33847547,-0.83270132,0.97121607\H,0,-1.69513909,1.63701611,-0.74687328

 Normal termination of Gaussian 16 at Wed Apr  9 03:46:35 2025.
