 Gaussian 16, Revision C.01,

 ----------------------------------------------------------------------
 #t hf aug-cc-pvdz symm=none int=(grid=ultrafine) guess=(read,tcheck) s
 table=(opt,rrhf)
 ----------------------------------------------------------------------
 -----
 title
 -----
 Symbolic Z-matrix:
 Charge =  0 Multiplicity = 1

 SCF Done:  E(RHF) =  -323.681931979     A.U. after   16 cycles
 Normal termination of Gaussian 16 at Wed Apr  9 18:16:23 2025.
 Gaussian 16:  ES64L-G16RevC.01  3-Jul-2019

 ----------------------------------------------------------------------
 #t hf aug-cc-pvdz iop(5/13=1,5/36=2,99/5=2) pseudo=read geom=check gue
 ss=(read,tcheck) scf=(maxcycle=1)
 ----------------------------------------------------------------------
 -----
 title
 -----
 Structure from the checkpoint file:  "Grambow2020_wb97xd3_006823_forward_mol1.chk"
 Charge =  0 Multiplicity = 1

                         Standard orientation:
 ---------------------------------------------------------------------
 Center     Atomic      Atomic             Coordinates (Angstroms)
 Number     Number       Type             X           Y           Z
 ---------------------------------------------------------------------
      1          6           0       -2.162720   -1.473848    0.224574
      2          6           0       -0.981089    0.304362   -0.714704
      3          6           0       -1.078577    1.469557    0.251410
      4          6           0        0.471151    1.522962    0.083499
      5          6           0        0.377087    0.050987   -0.308002
      6          7           0        1.125197   -0.962174   -0.177210
      7          8           0        2.415406   -0.581576    0.192894
      8          1           0       -2.744864   -0.928733    0.961636
      9          1           0       -1.256838   -1.903039    0.639062
     10          1           0       -2.766149   -2.229237   -0.278889
     11          1           0       -1.918596   -0.763362   -0.679710
     12          1           0       -1.688269    2.309992   -0.076821
     13          1           0       -1.306083    1.220105    1.289525
     14          1           0        1.040379    1.679339    0.998589
     15          1           0        0.830094    2.182016   -0.701985
     16          1           0        2.855580   -1.423379    0.325258
 ---------------------------------------------------------------------

 SCF Done:  E(RHF) =  -325.217125356     A.U. after    2 cycles

 The electronic state is 1-A.
 Alpha  occ. eigenvalues --  -21.09053 -15.76429 -11.47375 -11.43210 -11.43007
 Alpha  occ. eigenvalues --  -11.39593 -11.37747  -1.78433  -1.37607  -1.17814
 Alpha  occ. eigenvalues --   -1.07094  -0.93084  -0.89420  -0.69610  -0.65601
 Alpha  occ. eigenvalues --   -0.63941  -0.63838  -0.57641  -0.57406  -0.54273
 Alpha  occ. eigenvalues --   -0.50697  -0.48884  -0.47750  -0.46954  -0.35950
 Alpha  occ. eigenvalues --   -0.33575  -0.25761
 Alpha virt. eigenvalues --    0.03766   0.04761   0.05641   0.05702   0.05991
 Alpha virt. eigenvalues --    0.06370   0.07103   0.07708   0.08313   0.10279
 Alpha virt. eigenvalues --    0.10799   0.12229   0.13542   0.13774   0.14136

 Mulliken charges:
               1
     1  C   -5.020124
     2  C   -1.905032
     3  C   -2.995348
     4  C   -3.061831
     5  C    4.284390
     6  N   -1.335580
     7  O   -2.407258
     8  H    1.217914
     9  H    1.399546
    10  H    1.001313
    11  H    2.546116
    12  H    1.266195
    13  H    1.466751
    14  H    1.309301
    15  H    1.333984
    16  H    0.899663
 Sum of Mulliken charges =  -0.00000

 Dipole moment (field-independent basis, Debye):
    X=             -0.4246    Y=              0.1846    Z=              2.0471  Tot=              2.0988

 Test job not archived.
 1\1\GINC-SE173\SP\RHF\Aug-CC-pVDZ\C5H9N1O1\OHZDE\09-Apr-2025\0\\#t hf
 aug-cc-pvdz iop(5/13=1,5/36=2,99/5=2) pseudo=read geom=check guess=(re
 ad,tcheck) scf=(maxcycle=1)\\title\\0,1\C,0,-1.6915185,-1.55545262,-0.
 29075971\C,0,-0.21082402,0.08862467,-1.02905503\C,0,-0.63557975,1.3966
 6292,-0.38938452\C,0,0.86699208,1.49365146,0.01752418\C,0,0.89504117,-
 0.02649658,-0.11360008\N,0,1.52118255,-0.96553015,0.46036266\O,0,2.590
 15915,-0.46635279,1.20506539\H,0,-2.49406212,-0.91986991,0.07153808\H,
 0,-1.01213803,-1.86363002,0.49670324\H,0,-2.08077602,-2.41385547,-0.83

 Normal termination of Gaussian 16 at Wed Apr  9 18:16:29 2025.
