 Gaussian 16, Revision C.01,

 ----------------------------------------------------------------------
 #t hf aug-cc-pvdz symm=none int=(grid=ultrafine) guess=(read,tcheck) s
 table=(opt,rrhf)
 ----------------------------------------------------------------------
 -----
 title
 -----
 Symbolic Z-matrix:
 Charge =  0 Multiplicity = 1

 SCF Done:  E(RHF) =  -305.888256609     A.U. after   14 cycles
 Normal termination of Gaussian 16 at Wed Apr  9 17:18:21 2025.
 Gaussian 16:  ES64L-G16RevC.01  3-Jul-2019

 ----------------------------------------------------------------------
 #t hf aug-cc-pvdz iop(5/13=1,5/36=2,99/5=2) pseudo=read geom=check gue
 ss=(read,tcheck) scf=(maxcycle=1)
 ----------------------------------------------------------------------
 -----
 title
 -----
 Structure from the checkpoint file:  "Grambow2020_b97d3_007093_reverse_mol2.chk"
 Charge =  0 Multiplicity = 1

                         Standard orientation:
 ---------------------------------------------------------------------
 Center     Atomic      Atomic             Coordinates (Angstroms)
 Number     Number       Type             X           Y           Z
 ---------------------------------------------------------------------
      1          6           0        0.690289    2.595066   -0.124612
      2          6           0        0.956493   -0.807582    0.253060
      3          6           0        2.457948   -0.909859    0.143075
      4          8           0        0.172055   -1.169546   -0.607166
      5          6           0       -2.199814   -0.005111    0.506221
      6          8           0       -3.082690   -0.391227   -0.115414
      7          1           0        1.426807    2.546686    0.687560
      8          1           0        1.096918    2.111608   -1.021268
      9          1           0        0.465970    3.645150   -0.347271
     10          1           0        0.589025   -0.357222    1.205370
     11          1           0        2.850923   -1.514233    0.976036
     12          1           0        2.899184    0.093923    0.247192
     13          1           0        2.753255   -1.352492   -0.814459
     14          1           0       -0.226495    2.077685    0.181019
 ---------------------------------------------------------------------

 SCF Done:  E(RHF) =  -307.260894594     A.U. after    2 cycles

 The electronic state is 1-A.
 Alpha  occ. eigenvalues --  -21.16152 -21.06683 -11.49638 -11.49085 -11.39891
 Alpha  occ. eigenvalues --  -11.36470  -1.78019  -1.70597  -1.11720  -1.03217
 Alpha  occ. eigenvalues --   -0.82271  -0.71129  -0.64428  -0.59588  -0.56435
 Alpha  occ. eigenvalues --   -0.54303  -0.54170  -0.54036  -0.50859  -0.50589
 Alpha  occ. eigenvalues --   -0.49938  -0.48585  -0.42571  -0.30023
 Alpha virt. eigenvalues --    0.03220   0.04560   0.05624   0.05868   0.06322
 Alpha virt. eigenvalues --    0.06793   0.07697   0.08949   0.10358   0.11248
 Alpha virt. eigenvalues --    0.11922   0.12907   0.13631   0.13893   0.15060

 Mulliken charges:
               1
     1  C   -5.352868
     2  C    1.136031
     3  C   -4.104294
     4  O   -2.602945
     5  C    1.082217
     6  O   -1.251587
     7  H    1.313875
     8  H    1.363574
     9  H    1.161871
    10  H    1.903956
    11  H    1.208190
    12  H    1.279324
    13  H    1.301974
    14  H    1.560681
 Sum of Mulliken charges =   0.00000

 Dipole moment (field-independent basis, Debye):
    X=              0.0834    Y=             -0.3202    Z=             -0.3217  Tot=              0.4615

 Test job not archived.
 1\1\GINC-SE112\SP\RHF\Aug-CC-pVDZ\C4H8O2\OHZDE\09-Apr-2025\0\\#t hf au
 g-cc-pvdz iop(5/13=1,5/36=2,99/5=2) pseudo=read geom=check guess=(read
 ,tcheck) scf=(maxcycle=1)\\title\\0,1\C,0,0.39099645,2.13499026,0.0619
 7265\C,0,-0.38628449,-1.20684918,-0.07752069\C,0,-1.87458728,-1.080949
 59,0.13702134\O,0,0.40000422,-1.63316007,0.75094722\C,0,2.82474333,-0.
 89249986,-0.58821859\O,0,3.68702073,-1.3700788,-0.00223067\H,0,-0.4031
 0301,2.15158657,-0.69536053\H,0,-0.01289172,1.76593672,1.01262749\H,0,
 0.77905751,3.15113682,0.20135814\H,0,-0.02990881,-0.86773688,-1.078895

 Normal termination of Gaussian 16 at Wed Apr  9 17:18:24 2025.
