 Gaussian 16, Revision C.01,

 ----------------------------------------------------------------------
 #t hf aug-cc-pvdz symm=none int=(grid=ultrafine) guess=(read,tcheck) s
 table=(opt,rrhf)
 ----------------------------------------------------------------------
 -----
 title
 -----
 Symbolic Z-matrix:
 Charge =  0 Multiplicity = 1

 SCF Done:  E(RHF) =  -344.697120634     A.U. after   15 cycles

 1\1\GINC-SE104\Stability\RHF\Aug-CC-pVDZ\C5H10O2\OHZDE\09-Apr-2025\0\\
 #t hf aug-cc-pvdz symm=none int=(grid=ultrafine) guess=(read,tcheck) s
 table=(opt,rrhf)\\title\\0,1\C,0,-1.58957365,-1.62995537,-0.10308002\C
 ,0,-0.56908016,-0.58622601,0.23784969\C,0,0.81413367,-0.6772495,-0.356
 29168\C,0,1.57154584,0.48122258,0.15787943\O,0,0.93237316,2.25319812,-
 0.89371018\C,0,-0.82211181,0.81154314,0.59197151\O,0,-0.51704515,-0.17
 351689,1.59176259\H,0,-1.74633347,-1.67764558,-1.18318859\H,0,-1.27367
 318,-2.61938268,0.23819138\H,0,-2.53999967,-1.39033675,0.3730468\H,0,0

 Normal termination of Gaussian 16 at Wed Apr  9 18:44:50 2025.
 Gaussian 16:  ES64L-G16RevC.01  3-Jul-2019

 ----------------------------------------------------------------------
 #t hf aug-cc-pvdz iop(5/13=1,5/36=2,99/5=2) pseudo=read geom=check gue
 ss=(read,tcheck) scf=(maxcycle=1)
 ----------------------------------------------------------------------
 -----
 title
 -----
 Structure from the checkpoint file:  "Grambow2020_wb97xd3_007597_reverse_mol1.chk"
 Charge =  0 Multiplicity = 1

                         Standard orientation:
 ---------------------------------------------------------------------
 Center     Atomic      Atomic             Coordinates (Angstroms)
 Number     Number       Type             X           Y           Z
 ---------------------------------------------------------------------
      1          6           0        2.261153    0.183549   -0.701268
      2          6           0        0.907582    0.042167   -0.072883
      3          6           0       -0.004700    1.240636    0.004457
      4          6           0       -1.246105    0.784585    0.660988
      5          8           0       -2.404596   -0.356742   -0.756598
      6          6           0        0.080197   -1.164567   -0.023755
      7          8           0        0.840505   -0.727971    1.113922
      8          1           0        2.173326    0.541228   -1.729778
      9          1           0        2.883116    0.891807   -0.147410
     10          1           0        2.767980   -0.781021   -0.713724
     11          1           0       -0.212083    1.641823   -0.990532
     12          1           0        0.407925    2.068488    0.603963
     13          1           0       -2.108598    1.436896    0.639470
     14          1           0       -1.139178    0.129563    1.512897
     15          1           0       -3.154174   -0.786623   -0.330149
     16          1           0        0.465041   -2.105336   -0.426250
     17          1           0       -1.559378   -0.877346   -0.482319
 ---------------------------------------------------------------------

 SCF Done:  E(RHF) =  -346.310150210     A.U. after    2 cycles

 The electronic state is 1-A.
 Alpha  occ. eigenvalues --  -21.07559 -21.02317 -11.53384 -11.46322 -11.42181
 Alpha  occ. eigenvalues --  -11.37467 -11.34701  -1.75978  -1.65933  -1.22425
 Alpha  occ. eigenvalues --   -1.08135  -0.93514  -0.88554  -0.77252  -0.70768
 Alpha  occ. eigenvalues --   -0.65052  -0.62353  -0.60374  -0.56636  -0.54897
 Alpha  occ. eigenvalues --   -0.53081  -0.47847  -0.46289  -0.40116  -0.37598
 Alpha  occ. eigenvalues --   -0.33694  -0.32219  -0.21312
 Alpha virt. eigenvalues --    0.03292   0.04289   0.04661   0.05199   0.05804
 Alpha virt. eigenvalues --    0.06276   0.06847   0.07711   0.08324   0.08671
 Alpha virt. eigenvalues --    0.09366   0.10711   0.12508   0.13882   0.14198

 Mulliken charges:
               1
     1  C   -5.247481
     2  C    5.501361
     3  C   -4.190127
     4  C   -2.419732
     5  O   -2.094173
     6  C   -1.759173
     7  O   -3.193527
     8  H    1.208339
     9  H    1.168297
    10  H    1.265211
    11  H    1.416343
    12  H    1.331277
    13  H    1.358602
    14  H    1.476021
    15  H    0.649765
    16  H    1.236840
    17  H    2.292157
 Sum of Mulliken charges =  -0.00000

 Dipole moment (field-independent basis, Debye):
    X=             -2.0678    Y=              2.6781    Z=              0.6387  Tot=              3.4433

 Test job not archived.
 1\1\GINC-SE104\SP\RHF\Aug-CC-pVDZ\C5H10O2\OHZDE\09-Apr-2025\0\\#t hf a
 ug-cc-pvdz iop(5/13=1,5/36=2,99/5=2) pseudo=read geom=check guess=(rea
 d,tcheck) scf=(maxcycle=1)\\title\\0,1\C,0,-1.58957365,-1.62995537,-0.
 10308002\C,0,-0.56908016,-0.58622601,0.23784969\C,0,0.81413367,-0.6772
 495,-0.35629168\C,0,1.57154584,0.48122258,0.15787943\O,0,0.93237316,2.
 25319812,-0.89371018\C,0,-0.82211181,0.81154314,0.59197151\O,0,-0.5170
 4515,-0.17351689,1.59176259\H,0,-1.74633347,-1.67764558,-1.18318859\H,
 0,-1.27367318,-2.61938268,0.23819138\H,0,-2.53999967,-1.39033675,0.373

 Normal termination of Gaussian 16 at Wed Apr  9 18:44:55 2025.
