 Gaussian 16, Revision C.01,

 ----------------------------------------------------------------------
 #t hf aug-cc-pvdz symm=none int=(grid=ultrafine) guess=(read,tcheck) s
 table=(opt,rrhf)
 ----------------------------------------------------------------------
 -----
 title
 -----
 Symbolic Z-matrix:
 Charge =  0 Multiplicity = 1

 SCF Done:  E(RHF) =  -320.251100006     A.U. after   18 cycles
 Normal termination of Gaussian 16 at Wed Apr  9 18:46:19 2025.
 Gaussian 16:  ES64L-G16RevC.01  3-Jul-2019

 ----------------------------------------------------------------------
 #t hf aug-cc-pvdz iop(5/13=1,5/36=2,99/5=2) pseudo=read geom=check gue
 ss=(read,tcheck) scf=(maxcycle=1)
 ----------------------------------------------------------------------
 -----
 title
 -----
 Structure from the checkpoint file:  "Grambow2020_wb97xd3_007647_forward_mol1.chk"
 Charge =  0 Multiplicity = 1

                         Standard orientation:
 ---------------------------------------------------------------------
 Center     Atomic      Atomic             Coordinates (Angstroms)
 Number     Number       Type             X           Y           Z
 ---------------------------------------------------------------------
      1          7           0       -3.058172   -0.295770   -0.195589
      2          6           0       -1.945788   -0.041262   -0.078691
      3          6           0       -0.539162    0.244852    0.014788
      4          6           0       -0.017539    1.477119    0.266836
      5          8           0        2.493766    0.282520   -0.231348
      6          6           0        1.806497   -0.696019   -0.055398
      7          6           0        0.395733   -0.745822    0.309811
      8          1           0        0.979606    1.735051   -0.106186
      9          1           0        2.225655   -1.706750   -0.219386
     10          1           0        0.053362   -1.651270    0.801401
 ---------------------------------------------------------------------

 SCF Done:  E(RHF) =  -321.635817637     A.U. after    2 cycles

 The electronic state is 1-A.
 Alpha  occ. eigenvalues --  -21.09513 -15.79279 -11.53584 -11.51822 -11.47004
 Alpha  occ. eigenvalues --  -11.46310 -11.44884  -1.74638  -1.36932  -1.27122
 Alpha  occ. eigenvalues --   -1.06480  -0.92280  -0.84132  -0.71098  -0.67665
 Alpha  occ. eigenvalues --   -0.63385  -0.56596  -0.54964  -0.52206  -0.49645
 Alpha  occ. eigenvalues --   -0.46516  -0.41371  -0.35284  -0.31128
 Alpha virt. eigenvalues --    0.00468   0.02567   0.05006   0.06648   0.06789
 Alpha virt. eigenvalues --    0.08594   0.09608   0.09939   0.10478   0.11032
 Alpha virt. eigenvalues --    0.12323   0.12736   0.13891   0.14255   0.14598

 Mulliken charges:
               1
     1  N   -2.134436
     2  C    0.882407
     3  C    3.003724
     4  C   -2.806067
     5  O   -2.868563
     6  C    1.066502
     7  C   -1.545127
     8  H    1.415908
     9  H    1.495757
    10  H    1.489896
 Sum of Mulliken charges =  -0.00000

 Dipole moment (field-independent basis, Debye):
    X=              2.9986    Y=             -1.3535    Z=             -0.4153  Tot=              3.3160

 Test job not archived.
 1\1\GINC-SE105\SP\RHF\Aug-CC-pVDZ\C5H3N1O1\OHZDE\09-Apr-2025\0\\#t hf
 aug-cc-pvdz iop(5/13=1,5/36=2,99/5=2) pseudo=read geom=check guess=(re
 ad,tcheck) scf=(maxcycle=1)\\title\\0,1\N,0,3.06079136,-1.25385941,0.0
 843147\C,0,2.09396867,-0.63715434,0.05662805\C,0,0.85881078,0.10001892
 ,0.06905241\C,0,0.77097978,1.45871804,0.05107045\O,0,-2.00088246,1.072
 92916,0.4381825\C,0,-1.66619172,-0.02898474,0.07129989\C,0,-0.34198227
 ,-0.46802726,-0.35275779\H,0,-0.0946185,1.95627784,0.50178962\H,0,-2.3
 9418504,-0.86214072,0.07757434\H,0,-0.3039076,-1.33562848,-1.00431918\

 Normal termination of Gaussian 16 at Wed Apr  9 18:46:22 2025.
