 Gaussian 16, Revision C.01,

 ----------------------------------------------------------------------
 #t hf aug-cc-pvdz symm=none int=(grid=ultrafine) guess=(read,tcheck) s
 table=(opt,rrhf)
 ----------------------------------------------------------------------
 -----
 title
 -----
 Symbolic Z-matrix:
 Charge =  0 Multiplicity = 1

 SCF Done:  E(RHF) =  -394.245140653     A.U. after   17 cycles
 Normal termination of Gaussian 16 at Wed Apr  9 18:30:07 2025.
 Gaussian 16:  ES64L-G16RevC.01  3-Jul-2019

 ----------------------------------------------------------------------
 #t hf aug-cc-pvdz iop(5/13=1,5/36=2,99/5=2) pseudo=read geom=check gue
 ss=(read,tcheck) scf=(maxcycle=1)
 ----------------------------------------------------------------------
 -----
 title
 -----
 Structure from the checkpoint file:  "Grambow2020_wb97xd3_007197_reverse_mol1.chk"
 Charge =  0 Multiplicity = 1

                         Standard orientation:
 ---------------------------------------------------------------------
 Center     Atomic      Atomic             Coordinates (Angstroms)
 Number     Number       Type             X           Y           Z
 ---------------------------------------------------------------------
      1          7           0       -0.086430    0.988891    0.036592
      2          6           0       -0.396174   -0.235283    0.175898
      3          8           0        2.181512   -1.021259   -0.452405
      4          6           0        1.533952   -0.389467    0.307654
      5          8           0        1.228654    1.173771   -0.042360
      6          6           0       -1.827474   -0.603874    0.280870
      7          8           0       -2.675455   -0.103083   -0.412845
      8          1           0       -0.671308    1.821741    0.009091
      9          1           0        1.600807   -0.366682    1.403148
     10          1           0       -2.063995   -1.400977    1.005957
 ---------------------------------------------------------------------

 SCF Done:  E(RHF) =  -395.925627601     A.U. after    2 cycles

 The electronic state is 1-A.
 Alpha  occ. eigenvalues --  -21.11082 -21.09764 -21.05256 -15.90104 -11.54854
 Alpha  occ. eigenvalues --  -11.52908 -11.45354  -1.90134  -1.75275  -1.70424
 Alpha  occ. eigenvalues --   -1.32311  -1.04047  -0.94255  -0.83337  -0.74486
 Alpha  occ. eigenvalues --   -0.64496  -0.63949  -0.59637  -0.56545  -0.51934
 Alpha  occ. eigenvalues --   -0.49435  -0.48762  -0.36832  -0.32150  -0.29292
 Alpha  occ. eigenvalues --   -0.28742
 Alpha virt. eigenvalues --    0.02931   0.04560   0.04941   0.06607   0.08663
 Alpha virt. eigenvalues --    0.10088   0.11080   0.11291   0.11922   0.12536
 Alpha virt. eigenvalues --    0.13327   0.13798   0.14849   0.15223   0.16574

 Mulliken charges:
               1
     1  N   -0.220497
     2  C    0.999512
     3  O   -2.724007
     4  C    2.063032
     5  O   -2.537033
     6  C    1.311336
     7  O   -2.569783
     8  H    0.884739
     9  H    1.352743
    10  H    1.439959
 Sum of Mulliken charges =  -0.00000

 Dipole moment (field-independent basis, Debye):
    X=             -1.8122    Y=              2.3574    Z=              1.3575  Tot=              3.2686

 Test job not archived.
 1\1\GINC-SE108\SP\RHF\Aug-CC-pVDZ\C3H3N1O3\OHZDE\09-Apr-2025\0\\#t hf
 aug-cc-pvdz iop(5/13=1,5/36=2,99/5=2) pseudo=read geom=check guess=(re
 ad,tcheck) scf=(maxcycle=1)\\title\\0,1\N,0,-0.01035687,0.84476922,-0.
 57040095\C,0,-0.2711563,-0.18699871,0.12342063\O,0,2.02010771,-1.44792
 092,-0.78055419\C,0,1.61658224,-0.5020208,-0.19863977\O,0,1.22875159,0
 .83089145,-1.05442157\C,0,-1.61481742,-0.31788483,0.7341096\O,0,-2.623
 4403,-0.02703669,0.14318433\H,0,-0.57673074,1.66505633,-0.77735062\H,0
 ,1.99163607,-0.06816786,0.73741677\H,0,-1.63800797,-0.74200418,1.75227

 Normal termination of Gaussian 16 at Wed Apr  9 18:30:11 2025.
