 Gaussian 16, Revision C.01,

 ----------------------------------------------------------------------
 #t hf aug-cc-pvdz symm=none int=(grid=ultrafine) guess=(read,tcheck) s
 table=(opt,rrhf)
 ----------------------------------------------------------------------
 -----
 title
 -----
 Symbolic Z-matrix:
 Charge =  0 Multiplicity = 1

 SCF Done:  E(RHF) =  -306.636289658     A.U. after   17 cycles
 Normal termination of Gaussian 16 at Wed Apr  9 18:35:33 2025.
 Gaussian 16:  ES64L-G16RevC.01  3-Jul-2019

 ----------------------------------------------------------------------
 #t hf aug-cc-pvdz iop(5/13=1,5/36=2,99/5=2) pseudo=read geom=check gue
 ss=(read,tcheck) scf=(maxcycle=1)
 ----------------------------------------------------------------------
 -----
 title
 -----
 Structure from the checkpoint file:  "Grambow2020_wb97xd3_007298_reverse_mol2.chk"
 Charge =  0 Multiplicity = 1

                         Standard orientation:
 ---------------------------------------------------------------------
 Center     Atomic      Atomic             Coordinates (Angstroms)
 Number     Number       Type             X           Y           Z
 ---------------------------------------------------------------------
      1          6           0       -2.777132   -0.526728   -0.091786
      2          6           0       -1.321825   -0.796613    0.267121
      3          6           0       -0.416206    0.362533   -0.062734
      4          8           0       -0.739769    1.540506    0.019162
      5          6           0        0.896927    0.156095   -0.576192
      6          6           0        2.014134    0.207592    0.277790
      7          6           0        3.043956   -0.587155   -0.072147
      8          1           0       -3.119106    0.399258    0.368956
      9          1           0       -3.413671   -1.342870    0.251466
     10          1           0       -2.899143   -0.428304   -1.171329
     11          1           0       -0.945015   -1.697539   -0.223900
     12          1           0       -1.219117   -0.959553    1.346204
     13          1           0        3.824054   -0.856120    0.631702
     14          1           0        1.984803    0.699338    1.250132
     15          1           0        3.066222   -1.032599   -1.058844
 ---------------------------------------------------------------------

 SCF Done:  E(RHF) =  -308.053463222     A.U. after    2 cycles

 The electronic state is 1-A.
 Alpha  occ. eigenvalues --  -21.03367 -11.50785 -11.46355 -11.43238 -11.41353
 Alpha  occ. eigenvalues --  -11.40426 -11.36706  -1.70005  -1.24620  -1.18057
 Alpha  occ. eigenvalues --   -1.02223  -0.92639  -0.82517  -0.72219  -0.67289
 Alpha  occ. eigenvalues --   -0.63592  -0.58344  -0.56553  -0.53391  -0.52665
 Alpha  occ. eigenvalues --   -0.50025  -0.46497  -0.44784  -0.40593  -0.31475
 Alpha  occ. eigenvalues --   -0.27010
 Alpha virt. eigenvalues --    0.03028   0.04428   0.04966   0.05449   0.05912
 Alpha virt. eigenvalues --    0.06005   0.06312   0.07311   0.07827   0.09959
 Alpha virt. eigenvalues --    0.10905   0.11960   0.12555   0.12760   0.13949

 Mulliken charges:
               1
     1  C   -3.892710
     2  C   -3.824409
     3  C    4.699036
     4  O   -3.259444
     5  C   -1.652733
     6  C   -0.040098
     7  C   -3.060759
     8  H    1.318919
     9  H    1.108982
    10  H    1.269883
    11  H    1.637025
    12  H    1.354567
    13  H    1.379076
    14  H    1.467566
    15  H    1.495097
 Sum of Mulliken charges =  -0.00000

 Dipole moment (field-independent basis, Debye):
    X=              1.3351    Y=             -1.6910    Z=              1.7459  Tot=              2.7731

 Test job not archived.
 1\1\GINC-SE113\SP\RHF\Aug-CC-pVDZ\C6H8O1\OHZDE\09-Apr-2025\0\\#t hf au
 g-cc-pvdz iop(5/13=1,5/36=2,99/5=2) pseudo=read geom=check guess=(read
 ,tcheck) scf=(maxcycle=1)\\title\\0,1\C,0,-2.66692264,-0.07393334,0.19
 166551\C,0,-1.21155279,-0.39277211,-0.12426178\C,0,-0.24803279,0.31198
 308,0.79634545\O,0,-0.46240324,0.54297178,1.97943877\C,0,0.98761331,0.
 83605794,0.31770202\C,0,2.18225163,0.11054252,0.48066\C,0,3.10338203,0
 .29284737,-0.48520584\H,0,-2.88416784,-0.27775027,1.23949392\H,0,-3.33
 354665,-0.67630289,-0.42627867\H,0,-2.88367576,0.97850164,0.00355108\H

 Normal termination of Gaussian 16 at Wed Apr  9 18:35:38 2025.
