 Gaussian 16, Revision C.01,

 ----------------------------------------------------------------------
 #t hf aug-cc-pvdz symm=none int=(grid=ultrafine) guess=(read,tcheck) s
 table=(opt,rrhf)
 ----------------------------------------------------------------------
 -----
 title
 -----
 Symbolic Z-matrix:
 Charge =  0 Multiplicity = 1

 SCF Done:  E(RHF) =  -306.585578304     A.U. after   17 cycles
 Normal termination of Gaussian 16 at Wed Apr  9 03:59:48 2025.
 Gaussian 16:  ES64L-G16RevC.01  3-Jul-2019

 ----------------------------------------------------------------------
 #t hf aug-cc-pvdz iop(5/13=1,5/36=2,99/5=2) pseudo=read geom=check gue
 ss=(read,tcheck) scf=(maxcycle=1)
 ----------------------------------------------------------------------
 -----
 title
 -----
 Structure from the checkpoint file:  "Grambow2020_wb97xd3_008790_reverse_mol1.chk"
 Charge =  0 Multiplicity = 1

                         Standard orientation:
 ---------------------------------------------------------------------
 Center     Atomic      Atomic             Coordinates (Angstroms)
 Number     Number       Type             X           Y           Z
 ---------------------------------------------------------------------
      1          8           0       -2.369209   -0.059156    0.013834
      2          6           0       -1.143230   -0.009620   -0.027463
      3          6           0       -0.288662   -1.181823    0.074328
      4          6           0        1.126131   -1.123898   -0.323138
      5          6           0        1.753731    0.143131    0.075880
      6          6           0        0.967616    1.302610   -0.008383
      7          6           0       -0.393860    1.235746   -0.127354
      8          1           0        0.385041   -0.753404    1.656344
      9          1           0       -0.799231   -2.140378    0.076471
     10          1           0        1.689932   -2.001660   -0.009507
     11          1           0        1.133337   -1.122173   -1.430182
     12          1           0        1.112459   -0.345513    1.701022
     13          1           0        2.834158    0.225898    0.075803
     14          1           0        1.450192    2.271573    0.052355
     15          1           0       -0.982572    2.142032   -0.216200
 ---------------------------------------------------------------------

 SCF Done:  E(RHF) =  -308.053858261     A.U. after    2 cycles

 The electronic state is 1-A.
 Alpha  occ. eigenvalues --  -20.98552 -11.52028 -11.48006 -11.46233 -11.44584
 Alpha  occ. eigenvalues --  -11.42774 -11.39919  -1.65982  -1.34876  -1.13592
 Alpha  occ. eigenvalues --   -1.07101  -0.90729  -0.85244  -0.73208  -0.72931
 Alpha  occ. eigenvalues --   -0.65439  -0.60850  -0.59823  -0.54318  -0.53637
 Alpha  occ. eigenvalues --   -0.47803  -0.47628  -0.44002  -0.40601  -0.25327
 Alpha  occ. eigenvalues --   -0.23153
 Alpha virt. eigenvalues --    0.02748   0.03527   0.04253   0.04470   0.05355
 Alpha virt. eigenvalues --    0.06380   0.06928   0.07047   0.08057   0.10874
 Alpha virt. eigenvalues --    0.11673   0.12119   0.12237   0.12870   0.13237

 Mulliken charges:
               1
     1  O   -3.883854
     2  C    4.204105
     3  C   -2.178911
     4  C   -3.763912
     5  C   -1.831141
     6  C    0.330446
     7  C   -1.690837
     8  H    0.258445
     9  H    1.446152
    10  H    1.171743
    11  H    1.471270
    12  H    0.230441
    13  H    1.358206
    14  H    1.422618
    15  H    1.455231
 Sum of Mulliken charges =  -0.00000

 Dipole moment (field-independent basis, Debye):
    X=              4.1833    Y=             -0.1966    Z=             -0.7702  Tot=              4.2582

 Test job not archived.
 1\1\GINC-SE364\SP\RHF\Aug-CC-pVDZ\C6H8O1\OHZDE\09-Apr-2025\0\\#t hf au
 g-cc-pvdz iop(5/13=1,5/36=2,99/5=2) pseudo=read geom=check guess=(read
 ,tcheck) scf=(maxcycle=1)\\title\\0,1\O,0,0.6945542,-2.67717138,0.4575
 0966\C,0,0.45167195,-1.4798289,0.33683062\C,0,-0.88499132,-0.94986365,
 0.11963251\C,0,-1.17657446,0.47663625,0.32711719\C,0,-0.08067433,1.332
 38198,-0.14739437\C,0,1.22806875,0.86304625,0.04335836\C,0,1.48061315,
 -0.44845418,0.34073063\H,0,-0.57365906,-0.40061961,-1.53614392\H,0,-1.
 69517635,-1.67043753,0.18198155\H,0,-2.15134353,0.76995754,-0.0608127\

 Normal termination of Gaussian 16 at Wed Apr  9 03:59:53 2025.
