 Gaussian 16, Revision C.01,

 ----------------------------------------------------------------------
 #t hf aug-cc-pvdz symm=none int=(grid=ultrafine) guess=(read,tcheck) s
 table=(opt,rrhf)
 ----------------------------------------------------------------------
 -----
 title
 -----
 Symbolic Z-matrix:
 Charge =  0 Multiplicity = 1

 SCF Done:  E(RHF) =  -302.846768739     A.U. after   15 cycles
 Normal termination of Gaussian 16 at Wed Apr  9 18:23:22 2025.
 Gaussian 16:  ES64L-G16RevC.01  3-Jul-2019

 ----------------------------------------------------------------------
 #t hf aug-cc-pvdz iop(5/13=1,5/36=2,99/5=2) pseudo=read geom=check gue
 ss=(read,tcheck) scf=(maxcycle=1)
 ----------------------------------------------------------------------
 -----
 title
 -----
 Structure from the checkpoint file:  "Grambow2020_wb97xd3_006956_reverse_mol2.chk"
 Charge =  0 Multiplicity = 1

                         Standard orientation:
 ---------------------------------------------------------------------
 Center     Atomic      Atomic             Coordinates (Angstroms)
 Number     Number       Type             X           Y           Z
 ---------------------------------------------------------------------
      1          6           0        0.064559   -1.435575   -1.099872
      2          6           0        0.083279   -0.382588    0.010254
      3          6           0        0.247457   -1.025059    1.390614
      4          7           0        1.219578    0.547013   -0.235047
      5          6           0        1.335371    1.831504   -0.077380
      6          6           0       -1.177874    0.374494   -0.025921
      7          7           0       -2.189505    0.913297   -0.047577
      8          1           0       -0.756370   -2.135178   -0.947742
      9          1           0        1.000091   -1.999071   -1.084327
     10          1           0       -0.050074   -0.966093   -2.076558
     11          1           0        1.195832   -1.563874    1.427196
     12          1           0        0.249009   -0.261629    2.168066
     13          1           0       -0.562327   -1.727678    1.587622
     14          1           0        2.041863    0.040946   -0.545130
     15          1           0        0.354718    2.213752    0.263073
 ---------------------------------------------------------------------

 SCF Done:  E(RHF) =  -304.288355050     A.U. after    2 cycles

 The electronic state is 1-A.
 Alpha  occ. eigenvalues --  -15.80711 -15.77366 -11.52285 -11.45343 -11.43507
 Alpha  occ. eigenvalues --  -11.40527 -11.39176  -1.48250  -1.31784  -1.21434
 Alpha  occ. eigenvalues --   -1.05886  -0.94662  -0.89780  -0.72110  -0.67817
 Alpha  occ. eigenvalues --   -0.63991  -0.59545  -0.58615  -0.57768  -0.56135
 Alpha  occ. eigenvalues --   -0.53231  -0.50714  -0.46144  -0.45187  -0.42101
 Alpha  occ. eigenvalues --   -0.33624
 Alpha virt. eigenvalues --    0.02793   0.04761   0.04851   0.05446   0.05700
 Alpha virt. eigenvalues --    0.06250   0.06735   0.07673   0.09939   0.10509
 Alpha virt. eigenvalues --    0.11295   0.11903   0.12558   0.13304   0.13784

 Mulliken charges:
               1
     1  C   -3.573259
     2  C    1.118456
     3  C   -3.641112
     4  N   -2.458138
     5  C   -1.539399
     6  C    3.176236
     7  N   -2.756822
     8  H    1.237570
     9  H    1.222587
    10  H    1.211335
    11  H    1.214428
    12  H    1.269187
    13  H    1.229693
    14  H    0.593335
    15  H    1.695902
 Sum of Mulliken charges =  -0.00000

 Dipole moment (field-independent basis, Debye):
    X=              1.0495    Y=             -4.7387    Z=              0.1721  Tot=              4.8566

 Test job not archived.
 1\1\GINC-SE112\SP\RHF\Aug-CC-pVDZ\C5H8N2\OHZDE\09-Apr-2025\0\\#t hf au
 g-cc-pvdz iop(5/13=1,5/36=2,99/5=2) pseudo=read geom=check guess=(read
 ,tcheck) scf=(maxcycle=1)\\title\\0,1\C,0,-0.45446495,1.43093777,-0.45
 876487\C,0,0.06683449,0.09161784,0.06657496\C,0,-1.03002958,-0.6913532
 3,0.79387419\N,0,0.55963941,-0.71185086,-1.08541747\C,0,1.57971333,-1.
 50660684,-1.21189728\C,0,1.18122977,0.34163644,0.99426117\N,0,2.013080
 74,0.5700381,1.74926501\H,0,-0.8260814,2.04352648,0.36169114\H,0,-1.27
 883762,1.25471672,-1.15327678\H,0,0.33402964,1.97697914,-0.97605016\H,

 Normal termination of Gaussian 16 at Wed Apr  9 18:23:27 2025.
