 Gaussian 16, Revision C.01,

 ----------------------------------------------------------------------
 #t hf aug-cc-pvdz symm=none int=(grid=ultrafine) guess=(read,tcheck) s
 table=(opt,rrhf)
 ----------------------------------------------------------------------
 -----
 title
 -----
 Symbolic Z-matrix:
 Charge =  0 Multiplicity = 1

 SCF Done:  E(RHF) =  -268.634185426     A.U. after   15 cycles
 Normal termination of Gaussian 16 at Wed Apr  9 17:55:51 2025.
 Gaussian 16:  ES64L-G16RevC.01  3-Jul-2019

 ----------------------------------------------------------------------
 #t hf aug-cc-pvdz iop(5/13=1,5/36=2,99/5=2) pseudo=read geom=check gue
 ss=(read,tcheck) scf=(maxcycle=1)
 ----------------------------------------------------------------------
 -----
 title
 -----
 Structure from the checkpoint file:  "Grambow2020_wb97xd3_006257_forward_mol1.chk"
 Charge =  0 Multiplicity = 1

                         Standard orientation:
 ---------------------------------------------------------------------
 Center     Atomic      Atomic             Coordinates (Angstroms)
 Number     Number       Type             X           Y           Z
 ---------------------------------------------------------------------
      1          6           0        1.733823   -1.284247   -0.036776
      2          6           0        1.100961    0.441811    0.438947
      3          6           0        0.653892    1.351624   -0.604014
      4          6           0       -0.352272    0.714178    0.308100
      5          6           0       -1.287867   -0.274429   -0.289734
      6          8           0       -2.383435   -0.525810    0.132651
      7          1           0        1.726685   -1.613820   -1.083164
      8          1           0        2.730920   -1.343230    0.386372
      9          1           0        0.997526   -1.849062    0.521158
     10          1           0        1.697743    0.568659    1.331379
     11          1           0        1.547935   -0.103201   -0.572224
     12          1           0        0.936121    2.392049   -0.513129
     13          1           0       -0.759622    1.214629    1.186535
     14          1           0       -0.901048   -0.753173   -1.217267
 ---------------------------------------------------------------------

 SCF Done:  E(RHF) =  -269.909126379     A.U. after    2 cycles

 The electronic state is 1-A.
 Alpha  occ. eigenvalues --  -21.05281 -11.49834 -11.47685 -11.45651 -11.41871
 Alpha  occ. eigenvalues --  -11.34497  -1.70298  -1.36376  -1.11528  -0.95539
 Alpha  occ. eigenvalues --   -0.82137  -0.80459  -0.71585  -0.66698  -0.61840
 Alpha  occ. eigenvalues --   -0.61688  -0.54416  -0.52376  -0.49053  -0.41862
 Alpha  occ. eigenvalues --   -0.37500  -0.29290  -0.27593
 Alpha virt. eigenvalues --    0.02572   0.04235   0.04813   0.05326   0.05982
 Alpha virt. eigenvalues --    0.06720   0.07251   0.07568   0.10566   0.11848
 Alpha virt. eigenvalues --    0.12418   0.12819   0.13691   0.14123   0.14673

 Mulliken charges:
               1
     1  C   -4.633928
     2  C   -1.449378
     3  C   -1.520304
     4  C   -1.697219
     5  C    1.090200
     6  O   -2.947015
     7  H    0.764136
     8  H    1.012072
     9  H    1.543479
    10  H    1.125598
    11  H    2.982239
    12  H    1.112867
    13  H    1.165218
    14  H    1.452034
 Sum of Mulliken charges =   0.00000

 Dipole moment (field-independent basis, Debye):
    X=              3.6515    Y=             -1.9455    Z=              2.1419  Tot=              4.6590

 Test job not archived.
 1\1\GINC-SE340\SP\RHF\Aug-CC-pVDZ\C5H8O1\OHZDE\09-Apr-2025\0\\#t hf au
 g-cc-pvdz iop(5/13=1,5/36=2,99/5=2) pseudo=read geom=check guess=(read
 ,tcheck) scf=(maxcycle=1)\\title\\0,1\C,0,-1.37334209,-1.01222096,-0.1
 2097737\C,0,-0.46887971,0.63311983,-0.40541737\C,0,0.05931434,1.364805
 42,0.73521621\C,0,1.00096035,0.66725513,-0.20147013\C,0,1.74982408,-0.
 50308705,0.32729187\O,0,2.81431742,-0.87915106,-0.08173125\H,0,-1.4644
 2658,-1.43326553,0.88799308\H,0,-2.34716021,-0.87931826,-0.58005577\H,
 0,-0.70403899,-1.6294613,-0.70705494\H,0,-0.99761775,0.93064767,-1.300

 Normal termination of Gaussian 16 at Wed Apr  9 17:55:54 2025.
