 Gaussian 16, Revision C.01,

 ----------------------------------------------------------------------
 #t hf aug-cc-pvdz symm=none int=(grid=ultrafine) guess=(read,tcheck) s
 table=(opt,rrhf)
 ----------------------------------------------------------------------
 -----
 title
 -----
 Symbolic Z-matrix:
 Charge =  0 Multiplicity = 1

 SCF Done:  E(RHF) =  -343.526607541     A.U. after   17 cycles
 Normal termination of Gaussian 16 at Wed Apr  9 18:30:51 2025.
 Gaussian 16:  ES64L-G16RevC.01  3-Jul-2019

 ----------------------------------------------------------------------
 #t hf aug-cc-pvdz iop(5/13=1,5/36=2,99/5=2) pseudo=read geom=check gue
 ss=(read,tcheck) scf=(maxcycle=1)
 ----------------------------------------------------------------------
 -----
 title
 -----
 Structure from the checkpoint file:  "Grambow2020_wb97xd3_007209_reverse_mol1.chk"
 Charge =  0 Multiplicity = 1

                         Standard orientation:
 ---------------------------------------------------------------------
 Center     Atomic      Atomic             Coordinates (Angstroms)
 Number     Number       Type             X           Y           Z
 ---------------------------------------------------------------------
      1          8           0        2.581318    0.023102    0.059107
      2          6           0        1.509265   -0.646111   -0.248677
      3          6           0        0.248070    0.007483    0.010366
      4          6           0       -0.250168    1.419580   -0.230180
      5          6           0       -1.702113    0.955492    0.073417
      6          6           0       -1.189883   -0.484211    0.061924
      7          8           0       -1.689372   -1.565332    0.041393
      8          1           0        1.867863    0.399371    1.402125
      9          1           0        1.472559   -1.731537   -0.059273
     10          1           0        1.219340   -0.544611   -1.362886
     11          1           0        1.089023    0.370795    1.707019
     12          1           0        0.175726    2.192169    0.402922
     13          1           0       -0.114851    1.713569   -1.273479
     14          1           0       -2.461075    1.174938   -0.676732
     15          1           0       -2.075176    1.249744    1.055196
 ---------------------------------------------------------------------

 SCF Done:  E(RHF) =  -345.108811070     A.U. after    2 cycles

 The electronic state is 1-A.
 Alpha  occ. eigenvalues --  -21.11705 -20.99048 -11.58493 -11.51920 -11.49487
 Alpha  occ. eigenvalues --  -11.44784 -11.41886  -1.76174  -1.65273  -1.36294
 Alpha  occ. eigenvalues --   -1.08911  -0.96916  -0.91115  -0.75490  -0.70179
 Alpha  occ. eigenvalues --   -0.66945  -0.65025  -0.63466  -0.56357  -0.52735
 Alpha  occ. eigenvalues --   -0.51034  -0.49914  -0.48211  -0.45089  -0.33625
 Alpha  occ. eigenvalues --   -0.27344  -0.26031
 Alpha virt. eigenvalues --    0.02597   0.03071   0.04530   0.04868   0.05191
 Alpha virt. eigenvalues --    0.06331   0.06638   0.07569   0.09026   0.09342
 Alpha virt. eigenvalues --    0.11079   0.11686   0.12458   0.13181   0.13544

 Mulliken charges:
               1
     1  O   -2.634371
     2  C    0.561047
     3  C    0.604698
     4  C   -2.989784
     5  C   -3.532824
     6  C    4.425195
     7  O   -3.509237
     8  H    0.230462
     9  H    1.158963
    10  H    0.922936
    11  H   -0.454247
    12  H    1.252540
    13  H    1.233203
    14  H    1.310171
    15  H    1.421249
 Sum of Mulliken charges =  -0.00000

 Dipole moment (field-independent basis, Debye):
    X=             -2.6021    Y=              1.2237    Z=             -1.1434  Tot=              3.0945

 Test job not archived.
 1\1\GINC-SE192\SP\RHF\Aug-CC-pVDZ\C5H8O2\OHZDE\09-Apr-2025\0\\#t hf au
 g-cc-pvdz iop(5/13=1,5/36=2,99/5=2) pseudo=read geom=check guess=(read
 ,tcheck) scf=(maxcycle=1)\\title\\0,1\O,0,2.50915472,0.30753254,0.1226
 1059\C,0,1.64939533,-0.56908154,-0.30661735\C,0,0.2546105,-0.22741993,
 -0.15581521\C,0,-0.5278628,1.04723739,-0.40702117\C,0,-1.85756846,0.25
 605695,-0.26002716\C,0,-1.03259938,-1.03028742,-0.25889833\O,0,-1.2693
 5418,-2.19350797,-0.35686451\H,0,1.61110003,0.44993237,1.39835061\H,0,
 1.84349568,-1.64298576,-0.15032799\H,0,1.4453427,-0.4818469,-1.4408900

 Normal termination of Gaussian 16 at Wed Apr  9 18:30:56 2025.
