 Gaussian 16, Revision C.01,

 ----------------------------------------------------------------------
 #t hf aug-cc-pvdz symm=none int=(grid=ultrafine) guess=(read,tcheck) s
 table=(opt,rrhf)
 ----------------------------------------------------------------------
 -----
 title
 -----
 Symbolic Z-matrix:
 Charge =  0 Multiplicity = 1

 SCF Done:  E(RHF) =  -338.573657846     A.U. after   17 cycles
 Normal termination of Gaussian 16 at Wed Apr  9 18:17:16 2025.
 Gaussian 16:  ES64L-G16RevC.01  3-Jul-2019

 ----------------------------------------------------------------------
 #t hf aug-cc-pvdz iop(5/13=1,5/36=2,99/5=2) pseudo=read geom=check gue
 ss=(read,tcheck) scf=(maxcycle=1)
 ----------------------------------------------------------------------
 -----
 title
 -----
 Structure from the checkpoint file:  "Grambow2020_wb97xd3_006843_reverse_mol1.chk"
 Charge =  0 Multiplicity = 1

                         Standard orientation:
 ---------------------------------------------------------------------
 Center     Atomic      Atomic             Coordinates (Angstroms)
 Number     Number       Type             X           Y           Z
 ---------------------------------------------------------------------
      1          7           0        2.330339   -0.096406    0.158625
      2          6           0        0.988650   -0.039761   -0.090289
      3          6           0        0.171056    1.114578    0.229256
      4          7           0       -1.005159    0.943827   -0.606958
      5          6           0       -1.107158   -0.421643   -0.353276
      6          8           0       -1.782793   -0.608927    0.730149
      7          6           0        0.161775   -1.041446   -0.547764
      8          1           0        2.724858    0.638717    0.717638
      9          1           0        2.738623   -1.001164    0.312696
     10          1           0        0.618985    2.104524    0.287297
     11          1           0       -1.811967    1.404549   -0.207702
     12          1           0       -0.912578    0.225628    1.263401
     13          1           0        0.342234   -2.103161   -0.503752
 ---------------------------------------------------------------------

 SCF Done:  E(RHF) =  -340.152118338     A.U. after    2 cycles

 The electronic state is 1-A.
 Alpha  occ. eigenvalues --  -21.07258 -15.78203 -15.74946 -11.52152 -11.47808
 Alpha  occ. eigenvalues --  -11.41933 -11.38210  -1.77213  -1.46354  -1.35411
 Alpha  occ. eigenvalues --   -1.13580  -0.99729  -0.82259  -0.78835  -0.72458
 Alpha  occ. eigenvalues --   -0.67719  -0.64460  -0.58123  -0.56187  -0.52590
 Alpha  occ. eigenvalues --   -0.51483  -0.47224  -0.40608  -0.33968  -0.29806
 Alpha  occ. eigenvalues --   -0.27941
 Alpha virt. eigenvalues --    0.03400   0.05035   0.05148   0.06637   0.06890
 Alpha virt. eigenvalues --    0.07785   0.08494   0.10231   0.10811   0.11326
 Alpha virt. eigenvalues --    0.12146   0.12598   0.14205   0.15011   0.15952

 Mulliken charges:
               1
     1  N   -3.478550
     2  C    3.868636
     3  C   -2.239387
     4  N   -2.141192
     5  C    2.875323
     6  O   -2.752524
     7  C   -1.308541
     8  H    0.727153
     9  H    0.606459
    10  H    1.226467
    11  H    0.519025
    12  H    0.699894
    13  H    1.397236
 Sum of Mulliken charges =   0.00000

 Dipole moment (field-independent basis, Debye):
    X=              1.8933    Y=              0.2469    Z=              1.1916  Tot=              2.2506

 Test job not archived.
 1\1\GINC-SE115\SP\RHF\Aug-CC-pVDZ\C4H6N2O1\OHZDE\09-Apr-2025\0\\#t hf
 aug-cc-pvdz iop(5/13=1,5/36=2,99/5=2) pseudo=read geom=check guess=(re
 ad,tcheck) scf=(maxcycle=1)\\title\\0,1\N,0,-1.9634876,0.63714342,-0.2
 3162798\C,0,-0.64272128,0.29388202,-0.28680727\C,0,-0.15350606,-1.0310
 9556,0.04208548\N,0,1.1515645,-1.08276463,-0.59510638\C,0,1.50053946,0
 .20809298,-0.20630149\O,0,2.015974,0.17694023,0.97637552\C,0,0.4420283
 7,1.10775063,-0.5262113\H,0,-2.59119596,-0.02056518,0.19492478\H,0,-2.
 18842823,1.60044239,-0.05704867\H,0,-0.8059826,-1.89636367,-0.05582834

 Normal termination of Gaussian 16 at Wed Apr  9 18:17:20 2025.
