 Gaussian 16, Revision C.01,

 ----------------------------------------------------------------------
 #t hf aug-cc-pvdz symm=none int=(grid=ultrafine) guess=(read,tcheck) s
 table=(opt,rrhf)
 ----------------------------------------------------------------------
 -----
 title
 -----
 Symbolic Z-matrix:
 Charge =  0 Multiplicity = 1

 SCF Done:  E(RHF) =  -286.690129353     A.U. after   15 cycles
 Normal termination of Gaussian 16 at Wed Apr  9 18:46:47 2025.
 Gaussian 16:  ES64L-G16RevC.01  3-Jul-2019

 ----------------------------------------------------------------------
 #t hf aug-cc-pvdz iop(5/13=1,5/36=2,99/5=2) pseudo=read geom=check gue
 ss=(read,tcheck) scf=(maxcycle=1)
 ----------------------------------------------------------------------
 -----
 title
 -----
 Structure from the checkpoint file:  "Grambow2020_wb97xd3_007632_reverse_mol1.chk"
 Charge =  0 Multiplicity = 1

                         Standard orientation:
 ---------------------------------------------------------------------
 Center     Atomic      Atomic             Coordinates (Angstroms)
 Number     Number       Type             X           Y           Z
 ---------------------------------------------------------------------
      1          6           0        2.080063   -0.650337    0.094456
      2          6           0        0.698766   -0.117295   -0.134960
      3          6           0        0.430291    1.290531   -0.598157
      4          6           0       -0.071842    0.838960    0.728804
      5          6           0       -1.383744    0.035185    0.700039
      6          7           0       -1.676117   -0.449719   -0.627204
      7          6           0       -0.459123   -1.154786   -0.263342
      8          1           0        2.067378   -1.421544    0.867238
      9          1           0        2.770160    0.136256    0.405934
     10          1           0        2.473839   -1.105298   -0.817848
     11          1           0        1.297080    1.936997   -0.553848
     12          1           0       -0.230505    1.534164   -1.423651
     13          1           0        0.297036    1.259761    1.654225
     14          1           0       -2.226164    0.173068    1.371495
     15          1           0       -1.532346    0.270501   -1.323435
     16          1           0       -0.950120   -1.089415    1.049283
 ---------------------------------------------------------------------

 SCF Done:  E(RHF) =  -288.097669073     A.U. after    2 cycles

 The electronic state is 1-A.
 Alpha  occ. eigenvalues --  -15.74096 -11.51821 -11.46880 -11.42713 -11.41692
 Alpha  occ. eigenvalues --  -11.38946 -11.36534  -1.54131  -1.27515  -1.06444
 Alpha  occ. eigenvalues --   -1.00472  -0.92153  -0.84198  -0.74803  -0.71247
 Alpha  occ. eigenvalues --   -0.66319  -0.58378  -0.56321  -0.55577  -0.53111
 Alpha  occ. eigenvalues --   -0.52252  -0.45111  -0.43876  -0.39270  -0.35546
 Alpha  occ. eigenvalues --   -0.26766
 Alpha virt. eigenvalues --    0.03753   0.04888   0.04922   0.05447   0.05536
 Alpha virt. eigenvalues --    0.06440   0.06783   0.07759   0.08314   0.10094
 Alpha virt. eigenvalues --    0.10184   0.12169   0.12711   0.13174   0.13789

 Mulliken charges:
               1
     1  C   -4.795989
     2  C    2.415117
     3  C   -2.678166
     4  C   -1.101183
     5  C   -1.096444
     6  N   -1.979184
     7  C   -1.376084
     8  H    1.272584
     9  H    1.138784
    10  H    1.260849
    11  H    1.376542
    12  H    1.121399
    13  H    1.476238
    14  H    1.095677
    15  H    0.647343
    16  H    1.222515
 Sum of Mulliken charges =  -0.00000

 Dipole moment (field-independent basis, Debye):
    X=              0.4512    Y=              2.9746    Z=              0.8126  Tot=              3.1164

 Test job not archived.
 1\1\GINC-SE108\SP\RHF\Aug-CC-pVDZ\C6H9N1\OHZDE\09-Apr-2025\0\\#t hf au
 g-cc-pvdz iop(5/13=1,5/36=2,99/5=2) pseudo=read geom=check guess=(read
 ,tcheck) scf=(maxcycle=1)\\title\\0,1\C,0,1.67667906,-0.6845686,0.8344
 1216\C,0,0.47215208,-0.27996378,0.04058945\C,0,0.51340963,0.78119309,-
 1.02751493\C,0,-0.33866665,0.97625852,0.17780484\C,0,-1.70584189,0.270
 93709,0.14145519\N,0,-1.74731349,-0.7465201,-0.88091931\C,0,-0.7556771
 2,-1.24210156,0.05804026\H,0,1.38029383,-1.0321073,1.8261212\H,0,2.377
 23446,0.14389149,0.95630414\H,0,2.20439967,-1.50537548,0.34234091\H,0,

 Normal termination of Gaussian 16 at Wed Apr  9 18:46:53 2025.
