 Gaussian 16, Revision C.01,

 ----------------------------------------------------------------------
 #t hf aug-cc-pvdz symm=none int=(grid=ultrafine) guess=(read,tcheck) s
 table=(opt,rrhf)
 ----------------------------------------------------------------------
 -----
 title
 -----
 Symbolic Z-matrix:
 Charge =  0 Multiplicity = 1

 SCF Done:  E(RHF) =  -322.563541191     A.U. after   15 cycles
 Normal termination of Gaussian 16 at Wed Apr  9 18:10:41 2025.
 Gaussian 16:  ES64L-G16RevC.01  3-Jul-2019

 ----------------------------------------------------------------------
 #t hf aug-cc-pvdz iop(5/13=1,5/36=2,99/5=2) pseudo=read geom=check gue
 ss=(read,tcheck) scf=(maxcycle=1)
 ----------------------------------------------------------------------
 -----
 title
 -----
 Structure from the checkpoint file:  "Grambow2020_wb97xd3_006628_forward_mol1.chk"
 Charge =  0 Multiplicity = 1

                         Standard orientation:
 ---------------------------------------------------------------------
 Center     Atomic      Atomic             Coordinates (Angstroms)
 Number     Number       Type             X           Y           Z
 ---------------------------------------------------------------------
      1          8           0        2.122843    0.630363   -0.020528
      2          6           0        1.515650   -0.330612    0.403988
      3          6           0        0.419276   -1.012378   -0.241569
      4          6           0       -0.978916   -0.961989    0.122315
      5          6           0       -1.354182    0.295832    0.931444
      6          6           0       -0.886952    1.139062   -0.267123
      7          7           0       -0.689620   -0.109550   -1.070619
      8          1           0        1.838321   -0.835520    1.339501
      9          1           0        0.265710   -0.670378   -1.509198
     10          1           0       -1.644032   -1.815899    0.038660
     11          1           0       -0.831178    0.420385    1.878017
     12          1           0       -2.425613    0.380253    1.101707
     13          1           0        0.021310    1.727047   -0.154811
     14          1           0       -1.669167    1.738573   -0.729648
 ---------------------------------------------------------------------

 SCF Done:  E(RHF) =  -324.049271602     A.U. after    2 cycles

 The electronic state is 1-A.
 Alpha  occ. eigenvalues --  -21.04437 -15.78044 -11.51522 -11.48423 -11.46025
 Alpha  occ. eigenvalues --  -11.41232 -11.39179  -1.70247  -1.55832  -1.14186
 Alpha  occ. eigenvalues --   -1.05218  -0.97277  -0.83846  -0.78757  -0.73475
 Alpha  occ. eigenvalues --   -0.65988  -0.62975  -0.56829  -0.53136  -0.51916
 Alpha  occ. eigenvalues --   -0.49695  -0.45999  -0.44686  -0.37597  -0.30776
 Alpha  occ. eigenvalues --   -0.28081
 Alpha virt. eigenvalues --    0.03530   0.04910   0.05033   0.05417   0.06370
 Alpha virt. eigenvalues --    0.07166   0.07675   0.09074   0.09307   0.12046
 Alpha virt. eigenvalues --    0.12470   0.12675   0.13461   0.13887   0.14514

 Mulliken charges:
               1
     1  O   -2.897226
     2  C    1.531612
     3  C   -0.675182
     4  C   -0.206904
     5  C   -3.144191
     6  C   -2.214844
     7  N   -1.752865
     8  H    1.560884
     9  H    1.097962
    10  H    1.350504
    11  H    1.341415
    12  H    1.119309
    13  H    1.556601
    14  H    1.332924
 Sum of Mulliken charges =   0.00000

 Dipole moment (field-independent basis, Debye):
    X=             -2.7460    Y=              1.0254    Z=              0.8047  Tot=              3.0397

 Test job not archived.
 1\1\GINC-SE041\SP\RHF\Aug-CC-pVDZ\C5H7N1O1\OHZDE\09-Apr-2025\0\\#t hf
 aug-cc-pvdz iop(5/13=1,5/36=2,99/5=2) pseudo=read geom=check guess=(re
 ad,tcheck) scf=(maxcycle=1)\\title\\0,1\O,0,0.75872062,1.91364487,1.42
 007656\C,0,1.27719272,1.24413773,0.55098588\C,0,0.69189763,0.86971983,
 -0.71425105\C,0,0.20223954,-0.43446169,-1.10056344\C,0,-0.16774387,-1.
 32796898,0.10042955\C,0,-1.19659298,-0.25964323,0.5079268\N,0,-0.91715
 061,0.49384003,-0.75609458\H,0,2.33732166,0.92412003,0.64013853\H,0,-0
 .40893162,1.54349586,-0.99996275\H,0,0.29823717,-0.82900477,-2.1073699

 Normal termination of Gaussian 16 at Wed Apr  9 18:10:45 2025.
