 Gaussian 16, Revision C.01,

 ----------------------------------------------------------------------
 #t hf aug-cc-pvdz symm=none int=(grid=ultrafine) guess=(read,tcheck) s
 table=(opt,rrhf)
 ----------------------------------------------------------------------
 -----
 title
 -----
 Symbolic Z-matrix:
 Charge =  0 Multiplicity = 1

 SCF Done:  E(RHF) =  -355.833676997     A.U. after   15 cycles
 Normal termination of Gaussian 16 at Wed Apr  9 03:58:39 2025.
 Gaussian 16:  ES64L-G16RevC.01  3-Jul-2019

 ----------------------------------------------------------------------
 #t hf aug-cc-pvdz iop(5/13=1,5/36=2,99/5=2) pseudo=read geom=check gue
 ss=(read,tcheck) scf=(maxcycle=1)
 ----------------------------------------------------------------------
 -----
 title
 -----
 Structure from the checkpoint file:  "Grambow2020_wb97xd3_008721_forward_mol1.chk"
 Charge =  0 Multiplicity = 1

                         Standard orientation:
 ---------------------------------------------------------------------
 Center     Atomic      Atomic             Coordinates (Angstroms)
 Number     Number       Type             X           Y           Z
 ---------------------------------------------------------------------
      1          6           0       -2.344692   -0.544881   -0.098484
      2          7           0       -1.071881   -0.823595    0.017829
      3          6           0       -0.248091    0.239414   -0.086803
      4          7           0       -0.710996    1.445445   -0.094782
      5          6           0        1.250606   -0.012987   -0.005463
      6          8           0        2.029822    0.916073    0.014578
      7          7           0        1.586399   -1.313300    0.021906
      8          1           0       -2.694046    0.178367   -0.836394
      9          1           0       -2.565491    0.712647    1.021064
     10          1           0       -3.062924   -1.275892    0.262072
     11          1           0        0.040648    2.118128    0.045236
     12          1           0       -1.939097    1.262212    0.742045
     13          1           0        0.857008   -2.002776    0.084413
     14          1           0        2.553733   -1.570390    0.094772
 ---------------------------------------------------------------------

 SCF Done:  E(RHF) =  -357.475851191     A.U. after    2 cycles

 The electronic state is 1-A.
 Alpha  occ. eigenvalues --  -21.03604 -15.78516 -15.74794 -15.73701 -11.52719
 Alpha  occ. eigenvalues --  -11.46915 -11.45065  -1.72156  -1.48586  -1.35442
 Alpha  occ. eigenvalues --   -1.27725  -1.02849  -0.88533  -0.77471  -0.75303
 Alpha  occ. eigenvalues --   -0.71282  -0.65880  -0.62650  -0.60974  -0.56606
 Alpha  occ. eigenvalues --   -0.50696  -0.47418  -0.42731  -0.38608  -0.35951
 Alpha  occ. eigenvalues --   -0.32787  -0.30124
 Alpha virt. eigenvalues --    0.03495   0.04496   0.05563   0.06817   0.06840
 Alpha virt. eigenvalues --    0.07731   0.09081   0.09528   0.10298   0.11551
 Alpha virt. eigenvalues --    0.12260   0.12900   0.13225   0.14744   0.14811

 Mulliken charges:
               1
     1  C   -1.843490
     2  N   -3.078621
     3  C    3.366329
     4  N   -3.111619
     5  C    5.768325
     6  O   -3.412997
     7  N   -3.079206
     8  H    1.407052
     9  H    0.504233
    10  H    1.527668
    11  H    0.735031
    12  H   -0.351179
    13  H    0.742927
    14  H    0.825546
 Sum of Mulliken charges =   0.00000

 Dipole moment (field-independent basis, Debye):
    X=             -0.9825    Y=             -1.7916    Z=             -0.1740  Tot=              2.0507

 Test job not archived.
 1\1\GINC-SE452\SP\RHF\Aug-CC-pVDZ\C3H7N3O1\OHZDE\09-Apr-2025\0\\#t hf
 aug-cc-pvdz iop(5/13=1,5/36=2,99/5=2) pseudo=read geom=check guess=(re
 ad,tcheck) scf=(maxcycle=1)\\title\\0,1\C,0,1.72079009,0.6235317,-0.70
 663249\N,0,0.43704886,0.7415772,-0.48452613\C,0,-0.15383571,-0.3616751
 6,0.01871848\N,0,0.54648004,-1.36627874,0.4300386\C,0,-1.65543066,-0.3
 1443166,0.26243237\O,0,-2.21784719,-1.23745947,0.81237784\N,0,-2.24972
 224,0.80017119,-0.19451295\H,0,2.13415438,-0.29485511,-1.12537142\H,0,
 2.31385258,0.0406321,0.77391535\H,0,2.30476518,1.53206501,-0.82400279\

 Normal termination of Gaussian 16 at Wed Apr  9 03:58:43 2025.
