 Gaussian 16, Revision C.01,

 ----------------------------------------------------------------------
 #t hf aug-cc-pvdz symm=none int=(grid=ultrafine) guess=(read,tcheck) s
 table=(opt,rrhf)
 ----------------------------------------------------------------------
 -----
 title
 -----
 Symbolic Z-matrix:
 Charge =  0 Multiplicity = 1

 SCF Done:  E(RHF) =  -321.447927999     A.U. after   15 cycles
 Normal termination of Gaussian 16 at Wed Apr  9 03:40:11 2025.
 Gaussian 16:  ES64L-G16RevC.01  3-Jul-2019

 ----------------------------------------------------------------------
 #t hf aug-cc-pvdz iop(5/13=1,5/36=2,99/5=2) pseudo=read geom=check gue
 ss=(read,tcheck) scf=(maxcycle=1)
 ----------------------------------------------------------------------
 -----
 title
 -----
 Structure from the checkpoint file:  "Grambow2020_wb97xd3_007499_reverse_mol2.chk"
 Charge =  0 Multiplicity = 1

                         Standard orientation:
 ---------------------------------------------------------------------
 Center     Atomic      Atomic             Coordinates (Angstroms)
 Number     Number       Type             X           Y           Z
 ---------------------------------------------------------------------
      1          8           0       -0.404658    1.591917   -0.006786
      2          6           0       -0.580900    0.400899    0.001003
      3          6           0       -1.910470   -0.188821   -0.003448
      4          6           0       -2.990191   -0.706126   -0.006488
      5          6           0        0.558497   -0.592874    0.019170
      6          6           0        3.036527   -0.452503   -0.020407
      7          7           0        1.849646    0.082754    0.010784
      8          1           0       -3.958544   -1.151373   -0.009272
      9          1           0        0.452657   -1.218541    0.910053
     10          1           0        0.459897   -1.248254   -0.850480
     11          1           0        2.888507   -1.553047   -0.040533
     12          1           0        1.766446    1.093145    0.030056
 ---------------------------------------------------------------------

 SCF Done:  E(RHF) =  -322.887031434     A.U. after    2 cycles

 The electronic state is 1-A.
 Alpha  occ. eigenvalues --  -21.09619 -15.79591 -11.56033 -11.47194 -11.45482
 Alpha  occ. eigenvalues --  -11.44085 -11.38661  -1.75887  -1.43620  -1.18478
 Alpha  occ. eigenvalues --   -1.09018  -0.92190  -0.86120  -0.75600  -0.67987
 Alpha  occ. eigenvalues --   -0.67429  -0.64884  -0.57284  -0.53711  -0.51435
 Alpha  occ. eigenvalues --   -0.43002  -0.42137  -0.39618  -0.35570  -0.31368
 Alpha virt. eigenvalues --    0.02292   0.04355   0.05842   0.06298   0.07467
 Alpha virt. eigenvalues --    0.08169   0.08362   0.09407   0.10654   0.10801
 Alpha virt. eigenvalues --    0.11920   0.12338   0.12909   0.13531   0.13682

 Mulliken charges:
               1
     1  O   -3.298310
     2  C    3.667944
     3  C    2.980985
     4  C   -3.407840
     5  C   -2.376606
     6  C   -1.636023
     7  N   -1.869199
     8  H    0.745440
     9  H    1.494286
    10  H    1.510586
    11  H    1.556317
    12  H    0.632420
 Sum of Mulliken charges =   0.00000

 Dipole moment (field-independent basis, Debye):
    X=             -4.3269    Y=             -1.3456    Z=              0.0611  Tot=              4.5317

 Test job not archived.
 1\1\GINC-SE364\SP\RHF\Aug-CC-pVDZ\C5H5N1O1\OHZDE\09-Apr-2025\0\\#t hf
 aug-cc-pvdz iop(5/13=1,5/36=2,99/5=2) pseudo=read geom=check guess=(re
 ad,tcheck) scf=(maxcycle=1)\\title\\0,1\O,0,0.50657583,0.84796814,1.73
 7694\C,0,0.67527239,0.2745275,0.69253658\C,0,1.98437117,-0.19239578,0.
 26383031\C,0,3.04734532,-0.58897922,-0.11855322\C,0,-0.45261007,-0.011
 77615,-0.27289199\C,0,-2.90529954,0.36965019,-0.29993063\N,0,-1.725305
 52,0.47855632,0.24036022\H,0,4.00077332,-0.93598896,-0.44492644\H,0,-0
 .21164863,0.45951688,-1.23005209\H,0,-0.49541228,-1.0907341,-0.4448043

 Normal termination of Gaussian 16 at Wed Apr  9 03:40:15 2025.
