 Gaussian 16, Revision C.01,

 ----------------------------------------------------------------------
 #t hf aug-cc-pvdz symm=none int=(grid=ultrafine) guess=(read,tcheck) s
 table=(opt,rrhf)
 ----------------------------------------------------------------------
 -----
 title
 -----
 Symbolic Z-matrix:
 Charge =  0 Multiplicity = 1

 SCF Done:  E(RHF) =  -322.574338467     A.U. after   15 cycles
 Normal termination of Gaussian 16 at Wed Apr  9 18:26:21 2025.
 Gaussian 16:  ES64L-G16RevC.01  3-Jul-2019

 ----------------------------------------------------------------------
 #t hf aug-cc-pvdz iop(5/13=1,5/36=2,99/5=2) pseudo=read geom=check gue
 ss=(read,tcheck) scf=(maxcycle=1)
 ----------------------------------------------------------------------
 -----
 title
 -----
 Structure from the checkpoint file:  "Grambow2020_wb97xd3_007130_forward_mol1.chk"
 Charge =  0 Multiplicity = 1

                         Standard orientation:
 ---------------------------------------------------------------------
 Center     Atomic      Atomic             Coordinates (Angstroms)
 Number     Number       Type             X           Y           Z
 ---------------------------------------------------------------------
      1          7           0       -2.407605    0.186508    0.006660
      2          6           0       -1.317495   -0.313515   -0.139606
      3          8           0        0.136625    1.465300    0.441044
      4          6           0        1.141936    1.113876   -0.274529
      5          6           0        1.470465   -0.290634   -0.340043
      6          6           0        0.859974   -1.203206    0.625653
      7          6           0       -0.338018   -1.217245   -0.297757
      8          1           0       -2.504088    1.170280   -0.215993
      9          1           0        2.216892    1.064396    0.285295
     10          1           0        1.397622    1.673705   -1.192261
     11          1           0        2.174737   -0.650568   -1.085459
     12          1           0        0.631072   -0.741587    1.581607
     13          1           0        1.340202   -2.170499    0.734271
     14          1           0       -0.397377   -1.909341   -1.124745
 ---------------------------------------------------------------------

 SCF Done:  E(RHF) =  -324.081736435     A.U. after    2 cycles

 The electronic state is 1-A.
 Alpha  occ. eigenvalues --  -20.95556 -15.77145 -11.51413 -11.50904 -11.45300
 Alpha  occ. eigenvalues --  -11.42709 -11.40532  -1.63273  -1.37497  -1.28503
 Alpha  occ. eigenvalues --   -1.07945  -0.97316  -0.80066  -0.76437  -0.72289
 Alpha  occ. eigenvalues --   -0.64867  -0.63640  -0.56805  -0.55763  -0.53882
 Alpha  occ. eigenvalues --   -0.51699  -0.44901  -0.42478  -0.32497  -0.25130
 Alpha  occ. eigenvalues --   -0.24746
 Alpha virt. eigenvalues --    0.03113   0.04431   0.04734   0.05440   0.05978
 Alpha virt. eigenvalues --    0.06705   0.07142   0.08972   0.10533   0.10901
 Alpha virt. eigenvalues --    0.12530   0.12849   0.13527   0.13932   0.14287

 Mulliken charges:
               1
     1  N   -3.218509
     2  C    2.030356
     3  O   -2.717130
     4  C    0.130949
     5  C   -0.792338
     6  C   -3.356860
     7  C   -0.553104
     8  H    0.797697
     9  H    1.021536
    10  H    1.274053
    11  H    1.450221
    12  H    1.265700
    13  H    1.252644
    14  H    1.414785
 Sum of Mulliken charges =  -0.00000

 Dipole moment (field-independent basis, Debye):
    X=              1.6881    Y=             -1.8396    Z=             -1.1820  Tot=              2.7624

 Test job not archived.
 1\1\GINC-SE219\SP\RHF\Aug-CC-pVDZ\C5H7N1O1\OHZDE\09-Apr-2025\0\\#t hf
 aug-cc-pvdz iop(5/13=1,5/36=2,99/5=2) pseudo=read geom=check guess=(re
 ad,tcheck) scf=(maxcycle=1)\\title\\0,1\N,0,1.9059928,-1.92229042,-0.1
 2336445\C,0,0.85754304,-1.32292808,-0.08766346\O,0,1.32139231,0.586419
 42,-1.41244128\C,0,0.48768005,1.39148672,-0.86200074\C,0,-0.81338123,0
 .87934651,-0.50168931\C,0,-1.23614077,-0.4128136,-1.03988325\C,0,-0.44
 002313,-1.02925413,0.08895082\H,0,2.75723755,-1.37340979,-0.15167984\H
 ,0,-0.25385492,1.99841263,-1.60574055\H,0,0.84594081,2.20072785,-0.200

 Normal termination of Gaussian 16 at Wed Apr  9 18:26:26 2025.
