 Gaussian 16, Revision C.01,

 ----------------------------------------------------------------------
 #t hf aug-cc-pvdz symm=none int=(grid=ultrafine) guess=(read,tcheck) s
 table=(opt,rrhf)
 ----------------------------------------------------------------------
 -----
 title
 -----
 Symbolic Z-matrix:
 Charge =  0 Multiplicity = 1

 SCF Done:  E(RHF) =  -358.510668225     A.U. after   13 cycles
 Normal termination of Gaussian 16 at Wed Apr  9 18:14:00 2025.
 Gaussian 16:  ES64L-G16RevC.01  3-Jul-2019

 ----------------------------------------------------------------------
 #t hf aug-cc-pvdz iop(5/13=1,5/36=2,99/5=2) pseudo=read geom=check gue
 ss=(read,tcheck) scf=(maxcycle=1)
 ----------------------------------------------------------------------
 -----
 title
 -----
 Structure from the checkpoint file:  "Grambow2020_wb97xd3_006789_reverse_mol2.chk"
 Charge =  0 Multiplicity = 1

                         Standard orientation:
 ---------------------------------------------------------------------
 Center     Atomic      Atomic             Coordinates (Angstroms)
 Number     Number       Type             X           Y           Z
 ---------------------------------------------------------------------
      1          8           0       -3.254896   -0.366498    0.140704
      2          6           0       -2.374677    0.290187   -0.086115
      3          6           0        0.811650   -0.675159    0.719622
      4          6           0        0.915399   -1.150222   -0.669819
      5          7           0        2.041657   -0.416262   -0.077507
      6          6           0        1.243110    0.696186    0.443584
      7          8           0        0.561588    1.553086   -0.400901
      8          1           0       -0.374025    1.330592   -0.393344
      9          1           0        0.810216   -1.240847    1.640270
     10          1           0        0.337787   -0.667918   -1.451797
     11          1           0        1.130673   -2.199502   -0.836523
     12          1           0        1.777322    1.232850    1.221888
 ---------------------------------------------------------------------

 SCF Done:  E(RHF) =  -360.079673290     A.U. after    2 cycles

 The electronic state is 1-A.
 Alpha  occ. eigenvalues --  -21.20099 -21.07843 -15.73907 -11.53619 -11.49735
 Alpha  occ. eigenvalues --  -11.46185 -11.40964  -1.82879  -1.74969  -1.51498
 Alpha  occ. eigenvalues --   -1.01409  -0.89253  -0.82434  -0.74866  -0.73246
 Alpha  occ. eigenvalues --   -0.63754  -0.59947  -0.55150  -0.55074  -0.54205
 Alpha  occ. eigenvalues --   -0.53109  -0.50533  -0.42384  -0.38758  -0.35622
 Alpha  occ. eigenvalues --   -0.32403
 Alpha virt. eigenvalues --    0.04108   0.05378   0.05783   0.06406   0.06854
 Alpha virt. eigenvalues --    0.08807   0.09138   0.10832   0.11539   0.12417
 Alpha virt. eigenvalues --    0.12887   0.13503   0.13670   0.14434   0.14753

 Mulliken charges:
               1
     1  O   -1.328096
     2  C    1.067913
     3  C   -1.249223
     4  C   -2.395878
     5  N   -1.427640
     6  C    1.897204
     7  O   -3.158288
     8  H    1.186265
     9  H    1.204282
    10  H    1.316698
    11  H    1.385630
    12  H    1.501133
 Sum of Mulliken charges =  -0.00000

 Dipole moment (field-independent basis, Debye):
    X=             -2.9066    Y=             -1.5443    Z=              0.7564  Tot=              3.3772

 Test job not archived.
 1\1\GINC-SE105\SP\RHF\Aug-CC-pVDZ\C4H5N1O2\OHZDE\09-Apr-2025\0\\#t hf
 aug-cc-pvdz iop(5/13=1,5/36=2,99/5=2) pseudo=read geom=check guess=(re
 ad,tcheck) scf=(maxcycle=1)\\title\\0,1\O,0,3.29031391,-0.04822578,-1.
 3513623\C,0,2.25027131,-0.46109654,-1.42426743\C,0,-0.07734439,0.15712
 542,1.01167018\C,0,-0.54422853,1.25631122,0.15096944\N,0,-1.5330043,0.
 38855049,0.80465117\C,0,-0.91504888,-0.87793211,0.40351803\O,0,-0.8236
 8326,-1.24724202,-0.92583092\H,0,0.07659194,-1.10793352,-1.23409978\H,
 0,0.39732173,0.19874151,1.98149368\H,0,-0.42786316,1.1880519,-0.925851

 Normal termination of Gaussian 16 at Wed Apr  9 18:14:04 2025.
