 Gaussian 16, Revision C.01,

 ----------------------------------------------------------------------
 #t hf aug-cc-pvdz symm=none int=(grid=ultrafine) guess=(read,tcheck) s
 table=(opt,rrhf)
 ----------------------------------------------------------------------
 -----
 title
 -----
 Symbolic Z-matrix:
 Charge =  0 Multiplicity = 1

 SCF Done:  E(RHF) =  -307.659394452     A.U. after   17 cycles

 1\1\GINC-SE454\Stability\RHF\Aug-CC-pVDZ\C6H10O1\OHZDE\09-Apr-2025\0\\
 #t hf aug-cc-pvdz symm=none int=(grid=ultrafine) guess=(read,tcheck) s
 table=(opt,rrhf)\\title\\0,1\C,0,-2.04281785,0.26494077,-0.15200838\C,
 0,-0.55347907,0.09185649,0.00234478\C,0,0.402643,0.22145924,-1.1880223
 2\C,0,1.61517279,0.26772849,-0.29317011\O,0,2.57276025,-0.63559763,-0.
 51566929\C,0,0.09539914,-1.09355519,0.62225192\C,0,0.25918568,0.768609
 5,1.07079031\H,0,-2.43931421,-0.45216144,-0.87502359\H,0,-2.54622938,0
 .09555825,0.80273176\H,0,-2.2941528,1.27199561,-0.49405397\H,0,0.31404

 Normal termination of Gaussian 16 at Wed Apr  9 19:04:06 2025.
 Gaussian 16:  ES64L-G16RevC.01  3-Jul-2019

 ----------------------------------------------------------------------
 #t hf aug-cc-pvdz iop(5/13=1,5/36=2,99/5=2) pseudo=read geom=check gue
 ss=(read,tcheck) scf=(maxcycle=1)
 ----------------------------------------------------------------------
 -----
 title
 -----
 Structure from the checkpoint file:  "Grambow2020_wb97xd3_008046_reverse_mol1.chk"
 Charge =  0 Multiplicity = 1

                         Standard orientation:
 ---------------------------------------------------------------------
 Center     Atomic      Atomic             Coordinates (Angstroms)
 Number     Number       Type             X           Y           Z
 ---------------------------------------------------------------------
      1          6           0       -2.342802   -0.379964    0.110026
      2          6           0       -0.875970   -0.046535    0.014408
      3          6           0        0.191127   -1.134463   -0.145766
      4          6           0        1.259770   -0.127792   -0.488906
      5          8           0        2.364905   -0.131515    0.260186
      6          6           0       -0.136193    0.782908    1.001972
      7          6           0       -0.317820    1.009537   -0.898376
      8          1           0       -2.530365   -1.045705    0.956078
      9          1           0       -2.930423    0.529028    0.258611
     10          1           0       -2.700566   -0.870424   -0.798697
     11          1           0        0.032303   -1.818061   -0.985287
     12          1           0        0.332849   -1.710257    0.778833
     13          1           0        3.032297    0.403592   -0.177431
     14          1           0       -0.528928    1.750256    1.296299
     15          1           0        0.546004    0.323088    1.709984
     16          1           0       -0.728470    2.006250   -0.729033
     17          1           0       -0.112618    0.862202   -1.950999
 ---------------------------------------------------------------------

 SCF Done:  E(RHF) =  -309.161977335     A.U. after    2 cycles

 The electronic state is 1-A.
 Alpha  occ. eigenvalues --  -21.10345 -11.46840 -11.43906 -11.41191 -11.39898
 Alpha  occ. eigenvalues --  -11.38347 -11.35924  -1.75317  -1.37074  -1.05680
 Alpha  occ. eigenvalues --   -1.01495  -0.92435  -0.81256  -0.76004  -0.66694
 Alpha  occ. eigenvalues --   -0.64198  -0.60071  -0.57756  -0.55852  -0.53070
 Alpha  occ. eigenvalues --   -0.50243  -0.47572  -0.45444  -0.41652  -0.40118
 Alpha  occ. eigenvalues --   -0.33520  -0.22380
 Alpha virt. eigenvalues --    0.03879   0.04980   0.05109   0.05603   0.05845
 Alpha virt. eigenvalues --    0.06183   0.06433   0.06969   0.07425   0.09169
 Alpha virt. eigenvalues --    0.10261   0.11010   0.11957   0.12690   0.13426

 Mulliken charges:
               1
     1  C   -5.423576
     2  C    1.704878
     3  C   -3.468523
     4  C    2.755877
     5  O   -3.159961
     6  C   -2.502569
     7  C   -1.754991
     8  H    1.311905
     9  H    1.260092
    10  H    1.249788
    11  H    1.410555
    12  H    1.201312
    13  H    0.774541
    14  H    1.239816
    15  H    1.298413
    16  H    0.940118
    17  H    1.162324
 Sum of Mulliken charges =   0.00000

 Dipole moment (field-independent basis, Debye):
    X=              0.0679    Y=              0.3130    Z=              0.1101  Tot=              0.3387

 Test job not archived.
 1\1\GINC-SE454\SP\RHF\Aug-CC-pVDZ\C6H10O1\OHZDE\09-Apr-2025\0\\#t hf a
 ug-cc-pvdz iop(5/13=1,5/36=2,99/5=2) pseudo=read geom=check guess=(rea
 d,tcheck) scf=(maxcycle=1)\\title\\0,1\C,0,-2.04281785,0.26494077,-0.1
 5200838\C,0,-0.55347907,0.09185649,0.00234478\C,0,0.402643,0.22145924,
 -1.18802232\C,0,1.61517279,0.26772849,-0.29317011\O,0,2.57276025,-0.63
 559763,-0.51566929\C,0,0.09539914,-1.09355519,0.62225192\C,0,0.2591856
 8,0.7686095,1.07079031\H,0,-2.43931421,-0.45216144,-0.87502359\H,0,-2.
 54622938,0.09555825,0.80273176\H,0,-2.2941528,1.27199561,-0.49405397\H

 Normal termination of Gaussian 16 at Wed Apr  9 19:04:12 2025.
