 Gaussian 16, Revision C.01,

 ----------------------------------------------------------------------
 #t hf aug-cc-pvdz symm=none int=(grid=ultrafine) guess=(read,tcheck) s
 table=(opt,rrhf)
 ----------------------------------------------------------------------
 -----
 title
 -----
 Symbolic Z-matrix:
 Charge =  0 Multiplicity = 1

 SCF Done:  E(RHF) =  -306.563199832     A.U. after   16 cycles
 Normal termination of Gaussian 16 at Wed Apr  9 03:51:44 2025.
 Gaussian 16:  ES64L-G16RevC.01  3-Jul-2019

 ----------------------------------------------------------------------
 #t hf aug-cc-pvdz iop(5/13=1,5/36=2,99/5=2) pseudo=read geom=check gue
 ss=(read,tcheck) scf=(maxcycle=1)
 ----------------------------------------------------------------------
 -----
 title
 -----
 Structure from the checkpoint file:  "Grambow2020_wb97xd3_008212_forward_mol1.chk"
 Charge =  0 Multiplicity = 1

                         Standard orientation:
 ---------------------------------------------------------------------
 Center     Atomic      Atomic             Coordinates (Angstroms)
 Number     Number       Type             X           Y           Z
 ---------------------------------------------------------------------
      1          6           0        1.163165   -0.748463   -0.583388
      2          8           0        1.674324    0.489022   -0.131976
      3          6           0        0.618852    0.918746    0.702213
      4          6           0       -0.596710    1.327643   -0.039822
      5          6           0       -1.583624    0.485779   -0.327288
      6          6           0       -1.353784   -0.952428    0.048239
      7          6           0        0.088876   -1.035901    0.485770
      8          1           0        0.717402   -0.679604   -1.583154
      9          1           0        1.971090   -1.482233   -0.608568
     10          1           0        0.317936   -0.141877    1.374101
     11          1           0       -0.657050    2.388228   -0.262602
     12          1           0       -2.516839    0.801829   -0.778628
     13          1           0       -2.021289   -1.275995    0.852649
     14          1           0       -1.544862   -1.621931   -0.800337
     15          1           0        0.318366   -1.872850    1.148004
 ---------------------------------------------------------------------

 SCF Done:  E(RHF) =  -308.016957630     A.U. after    2 cycles

 The electronic state is 1-A.
 Alpha  occ. eigenvalues --  -21.04901 -11.48995 -11.46026 -11.45369 -11.41516
 Alpha  occ. eigenvalues --  -11.40504 -11.37121  -1.78324  -1.30077  -1.10941
 Alpha  occ. eigenvalues --   -1.01337  -0.97010  -0.81041  -0.76094  -0.68946
 Alpha  occ. eigenvalues --   -0.66049  -0.60486  -0.59652  -0.54564  -0.52980
 Alpha  occ. eigenvalues --   -0.51549  -0.46756  -0.42146  -0.36424  -0.31325
 Alpha  occ. eigenvalues --   -0.24922
 Alpha virt. eigenvalues --    0.03416   0.04803   0.04973   0.05348   0.05671
 Alpha virt. eigenvalues --    0.05757   0.06499   0.08123   0.09912   0.11686
 Alpha virt. eigenvalues --    0.12439   0.12806   0.13451   0.13748   0.13970

 Mulliken charges:
               1
     1  C   -1.244390
     2  O   -2.658810
     3  C   -1.626328
     4  C    0.614789
     5  C   -0.083320
     6  C   -3.840244
     7  C   -2.598028
     8  H    1.655599
     9  H    1.371911
    10  H    1.852553
    11  H    1.487407
    12  H    1.421338
    13  H    1.216082
    14  H    1.239670
    15  H    1.191771
 Sum of Mulliken charges =  -0.00000

 Dipole moment (field-independent basis, Debye):
    X=             -1.2839    Y=             -2.7061    Z=             -1.1382  Tot=              3.2042

 Test job not archived.
 1\1\GINC-SE105\SP\RHF\Aug-CC-pVDZ\C6H8O1\OHZDE\09-Apr-2025\0\\#t hf au
 g-cc-pvdz iop(5/13=1,5/36=2,99/5=2) pseudo=read geom=check guess=(read
 ,tcheck) scf=(maxcycle=1)\\title\\0,1\C,0,-1.32628723,-0.58681787,-0.6
 363007\O,0,-0.85756008,-1.83281843,-0.16279905\C,0,0.14258819,-1.40950
 257,0.7400089\C,0,1.34306709,-0.84841197,0.07711178\C,0,1.47942945,0.4
 4532628,-0.1931031\C,0,0.28884459,1.31189986,0.11323722\C,0,-0.8275740
 9,0.36142681,0.47362493\H,0,-0.89617651,-0.31787822,-1.60874842\H,0,-2
 .41316151,-0.62533326,-0.73125451\H,0,-0.42464276,-0.44481196,1.383846

 Normal termination of Gaussian 16 at Wed Apr  9 03:51:49 2025.
