 Gaussian 16, Revision C.01,

 ----------------------------------------------------------------------
 #t hf aug-cc-pvdz symm=none int=(grid=ultrafine) guess=(read,tcheck) s
 table=(opt,rrhf)
 ----------------------------------------------------------------------
 -----
 title
 -----
 Symbolic Z-matrix:
 Charge =  0 Multiplicity = 1

 SCF Done:  E(RHF) =  -271.061488615     A.U. after   15 cycles

 1\1\GINC-SE220\Stability\RHF\Aug-CC-pVDZ\C5H12O1\OHZDE\09-Apr-2025\0\\
 #t hf aug-cc-pvdz symm=none int=(grid=ultrafine) guess=(read,tcheck) s
 table=(opt,rrhf)\\title\\0,1\C,0,-0.94862311,1.27163245,-0.23605966\C,
 0,-0.3269663,-0.11171957,-0.08493441\C,0,-0.94123208,-1.1412566,-1.023
 76417\C,0,-0.24659028,-0.55714957,1.35643022\C,0,1.99646575,0.06568044
 ,-0.48515152\O,0,2.40362334,0.85226892,0.56252599\H,0,-0.95837975,1.60
 40268,-1.28474223\H,0,-0.41299426,2.02031825,0.36628151\H,0,-1.9957485
 6,1.25655083,0.11499488\H,0,-0.91009007,-0.80804621,-2.07184905\H,0,-0

 Normal termination of Gaussian 16 at Wed Apr  9 16:57:27 2025.
 Gaussian 16:  ES64L-G16RevC.01  3-Jul-2019

 ----------------------------------------------------------------------
 #t hf aug-cc-pvdz iop(5/13=1,5/36=2,99/5=2) pseudo=read geom=check gue
 ss=(read,tcheck) scf=(maxcycle=1)
 ----------------------------------------------------------------------
 -----
 title
 -----
 Structure from the checkpoint file:  "Grambow2020_b97d3_006881_forward_mol1.chk"
 Charge =  0 Multiplicity = 1

                         Standard orientation:
 ---------------------------------------------------------------------
 Center     Atomic      Atomic             Coordinates (Angstroms)
 Number     Number       Type             X           Y           Z
 ---------------------------------------------------------------------
      1          6           0       -0.850923    1.463328   -0.412489
      2          6           0       -0.651219    0.011966    0.007781
      3          6           0       -1.712972   -0.919373   -0.561393
      4          6           0       -0.429528   -0.135991    1.494845
      5          6           0        1.496651   -0.680956   -0.696841
      6          8           0        2.313644    0.117640    0.062695
      7          1           0       -0.964188    1.562362   -1.502296
      8          1           0       -0.011201    2.094777   -0.086325
      9          1           0       -1.766644    1.869595    0.052635
     10          1           0       -1.787636   -0.833128   -1.655682
     11          1           0       -1.506616   -1.969625   -0.312113
     12          1           0       -2.706640   -0.669776   -0.145753
     13          1           0       -1.265350    0.333203    2.048085
     14          1           0       -0.382559   -1.191382    1.794916
     15          1           0        0.498782    0.362196    1.809084
     16          1           0        1.359722   -1.611046   -0.117118
     17          1           0        0.406432   -0.236762   -0.910640
     18          1           0        2.504678    0.914627   -0.467770
 ---------------------------------------------------------------------

 SCF Done:  E(RHF) =  -272.411031763     A.U. after    2 cycles

 The electronic state is 1-A.
 Alpha  occ. eigenvalues --  -21.09439 -11.44425 -11.40824 -11.39874 -11.39362
 Alpha  occ. eigenvalues --  -11.36390  -1.72854  -1.26184  -1.01257  -1.01142
 Alpha  occ. eigenvalues --   -0.92261  -0.77680  -0.66613  -0.60783  -0.60705
 Alpha  occ. eigenvalues --   -0.58666  -0.54637  -0.54071  -0.53252  -0.51899
 Alpha  occ. eigenvalues --   -0.47688  -0.45109  -0.44881  -0.38445  -0.24126
 Alpha virt. eigenvalues --    0.03548   0.05271   0.05421   0.05554   0.05698
 Alpha virt. eigenvalues --    0.06016   0.06064   0.06922   0.07318   0.08718
 Alpha virt. eigenvalues --    0.09200   0.09735   0.11499   0.12597   0.13365

 Mulliken charges:
               1
     1  C   -4.030935
     2  C    0.315033
     3  C   -4.309008
     4  C   -4.556523
     5  C   -1.868279
     6  O   -2.316634
     7  H    1.176276
     8  H    1.216700
     9  H    1.261186
    10  H    1.184910
    11  H    1.257375
    12  H    1.239685
    13  H    1.038510
    14  H    1.339095
    15  H    1.445599
    16  H    1.162487
    17  H    3.684086
    18  H    0.760437
 Sum of Mulliken charges =  -0.00000

 Dipole moment (field-independent basis, Debye):
    X=             -1.2820    Y=              1.0832    Z=              1.2378  Tot=              2.0854

 Test job not archived.
 1\1\GINC-SE220\SP\RHF\Aug-CC-pVDZ\C5H12O1\OHZDE\09-Apr-2025\0\\#t hf a
 ug-cc-pvdz iop(5/13=1,5/36=2,99/5=2) pseudo=read geom=check guess=(rea
 d,tcheck) scf=(maxcycle=1)\\title\\0,1\C,0,-0.94862311,1.27163245,-0.2
 3605966\C,0,-0.3269663,-0.11171957,-0.08493441\C,0,-0.94123208,-1.1412
 566,-1.02376417\C,0,-0.24659028,-0.55714957,1.35643022\C,0,1.99646575,
 0.06568044,-0.48515152\O,0,2.40362334,0.85226892,0.56252599\H,0,-0.958
 37975,1.6040268,-1.28474223\H,0,-0.41299426,2.02031825,0.36628151\H,0,
 -1.99574856,1.25655083,0.11499488\H,0,-0.91009007,-0.80804621,-2.07184

 Normal termination of Gaussian 16 at Wed Apr  9 16:57:33 2025.
