 Gaussian 16, Revision C.01,

 ----------------------------------------------------------------------
 #t hf aug-cc-pvdz symm=none int=(grid=ultrafine) guess=(read,tcheck) s
 table=(opt,rrhf)
 ----------------------------------------------------------------------
 -----
 title
 -----
 Symbolic Z-matrix:
 Charge =  0 Multiplicity = 1

 SCF Done:  E(RHF) =  -380.567641180     A.U. after   17 cycles
 Normal termination of Gaussian 16 at Wed Apr  9 03:41:07 2025.
 Gaussian 16:  ES64L-G16RevC.01  3-Jul-2019

 ----------------------------------------------------------------------
 #t hf aug-cc-pvdz iop(5/13=1,5/36=2,99/5=2) pseudo=read geom=check gue
 ss=(read,tcheck) scf=(maxcycle=1)
 ----------------------------------------------------------------------
 -----
 title
 -----
 Structure from the checkpoint file:  "Grambow2020_wb97xd3_007515_forward_mol1.chk"
 Charge =  0 Multiplicity = 1

                         Standard orientation:
 ---------------------------------------------------------------------
 Center     Atomic      Atomic             Coordinates (Angstroms)
 Number     Number       Type             X           Y           Z
 ---------------------------------------------------------------------
      1          8           0        1.547222    1.268053   -0.198391
      2          6           0        1.987208   -0.048029    0.035478
      3          6           0        0.910494   -1.012335   -0.412271
      4          6           0       -0.897922   -1.092271   -0.023038
      5          8           0       -0.164849   -0.679730    0.956381
      6          6           0       -1.922665   -0.072109   -0.460302
      7          8           0       -1.857909    1.175700    0.169901
      8          1           0        2.210882    1.885842    0.110085
      9          1           0        2.249638   -0.218992    1.082796
     10          1           0        2.863681   -0.287781   -0.586449
     11          1           0        1.183462   -2.053422   -0.314993
     12          1           0        0.624554   -0.743327   -1.433408
     13          1           0       -1.852997    0.024987   -1.552357
     14          1           0       -2.892375   -0.549337   -0.260090
     15          1           0       -1.045241    1.178314    0.692090
 ---------------------------------------------------------------------

 SCF Done:  E(RHF) =  -382.245940647     A.U. after    2 cycles

 The electronic state is 1-A.
 Alpha  occ. eigenvalues --  -21.09375 -21.09166 -21.04538 -11.51691 -11.44529
 Alpha  occ. eigenvalues --  -11.43679 -11.38672  -1.78448  -1.73291  -1.67790
 Alpha  occ. eigenvalues --   -1.13779  -1.02812  -0.91462  -0.75793  -0.71185
 Alpha  occ. eigenvalues --   -0.66502  -0.62221  -0.61263  -0.58310  -0.55942
 Alpha  occ. eigenvalues --   -0.53296  -0.46850  -0.43933  -0.43041  -0.38667
 Alpha  occ. eigenvalues --   -0.34722  -0.30229  -0.23892
 Alpha virt. eigenvalues --    0.03129   0.04560   0.04937   0.05381   0.05701
 Alpha virt. eigenvalues --    0.06552   0.07780   0.08453   0.09617   0.10993
 Alpha virt. eigenvalues --    0.12392   0.12827   0.13444   0.14122   0.14650

 Mulliken charges:
               1
     1  O   -2.655716
     2  C   -1.009221
     3  C   -2.330559
     4  C    0.784992
     5  O   -1.795985
     6  C   -0.459120
     7  O   -2.695423
     8  H    0.838303
     9  H    1.408392
    10  H    1.237071
    11  H    1.329445
    12  H    1.684114
    13  H    1.385425
    14  H    1.337784
    15  H    0.940497
 Sum of Mulliken charges =   0.00000

 Dipole moment (field-independent basis, Debye):
    X=              3.5729    Y=              0.7136    Z=              0.4627  Tot=              3.6727

 Test job not archived.
 1\1\GINC-SE229\SP\RHF\Aug-CC-pVDZ\C4H8O3\OHZDE\09-Apr-2025\0\\#t hf au
 g-cc-pvdz iop(5/13=1,5/36=2,99/5=2) pseudo=read geom=check guess=(read
 ,tcheck) scf=(maxcycle=1)\\title\\0,1\O,0,-0.82175202,1.53068723,-0.49
 561204\C,0,-1.51085835,0.31103643,-0.62955791\C,0,-0.99780989,-0.65947
 981,0.41186328\C,0,0.72221077,-1.18776561,0.84856167\O,0,0.54433562,-0
 .95625045,-0.40905802\C,0,1.77054589,-0.29377319,1.46807937\O,0,2.3028
 1941,0.69895189,0.63768219\H,0,-1.11948905,2.14113743,-1.17086664\H,0,
 -1.41687798,-0.11181268,-1.63322085\H,0,-2.58127281,0.43532478,-0.4031

 Normal termination of Gaussian 16 at Wed Apr  9 03:41:13 2025.
