 Gaussian 16, Revision C.01,

 ----------------------------------------------------------------------
 #t hf aug-cc-pvdz symm=none int=(grid=ultrafine) guess=(read,tcheck) s
 table=(opt,rrhf)
 ----------------------------------------------------------------------
 -----
 title
 -----
 Symbolic Z-matrix:
 Charge =  0 Multiplicity = 1

 SCF Done:  E(RHF) =  -269.914870449     A.U. after   14 cycles

 1\1\GINC-SE226\Stability\RHF\Aug-CC-pVDZ\C5H10O1\OHZDE\09-Apr-2025\0\\
 #t hf aug-cc-pvdz symm=none int=(grid=ultrafine) guess=(read,tcheck) s
 table=(opt,rrhf)\\title\\0,1\O,0,2.92715535,0.77389812,0.46560652\C,0,
 2.96726419,0.36122351,1.69657143\C,0,0.07977125,-0.62461973,-0.5366458
 8\C,0,-1.38397306,-1.06242082,-0.32361171\C,0,-1.79375338,0.42406196,-
 0.36661137\C,0,-0.32727808,0.79622588,-0.0655368\H,0,2.10444402,0.5623
 673,-0.01081172\H,0,0.84319948,-1.16766505,0.026941\H,0,1.99392492,-0.
 16242123,1.898152\H,0,0.35064018,-0.63518125,-1.59409128\H,0,-1.528046

 Normal termination of Gaussian 16 at Wed Apr  9 17:46:33 2025.
 Gaussian 16:  ES64L-G16RevC.01  3-Jul-2019

 ----------------------------------------------------------------------
 #t hf aug-cc-pvdz iop(5/13=1,5/36=2,99/5=2) pseudo=read geom=check gue
 ss=(read,tcheck) scf=(maxcycle=1)
 ----------------------------------------------------------------------
 -----
 title
 -----
 Structure from the checkpoint file:  "Grambow2020_wb97xd3_006161_reverse_mol2.chk"
 Charge =  0 Multiplicity = 1

                         Standard orientation:
 ---------------------------------------------------------------------
 Center     Atomic      Atomic             Coordinates (Angstroms)
 Number     Number       Type             X           Y           Z
 ---------------------------------------------------------------------
      1          8           0       -2.613028   -0.193452   -0.480577
      2          6           0       -2.960024    0.208765    0.704749
      3          6           0        0.600186    0.668645   -0.482761
      4          6           0        1.978798    0.829064    0.190512
      5          6           0        2.120444   -0.706891    0.177129
      6          6           0        0.591720   -0.806798   -0.003773
      7          1           0       -1.659930   -0.132007   -0.671370
      8          1           0       -0.194945    1.337360   -0.142263
      9          1           0       -2.021919    0.543492    1.224505
     10          1           0        0.675261    0.737922   -1.569608
     11          1           0        1.879561    1.212575    1.206989
     12          1           0        2.731347    1.417365   -0.333406
     13          1           0        2.649678   -1.052572   -0.712004
     14          1           0        2.557179   -1.185907    1.052665
     15          1           0        0.087281   -0.916036    0.958972
     16          1           0        0.213974   -1.571287   -0.684999
 ---------------------------------------------------------------------

 SCF Done:  E(RHF) =  -271.209378621     A.U. after    2 cycles

 The electronic state is 1-A.
 Alpha  occ. eigenvalues --  -21.14760 -11.48518 -11.42396 -11.40089 -11.39966
 Alpha  occ. eigenvalues --  -11.35401  -1.78809  -1.33906  -0.96805  -0.96708
 Alpha  occ. eigenvalues --   -0.86653  -0.80536  -0.70141  -0.67828  -0.66187
 Alpha  occ. eigenvalues --   -0.55432  -0.55290  -0.48711  -0.47234  -0.46743
 Alpha  occ. eigenvalues --   -0.45610  -0.42253  -0.42135  -0.34149
 Alpha virt. eigenvalues --    0.03678   0.05074   0.05183   0.05417   0.05592
 Alpha virt. eigenvalues --    0.05951   0.06112   0.06336   0.07873   0.09400
 Alpha virt. eigenvalues --    0.10582   0.12586   0.12881   0.13097   0.13584

 Mulliken charges:
               1
     1  O   -2.306836
     2  C   -1.017671
     3  C   -2.475022
     4  C   -2.734633
     5  C   -2.996573
     6  C   -2.412624
     7  H    1.730943
     8  H    1.399621
     9  H    1.656349
    10  H    1.336500
    11  H    1.375892
    12  H    1.174408
    13  H    1.334423
    14  H    1.180525
    15  H    1.463515
    16  H    1.291183
 Sum of Mulliken charges =   0.00000

 Dipole moment (field-independent basis, Debye):
    X=              3.5920    Y=             -0.1687    Z=             -1.3694  Tot=              3.8479

 Test job not archived.
 1\1\GINC-SE226\SP\RHF\Aug-CC-pVDZ\C5H10O1\OHZDE\09-Apr-2025\0\\#t hf a
 ug-cc-pvdz iop(5/13=1,5/36=2,99/5=2) pseudo=read geom=check guess=(rea
 d,tcheck) scf=(maxcycle=1)\\title\\0,1\O,0,2.92715535,0.77389812,0.465
 60652\C,0,2.96726419,0.36122351,1.69657143\C,0,0.07977125,-0.62461973,
 -0.53664588\C,0,-1.38397306,-1.06242082,-0.32361171\C,0,-1.79375338,0.
 42406196,-0.36661137\C,0,-0.32727808,0.79622588,-0.0655368\H,0,2.10444
 402,0.5623673,-0.01081172\H,0,0.84319948,-1.16766505,0.026941\H,0,1.99
 392492,-0.16242123,1.898152\H,0,0.35064018,-0.63518125,-1.59409128\H,0

 Normal termination of Gaussian 16 at Wed Apr  9 17:46:38 2025.
