 Gaussian 16, Revision C.01,

 ----------------------------------------------------------------------
 #t hf aug-cc-pvdz symm=none int=(grid=ultrafine) guess=(read,tcheck) s
 table=(opt,rrhf)
 ----------------------------------------------------------------------
 -----
 title
 -----
 Symbolic Z-matrix:
 Charge =  0 Multiplicity = 1

 SCF Done:  E(RHF) =  -232.170396382     A.U. after   12 cycles

 1\1\GINC-SE229\Stability\RHF\Aug-CC-pVDZ\C4H10O1\OHZDE\09-Apr-2025\0\\
 #t hf aug-cc-pvdz symm=none int=(grid=ultrafine) guess=(read,tcheck) s
 table=(opt,rrhf)\\title\\0,1\C,0,1.86092942,-0.47506278,-0.73286332\O,
 0,0.96691,-0.49852391,0.36403223\C,0,-0.17947126,0.34828651,0.20854997
 \C,0,-1.1705979,-0.20069404,-0.82681029\C,0,-0.81088926,0.46243446,1.5
 9504659\H,0,2.74867206,-1.04338949,-0.42742552\H,0,2.16864402,0.556905
 57,-0.98842218\H,0,1.44177611,-0.9434105,-1.64126881\H,0,0.15998654,1.
 35124811,-0.11997265\H,0,-1.50522993,-1.20471878,-0.53020165\H,0,-0.72

 Normal termination of Gaussian 16 at Wed Apr  9 15:41:46 2025.
 Gaussian 16:  ES64L-G16RevC.01  3-Jul-2019

 ----------------------------------------------------------------------
 #t hf aug-cc-pvdz iop(5/13=1,5/36=2,99/5=2) pseudo=read geom=check gue
 ss=(read,tcheck) scf=(maxcycle=1)
 ----------------------------------------------------------------------
 -----
 title
 -----
 Structure from the checkpoint file:  "Grambow2020_b97d3_006609_forward_mol2.chk"
 Charge =  0 Multiplicity = 1

                         Standard orientation:
 ---------------------------------------------------------------------
 Center     Atomic      Atomic             Coordinates (Angstroms)
 Number     Number       Type             X           Y           Z
 ---------------------------------------------------------------------
      1          6           0        1.958452   -0.111845    0.083830
      2          8           0        0.701268   -0.596336   -0.349480
      3          6           0       -0.420703   -0.006302    0.320217
      4          6           0       -0.648400    1.451412   -0.102756
      5          6           0       -1.622542   -0.888970   -0.012311
      6          1           0        2.720025   -0.738900   -0.396986
      7          1           0        2.071893   -0.191868    1.181867
      8          1           0        2.138500    0.939230   -0.204379
      9          1           0       -0.239363   -0.035926    1.413528
     10          1           0       -0.810738    1.506006   -1.188429
     11          1           0        0.207744    2.090258    0.151875
     12          1           0       -1.533565    1.862785    0.402925
     13          1           0       -2.523404   -0.521947    0.497726
     14          1           0       -1.435403   -1.924538    0.299477
     15          1           0       -1.806675   -0.880176   -1.095644
 ---------------------------------------------------------------------

 SCF Done:  E(RHF) =  -233.303755414     A.U. after    2 cycles

 The electronic state is 1-A.
 Alpha  occ. eigenvalues --  -21.03395 -11.43671 -11.39724 -11.38551 -11.35162
 Alpha  occ. eigenvalues --   -1.73969  -1.16721  -1.00748  -0.96441  -0.81394
 Alpha  occ. eigenvalues --   -0.64607  -0.62346  -0.59898  -0.57876  -0.54239
 Alpha  occ. eigenvalues --   -0.53260  -0.49472  -0.47272  -0.44054  -0.37018
 Alpha  occ. eigenvalues --   -0.28991
 Alpha virt. eigenvalues --    0.04069   0.05463   0.05702   0.05798   0.05863
 Alpha virt. eigenvalues --    0.06431   0.06529   0.06893   0.07679   0.09410
 Alpha virt. eigenvalues --    0.12325   0.13739   0.14340   0.14754   0.15476

 Mulliken charges:
               1
     1  C   -2.935011
     2  O   -3.218799
     3  C    0.105567
     4  C   -3.542181
     5  C   -3.783182
     6  H    1.251560
     7  H    1.315425
     8  H    1.437627
     9  H    1.850811
    10  H    1.293327
    11  H    1.294852
    12  H    1.222701
    13  H    1.183512
    14  H    1.284466
    15  H    1.239325
 Sum of Mulliken charges =  -0.00000

 Dipole moment (field-independent basis, Debye):
    X=              0.0457    Y=              0.2030    Z=              0.3645  Tot=              0.4197

 Test job not archived.
 1\1\GINC-SE229\SP\RHF\Aug-CC-pVDZ\C4H10O1\OHZDE\09-Apr-2025\0\\#t hf a
 ug-cc-pvdz iop(5/13=1,5/36=2,99/5=2) pseudo=read geom=check guess=(rea
 d,tcheck) scf=(maxcycle=1)\\title\\0,1\C,0,1.86092942,-0.47506278,-0.7
 3286332\O,0,0.96691,-0.49852391,0.36403223\C,0,-0.17947126,0.34828651,
 0.20854997\C,0,-1.1705979,-0.20069404,-0.82681029\C,0,-0.81088926,0.46
 243446,1.59504659\H,0,2.74867206,-1.04338949,-0.42742552\H,0,2.1686440
 2,0.55690557,-0.98842218\H,0,1.44177611,-0.9434105,-1.64126881\H,0,0.1
 5998654,1.35124811,-0.11997265\H,0,-1.50522993,-1.20471878,-0.53020165

 Normal termination of Gaussian 16 at Wed Apr  9 15:41:50 2025.
