 Gaussian 16, Revision C.01,

 ----------------------------------------------------------------------
 #t hf aug-cc-pvdz symm=none int=(grid=ultrafine) guess=(read,tcheck) s
 table=(opt,rrhf)
 ----------------------------------------------------------------------
 -----
 title
 -----
 Symbolic Z-matrix:
 Charge =  0 Multiplicity = 1

 SCF Done:  E(RHF) =  -360.937668719     A.U. after   13 cycles
 Normal termination of Gaussian 16 at Wed Apr  9 19:20:06 2025.
 Gaussian 16:  ES64L-G16RevC.01  3-Jul-2019

 ----------------------------------------------------------------------
 #t hf aug-cc-pvdz iop(5/13=1,5/36=2,99/5=2) pseudo=read geom=check gue
 ss=(read,tcheck) scf=(maxcycle=1)
 ----------------------------------------------------------------------
 -----
 title
 -----
 Structure from the checkpoint file:  "Grambow2020_wb97xd3_008628_reverse_mol2.chk"
 Charge =  0 Multiplicity = 1

                         Standard orientation:
 ---------------------------------------------------------------------
 Center     Atomic      Atomic             Coordinates (Angstroms)
 Number     Number       Type             X           Y           Z
 ---------------------------------------------------------------------
      1          6           0        2.136167   -1.510483   -0.011323
      2          6           0        1.533004   -0.232426    0.555388
      3          6           0        1.248846    0.802617   -0.522844
      4          8           0        0.690301    1.994509   -0.014211
      5          6           0       -2.160161   -0.400206   -0.008638
      6          8           0       -2.034942   -1.530657   -0.220146
      7          7           0       -2.157539    0.782654    0.254433
      8          1           0        3.077019   -1.307453   -0.528815
      9          1           0        2.341131   -2.235455    0.777497
     10          1           0        1.459497   -1.983671   -0.727329
     11          1           0        0.601273   -0.466214    1.082761
     12          1           0        2.201155    0.214440    1.296495
     13          1           0        2.180309    1.089612   -1.017872
     14          1           0        0.600019    0.364421   -1.296288
     15          1           0       -2.950399    1.388783    0.135997
     16          1           0       -0.197236    1.789125    0.295882
 ---------------------------------------------------------------------

 SCF Done:  E(RHF) =  -362.568019910     A.U. after    2 cycles

 The electronic state is 1-A.
 Alpha  occ. eigenvalues --  -21.15156 -21.04732 -15.80072 -11.59991 -11.42159
 Alpha  occ. eigenvalues --  -11.38531 -11.34518  -1.79977  -1.69454  -1.38235
 Alpha  occ. eigenvalues --   -1.17909  -0.96015  -0.83849  -0.81599  -0.66701
 Alpha  occ. eigenvalues --   -0.64615  -0.61806  -0.60808  -0.59404  -0.56626
 Alpha  occ. eigenvalues --   -0.54547  -0.50074  -0.47029  -0.46223  -0.42022
 Alpha  occ. eigenvalues --   -0.38114  -0.36698  -0.29666
 Alpha virt. eigenvalues --    0.03047   0.05136   0.05985   0.06115   0.06721
 Alpha virt. eigenvalues --    0.06835   0.07472   0.07699   0.08449   0.09869
 Alpha virt. eigenvalues --    0.11547   0.11905   0.12546   0.14039   0.14796

 Mulliken charges:
               1
     1  C   -3.413577
     2  C   -3.511793
     3  C   -0.924646
     4  O   -2.903796
     5  C    3.939146
     6  O   -2.256671
     7  N   -2.432079
     8  H    1.261200
     9  H    1.185041
    10  H    1.309888
    11  H    1.534877
    12  H    1.390973
    13  H    1.283271
    14  H    1.663898
    15  H    0.863055
    16  H    1.011212
 Sum of Mulliken charges =  -0.00000

 Dipole moment (field-independent basis, Debye):
    X=             -1.9641    Y=             -1.1867    Z=             -0.3697  Tot=              2.3243

 Test job not archived.
 1\1\GINC-SE108\SP\RHF\Aug-CC-pVDZ\C4H9N1O2\OHZDE\09-Apr-2025\0\\#t hf
 aug-cc-pvdz iop(5/13=1,5/36=2,99/5=2) pseudo=read geom=check guess=(re
 ad,tcheck) scf=(maxcycle=1)\\title\\0,1\C,0,-2.0994155,-0.10936411,-0.
 41584353\C,0,-0.87449228,0.72534742,-0.06768\C,0,-0.11163497,0.1667859
 9,1.12425238\O,0,1.02664599,0.92968098,1.46129172\C,0,2.10104731,-1.00
 004782,-1.53564605\O,0,1.37003625,-1.62345369,-2.18010025\N,0,2.755760
 44,-0.26985522,-0.82392839\H,0,-2.79485084,-0.16012872,0.42559162\H,0,
 -2.63742836,0.31216225,-1.2659541\H,0,-1.81944155,-1.13310526,-0.67665

 Normal termination of Gaussian 16 at Wed Apr  9 19:20:12 2025.
