 Gaussian 16, Revision C.01,

 ----------------------------------------------------------------------
 #t hf aug-cc-pvdz symm=none int=(grid=ultrafine) guess=(read,tcheck) s
 table=(opt,rrhf)
 ----------------------------------------------------------------------
 -----
 title
 -----
 Symbolic Z-matrix:
 Charge =  0 Multiplicity = 1

 SCF Done:  E(RHF) =  -322.528646022     A.U. after   16 cycles
 Normal termination of Gaussian 16 at Wed Apr  9 04:04:44 2025.
 Gaussian 16:  ES64L-G16RevC.01  3-Jul-2019

 ----------------------------------------------------------------------
 #t hf aug-cc-pvdz iop(5/13=1,5/36=2,99/5=2) pseudo=read geom=check gue
 ss=(read,tcheck) scf=(maxcycle=1)
 ----------------------------------------------------------------------
 -----
 title
 -----
 Structure from the checkpoint file:  "Grambow2020_wb97xd3_009200_forward_mol1.chk"
 Charge =  0 Multiplicity = 1

                         Standard orientation:
 ---------------------------------------------------------------------
 Center     Atomic      Atomic             Coordinates (Angstroms)
 Number     Number       Type             X           Y           Z
 ---------------------------------------------------------------------
      1          8           0        3.028839    0.772458    0.011828
      2          6           0        2.396705   -0.456879    0.293202
      3          6           0        0.962258   -0.455914   -0.005994
      4          6           0       -0.206204   -0.439993   -0.277822
      5          6           0       -1.615962   -0.403664   -0.597627
      6          6           0       -2.936123   -0.035781    0.728963
      7          7           0       -2.310052    0.856495   -0.200001
      8          1           0        2.857975    1.001578   -0.904073
      9          1           0        2.868502   -1.285654   -0.248581
     10          1           0        2.545918   -0.639718    1.358410
     11          1           0       -1.859800   -0.654177   -1.627709
     12          1           0       -2.313931   -0.049435    1.656370
     13          1           0       -2.165088   -1.230867   -0.013266
     14          1           0       -1.597964    1.436533    0.239900
 ---------------------------------------------------------------------

 SCF Done:  E(RHF) =  -324.005647837     A.U. after    2 cycles

 The electronic state is 1-A.
 Alpha  occ. eigenvalues --  -21.09028 -15.75696 -11.53351 -11.49417 -11.43027
 Alpha  occ. eigenvalues --  -11.41815 -11.41566  -1.73430  -1.46127  -1.16643
 Alpha  occ. eigenvalues --   -1.05043  -0.95342  -0.88704  -0.74450  -0.67917
 Alpha  occ. eigenvalues --   -0.65672  -0.62670  -0.59477  -0.57997  -0.54794
 Alpha  occ. eigenvalues --   -0.45938  -0.43036  -0.39447  -0.37851  -0.34211
 Alpha  occ. eigenvalues --   -0.30043
 Alpha virt. eigenvalues --    0.02892   0.04949   0.05634   0.05741   0.05912
 Alpha virt. eigenvalues --    0.06720   0.06944   0.08599   0.09885   0.10469
 Alpha virt. eigenvalues --    0.11904   0.11998   0.12851   0.13765   0.14113

 Mulliken charges:
               1
     1  O   -2.342371
     2  C   -2.251762
     3  C    1.473691
     4  C    3.031605
     5  C   -3.394720
     6  C   -1.388287
     7  N   -1.718220
     8  H    0.762937
     9  H    0.866192
    10  H    0.851299
    11  H    0.750924
    12  H    1.157464
    13  H    1.444680
    14  H    0.756568
 Sum of Mulliken charges =  -0.00000

 Dipole moment (field-independent basis, Debye):
    X=              2.7819    Y=             -0.1600    Z=             -0.3806  Tot=              2.8124

 Test job not archived.
 1\1\GINC-SE453\SP\RHF\Aug-CC-pVDZ\C5H7N1O1\OHZDE\09-Apr-2025\0\\#t hf
 aug-cc-pvdz iop(5/13=1,5/36=2,99/5=2) pseudo=read geom=check guess=(re
 ad,tcheck) scf=(maxcycle=1)\\title\\0,1\O,0,1.91466256,-0.07613292,2.8
 5796453\C,0,1.94943842,0.69578657,1.67772421\C,0,0.76066506,0.52868562
 ,0.83745558\C,0,-0.23057717,0.39324764,0.17523053\C,0,-1.42461594,0.21
 13739,-0.6198852\C,0,-1.48468993,-1.02538049,-2.07068988\N,0,-1.900005
 97,-1.20054528,-0.71130641\H,0,1.1099659,0.13325819,3.33669449\H,0,2.0
 7749802,1.76262016,1.89785104\H,0,2.83304762,0.37051865,1.12654663\H,0

 Normal termination of Gaussian 16 at Wed Apr  9 04:04:48 2025.
