 Gaussian 16, Revision C.01,

 ----------------------------------------------------------------------
 #t hf aug-cc-pvdz symm=none int=(grid=ultrafine) guess=(read,tcheck) s
 table=(opt,rrhf)
 ----------------------------------------------------------------------
 -----
 title
 -----
 Symbolic Z-matrix:
 Charge =  0 Multiplicity = 1

 SCF Done:  E(RHF) =  -336.646959846     A.U. after   15 cycles
 Normal termination of Gaussian 16 at Wed Apr  9 17:22:07 2025.
 Gaussian 16:  ES64L-G16RevC.01  3-Jul-2019

 ----------------------------------------------------------------------
 #t hf aug-cc-pvdz iop(5/13=1,5/36=2,99/5=2) pseudo=read geom=check gue
 ss=(read,tcheck) scf=(maxcycle=1)
 ----------------------------------------------------------------------
 -----
 title
 -----
 Structure from the checkpoint file:  "Grambow2020_b97d3_007115_forward_mol1.chk"
 Charge =  0 Multiplicity = 1

                         Standard orientation:
 ---------------------------------------------------------------------
 Center     Atomic      Atomic             Coordinates (Angstroms)
 Number     Number       Type             X           Y           Z
 ---------------------------------------------------------------------
      1          7           0        2.225080   -0.018933   -0.344972
      2          6           0        0.895577   -0.063991   -0.218210
      3          8           0        0.396787   -0.102224    0.996817
      4          6           0       -0.848870    0.172316   -0.037766
      5          8           0       -1.311636    1.283614   -0.148260
      6          7           0       -1.542884   -1.031351   -0.135404
      7          1           0        2.651271    0.039291   -1.262055
      8          1           0        2.837025    0.033459    0.476657
      9          1           0       -2.271909   -0.972384   -0.843191
     10          1           0       -0.953206   -1.849453   -0.261376
 ---------------------------------------------------------------------

 SCF Done:  E(RHF) =  -338.124146226     A.U. after    2 cycles

 The electronic state is 1-A.
 Alpha  occ. eigenvalues --  -21.08698 -21.03595 -15.81563 -15.78059 -11.57449
 Alpha  occ. eigenvalues --  -11.47536  -1.81659  -1.67731  -1.36932  -1.33804
 Alpha  occ. eigenvalues --   -0.85577  -0.84413  -0.73230  -0.70807  -0.66376
 Alpha  occ. eigenvalues --   -0.59168  -0.52204  -0.51021  -0.48171  -0.37611
 Alpha  occ. eigenvalues --   -0.36229  -0.30225  -0.27006
 Alpha virt. eigenvalues --    0.02836   0.04460   0.05176   0.06330   0.11090
 Alpha virt. eigenvalues --    0.12089   0.12719   0.13094   0.13255   0.14466
 Alpha virt. eigenvalues --    0.14871   0.15071   0.16836   0.17749   0.19458

 Mulliken charges:
               1
     1  N   -2.644247
     2  C    1.670399
     3  O   -2.174107
     4  C    6.047295
     5  O   -3.011943
     6  N   -2.540647
     7  H    0.822956
     8  H    0.636388
     9  H    0.538182
    10  H    0.655722
 Sum of Mulliken charges =   0.00000

 Dipole moment (field-independent basis, Debye):
    X=              2.8951    Y=             -1.9381    Z=             -0.6053  Tot=              3.5361

 Test job not archived.
 1\1\GINC-SE220\SP\RHF\Aug-CC-pVDZ\C2H4N2O2\OHZDE\09-Apr-2025\0\\#t hf
 aug-cc-pvdz iop(5/13=1,5/36=2,99/5=2) pseudo=read geom=check guess=(re
 ad,tcheck) scf=(maxcycle=1)\\title\\0,1\N,0,-2.013011,0.30826905,0.097
 95571\C,0,-0.70422759,0.03927618,0.11815082\O,0,0.04412334,0.70024465,
 0.97233759\C,0,0.95955821,-0.5152686,0.35435409\O,0,1.16590094,-1.5112
 7835,1.00760137\N,0,1.83306708,0.08094337,-0.55202182\H,0,-2.63106159,
 -0.19726511,-0.52535754\H,0,-2.43058725,0.97232075,0.7589857\H,0,2.366
 10249,-0.62334973,-1.05775066\H,0,1.39783439,0.75316279,-1.17778026\\V

 Normal termination of Gaussian 16 at Wed Apr  9 17:22:10 2025.
