 Gaussian 16, Revision C.01,

 ----------------------------------------------------------------------
 #t hf aug-cc-pvdz symm=none int=(grid=ultrafine) guess=(read,tcheck) s
 table=(opt,rrhf)
 ----------------------------------------------------------------------
 -----
 title
 -----
 Symbolic Z-matrix:
 Charge =  0 Multiplicity = 1

 SCF Done:  E(RHF) =  -305.798565360     A.U. after   13 cycles
 Normal termination of Gaussian 16 at Wed Apr  9 03:05:51 2025.
 Gaussian 16:  ES64L-G16RevC.01  3-Jul-2019

 ----------------------------------------------------------------------
 #t hf aug-cc-pvdz iop(5/13=1,5/36=2,99/5=2) pseudo=read geom=check gue
 ss=(read,tcheck) scf=(maxcycle=1)
 ----------------------------------------------------------------------
 -----
 title
 -----
 Structure from the checkpoint file:  "Grambow2020_b97d3_006512_reverse_mol2.chk"
 Charge =  0 Multiplicity = 1

                         Standard orientation:
 ---------------------------------------------------------------------
 Center     Atomic      Atomic             Coordinates (Angstroms)
 Number     Number       Type             X           Y           Z
 ---------------------------------------------------------------------
      1          8           0       -2.844593   -0.125955   -0.087702
      2          6           0        0.234322    1.291170   -0.269496
      3          6           0        1.484038    0.498075   -0.055087
      4          6           0        0.303088    0.272185    0.862342
      5          6           0        0.301065   -1.139735    0.282122
      6          8           0        1.385203   -0.806413   -0.648779
      7          1           0       -2.720175    0.035810   -1.039223
      8          1           0       -0.363278    1.101208   -1.164111
      9          1           0        0.269951    2.331730    0.056085
     10          1           0        2.476985    0.912027    0.118217
     11          1           0        0.171470    0.539325    1.908583
     12          1           0       -2.115059    0.374789    0.319885
     13          1           0       -0.616293   -1.464857   -0.227363
     14          1           0        0.636437   -1.901258    1.000492
 ---------------------------------------------------------------------

 SCF Done:  E(RHF) =  -307.191319902     A.U. after    2 cycles

 The electronic state is 1-A.
 Alpha  occ. eigenvalues --  -21.09323 -21.04631 -11.48934 -11.45969 -11.42491
 Alpha  occ. eigenvalues --  -11.38648  -1.77703  -1.65477  -1.25757  -1.01748
 Alpha  occ. eigenvalues --   -0.87292  -0.79028  -0.73159  -0.63877  -0.62777
 Alpha  occ. eigenvalues --   -0.61524  -0.54221  -0.49549  -0.47249  -0.44642
 Alpha  occ. eigenvalues --   -0.41372  -0.35959  -0.34629  -0.28271
 Alpha virt. eigenvalues --    0.03749   0.04854   0.05115   0.05323   0.05834
 Alpha virt. eigenvalues --    0.06881   0.07769   0.08260   0.11091   0.11948
 Alpha virt. eigenvalues --    0.13138   0.13304   0.13782   0.14280   0.14849

 Mulliken charges:
               1
     1  O   -2.116006
     2  C   -2.940258
     3  C    1.220718
     4  C   -1.730164
     5  C   -1.738025
     6  O   -2.795466
     7  H    0.801189
     8  H    1.325743
     9  H    1.361182
    10  H    1.337339
    11  H    1.168884
    12  H    1.310781
    13  H    1.430924
    14  H    1.363158
 Sum of Mulliken charges =  -0.00000

 Dipole moment (field-independent basis, Debye):
    X=              0.7861    Y=              0.8275    Z=              0.3559  Tot=              1.1955

 Test job not archived.
 1\1\GINC-SE116\SP\RHF\Aug-CC-pVDZ\C4H8O2\OHZDE\09-Apr-2025\0\\#t hf au
 g-cc-pvdz iop(5/13=1,5/36=2,99/5=2) pseudo=read geom=check guess=(read
 ,tcheck) scf=(maxcycle=1)\\title\\0,1\O,0,-1.17512568,1.82288266,-1.72
 584737\C,0,-0.77893947,-0.97169033,0.15946603\C,0,0.38251736,-1.142678
 58,1.08604094\C,0,0.61898909,-0.5624512,-0.29046228\C,0,1.05501831,0.6
 899067,0.46561572\O,0,0.70364113,0.08678673,1.75627999\H,0,-1.86140707
 ,1.90661745,-1.04097864\H,0,-1.53702319,-0.22194049,0.39764893\H,0,-1.
 15452847,-1.88430145,-0.30541242\H,0,0.69303845,-2.07891175,1.54905171

 Normal termination of Gaussian 16 at Wed Apr  9 03:05:55 2025.
