 Gaussian 16, Revision C.01,

 ----------------------------------------------------------------------
 #t hf aug-cc-pvdz symm=none int=(grid=ultrafine) guess=(read,tcheck) s
 table=(opt,rrhf)
 ----------------------------------------------------------------------
 -----
 title
 -----
 Symbolic Z-matrix:
 Charge =  0 Multiplicity = 1

 SCF Done:  E(RHF) =  -302.264588811     A.U. after   16 cycles
 Normal termination of Gaussian 16 at Wed Apr  9 16:04:10 2025.
 Gaussian 16:  ES64L-G16RevC.01  3-Jul-2019

 ----------------------------------------------------------------------
 #t hf aug-cc-pvdz iop(5/13=1,5/36=2,99/5=2) pseudo=read geom=check gue
 ss=(read,tcheck) scf=(maxcycle=1)
 ----------------------------------------------------------------------
 -----
 title
 -----
 Structure from the checkpoint file:  "Grambow2020_b97d3_006707_reverse_mol2.chk"
 Charge =  0 Multiplicity = 1

                         Standard orientation:
 ---------------------------------------------------------------------
 Center     Atomic      Atomic             Coordinates (Angstroms)
 Number     Number       Type             X           Y           Z
 ---------------------------------------------------------------------
      1          8           0        3.184550   -0.187032   -0.001628
      2          6           0        2.004887   -0.033559   -0.001395
      3          6           0        0.724715    0.130072    0.005787
      4          6           0       -0.549790    0.305715   -0.000129
      5          6           0       -1.866783    0.487538   -0.000571
      6          8           0       -2.832883   -0.495218   -0.001330
      7          1           0       -2.391027   -1.366846    0.004498
      8          1           0       -2.300484    1.486250   -0.002990
 ---------------------------------------------------------------------

 SCF Done:  E(RHF) =  -303.547694119     A.U. after    2 cycles

 The electronic state is 1-A.
 Alpha  occ. eigenvalues --  -21.13798 -21.13085 -11.56600 -11.50711 -11.48907
 Alpha  occ. eigenvalues --  -11.44614  -1.76597  -1.75651  -1.20393  -1.05531
 Alpha  occ. eigenvalues --   -0.88146  -0.73454  -0.62410  -0.60711  -0.57870
 Alpha  occ. eigenvalues --   -0.54188  -0.51575  -0.48908  -0.38806  -0.37227
 Alpha  occ. eigenvalues --   -0.23928
 Alpha virt. eigenvalues --    0.02357   0.05365   0.06213   0.07511   0.09327
 Alpha virt. eigenvalues --    0.10242   0.10678   0.11306   0.12008   0.12231
 Alpha virt. eigenvalues --    0.14171   0.14293   0.16721   0.17541   0.19393

 Mulliken charges:
               1
     1  O   -2.997245
     2  C    1.001110
     3  C    2.305731
     4  C    0.296961
     5  C    0.456110
     6  O   -3.043505
     7  H    0.899965
     8  H    1.080873
 Sum of Mulliken charges =   0.00000

 Dipole moment (field-independent basis, Debye):
    X=             -0.3989    Y=             -0.4172    Z=             -0.0096  Tot=              0.5772

 Test job not archived.
 1\1\GINC-SE057\SP\RHF\Aug-CC-pVDZ\C4H2O2\OHZDE\09-Apr-2025\0\\#t hf au
 g-cc-pvdz iop(5/13=1,5/36=2,99/5=2) pseudo=read geom=check guess=(read
 ,tcheck) scf=(maxcycle=1)\\title\\0,1\O,0,-3.54907324,0.59272103,0.371
 47529\C,0,-2.37284772,0.47846551,0.23510628\C,0,-1.09784799,0.35168553
 ,0.08028753\C,0,0.1758413,0.23777868,-0.06109647\C,0,1.49141649,0.1204
 3514,-0.21283426\O,0,2.20757544,-1.05347521,-0.30343638\H,0,1.58473933
 ,-1.80412916,-0.24344392\H,0,2.13431339,0.99680148,-0.27760006\\Versio
 n=ES64L-G16RevC.01\State=1-A\HF=-303.5476941\RMSD=1.531e+00\Dipole=0.1

 Normal termination of Gaussian 16 at Wed Apr  9 16:04:12 2025.
