 Gaussian 16, Revision C.01,

 ----------------------------------------------------------------------
 #t hf aug-cc-pvdz symm=none int=(grid=ultrafine) guess=(read,tcheck) s
 table=(opt,rrhf)
 ----------------------------------------------------------------------
 -----
 title
 -----
 Symbolic Z-matrix:
 Charge =  0 Multiplicity = 1

 SCF Done:  E(RHF) =  -268.690559071     A.U. after   15 cycles
 Normal termination of Gaussian 16 at Wed Apr  9 03:20:40 2025.
 Gaussian 16:  ES64L-G16RevC.01  3-Jul-2019

 ----------------------------------------------------------------------
 #t hf aug-cc-pvdz iop(5/13=1,5/36=2,99/5=2) pseudo=read geom=check gue
 ss=(read,tcheck) scf=(maxcycle=1)
 ----------------------------------------------------------------------
 -----
 title
 -----
 Structure from the checkpoint file:  "Grambow2020_wb97xd3_006050_reverse_mol1.chk"
 Charge =  0 Multiplicity = 1

                         Standard orientation:
 ---------------------------------------------------------------------
 Center     Atomic      Atomic             Coordinates (Angstroms)
 Number     Number       Type             X           Y           Z
 ---------------------------------------------------------------------
      1          6           0        0.950448    1.539873    0.237966
      2          8           0        0.553182    0.399423   -0.509787
      3          6           0        1.166474   -1.172765   -0.034870
      4          6           0       -0.155538   -1.574354    0.323040
      5          6           0       -0.691364   -0.413018    0.036025
      6          6           0       -1.967065    0.327394   -0.033339
      7          1           0        1.941197    1.843917   -0.100781
      8          1           0        0.246716    2.352551    0.051557
      9          1           0        0.971546    1.315688    1.309582
     10          1           0        1.622344   -1.529481   -0.957730
     11          1           0        1.895890   -0.930657    0.739590
     12          1           0       -2.195855    0.638003   -1.055457
     13          1           0       -2.753712   -0.342212    0.312031
     14          1           0       -1.971307    1.214023    0.606571
 ---------------------------------------------------------------------

 SCF Done:  E(RHF) =  -269.986755106     A.U. after    2 cycles

 The electronic state is 1-A.
 Alpha  occ. eigenvalues --  -21.08111 -11.48069 -11.42879 -11.42406 -11.37964
 Alpha  occ. eigenvalues --  -11.32299  -1.79402  -1.20535  -1.09242  -0.98400
 Alpha  occ. eigenvalues --   -0.90907  -0.68438  -0.66446  -0.64019  -0.61976
 Alpha  occ. eigenvalues --   -0.59224  -0.57106  -0.55004  -0.48576  -0.43581
 Alpha  occ. eigenvalues --   -0.39119  -0.32532  -0.27072
 Alpha virt. eigenvalues --    0.03219   0.04806   0.05118   0.05422   0.05878
 Alpha virt. eigenvalues --    0.06000   0.06971   0.08321   0.09774   0.11023
 Alpha virt. eigenvalues --    0.12423   0.12709   0.13031   0.14240   0.14974

 Mulliken charges:
               1
     1  C   -3.007558
     2  O   -2.780626
     3  C   -2.888656
     4  C   -2.631246
     5  C    5.002635
     6  C   -4.301911
     7  H    1.271385
     8  H    1.457074
     9  H    1.468901
    10  H    1.376060
    11  H    1.524558
    12  H    1.225062
    13  H    1.061192
    14  H    1.223130
 Sum of Mulliken charges =  -0.00000

 Dipole moment (field-independent basis, Debye):
    X=              2.3312    Y=              4.3047    Z=             -1.1451  Tot=              5.0276

 Test job not archived.
 1\1\GINC-SE094\SP\RHF\Aug-CC-pVDZ\C5H8O1\OHZDE\09-Apr-2025\0\\#t hf au
 g-cc-pvdz iop(5/13=1,5/36=2,99/5=2) pseudo=read geom=check guess=(read
 ,tcheck) scf=(maxcycle=1)\\title\\0,1\C,0,-1.48093574,0.57290053,-0.00
 497516\O,0,-0.56168199,-0.50986744,0.00793974\C,0,-0.3484408,-1.449251
 29,-1.4568237\C,0,0.99285911,-0.97260593,-1.56080251\C,0,0.90609798,-0
 .20523299,-0.50165143\C,0,1.66460895,0.71304238,0.37119797\H,0,-2.4858
 1308,0.17116793,0.12772437\H,0,-1.25454432,1.24404217,0.82493388\H,0,-
 1.41843182,1.12638526,-0.94774399\H,0,-0.55038328,-2.46235571,-1.11103

 Normal termination of Gaussian 16 at Wed Apr  9 03:20:44 2025.
