 Gaussian 16, Revision C.01,

 ----------------------------------------------------------------------
 #t hf aug-cc-pvdz symm=none int=(grid=ultrafine) guess=(read,tcheck) s
 table=(opt,rrhf)
 ----------------------------------------------------------------------
 -----
 title
 -----
 Symbolic Z-matrix:
 Charge =  0 Multiplicity = 1

 SCF Done:  E(RHF) =  -376.743981288     A.U. after   17 cycles
 Normal termination of Gaussian 16 at Wed Apr  9 03:58:45 2025.
 Gaussian 16:  ES64L-G16RevC.01  3-Jul-2019

 ----------------------------------------------------------------------
 #t hf aug-cc-pvdz iop(5/13=1,5/36=2,99/5=2) pseudo=read geom=check gue
 ss=(read,tcheck) scf=(maxcycle=1)
 ----------------------------------------------------------------------
 -----
 title
 -----
 Structure from the checkpoint file:  "Grambow2020_wb97xd3_008739_forward_mol1.chk"
 Charge =  0 Multiplicity = 1

                         Standard orientation:
 ---------------------------------------------------------------------
 Center     Atomic      Atomic             Coordinates (Angstroms)
 Number     Number       Type             X           Y           Z
 ---------------------------------------------------------------------
      1          7           0       -2.369603   -0.061342    0.450980
      2          6           0       -1.143673    0.014960   -0.267056
      3          8           0       -0.631095   -1.154010   -0.548232
      4          7           0       -0.310198    1.123984    0.066550
      5          6           0        0.918567    1.210930   -0.455371
      6          6           0        1.791292    0.055827    0.623820
      7          8           0        1.695393   -1.111331    0.040361
      8          1           0       -2.349561   -0.832154    1.100740
      9          1           0       -2.625765    0.809346    0.891271
     10          1           0       -1.411751    0.710297   -1.186887
     11          1           0        1.365040    2.200373   -0.377523
     12          1           0        1.147575    0.667441   -1.371979
     13          1           0        1.319721    0.187000    1.601522
     14          1           0        2.784468    0.515476    0.589736
     15          1           0        0.617379   -1.263846   -0.214979
 ---------------------------------------------------------------------

 SCF Done:  E(RHF) =  -378.441207763     A.U. after    2 cycles

 The electronic state is 1-A.
 Alpha  occ. eigenvalues --  -21.02992 -20.98915 -15.85415 -15.74408 -11.48576
 Alpha  occ. eigenvalues --  -11.48181 -11.43242  -1.74992  -1.67686  -1.43442
 Alpha  occ. eigenvalues --   -1.30313  -1.04917  -0.94464  -0.82359  -0.71858
 Alpha  occ. eigenvalues --   -0.69715  -0.67144  -0.66501  -0.60484  -0.57940
 Alpha  occ. eigenvalues --   -0.53790  -0.52489  -0.45176  -0.39978  -0.37492
 Alpha  occ. eigenvalues --   -0.30951  -0.29443  -0.24728
 Alpha virt. eigenvalues --    0.01582   0.04032   0.04896   0.05157   0.05771
 Alpha virt. eigenvalues --    0.05912   0.06548   0.07484   0.09253   0.10655
 Alpha virt. eigenvalues --    0.11936   0.12481   0.13205   0.14477   0.14925

 Mulliken charges:
               1
     1  N   -2.749410
     2  C    3.702097
     3  O   -3.318017
     4  N   -2.170605
     5  C   -1.971583
     6  C   -0.674697
     7  O   -2.902281
     8  H    0.472007
     9  H    0.596958
    10  H    1.482031
    11  H    1.431293
    12  H    1.404652
    13  H    1.469668
    14  H    1.324512
    15  H    1.903375
 Sum of Mulliken charges =  -0.00000

 Dipole moment (field-independent basis, Debye):
    X=              1.5633    Y=              2.5111    Z=              1.3127  Tot=              3.2362

 Test job not archived.
 1\1\GINC-SE341\SP\RHF\Aug-CC-pVDZ\C3H8N2O2\OHZDE\09-Apr-2025\0\\#t hf
 aug-cc-pvdz iop(5/13=1,5/36=2,99/5=2) pseudo=read geom=check guess=(re
 ad,tcheck) scf=(maxcycle=1)\\title\\0,1\N,0,2.26091322,0.95532619,-0.1
 540584\C,0,0.88431532,0.71722804,-0.42348402\O,0,0.09305486,1.64335218
 ,0.05031848\N,0,0.49278177,-0.65484642,-0.42789775\C,0,-0.80143744,-0.
 97496941,-0.53899437\C,0,-1.3344112,-0.6872393,1.16209774\O,0,-1.71348
 09,0.56430357,1.20482848\H,0,2.3742201,1.37293992,0.75671079\H,0,2.836
 45684,0.13628325,-0.27852139\H,0,0.86274981,0.55161684,-1.59547255\H,0

 Normal termination of Gaussian 16 at Wed Apr  9 03:58:50 2025.
