 Gaussian 16, Revision C.01,

 ----------------------------------------------------------------------
 #t hf aug-cc-pvdz symm=none int=(grid=ultrafine) guess=(read,tcheck) s
 table=(opt,rrhf)
 ----------------------------------------------------------------------
 -----
 title
 -----
 Symbolic Z-matrix:
 Charge =  0 Multiplicity = 1

 SCF Done:  E(RHF) =  -321.544876318     A.U. after   14 cycles
 Normal termination of Gaussian 16 at Wed Apr  9 19:33:39 2025.
 Gaussian 16:  ES64L-G16RevC.01  3-Jul-2019

 ----------------------------------------------------------------------
 #t hf aug-cc-pvdz iop(5/13=1,5/36=2,99/5=2) pseudo=read geom=check gue
 ss=(read,tcheck) scf=(maxcycle=1)
 ----------------------------------------------------------------------
 -----
 title
 -----
 Structure from the checkpoint file:  "Grambow2020_wb97xd3_009372_reverse_mol2.chk"
 Charge =  0 Multiplicity = 1

                         Standard orientation:
 ---------------------------------------------------------------------
 Center     Atomic      Atomic             Coordinates (Angstroms)
 Number     Number       Type             X           Y           Z
 ---------------------------------------------------------------------
      1          8           0        2.514940   -0.022084   -0.503994
      2          6           0        1.264701   -0.060074   -0.038601
      3          6           0        0.363319    1.117647    0.160992
      4          6           0       -0.658451    0.055481    0.694547
      5          6           0        0.405713   -0.985850    0.392768
      6          6           0       -1.899373   -0.048643   -0.066873
      7          7           0       -2.871413   -0.140212   -0.670125
      8          1           0        0.686385    1.844947    0.906273
      9          1           0        0.051291    1.629538   -0.748974
     10          1           0       -0.903599    0.183692    1.750548
     11          1           0        0.413142   -2.060020    0.504170
     12          1           0        2.877696   -0.911362   -0.546182
 ---------------------------------------------------------------------

 SCF Done:  E(RHF) =  -322.999490298     A.U. after    2 cycles

 The electronic state is 1-A.
 Alpha  occ. eigenvalues --  -21.13496 -15.75095 -11.53190 -11.47918 -11.43335
 Alpha  occ. eigenvalues --  -11.42330 -11.39503  -1.78765  -1.37903  -1.27691
 Alpha  occ. eigenvalues --   -1.00117  -0.98489  -0.78445  -0.72537  -0.70773
 Alpha  occ. eigenvalues --   -0.63534  -0.58816  -0.53253  -0.51570  -0.49144
 Alpha  occ. eigenvalues --   -0.48435  -0.45511  -0.41629  -0.40959  -0.30799
 Alpha virt. eigenvalues --    0.02833   0.04919   0.05324   0.05584   0.06918
 Alpha virt. eigenvalues --    0.08742   0.09740   0.10842   0.11526   0.11861
 Alpha virt. eigenvalues --    0.12835   0.13810   0.13875   0.14260   0.14674

 Mulliken charges:
               1
     1  O   -3.836587
     2  C    5.119619
     3  C   -3.081143
     4  C   -1.562683
     5  C   -2.154821
     6  C    1.868165
     7  N   -2.488983
     8  H    1.221108
     9  H    1.382550
    10  H    1.297072
    11  H    1.130828
    12  H    1.104875
 Sum of Mulliken charges =   0.00000

 Dipole moment (field-independent basis, Debye):
    X=              4.1997    Y=             -0.0166    Z=              1.4003  Tot=              4.4270

 Test job not archived.
 1\1\GINC-SE026\SP\RHF\Aug-CC-pVDZ\C5H5N1O1\OHZDE\09-Apr-2025\0\\#t hf
 aug-cc-pvdz iop(5/13=1,5/36=2,99/5=2) pseudo=read geom=check guess=(re
 ad,tcheck) scf=(maxcycle=1)\\title\\0,1\O,0,-2.33100792,-0.67483189,0.
 03163594\C,0,-1.02751926,-0.40333686,-0.05968424\C,0,-0.42548016,0.933
 2514,-0.36041169\C,0,0.9411839,0.17129806,-0.26795069\C,0,0.12359462,-
 1.07061723,0.04362638\C,0,1.83980149,0.63479974,0.78473195\N,0,2.54384
 046,0.99005445,1.61856827\H,0,-0.64520576,1.3447676,-1.34588404\H,0,-0
 .57145675,1.69647855,0.40352994\H,0,1.48821737,0.14839963,-1.21235777\

 Normal termination of Gaussian 16 at Wed Apr  9 19:33:44 2025.
