 Gaussian 16, Revision C.01,

 ----------------------------------------------------------------------
 #t hf aug-cc-pvdz symm=none int=(grid=ultrafine) guess=(read,tcheck) s
 table=(opt,rrhf)
 ----------------------------------------------------------------------
 -----
 title
 -----
 Symbolic Z-matrix:
 Charge =  0 Multiplicity = 1

 SCF Done:  E(RHF) =  -354.545656253     A.U. after   17 cycles
 Normal termination of Gaussian 16 at Wed Apr  9 18:54:33 2025.
 Gaussian 16:  ES64L-G16RevC.01  3-Jul-2019

 ----------------------------------------------------------------------
 #t hf aug-cc-pvdz iop(5/13=1,5/36=2,99/5=2) pseudo=read geom=check gue
 ss=(read,tcheck) scf=(maxcycle=1)
 ----------------------------------------------------------------------
 -----
 title
 -----
 Structure from the checkpoint file:  "Grambow2020_wb97xd3_007779_reverse_mol1.chk"
 Charge =  0 Multiplicity = 1

                         Standard orientation:
 ---------------------------------------------------------------------
 Center     Atomic      Atomic             Coordinates (Angstroms)
 Number     Number       Type             X           Y           Z
 ---------------------------------------------------------------------
      1          6           0        1.812146   -0.634697    0.603628
      2          6           0        1.091519   -0.113436   -0.455484
      3          7           0        0.810917    1.208171   -0.203867
      4          7           0       -0.439836    1.189139    0.022770
      5          6           0       -0.991184   -0.200156    0.146206
      6          8           0       -2.151649   -0.462371    0.335390
      7          7           0       -0.061871   -0.776596   -0.844914
      8          1           0        0.049434   -0.457307    1.235316
      9          1           0        2.546272   -0.021490    1.109694
     10          1           0        1.869345   -1.705374    0.749004
     11          1           0       -0.886405    2.010281    0.413632
     12          1           0       -0.004822   -1.782396   -0.774791
 ---------------------------------------------------------------------

 SCF Done:  E(RHF) =  -356.160906688     A.U. after    2 cycles

 The electronic state is 1-A.
 Alpha  occ. eigenvalues --  -21.00825 -15.86871 -15.84639 -15.76731 -11.53877
 Alpha  occ. eigenvalues --  -11.48128 -11.43921  -1.74410  -1.64836  -1.38909
 Alpha  occ. eigenvalues --   -1.21029  -1.05335  -0.92480  -0.82636  -0.73903
 Alpha  occ. eigenvalues --   -0.72619  -0.62791  -0.61459  -0.58822  -0.53352
 Alpha  occ. eigenvalues --   -0.50391  -0.47299  -0.41611  -0.37862  -0.29213
 Alpha  occ. eigenvalues --   -0.26211
 Alpha virt. eigenvalues --    0.02809   0.04614   0.05219   0.06410   0.07004
 Alpha virt. eigenvalues --    0.07204   0.08402   0.10115   0.10359   0.11357
 Alpha virt. eigenvalues --    0.13011   0.13392   0.14755   0.15417   0.16134

 Mulliken charges:
               1
     1  C   -1.936351
     2  C    2.093503
     3  N   -1.181363
     4  N   -1.639188
     5  C    3.782365
     6  O   -3.171284
     7  N   -2.717112
     8  H    0.500303
     9  H    1.414204
    10  H    1.390914
    11  H    0.847606
    12  H    0.616402
 Sum of Mulliken charges =   0.00000

 Dipole moment (field-independent basis, Debye):
    X=              2.2726    Y=              1.0263    Z=              0.1521  Tot=              2.4982

 Test job not archived.
 1\1\GINC-SE115\SP\RHF\Aug-CC-pVDZ\C3H5N3O1\OHZDE\09-Apr-2025\0\\#t hf
 aug-cc-pvdz iop(5/13=1,5/36=2,99/5=2) pseudo=read geom=check guess=(re
 ad,tcheck) scf=(maxcycle=1)\\title\\0,1\C,0,1.60921139,-0.21281872,0.1
 5904985\C,0,0.47972056,0.10921368,0.88930988\N,0,-0.28537573,-1.019717
 27,1.05911813\N,0,-1.28471805,-0.79480605,0.30623037\C,0,-1.10025097,0
 .41072963,-0.56670569\O,0,-1.92346184,0.82858732,-1.34062116\N,0,-0.31
 111167,1.15334139,0.4352975\H,0,0.19206189,-0.22498528,-1.0775552\H,0,
 2.09535435,-1.16757035,0.31130398\H,0,2.17631697,0.56336065,-0.3376300

 Normal termination of Gaussian 16 at Wed Apr  9 18:54:38 2025.
