 Gaussian 16, Revision C.01,

 ----------------------------------------------------------------------
 #t hf aug-cc-pvdz symm=none int=(grid=ultrafine) guess=(read,tcheck) s
 table=(opt,rrhf)
 ----------------------------------------------------------------------
 -----
 title
 -----
 Symbolic Z-matrix:
 Charge =  0 Multiplicity = 1

 SCF Done:  E(RHF) =  -268.672836015     A.U. after   17 cycles
 Normal termination of Gaussian 16 at Wed Apr  9 17:05:20 2025.
 Gaussian 16:  ES64L-G16RevC.01  3-Jul-2019

 ----------------------------------------------------------------------
 #t hf aug-cc-pvdz iop(5/13=1,5/36=2,99/5=2) pseudo=read geom=check gue
 ss=(read,tcheck) scf=(maxcycle=1)
 ----------------------------------------------------------------------
 -----
 title
 -----
 Structure from the checkpoint file:  "Grambow2020_b97d3_007038_reverse_mol1.chk"
 Charge =  0 Multiplicity = 1

                         Standard orientation:
 ---------------------------------------------------------------------
 Center     Atomic      Atomic             Coordinates (Angstroms)
 Number     Number       Type             X           Y           Z
 ---------------------------------------------------------------------
      1          6           0        3.106992   -0.136778    0.112893
      2          6           0        1.737534   -0.002246   -0.189439
      3          6           0        0.452082   -0.039309   -0.038402
      4          6           0       -0.660813    0.901010    0.228355
      5          6           0       -2.015324    0.344838   -0.269573
      6          8           0       -2.213492   -0.981830    0.180776
      7          1           0        2.109358   -0.869075   -0.898682
      8          1           0        3.855011   -0.079780   -0.675467
      9          1           0        3.433746   -0.453146    1.106163
     10          1           0       -0.712903    0.982995    1.330272
     11          1           0       -0.475634    1.915593   -0.162707
     12          1           0       -2.841120    0.951244    0.127134
     13          1           0       -2.042121    0.416439   -1.374162
     14          1           0       -1.341223   -1.414727    0.038233
 ---------------------------------------------------------------------

 SCF Done:  E(RHF) =  -269.932312276     A.U. after    2 cycles

 The electronic state is 1-A.
 Alpha  occ. eigenvalues --  -21.04547 -11.46594 -11.44571 -11.43134 -11.40858
 Alpha  occ. eigenvalues --  -11.38150  -1.68948  -1.24444  -1.13046  -0.96621
 Alpha  occ. eigenvalues --   -0.87003  -0.72079  -0.66074  -0.63034  -0.62251
 Alpha  occ. eigenvalues --   -0.56705  -0.52809  -0.51931  -0.49466  -0.39278
 Alpha  occ. eigenvalues --   -0.37276  -0.30336  -0.26913
 Alpha virt. eigenvalues --    0.02402   0.04716   0.05268   0.05847   0.06068
 Alpha virt. eigenvalues --    0.06625   0.06781   0.07340   0.08147   0.09431
 Alpha virt. eigenvalues --    0.11528   0.12026   0.13003   0.13603   0.14023

 Mulliken charges:
               1
     1  C   -3.466309
     2  C    0.725649
     3  C   -0.002263
     4  C   -3.455649
     5  C   -1.177790
     6  O   -2.553122
     7  H    1.349309
     8  H    1.320439
     9  H    1.198183
    10  H    1.209035
    11  H    1.296969
    12  H    1.283408
    13  H    1.351995
    14  H    0.920145
 Sum of Mulliken charges =  -0.00000

 Dipole moment (field-independent basis, Debye):
    X=              2.8250    Y=              0.9805    Z=              0.2127  Tot=              2.9979

 Test job not archived.
 1\1\GINC-SE232\SP\RHF\Aug-CC-pVDZ\C5H8O1\OHZDE\09-Apr-2025\0\\#t hf au
 g-cc-pvdz iop(5/13=1,5/36=2,99/5=2) pseudo=read geom=check guess=(read
 ,tcheck) scf=(maxcycle=1)\\title\\0,1\C,0,2.88993465,0.00500516,-0.566
 65601\C,0,1.56513894,-0.12540224,-0.10532175\C,0,0.2969678,0.10214136,
 0.02328096\C,0,-0.9863694,-0.4858675,-0.42525403\C,0,-2.15279833,-0.10
 728883,0.51712758\O,0,-2.17101611,1.28571025,0.76482437\H,0,2.16544857
 ,0.25854354,0.83536282\H,0,3.70712761,-0.49215583,-0.04769593\H,0,3.14
 310837,0.72348851,-1.34968081\H,0,-1.18582233,-0.02743961,-1.41202548\

 Normal termination of Gaussian 16 at Wed Apr  9 17:05:25 2025.
