 Gaussian 16, Revision C.01,

 ----------------------------------------------------------------------
 #t hf aug-cc-pvdz symm=none int=(grid=ultrafine) guess=(read,tcheck) s
 table=(opt,rrhf)
 ----------------------------------------------------------------------
 -----
 title
 -----
 Symbolic Z-matrix:
 Charge =  0 Multiplicity = 1

 SCF Done:  E(RHF) =  -374.469107454     A.U. after   18 cycles
 Normal termination of Gaussian 16 at Wed Apr  9 19:19:46 2025.
 Gaussian 16:  ES64L-G16RevC.01  3-Jul-2019

 ----------------------------------------------------------------------
 #t hf aug-cc-pvdz iop(5/13=1,5/36=2,99/5=2) pseudo=read geom=check gue
 ss=(read,tcheck) scf=(maxcycle=1)
 ----------------------------------------------------------------------
 -----
 title
 -----
 Structure from the checkpoint file:  "Grambow2020_wb97xd3_008646_reverse_mol1.chk"
 Charge =  0 Multiplicity = 1

                         Standard orientation:
 ---------------------------------------------------------------------
 Center     Atomic      Atomic             Coordinates (Angstroms)
 Number     Number       Type             X           Y           Z
 ---------------------------------------------------------------------
      1          6           0       -1.900484   -0.964124    0.058827
      2          7           0       -0.557470   -0.496185   -0.284602
      3          7           0        0.356101   -1.330412    0.018029
      4          6           0        1.599300   -0.747113    0.016892
      5          8           0        1.756415    0.462293   -0.042892
      6          6           0       -0.308532    1.151149    0.360147
      7          8           0       -0.589209    2.143956   -0.122468
      8          1           0       -2.175693   -1.689011   -0.707302
      9          1           0       -1.922755   -1.449312    1.034135
     10          1           0       -2.590705   -0.123999    0.020449
     11          1           0        2.419380   -1.440959    0.226411
 ---------------------------------------------------------------------

 SCF Done:  E(RHF) =  -376.112667845     A.U. after    2 cycles

 The electronic state is 1-A.
 Alpha  occ. eigenvalues --  -21.13522 -21.07238 -15.85749 -15.77701 -11.50356
 Alpha  occ. eigenvalues --  -11.48709 -11.42582  -1.78230  -1.74659  -1.56258
 Alpha  occ. eigenvalues --   -1.19958  -0.98372  -0.84701  -0.77311  -0.68654
 Alpha  occ. eigenvalues --   -0.64940  -0.61558  -0.58712  -0.56665  -0.55587
 Alpha  occ. eigenvalues --   -0.51517  -0.50145  -0.42623  -0.41209  -0.33372
 Alpha  occ. eigenvalues --   -0.28019
 Alpha virt. eigenvalues --    0.03343   0.04874   0.05288   0.06033   0.07198
 Alpha virt. eigenvalues --    0.09755   0.10924   0.11116   0.11816   0.12105
 Alpha virt. eigenvalues --    0.12919   0.14122   0.14654   0.15376   0.16307

 Mulliken charges:
               1
     1  C   -3.270455
     2  N   -0.750846
     3  N   -1.573891
     4  C    2.047843
     5  O   -2.382962
     6  C    2.188886
     7  O   -2.118650
     8  H    1.380995
     9  H    1.399826
    10  H    1.327124
    11  H    1.752130
 Sum of Mulliken charges =  -0.00000

 Dipole moment (field-independent basis, Debye):
    X=             -1.6279    Y=              0.1123    Z=             -0.5433  Tot=              1.7198

 Test job not archived.
 1\1\GINC-SE114\SP\RHF\Aug-CC-pVDZ\C3H4N2O2\OHZDE\09-Apr-2025\0\\#t hf
 aug-cc-pvdz iop(5/13=1,5/36=2,99/5=2) pseudo=read geom=check guess=(re
 ad,tcheck) scf=(maxcycle=1)\\title\\0,1\C,0,-1.53776752,-0.35821342,-0
 .09858394\N,0,-0.16422521,0.09437247,-0.32026653\N,0,0.65630523,-0.863
 57339,-0.49691029\C,0,1.95849002,-0.45200744,-0.35299653\O,0,2.2544830
 5,0.63843384,0.10987251\C,0,0.30347156,1.25302949,0.956509\O,0,0.12217
 533,2.37715801,0.98530083\H,0,-1.9277822,-0.63862475,-1.07705868\H,0,-
 1.57694772,-1.22314228,0.56284664\H,0,-2.12513151,0.4677203,0.2970485\

 Normal termination of Gaussian 16 at Wed Apr  9 19:19:50 2025.
