 Gaussian 16, Revision C.01,

 ----------------------------------------------------------------------
 #t hf aug-cc-pvdz symm=none int=(grid=ultrafine) guess=(read,tcheck) s
 table=(opt,rrhf)
 ----------------------------------------------------------------------
 -----
 title
 -----
 Symbolic Z-matrix:
 Charge =  0 Multiplicity = 1

 SCF Done:  E(RHF) =  -344.768867503     A.U. after   15 cycles

 1\1\GINC-SE396\Stability\RHF\Aug-CC-pVDZ\C5H10O2\OHZDE\09-Apr-2025\0\\
 #t hf aug-cc-pvdz symm=none int=(grid=ultrafine) guess=(read,tcheck) s
 table=(opt,rrhf)\\title\\0,1\C,0,-2.48234147,-0.58606699,-0.06888586\C
 ,0,-0.43662145,-0.40333889,-0.8161167\O,0,-0.45337304,0.79059747,-1.41
 625396\C,0,0.22476784,-0.44103667,0.53901831\C,0,1.73679359,-0.2746805
 8,0.39832655\C,0,2.20572512,1.14372978,0.25652354\O,0,1.48737586,2.107
 56107,0.17527548\H,0,-2.65002263,-1.40870706,0.62441069\H,0,-2.3859482
 1,0.36499597,0.44492417\H,0,-3.25224836,-0.53315733,-0.83803779\H,0,-1

 Normal termination of Gaussian 16 at Wed Apr  9 03:34:38 2025.
 Gaussian 16:  ES64L-G16RevC.01  3-Jul-2019

 ----------------------------------------------------------------------
 #t hf aug-cc-pvdz iop(5/13=1,5/36=2,99/5=2) pseudo=read geom=check gue
 ss=(read,tcheck) scf=(maxcycle=1)
 ----------------------------------------------------------------------
 -----
 title
 -----
 Structure from the checkpoint file:  "Grambow2020_wb97xd3_007089_forward_mol1.chk"
 Charge =  0 Multiplicity = 1

                         Standard orientation:
 ---------------------------------------------------------------------
 Center     Atomic      Atomic             Coordinates (Angstroms)
 Number     Number       Type             X           Y           Z
 ---------------------------------------------------------------------
      1          6           0        2.821210    0.086381    0.493311
      2          6           0        0.987886    0.041012   -0.695629
      3          8           0        0.647433   -1.250585   -0.653219
      4          6           0        0.196647    0.952370    0.209144
      5          6           0       -1.230481    1.111898   -0.311958
      6          6           0       -2.166897   -0.000011    0.060436
      7          8           0       -1.854907   -1.000770    0.654357
      8          1           0        3.178973    1.081052    0.754365
      9          1           0        2.303755   -0.389229    1.320263
     10          1           0        3.620201   -0.552800    0.118862
     11          1           0        2.185014    0.249757   -0.706806
     12          1           0        0.047692   -1.436571    0.089489
     13          1           0        0.144903    0.595255    1.248022
     14          1           0        0.684627    1.927087    0.223515
     15          1           0       -1.248918    1.199468   -1.405432
     16          1           0       -1.685304    2.036383    0.060520
     17          1           0       -3.221345    0.150539   -0.243725
 ---------------------------------------------------------------------

 SCF Done:  E(RHF) =  -346.371875898     A.U. after    2 cycles

 The electronic state is 1-A.
 Alpha  occ. eigenvalues --  -21.08778 -21.07852 -11.50488 -11.44783 -11.42717
 Alpha  occ. eigenvalues --  -11.38469 -11.37074  -1.75280  -1.72805  -1.22769
 Alpha  occ. eigenvalues --   -1.06861  -0.99116  -0.84683  -0.78565  -0.69250
 Alpha  occ. eigenvalues --   -0.66279  -0.62167  -0.60247  -0.56372  -0.55915
 Alpha  occ. eigenvalues --   -0.54352  -0.50787  -0.49081  -0.44992  -0.42138
 Alpha  occ. eigenvalues --   -0.38379  -0.31059  -0.25229
 Alpha virt. eigenvalues --    0.03479   0.04524   0.04965   0.05568   0.06175
 Alpha virt. eigenvalues --    0.06285   0.06506   0.07748   0.08306   0.08872
 Alpha virt. eigenvalues --    0.11288   0.11701   0.11981   0.12918   0.13900

 Mulliken charges:
               1
     1  C   -4.824752
     2  C    0.915281
     3  O   -2.997123
     4  C   -2.788358
     5  C   -3.194217
     6  C    1.399983
     7  O   -2.786416
     8  H    1.190976
     9  H    1.405493
    10  H    1.020875
    11  H    2.240986
    12  H    1.016501
    13  H    1.535700
    14  H    1.471409
    15  H    1.573468
    16  H    1.304622
    17  H    1.515572
 Sum of Mulliken charges =  -0.00000

 Dipole moment (field-independent basis, Debye):
    X=             -0.9756    Y=              0.9542    Z=              0.7760  Tot=              1.5699

 Test job not archived.
 1\1\GINC-SE396\SP\RHF\Aug-CC-pVDZ\C5H10O2\OHZDE\09-Apr-2025\0\\#t hf a
 ug-cc-pvdz iop(5/13=1,5/36=2,99/5=2) pseudo=read geom=check guess=(rea
 d,tcheck) scf=(maxcycle=1)\\title\\0,1\C,0,-2.48234147,-0.58606699,-0.
 06888586\C,0,-0.43662145,-0.40333889,-0.8161167\O,0,-0.45337304,0.7905
 9747,-1.41625396\C,0,0.22476784,-0.44103667,0.53901831\C,0,1.73679359,
 -0.27468058,0.39832655\C,0,2.20572512,1.14372978,0.25652354\O,0,1.4873
 7586,2.10756107,0.17527548\H,0,-2.65002263,-1.40870706,0.62441069\H,0,
 -2.38594821,0.36499597,0.44492417\H,0,-3.25224836,-0.53315733,-0.83803

 Normal termination of Gaussian 16 at Wed Apr  9 03:34:43 2025.
