 Gaussian 16, Revision C.01,

 ----------------------------------------------------------------------
 #t hf aug-cc-pvdz symm=none int=(grid=ultrafine) guess=(read,tcheck) s
 table=(opt,rrhf)
 ----------------------------------------------------------------------
 -----
 title
 -----
 Symbolic Z-matrix:
 Charge =  0 Multiplicity = 1

 SCF Done:  E(RHF) =  -307.675934217     A.U. after   15 cycles

 1\1\GINC-SE108\Stability\RHF\Aug-CC-pVDZ\C6H10O1\OHZDE\09-Apr-2025\0\\
 #t hf aug-cc-pvdz symm=none int=(grid=ultrafine) guess=(read,tcheck) s
 table=(opt,rrhf)\\title\\0,1\C,0,-2.04093342,-0.4826301,0.28430022\C,0
 ,-0.82170883,-0.11184956,-0.52610519\O,0,-0.46830808,1.28993818,-0.205
 11041\C,0,0.8174652,1.37230645,-0.07718863\C,0,1.58019964,0.12034851,-
 0.00558257\C,0,1.04067026,-0.78163848,1.08746813\C,0,0.46128167,-0.873
 50882,-0.28515884\H,0,-2.87551905,0.185195,0.0683818\H,0,-1.82847329,-
 0.44885699,1.3528615\H,0,-2.33973534,-1.50006531,0.02836133\H,0,-1.063

 Normal termination of Gaussian 16 at Wed Apr  9 18:20:35 2025.
 Gaussian 16:  ES64L-G16RevC.01  3-Jul-2019

 ----------------------------------------------------------------------
 #t hf aug-cc-pvdz iop(5/13=1,5/36=2,99/5=2) pseudo=read geom=check gue
 ss=(read,tcheck) scf=(maxcycle=1)
 ----------------------------------------------------------------------
 -----
 title
 -----
 Structure from the checkpoint file:  "Grambow2020_wb97xd3_006893_forward_mol1.chk"
 Charge =  0 Multiplicity = 1

                         Standard orientation:
 ---------------------------------------------------------------------
 Center     Atomic      Atomic             Coordinates (Angstroms)
 Number     Number       Type             X           Y           Z
 ---------------------------------------------------------------------
      1          6           0       -2.158125    0.146164   -0.203959
      2          6           0       -0.877071   -0.218374    0.507909
      3          8           0       -0.196372   -1.267943   -0.284551
      4          6           0        1.069392   -0.998558   -0.324996
      5          6           0        1.503637    0.323047    0.143063
      6          6           0        0.749582    1.426712   -0.573007
      7          6           0        0.179370    0.848724    0.679600
      8          1           0       -2.802774   -0.724901   -0.325690
      9          1           0       -1.954807    0.575346   -1.185064
     10          1           0       -2.692975    0.889460    0.388838
     11          1           0       -1.098200   -0.692716    1.467835
     12          1           0        1.923810   -1.690345    1.013186
     13          1           0        1.649857   -1.659795   -0.960110
     14          1           0        2.181127   -0.795440    0.936532
     15          1           0        0.231411    1.239339   -1.510349
     16          1           0        1.197975    2.410644   -0.516486
     17          1           0        0.134841    1.425665    1.596060
 ---------------------------------------------------------------------

 SCF Done:  E(RHF) =  -309.178435804     A.U. after    2 cycles

 The electronic state is 1-A.
 Alpha  occ. eigenvalues --  -21.12378 -11.53260 -11.49649 -11.42399 -11.39999
 Alpha  occ. eigenvalues --  -11.38674 -11.33730  -1.85799  -1.31046  -1.16702
 Alpha  occ. eigenvalues --   -1.01087  -0.93663  -0.81104  -0.79832  -0.71784
 Alpha  occ. eigenvalues --   -0.66166  -0.65680  -0.57418  -0.56055  -0.54627
 Alpha  occ. eigenvalues --   -0.53931  -0.50111  -0.43639  -0.39812  -0.39366
 Alpha  occ. eigenvalues --   -0.35582  -0.26788
 Alpha virt. eigenvalues --    0.03696   0.04720   0.04932   0.05601   0.05674
 Alpha virt. eigenvalues --    0.05966   0.06186   0.07081   0.07720   0.09140
 Alpha virt. eigenvalues --    0.11293   0.11676   0.12308   0.12711   0.13680

 Mulliken charges:
               1
     1  C   -3.765344
     2  C   -0.595065
     3  O   -3.518393
     4  C    0.679204
     5  C   -0.691710
     6  C   -2.952350
     7  C   -0.768953
     8  H    1.184061
     9  H    1.319425
    10  H    1.268530
    11  H    1.689275
    12  H    0.028848
    13  H    1.520160
    14  H    0.613942
    15  H    1.241017
    16  H    1.352146
    17  H    1.395206
 Sum of Mulliken charges =   0.00000

 Dipole moment (field-independent basis, Debye):
    X=             -3.3113    Y=             -0.9598    Z=             -1.1357  Tot=              3.6298

 Test job not archived.
 1\1\GINC-SE108\SP\RHF\Aug-CC-pVDZ\C6H10O1\OHZDE\09-Apr-2025\0\\#t hf a
 ug-cc-pvdz iop(5/13=1,5/36=2,99/5=2) pseudo=read geom=check guess=(rea
 d,tcheck) scf=(maxcycle=1)\\title\\0,1\C,0,-2.04093342,-0.4826301,0.28
 430022\C,0,-0.82170883,-0.11184956,-0.52610519\O,0,-0.46830808,1.28993
 818,-0.20511041\C,0,0.8174652,1.37230645,-0.07718863\C,0,1.58019964,0.
 12034851,-0.00558257\C,0,1.04067026,-0.78163848,1.08746813\C,0,0.46128
 167,-0.87350882,-0.28515884\H,0,-2.87551905,0.185195,0.0683818\H,0,-1.
 82847329,-0.44885699,1.3528615\H,0,-2.33973534,-1.50006531,0.02836133\

 Normal termination of Gaussian 16 at Wed Apr  9 18:20:41 2025.
