 Gaussian 16, Revision C.01,

 ----------------------------------------------------------------------
 #t hf aug-cc-pvdz symm=none int=(grid=ultrafine) guess=(read,tcheck) s
 table=(opt,rrhf)
 ----------------------------------------------------------------------
 -----
 title
 -----
 Symbolic Z-matrix:
 Charge =  0 Multiplicity = 1

 SCF Done:  E(RHF) =  -338.617143987     A.U. after   17 cycles
 Normal termination of Gaussian 16 at Wed Apr  9 19:16:56 2025.
 Gaussian 16:  ES64L-G16RevC.01  3-Jul-2019

 ----------------------------------------------------------------------
 #t hf aug-cc-pvdz iop(5/13=1,5/36=2,99/5=2) pseudo=read geom=check gue
 ss=(read,tcheck) scf=(maxcycle=1)
 ----------------------------------------------------------------------
 -----
 title
 -----
 Structure from the checkpoint file:  "Grambow2020_wb97xd3_008548_reverse_mol2.chk"
 Charge =  0 Multiplicity = 1

                         Standard orientation:
 ---------------------------------------------------------------------
 Center     Atomic      Atomic             Coordinates (Angstroms)
 Number     Number       Type             X           Y           Z
 ---------------------------------------------------------------------
      1          6           0       -1.696316   -1.593712   -0.142141
      2          6           0       -0.839783   -0.377319    0.031527
      3          7           0       -1.626818    0.862750    0.015864
      4          8           0       -1.001858    1.876666   -0.070251
      5          6           0        1.718804   -0.186071    0.505476
      6          7           0        2.759934   -0.110137   -0.411743
      7          6           0        0.450172   -0.337284    0.235908
      8          1           0       -2.227508   -1.555689   -1.095706
      9          1           0       -1.092401   -2.498154   -0.110507
     10          1           0       -2.449320   -1.642151    0.647144
     11          1           0        3.550079    0.425763   -0.094597
     12          1           0        2.481075    0.142522   -1.346025
     13          1           0        2.023867   -0.187594    1.548242
 ---------------------------------------------------------------------

 SCF Done:  E(RHF) =  -340.157285313     A.U. after    2 cycles

 The electronic state is 1-A.
 Alpha  occ. eigenvalues --  -21.11233 -15.85129 -15.77475 -11.47347 -11.45001
 Alpha  occ. eigenvalues --  -11.40848 -11.38697  -1.85654  -1.38464  -1.24709
 Alpha  occ. eigenvalues --   -1.06211  -1.00829  -0.89353  -0.74254  -0.67192
 Alpha  occ. eigenvalues --   -0.63538  -0.61642  -0.59670  -0.58180  -0.53538
 Alpha  occ. eigenvalues --   -0.52032  -0.49529  -0.48534  -0.34150  -0.30848
 Alpha  occ. eigenvalues --   -0.26453
 Alpha virt. eigenvalues --    0.03234   0.04868   0.05044   0.06217   0.06554
 Alpha virt. eigenvalues --    0.06836   0.09709   0.10723   0.11099   0.11281
 Alpha virt. eigenvalues --    0.13065   0.13349   0.13666   0.14830   0.15280

 Mulliken charges:
               1
     1  C   -4.042471
     2  C    1.525466
     3  N    0.340791
     4  O   -2.264582
     5  C   -0.647809
     6  N   -2.851284
     7  C    1.809946
     8  H    1.134318
     9  H    1.314837
    10  H    1.093731
    11  H    0.602933
    12  H    0.644863
    13  H    1.339260
 Sum of Mulliken charges =   0.00000

 Dipole moment (field-independent basis, Debye):
    X=              2.7149    Y=             -0.0142    Z=             -0.1277  Tot=              2.7179

 Test job not archived.
 1\1\GINC-SE118\SP\RHF\Aug-CC-pVDZ\C4H6N2O1\OHZDE\09-Apr-2025\0\\#t hf
 aug-cc-pvdz iop(5/13=1,5/36=2,99/5=2) pseudo=read geom=check guess=(re
 ad,tcheck) scf=(maxcycle=1)\\title\\0,1\C,0,-2.20195586,-0.09818894,0.
 02513279\C,0,-0.82764001,0.04472686,-0.5530133\N,0,-0.8347614,-0.00643
 542,-2.020928\O,0,0.23260824,-0.11832392,-2.54458613\C,0,1.4463839,0.5
 1983736,0.63469792\N,0,2.35714923,-0.396449,1.14649134\C,0,0.28843741,
 0.25122992,0.09435582\H,0,-2.64318196,-1.05378027,-0.26652045\H,0,-2.1
 7120293,-0.04059585,1.11116563\H,0,-2.85568739,0.69020019,-0.3535615\H

 Normal termination of Gaussian 16 at Wed Apr  9 19:17:00 2025.
