 Gaussian 16, Revision C.01,

 ----------------------------------------------------------------------
 #t hf aug-cc-pvdz symm=none int=(grid=ultrafine) guess=(read,tcheck) s
 table=(opt,rrhf)
 ----------------------------------------------------------------------
 -----
 title
 -----
 Symbolic Z-matrix:
 Charge =  0 Multiplicity = 1

 SCF Done:  E(RHF) =  -324.907694714     A.U. after   16 cycles
 Normal termination of Gaussian 16 at Wed Apr  9 19:07:15 2025.
 Gaussian 16:  ES64L-G16RevC.01  3-Jul-2019

 ----------------------------------------------------------------------
 #t hf aug-cc-pvdz iop(5/13=1,5/36=2,99/5=2) pseudo=read geom=check gue
 ss=(read,tcheck) scf=(maxcycle=1)
 ----------------------------------------------------------------------
 -----
 title
 -----
 Structure from the checkpoint file:  "Grambow2020_wb97xd3_008110_forward_mol1.chk"
 Charge =  0 Multiplicity = 1

                         Standard orientation:
 ---------------------------------------------------------------------
 Center     Atomic      Atomic             Coordinates (Angstroms)
 Number     Number       Type             X           Y           Z
 ---------------------------------------------------------------------
      1          6           0       -2.374165   -0.327879    0.057752
      2          7           0       -1.112985    0.142447    0.576368
      3          6           0        0.151794   -0.525647    0.128060
      4          8           0        0.049723   -1.511059   -0.577936
      5          6           0        1.249706    0.251730    0.486367
      6          6           0        2.629053   -0.074203    0.016136
      7          6           0       -0.374254    1.677297   -0.581643
      8          1           0       -2.886532    0.473366   -0.490832
      9          1           0       -3.035653   -0.674942    0.852078
     10          1           0       -2.172539   -1.152530   -0.626710
     11          1           0       -1.113741    0.354612    1.563043
     12          1           0        1.135922    0.929894    1.324427
     13          1           0        2.590183   -0.852235   -0.746989
     14          1           0        3.276133   -0.430255    0.824688
     15          1           0        3.124131    0.801039   -0.420791
     16          1           0        0.492678    2.313598   -0.480209
     17          1           0       -0.407559    1.141163   -1.521587
     18          1           0       -1.302712    2.179841   -0.328237
 ---------------------------------------------------------------------

 SCF Done:  E(RHF) =  -326.476189581     A.U. after    2 cycles

 The electronic state is 1-A.
 Alpha  occ. eigenvalues --  -20.99289 -15.75781 -11.48928 -11.47827 -11.39509
 Alpha  occ. eigenvalues --  -11.37129 -11.32867  -1.67909  -1.38957  -1.14645
 Alpha  occ. eigenvalues --   -1.04717  -1.00246  -0.89459  -0.74901  -0.66676
 Alpha  occ. eigenvalues --   -0.66077  -0.62646  -0.59853  -0.58939  -0.54744
 Alpha  occ. eigenvalues --   -0.54316  -0.51120  -0.48190  -0.46680  -0.43496
 Alpha  occ. eigenvalues --   -0.35669  -0.26718  -0.20832
 Alpha virt. eigenvalues --    0.02645   0.03913   0.04644   0.05108   0.05549
 Alpha virt. eigenvalues --    0.05984   0.06636   0.07433   0.07968   0.08752
 Alpha virt. eigenvalues --    0.09078   0.09440   0.11467   0.12021   0.12918

 Mulliken charges:
               1
     1  C   -3.308901
     2  N   -2.533392
     3  C    5.361007
     4  O   -3.623019
     5  C   -1.741181
     6  C   -4.160348
     7  C   -4.060422
     8  H    1.402644
     9  H    1.317219
    10  H    1.369608
    11  H    0.672825
    12  H    1.712155
    13  H    1.165010
    14  H    1.149762
    15  H    1.166544
    16  H    1.256684
    17  H    1.541208
    18  H    1.312595
 Sum of Mulliken charges =   0.00000

 Dipole moment (field-independent basis, Debye):
    X=             -2.8853    Y=              2.8923    Z=              0.5772  Tot=              4.1259

 Test job not archived.
 1\1\GINC-SE231\SP\RHF\Aug-CC-pVDZ\C5H11N1O1\OHZDE\09-Apr-2025\0\\#t hf
  aug-cc-pvdz iop(5/13=1,5/36=2,99/5=2) pseudo=read geom=check guess=(r
 ead,tcheck) scf=(maxcycle=1)\\title\\0,1\C,0,2.23291061,0.99543182,0.0
 8978428\N,0,1.06557838,0.40942571,-0.5223256\C,0,0.34972541,-0.6980901
 9,0.19038553\O,0,0.85070656,-1.12800215,1.21218812\C,0,-0.89532594,-0.
 91006875,-0.39529388\C,0,-1.90208414,-1.83034645,0.21255039\C,0,-0.632
 43638,1.45384816,-0.00424906\H,0,2.07247189,2.06546962,0.27615903\H,0,
 3.11799312,0.88707549,-0.53779846\H,0,2.40479061,0.4922391,1.04185889\

 Normal termination of Gaussian 16 at Wed Apr  9 19:07:21 2025.
