 Gaussian 16, Revision C.01,

 ----------------------------------------------------------------------
 #t hf aug-cc-pvdz symm=none int=(grid=ultrafine) guess=(read,tcheck) s
 table=(opt,rrhf)
 ----------------------------------------------------------------------
 -----
 title
 -----
 Symbolic Z-matrix:
 Charge =  0 Multiplicity = 1

 SCF Done:  E(RHF) =  -323.922901507     A.U. after   15 cycles
 Normal termination of Gaussian 16 at Wed Apr  9 18:33:35 2025.
 Gaussian 16:  ES64L-G16RevC.01  3-Jul-2019

 ----------------------------------------------------------------------
 #t hf aug-cc-pvdz iop(5/13=1,5/36=2,99/5=2) pseudo=read geom=check gue
 ss=(read,tcheck) scf=(maxcycle=1)
 ----------------------------------------------------------------------
 -----
 title
 -----
 Structure from the checkpoint file:  "Grambow2020_wb97xd3_007254_reverse_mol2.chk"
 Charge =  0 Multiplicity = 1

                         Standard orientation:
 ---------------------------------------------------------------------
 Center     Atomic      Atomic             Coordinates (Angstroms)
 Number     Number       Type             X           Y           Z
 ---------------------------------------------------------------------
      1          6           0       -1.612528   -1.577268    0.037530
      2          6           0       -0.503881   -0.571516    0.064698
      3          6           0       -1.222816    1.785791   -0.404411
      4          6           0       -0.813535    0.777536    0.671235
      5          8           0        2.424299    0.158117    0.529298
      6          6           0        1.738223   -0.067132   -0.433470
      7          7           0        0.616002   -0.872779   -0.444128
      8          1           0       -1.320192   -2.460504   -0.525215
      9          1           0       -2.512986   -1.140680   -0.402174
     10          1           0       -1.866107   -1.866452    1.060785
     11          1           0       -1.470580    2.747023    0.046520
     12          1           0       -0.411488    1.950151   -1.116026
     13          1           0       -2.095025    1.442778   -0.964633
     14          1           0        0.063788    1.138718    1.208852
     15          1           0       -1.621049    0.663215    1.397329
     16          1           0        2.014456    0.285796   -1.444415
 ---------------------------------------------------------------------

 SCF Done:  E(RHF) =  -325.435489315     A.U. after    2 cycles

 The electronic state is 1-A.
 Alpha  occ. eigenvalues --  -21.04737 -15.73926 -11.48764 -11.47871 -11.42428
 Alpha  occ. eigenvalues --  -11.39739 -11.37631  -1.71112  -1.41469  -1.19201
 Alpha  occ. eigenvalues --   -1.09626  -0.94530  -0.89180  -0.74220  -0.66841
 Alpha  occ. eigenvalues --   -0.65851  -0.61447  -0.57092  -0.56583  -0.56047
 Alpha  occ. eigenvalues --   -0.51989  -0.51374  -0.49456  -0.46221  -0.39416
 Alpha  occ. eigenvalues --   -0.34690  -0.28799
 Alpha virt. eigenvalues --    0.03191   0.04689   0.05081   0.05617   0.05867
 Alpha virt. eigenvalues --    0.06186   0.07392   0.07700   0.08297   0.10694
 Alpha virt. eigenvalues --    0.11039   0.12203   0.12551   0.13399   0.13837

 Mulliken charges:
               1
     1  C   -4.579128
     2  C    3.500827
     3  C   -3.746466
     4  C   -3.290806
     5  O   -2.505081
     6  C    1.950049
     7  N   -3.656942
     8  H    1.347551
     9  H    1.304558
    10  H    1.200249
    11  H    1.172493
    12  H    1.401383
    13  H    1.348551
    14  H    1.350458
    15  H    1.525959
    16  H    1.676345
 Sum of Mulliken charges =   0.00000

 Dipole moment (field-independent basis, Debye):
    X=             -2.7627    Y=              0.8425    Z=              0.0930  Tot=              2.8898

 Test job not archived.
 1\1\GINC-SE103\SP\RHF\Aug-CC-pVDZ\C5H9N1O1\OHZDE\09-Apr-2025\0\\#t hf
 aug-cc-pvdz iop(5/13=1,5/36=2,99/5=2) pseudo=read geom=check guess=(re
 ad,tcheck) scf=(maxcycle=1)\\title\\0,1\C,0,0.88585678,1.66067748,0.77
 471746\C,0,-0.11253037,0.66998414,0.26176182\C,0,0.8785271,-1.49416368
 ,-0.53076242\C,0,0.12653604,-0.7840821,0.59679963\O,0,-2.99679312,-0.1
 7526211,-0.27586744\C,0,-2.10041235,0.28496264,-0.93393514\N,0,-1.0783
 621,1.07773629,-0.44866752\H,0,0.686728,2.65258367,0.37632136\H,0,1.90
 028214,1.35271825,0.50849503\H,0,0.83895985,1.69197494,1.86641423\H,0,

 Normal termination of Gaussian 16 at Wed Apr  9 18:33:40 2025.
