 Gaussian 16, Revision C.01,

 ----------------------------------------------------------------------
 #t hf aug-cc-pvdz symm=none int=(grid=ultrafine) guess=(read,tcheck) s
 table=(opt,rrhf)
 ----------------------------------------------------------------------
 -----
 title
 -----
 Symbolic Z-matrix:
 Charge =  0 Multiplicity = 1

 SCF Done:  E(RHF) =  -306.521695056     A.U. after   17 cycles
 Normal termination of Gaussian 16 at Wed Apr  9 03:51:47 2025.
 Gaussian 16:  ES64L-G16RevC.01  3-Jul-2019

 ----------------------------------------------------------------------
 #t hf aug-cc-pvdz iop(5/13=1,5/36=2,99/5=2) pseudo=read geom=check gue
 ss=(read,tcheck) scf=(maxcycle=1)
 ----------------------------------------------------------------------
 -----
 title
 -----
 Structure from the checkpoint file:  "Grambow2020_wb97xd3_008224_forward_mol1.chk"
 Charge =  0 Multiplicity = 1

                         Standard orientation:
 ---------------------------------------------------------------------
 Center     Atomic      Atomic             Coordinates (Angstroms)
 Number     Number       Type             X           Y           Z
 ---------------------------------------------------------------------
      1          6           0       -1.621632    0.806927   -0.414056
      2          8           0       -1.770420   -0.598617   -0.172603
      3          6           0       -0.572031   -0.590366    0.652672
      4          6           0        0.559350   -1.043068   -0.209044
      5          6           0        1.838611   -0.499635   -0.156652
      6          6           0        2.093583    0.840954   -0.072539
      7          6           0       -0.384181    0.848537    0.436574
      8          1           0       -1.557106    1.060836   -1.475699
      9          1           0       -2.454000    1.361379    0.038749
     10          1           0       -0.731581   -1.092500    1.611043
     11          1           0        0.339021   -1.897840   -0.847207
     12          1           0        2.679818   -1.194370   -0.203430
     13          1           0        3.037944    1.217034    0.311199
     14          1           0        1.473187    1.536289   -0.612597
     15          1           0       -0.106121    1.618017    1.137038
 ---------------------------------------------------------------------

 SCF Done:  E(RHF) =  -307.969413411     A.U. after    2 cycles

 The electronic state is 1-A.
 Alpha  occ. eigenvalues --  -21.03961 -11.49104 -11.46932 -11.43979 -11.41167
 Alpha  occ. eigenvalues --  -11.39639 -11.37649  -1.78048  -1.24446  -1.09116
 Alpha  occ. eigenvalues --   -1.03646  -0.92927  -0.79578  -0.75592  -0.70567
 Alpha  occ. eigenvalues --   -0.66442  -0.62549  -0.58005  -0.55374  -0.51086
 Alpha  occ. eigenvalues --   -0.49194  -0.44460  -0.37677  -0.35147  -0.29405
 Alpha  occ. eigenvalues --   -0.25274
 Alpha virt. eigenvalues --    0.03806   0.04674   0.05003   0.05362   0.06082
 Alpha virt. eigenvalues --    0.06336   0.06783   0.07052   0.08300   0.10088
 Alpha virt. eigenvalues --    0.11587   0.12304   0.12652   0.13939   0.14114

 Mulliken charges:
               1
     1  C   -1.717829
     2  O   -2.690222
     3  C   -0.618416
     4  C   -0.977886
     5  C    0.131393
     6  C   -3.393150
     7  C   -1.310328
     8  H    1.439896
     9  H    1.351260
    10  H    1.290628
    11  H    1.325083
    12  H    1.300449
    13  H    1.225374
    14  H    1.422046
    15  H    1.221703
 Sum of Mulliken charges =  -0.00000

 Dipole moment (field-independent basis, Debye):
    X=             -0.0182    Y=              0.2404    Z=              0.3778  Tot=              0.4481

 Test job not archived.
 1\1\GINC-SE060\SP\RHF\Aug-CC-pVDZ\C6H8O1\OHZDE\09-Apr-2025\0\\#t hf au
 g-cc-pvdz iop(5/13=1,5/36=2,99/5=2) pseudo=read geom=check guess=(read
 ,tcheck) scf=(maxcycle=1)\\title\\0,1\C,0,-1.61612544,-0.85988873,-0.7
 174087\O,0,-0.77506333,-1.93768007,-0.28500465\C,0,-0.11630758,-1.0519
 4879,0.66304771\C,0,1.14043736,-0.57154751,0.01704109\C,0,1.62455478,0
 .72704079,0.13481697\C,0,0.84024083,1.84323778,0.04416218\C,0,-0.95888
 075,0.07765943,0.25502228\H,0,-1.54938742,-0.66045711,-1.79048456\H,0,
 -2.66213913,-1.06355239,-0.45347502\H,0,-0.05395758,-1.4943684,1.66126

 Normal termination of Gaussian 16 at Wed Apr  9 03:51:52 2025.
