 Gaussian 16, Revision C.01,

 ----------------------------------------------------------------------
 #t hf aug-cc-pvdz symm=none int=(grid=ultrafine) guess=(read,tcheck) s
 table=(opt,rrhf)
 ----------------------------------------------------------------------
 -----
 title
 -----
 Symbolic Z-matrix:
 Charge =  0 Multiplicity = 1

 SCF Done:  E(RHF) =  -342.464776033     A.U. after   15 cycles
 Normal termination of Gaussian 16 at Wed Apr  9 19:30:07 2025.
 Gaussian 16:  ES64L-G16RevC.01  3-Jul-2019

 ----------------------------------------------------------------------
 #t hf aug-cc-pvdz iop(5/13=1,5/36=2,99/5=2) pseudo=read geom=check gue
 ss=(read,tcheck) scf=(maxcycle=1)
 ----------------------------------------------------------------------
 -----
 title
 -----
 Structure from the checkpoint file:  "Grambow2020_wb97xd3_009068_forward_mol1.chk"
 Charge =  0 Multiplicity = 1

                         Standard orientation:
 ---------------------------------------------------------------------
 Center     Atomic      Atomic             Coordinates (Angstroms)
 Number     Number       Type             X           Y           Z
 ---------------------------------------------------------------------
      1          8           0        2.366743   -0.476252   -0.173200
      2          6           0        1.227860   -0.150705   -0.011657
      3          6           0        0.696701    1.289030   -0.033668
      4          6           0       -0.803060    1.127883    0.103798
      5          6           0       -1.108130   -0.245407    0.102961
      6          8           0       -2.305420   -0.509227   -0.240641
      7          6           0        0.071083   -1.138491    0.240580
      8          1           0        1.031097    1.765302   -0.958440
      9          1           0        1.161737    1.839149    0.789016
     10          1           0       -2.072689    0.740546   -0.562858
     11          1           0       -1.360122    1.745769    0.803251
     12          1           0        0.093815   -1.988657   -0.438775
     13          1           0        0.148854   -1.512133    1.266447
 ---------------------------------------------------------------------

 SCF Done:  E(RHF) =  -344.016604900     A.U. after    2 cycles

 The electronic state is 1-A.
 Alpha  occ. eigenvalues --  -21.07810 -21.07181 -11.52885 -11.51990 -11.43927
 Alpha  occ. eigenvalues --  -11.43490 -11.37239  -1.77138  -1.72423  -1.30029
 Alpha  occ. eigenvalues --   -1.09685  -1.00036  -0.79195  -0.78569  -0.67901
 Alpha  occ. eigenvalues --   -0.65422  -0.61653  -0.58911  -0.56222  -0.52060
 Alpha  occ. eigenvalues --   -0.49985  -0.48505  -0.42606  -0.36151  -0.29750
 Alpha  occ. eigenvalues --   -0.28663
 Alpha virt. eigenvalues --    0.02818   0.04633   0.05748   0.06372   0.06502
 Alpha virt. eigenvalues --    0.06564   0.07992   0.09014   0.10255   0.11953
 Alpha virt. eigenvalues --    0.12612   0.13877   0.13975   0.14035   0.14884

 Mulliken charges:
               1
     1  O   -3.398483
     2  C    4.900996
     3  C   -4.100331
     4  C   -2.350401
     5  C    5.112093
     6  O   -3.293321
     7  C   -4.725668
     8  H    1.345961
     9  H    1.370776
    10  H    1.164834
    11  H    1.179068
    12  H    1.326456
    13  H    1.468019
 Sum of Mulliken charges =  -0.00000

 Dipole moment (field-independent basis, Debye):
    X=             -0.4483    Y=             -0.5841    Z=              0.7584  Tot=              1.0571

 Test job not archived.
 1\1\GINC-SE135\SP\RHF\Aug-CC-pVDZ\C5H6O2\OHZDE\09-Apr-2025\0\\#t hf au
 g-cc-pvdz iop(5/13=1,5/36=2,99/5=2) pseudo=read geom=check guess=(read
 ,tcheck) scf=(maxcycle=1)\\title\\0,1\O,0,0.64038651,-2.35929282,-0.66
 476344\C,0,0.32968489,-1.23593624,-0.398933\C,0,-1.10547532,-0.7232314
 7,-0.21755121\C,0,-0.92741157,0.7166448,0.21741657\C,0,0.44773849,0.97
 280852,0.36687551\O,0,0.71096531,1.95106735,1.13816539\C,0,1.33459877,
 -0.08773002,-0.17701402\H,0,-1.61296109,-1.36825993,0.50373682\H,0,-1.
 63380545,-0.83817893,-1.16799981\H,0,-0.5501136,1.63949592,1.3185116\H

 Normal termination of Gaussian 16 at Wed Apr  9 19:30:10 2025.
