 Gaussian 16, Revision C.01,

 ----------------------------------------------------------------------
 #t hf aug-cc-pvdz symm=none int=(grid=ultrafine) guess=(read,tcheck) s
 table=(opt,rrhf)
 ----------------------------------------------------------------------
 -----
 title
 -----
 Symbolic Z-matrix:
 Charge =  0 Multiplicity = 1

 SCF Done:  E(RHF) =  -273.229584187     A.U. after   12 cycles
 Normal termination of Gaussian 16 at Wed Apr  9 18:56:16 2025.
 Gaussian 16:  ES64L-G16RevC.01  3-Jul-2019

 ----------------------------------------------------------------------
 #t hf aug-cc-pvdz iop(5/13=1,5/36=2,99/5=2) pseudo=read geom=check gue
 ss=(read,tcheck) scf=(maxcycle=1)
 ----------------------------------------------------------------------
 -----
 title
 -----
 Structure from the checkpoint file:  "Grambow2020_wb97xd3_007783_reverse_mol2.chk"
 Charge =  0 Multiplicity = 1

                         Standard orientation:
 ---------------------------------------------------------------------
 Center     Atomic      Atomic             Coordinates (Angstroms)
 Number     Number       Type             X           Y           Z
 ---------------------------------------------------------------------
      1          6           0       -1.923378   -0.287640    1.069831
      2          6           0       -0.929749   -0.067443   -0.047182
      3          6           0       -0.831190   -1.231138   -1.005884
      4          6           0        2.390163   -0.617551    0.514019
      5          6           0        0.287766    0.759334    0.275311
      6          6           0       -0.800774    1.328121   -0.592543
      7          6           0        1.663213    0.467485   -0.272600
      8          1           0       -1.972878    0.577984    1.733260
      9          1           0       -2.927421   -0.464349    0.673774
     10          1           0       -1.645498   -1.156028    1.673815
     11          1           0       -0.529718   -2.144212   -0.484868
     12          1           0       -1.801652   -1.423202   -1.471195
     13          1           0       -0.114605   -1.050511   -1.807172
     14          1           0        2.482164   -0.341976    1.567456
     15          1           0        1.847559   -1.564229    0.467332
     16          1           0        3.396106   -0.787767    0.125380
     17          1           0        0.307870    1.137045    1.294661
     18          1           0       -0.583783    1.436435   -1.649376
     19          1           0       -1.440637    2.103206   -0.188817
     20          1           0        2.249899    1.391575   -0.255050
     21          1           0        1.596293    0.179029   -1.324914
 ---------------------------------------------------------------------

 SCF Done:  E(RHF) =  -274.654459805     A.U. after    2 cycles

 The electronic state is 1-A.
 Alpha  occ. eigenvalues --  -11.43358 -11.41899 -11.39992 -11.38324 -11.37402
 Alpha  occ. eigenvalues --  -11.35921 -11.34142  -1.35544  -1.14971  -1.05301
 Alpha  occ. eigenvalues --   -1.00400  -0.90944  -0.82270  -0.75184  -0.65355
 Alpha  occ. eigenvalues --   -0.61847  -0.59772  -0.58027  -0.56401  -0.53331
 Alpha  occ. eigenvalues --   -0.52573  -0.51275  -0.49287  -0.47560  -0.45544
 Alpha  occ. eigenvalues --   -0.42413  -0.35698  -0.34385
 Alpha virt. eigenvalues --    0.04179   0.05063   0.05129   0.05306   0.05610
 Alpha virt. eigenvalues --    0.05741   0.06081   0.06457   0.06643   0.08312
 Alpha virt. eigenvalues --    0.08741   0.08983   0.09414   0.09783   0.11511

 Mulliken charges:
               1
     1  C   -5.321095
     2  C    2.930640
     3  C   -4.808776
     4  C   -3.835846
     5  C    1.131404
     6  C   -3.875065
     7  C   -4.505092
     8  H    1.267649
     9  H    1.195130
    10  H    1.299967
    11  H    1.354156
    12  H    1.021820
    13  H    1.434358
    14  H    1.290915
    15  H    1.495493
    16  H    1.100276
    17  H    1.431366
    18  H    1.456018
    19  H    1.265269
    20  H    1.180483
    21  H    1.490930
 Sum of Mulliken charges =  -0.00000

 Dipole moment (field-independent basis, Debye):
    X=              0.0643    Y=              0.0712    Z=             -0.0585  Tot=              0.1124

 Test job not archived.
 1\1\GINC-SE035\SP\RHF\Aug-CC-pVDZ\C7H14\OHZDE\09-Apr-2025\0\\#t hf aug
 -cc-pvdz iop(5/13=1,5/36=2,99/5=2) pseudo=read geom=check guess=(read,
 tcheck) scf=(maxcycle=1)\\title\\0,1\C,0,-0.24551495,2.2023991,0.22310
 316\C,0,0.08173323,0.86673535,-0.40332546\C,0,-0.927566,0.42020508,-1.
 43528271\C,0,-0.7421778,-2.01184153,1.23201846\C,0,0.77685122,-0.14499
 67,0.47023853\C,0,1.53356399,0.54666734,-0.63003193\C,0,0.49029342,-1.
 62579801,0.42176353\H,0,0.51136111,2.49406907,0.95382941\H,0,-0.300685
 98,2.98911802,-0.53466912\H,0,-1.21006575,2.1664408,0.73736014\H,0,-1.

 Normal termination of Gaussian 16 at Wed Apr  9 18:56:25 2025.
