 Gaussian 16, Revision C.01,

 ----------------------------------------------------------------------
 #t hf aug-cc-pvdz symm=none int=(grid=ultrafine) guess=(read,tcheck) s
 table=(opt,rrhf)
 ----------------------------------------------------------------------
 -----
 title
 -----
 Symbolic Z-matrix:
 Charge =  0 Multiplicity = 1

 SCF Done:  E(RHF) =  -302.714695795     A.U. after   19 cycles
 Normal termination of Gaussian 16 at Wed Apr  9 19:22:16 2025.
 Gaussian 16:  ES64L-G16RevC.01  3-Jul-2019

 ----------------------------------------------------------------------
 #t hf aug-cc-pvdz iop(5/13=1,5/36=2,99/5=2) pseudo=read geom=check gue
 ss=(read,tcheck) scf=(maxcycle=1)
 ----------------------------------------------------------------------
 -----
 title
 -----
 Structure from the checkpoint file:  "Grambow2020_wb97xd3_008840_reverse_mol1.chk"
 Charge =  0 Multiplicity = 1

                         Standard orientation:
 ---------------------------------------------------------------------
 Center     Atomic      Atomic             Coordinates (Angstroms)
 Number     Number       Type             X           Y           Z
 ---------------------------------------------------------------------
      1          6           0       -0.326613    1.559053   -0.152359
      2          6           0       -0.582949    0.073805   -0.112219
      3          6           0        0.527802   -0.768633   -0.561201
      4          6           0        1.846965   -0.532765   -0.082402
      5          7           0        2.577185    0.344365    0.366839
      6          6           0       -1.543733   -0.467174    0.902537
      7          7           0       -1.898877   -0.454297   -0.500144
      8          1           0        0.599704    1.807289    0.374006
      9          1           0       -0.218848    1.901595   -1.182707
     10          1           0       -1.142548    2.109614    0.318479
     11          1           0        0.290745   -1.758828   -0.930765
     12          1           0        2.084221   -1.605291    0.197286
     13          1           0       -1.992377    0.261155    1.570137
     14          1           0       -1.375074   -1.447789    1.330544
     15          1           0       -2.522811    0.316063   -0.709984
 ---------------------------------------------------------------------

 SCF Done:  E(RHF) =  -304.128957425     A.U. after    2 cycles

 The electronic state is 1-A.
 Alpha  occ. eigenvalues --  -15.75840 -15.74241 -11.51184 -11.47510 -11.43013
 Alpha  occ. eigenvalues --  -11.41411 -11.38996  -1.49979  -1.31058  -1.13257
 Alpha  occ. eigenvalues --   -1.05124  -0.95134  -0.86919  -0.73588  -0.70173
 Alpha  occ. eigenvalues --   -0.66873  -0.60818  -0.58333  -0.56013  -0.51295
 Alpha  occ. eigenvalues --   -0.50030  -0.47213  -0.46073  -0.41135  -0.37508
 Alpha  occ. eigenvalues --   -0.26707
 Alpha virt. eigenvalues --    0.01458   0.04003   0.05129   0.05343   0.05783
 Alpha virt. eigenvalues --    0.06009   0.06297   0.06936   0.08267   0.09851
 Alpha virt. eigenvalues --    0.11059   0.11989   0.13270   0.13556   0.14405

 Mulliken charges:
               1
     1  C   -4.592608
     2  C    2.882312
     3  C   -1.881713
     4  C    1.079482
     5  N   -2.555118
     6  C   -2.445781
     7  N   -2.411646
     8  H    1.282460
     9  H    1.220350
    10  H    1.176619
    11  H    1.473147
    12  H    1.316369
    13  H    1.394001
    14  H    1.470718
    15  H    0.591409
 Sum of Mulliken charges =   0.00000

 Dipole moment (field-independent basis, Debye):
    X=             -3.6851    Y=             -0.4355    Z=             -0.0906  Tot=              3.7119

 Test job not archived.
 1\1\GINC-SE114\SP\RHF\Aug-CC-pVDZ\C5H8N2\OHZDE\09-Apr-2025\0\\#t hf au
 g-cc-pvdz iop(5/13=1,5/36=2,99/5=2) pseudo=read geom=check guess=(read
 ,tcheck) scf=(maxcycle=1)\\title\\0,1\C,0,-0.90605924,1.18522577,0.124
 57719\C,0,-0.28232178,-0.15470498,-0.17344825\C,0,1.06761043,-0.108237
 77,-0.73964441\C,0,2.06283168,0.72463754,-0.15575501\N,0,2.21102867,1.
 7440358,0.51002316\C,0,-0.68681654,-1.33988516,0.64948924\N,0,-1.10366
 071,-1.23820889,-0.73243411\H,0,-0.23762777,1.79655429,0.73794598\H,0,
 -1.09489823,1.73400467,-0.79940634\H,0,-1.84770758,1.06720048,0.663023

 Normal termination of Gaussian 16 at Wed Apr  9 19:22:20 2025.
