 Gaussian 16, Revision C.01,

 ----------------------------------------------------------------------
 #t hf aug-cc-pvdz symm=none int=(grid=ultrafine) guess=(read,tcheck) s
 table=(opt,rrhf)
 ----------------------------------------------------------------------
 -----
 title
 -----
 Symbolic Z-matrix:
 Charge =  0 Multiplicity = 1

 SCF Done:  E(RHF) =  -317.583117429     A.U. after   17 cycles
 Normal termination of Gaussian 16 at Wed Apr  9 19:04:38 2025.
 Gaussian 16:  ES64L-G16RevC.01  3-Jul-2019

 ----------------------------------------------------------------------
 #t hf aug-cc-pvdz iop(5/13=1,5/36=2,99/5=2) pseudo=read geom=check gue
 ss=(read,tcheck) scf=(maxcycle=1)
 ----------------------------------------------------------------------
 -----
 title
 -----
 Structure from the checkpoint file:  "Grambow2020_wb97xd3_008052_forward_mol1.chk"
 Charge =  0 Multiplicity = 1

                         Standard orientation:
 ---------------------------------------------------------------------
 Center     Atomic      Atomic             Coordinates (Angstroms)
 Number     Number       Type             X           Y           Z
 ---------------------------------------------------------------------
      1          7           0        2.375961   -0.594015   -0.542268
      2          6           0        1.541203    0.008489   -0.029657
      3          6           0        0.620929    0.900574    0.583935
      4          6           0       -0.651261    1.282657    0.033553
      5          7           0       -1.514905    0.457764   -0.606179
      6          6           0       -1.431045   -0.823700   -0.195533
      7          7           0       -0.515052   -1.304985    0.577727
      8          1           0        1.051698    1.537328    1.353320
      9          1           0       -1.090721    2.173688    0.489521
     10          1           0        0.182935    1.802834   -0.648114
     11          1           0       -2.271610   -1.434558   -0.533326
     12          1           0       -0.773279   -2.198760    0.979857
 ---------------------------------------------------------------------

 SCF Done:  E(RHF) =  -319.044763512     A.U. after    2 cycles

 The electronic state is 1-A.
 Alpha  occ. eigenvalues --  -15.79270 -15.70811 -15.69900 -11.57316 -11.48133
 Alpha  occ. eigenvalues --  -11.46556 -11.42621  -1.46280  -1.34049  -1.26736
 Alpha  occ. eigenvalues --   -1.17382  -0.96527  -0.81878  -0.74887  -0.71028
 Alpha  occ. eigenvalues --   -0.66080  -0.60730  -0.56543  -0.54407  -0.52300
 Alpha  occ. eigenvalues --   -0.47695  -0.43733  -0.38050  -0.36248  -0.28992
 Alpha virt. eigenvalues --    0.02267   0.02798   0.04798   0.05314   0.06117
 Alpha virt. eigenvalues --    0.06831   0.09185   0.09577   0.10809   0.11503
 Alpha virt. eigenvalues --    0.12071   0.12778   0.13169   0.13551   0.14470

 Mulliken charges:
               1
     1  N   -2.622866
     2  C    2.533388
     3  C   -1.268953
     4  C   -0.863322
     5  N   -3.104915
     6  C    1.392570
     7  N   -2.395452
     8  H    1.406279
     9  H    1.396040
    10  H    1.211298
    11  H    1.557803
    12  H    0.758130
 Sum of Mulliken charges =   0.00000

 Dipole moment (field-independent basis, Debye):
    X=             -0.0195    Y=              2.3923    Z=              2.4152  Tot=              3.3995

 Test job not archived.
 1\1\GINC-SE168\SP\RHF\Aug-CC-pVDZ\C4H5N3\OHZDE\09-Apr-2025\0\\#t hf au
 g-cc-pvdz iop(5/13=1,5/36=2,99/5=2) pseudo=read geom=check guess=(read
 ,tcheck) scf=(maxcycle=1)\\title\\0,1\N,0,2.31197142,-0.71669135,1.347
 99864\C,0,1.57790805,-0.63071097,0.46688575\C,0,0.72973193,-0.69363425
 ,-0.67147002\C,0,-0.70560228,-0.76714293,-0.62918144\N,0,-1.50671785,-
 0.08333357,0.22299585\C,0,-0.98248021,1.09436627,0.61797815\N,0,0.2272
 6583,1.48896019,0.39567225\H,0,1.22572198,-1.00042306,-1.58953601\H,0,
 -1.16858158,-1.08878297,-1.56575365\H,0,-0.30050604,-1.82279129,-0.238

 Normal termination of Gaussian 16 at Wed Apr  9 19:04:43 2025.
