 Gaussian 16, Revision C.01,

 ----------------------------------------------------------------------
 #t hf aug-cc-pvdz symm=none int=(grid=ultrafine) guess=(read,tcheck) s
 table=(opt,rrhf)
 ----------------------------------------------------------------------
 -----
 title
 -----
 Symbolic Z-matrix:
 Charge =  0 Multiplicity = 1

 SCF Done:  E(RHF) =  -306.601908036     A.U. after   16 cycles
 Normal termination of Gaussian 16 at Wed Apr  9 03:51:46 2025.
 Gaussian 16:  ES64L-G16RevC.01  3-Jul-2019

 ----------------------------------------------------------------------
 #t hf aug-cc-pvdz iop(5/13=1,5/36=2,99/5=2) pseudo=read geom=check gue
 ss=(read,tcheck) scf=(maxcycle=1)
 ----------------------------------------------------------------------
 -----
 title
 -----
 Structure from the checkpoint file:  "Grambow2020_wb97xd3_008221_reverse_mol2.chk"
 Charge =  0 Multiplicity = 1

                         Standard orientation:
 ---------------------------------------------------------------------
 Center     Atomic      Atomic             Coordinates (Angstroms)
 Number     Number       Type             X           Y           Z
 ---------------------------------------------------------------------
      1          6           0        1.298236   -0.596541   -0.312989
      2          8           0        2.432633    0.230767   -0.217008
      3          6           0       -0.421934    1.178441    0.451845
      4          6           0       -1.464091    1.104123   -0.402669
      5          6           0       -1.795609   -0.190041   -0.610363
      6          6           0       -1.099518   -1.072518    0.395450
      7          6           0        0.189199   -0.194946    0.657609
      8          1           0        0.888621   -0.599648   -1.333049
      9          1           0        1.640655   -1.608368   -0.087408
     10          1           0       -0.172440    2.022995    1.086062
     11          1           0        2.194024    1.109681   -0.520490
     12          1           0       -2.301643   -0.587544   -1.483995
     13          1           0       -1.641413   -1.210747    1.334809
     14          1           0       -0.891422   -2.068376   -0.008149
     15          1           0        0.584854   -0.275238    1.674988
 ---------------------------------------------------------------------

 SCF Done:  E(RHF) =  -308.048595431     A.U. after    2 cycles

 The electronic state is 1-A.
 Alpha  occ. eigenvalues --  -21.07687 -11.46063 -11.45239 -11.44078 -11.42269
 Alpha  occ. eigenvalues --  -11.38958 -11.34818  -1.72316  -1.36151  -1.07986
 Alpha  occ. eigenvalues --   -1.03307  -0.93716  -0.81638  -0.74763  -0.69671
 Alpha  occ. eigenvalues --   -0.63866  -0.60876  -0.58122  -0.54015  -0.51578
 Alpha  occ. eigenvalues --   -0.48520  -0.47488  -0.40955  -0.37373  -0.32912
 Alpha  occ. eigenvalues --   -0.28605
 Alpha virt. eigenvalues --    0.03370   0.03998   0.04881   0.05333   0.05672
 Alpha virt. eigenvalues --    0.05947   0.06499   0.06962   0.07300   0.09563
 Alpha virt. eigenvalues --    0.12447   0.12738   0.13050   0.13857   0.14218

 Mulliken charges:
               1
     1  C   -0.762280
     2  O   -2.700014
     3  C   -0.048169
     4  C   -1.326835
     5  C   -0.266535
     6  C   -3.585644
     7  C   -2.289075
     8  H    1.573748
     9  H    1.320131
    10  H    1.524474
    11  H    0.752687
    12  H    1.517241
    13  H    1.272773
    14  H    1.486781
    15  H    1.530718
 Sum of Mulliken charges =  -0.00000

 Dipole moment (field-independent basis, Debye):
    X=              0.8653    Y=             -2.4574    Z=              1.1500  Tot=              2.8478

 Test job not archived.
 1\1\GINC-SE220\SP\RHF\Aug-CC-pVDZ\C6H8O1\OHZDE\09-Apr-2025\0\\#t hf au
 g-cc-pvdz iop(5/13=1,5/36=2,99/5=2) pseudo=read geom=check guess=(read
 ,tcheck) scf=(maxcycle=1)\\title\\0,1\C,0,-0.97242083,-0.66870326,-0.8
 6162529\O,0,-1.48382777,-1.95756749,-0.6212082\C,0,0.63527008,-0.61090
 086,1.16482606\C,0,1.81446492,-0.13452316,0.712753\C,0,1.60163435,0.94
 008947,-0.07959297\C,0,0.17477829,1.41019593,0.05476701\C,0,-0.5153753
 6,0.03418503,0.41522976\H,0,-0.13098301,-0.69593601,-1.56841827\H,0,-1
 .78180223,-0.10313661,-1.32742389\H,0,0.4829967,-1.19066049,2.06950401

 Normal termination of Gaussian 16 at Wed Apr  9 03:51:52 2025.
