 Gaussian 16, Revision C.01,

 ----------------------------------------------------------------------
 #t hf aug-cc-pvdz symm=none int=(grid=ultrafine) guess=(read,tcheck) s
 table=(opt,rrhf)
 ----------------------------------------------------------------------
 -----
 title
 -----
 Symbolic Z-matrix:
 Charge =  0 Multiplicity = 1

 SCF Done:  E(RHF) =  -336.291466982     A.U. after   16 cycles
 Normal termination of Gaussian 16 at Wed Apr  9 03:46:12 2025.
 Gaussian 16:  ES64L-G16RevC.01  3-Jul-2019

 ----------------------------------------------------------------------
 #t hf aug-cc-pvdz iop(5/13=1,5/36=2,99/5=2) pseudo=read geom=check gue
 ss=(read,tcheck) scf=(maxcycle=1)
 ----------------------------------------------------------------------
 -----
 title
 -----
 Structure from the checkpoint file:  "Grambow2020_wb97xd3_007923_forward_mol1.chk"
 Charge =  0 Multiplicity = 1

                         Standard orientation:
 ---------------------------------------------------------------------
 Center     Atomic      Atomic             Coordinates (Angstroms)
 Number     Number       Type             X           Y           Z
 ---------------------------------------------------------------------
      1          7           0        1.098980    1.352497    0.002250
      2          6           0        1.128541    0.007803   -0.000003
      3          8           0        2.110552   -0.685255   -0.003641
      4          6           0       -0.222222   -0.648448    0.001553
      5          6           0       -1.043512   -1.638229    0.003497
      6          6           0       -1.561247    0.013638   -0.000560
      7          7           0       -2.371585    0.841593   -0.003414
      8          1           0        0.239161    1.870658    0.008188
      9          1           0        1.975300    1.844166    0.002168
 ---------------------------------------------------------------------

 SCF Done:  E(RHF) =  -337.747651799     A.U. after    2 cycles

 The electronic state is 1-A.
 Alpha  occ. eigenvalues --  -21.07523 -15.82479 -15.81800 -11.58220 -11.51786
 Alpha  occ. eigenvalues --  -11.49281 -11.48608  -1.76003  -1.42562  -1.37602
 Alpha  occ. eigenvalues --   -1.24833  -0.96174  -0.79011  -0.74531  -0.70030
 Alpha  occ. eigenvalues --   -0.62235  -0.59337  -0.54953  -0.54072  -0.52445
 Alpha  occ. eigenvalues --   -0.45807  -0.40917  -0.36161  -0.34026
 Alpha virt. eigenvalues --    0.03007   0.04275   0.05851   0.07992   0.08288
 Alpha virt. eigenvalues --    0.09273   0.10321   0.10839   0.11044   0.12581
 Alpha virt. eigenvalues --    0.12639   0.14014   0.14163   0.15227   0.16103

 Mulliken charges:
               1
     1  N   -2.886404
     2  C    4.937522
     3  O   -3.167952
     4  C    1.817551
     5  C   -2.311186
     6  C    2.793288
     7  N   -2.655852
     8  H    0.696477
     9  H    0.776556
 Sum of Mulliken charges =  -0.00000

 Dipole moment (field-independent basis, Debye):
    X=              2.2861    Y=              2.5107    Z=              0.0118  Tot=              3.3955

 Test job not archived.
 1\1\GINC-SE082\SP\RHF\Aug-CC-pVDZ\C4H2N2O1\OHZDE\09-Apr-2025\0\\#t hf
 aug-cc-pvdz iop(5/13=1,5/36=2,99/5=2) pseudo=read geom=check guess=(re
 ad,tcheck) scf=(maxcycle=1)\\title\\0,1\N,0,-1.27327433,0.52470191,0.8
 4211384\C,0,-0.77332832,-0.67487761,0.4954959\O,0,-1.40165061,-1.67926
 961,0.29277395\C,0,0.72184597,-0.71526633,0.36114627\C,0,1.8623312,-1.
 26116655,0.12561444\C,0,1.69001348,0.40271725,0.57117985\N,0,2.1086318
 5,1.45614305,0.81038046\H,0,-0.6886139,1.32652141,0.99400956\H,0,-2.26
 918335,0.60933549,0.94543772\\Version=ES64L-G16RevC.01\State=1-A\HF=-3

 Normal termination of Gaussian 16 at Wed Apr  9 03:46:15 2025.
