 Gaussian 16, Revision C.01,

 ----------------------------------------------------------------------
 #t hf aug-cc-pvdz symm=none int=(grid=ultrafine) guess=(read,tcheck) s
 table=(opt,rrhf)
 ----------------------------------------------------------------------
 -----
 title
 -----
 Symbolic Z-matrix:
 Charge =  0 Multiplicity = 1

 SCF Done:  E(RHF) =  -264.972326227     A.U. after   15 cycles
 Normal termination of Gaussian 16 at Wed Apr  9 03:08:56 2025.
 Gaussian 16:  ES64L-G16RevC.01  3-Jul-2019

 ----------------------------------------------------------------------
 #t hf aug-cc-pvdz iop(5/13=1,5/36=2,99/5=2) pseudo=read geom=check gue
 ss=(read,tcheck) scf=(maxcycle=1)
 ----------------------------------------------------------------------
 -----
 title
 -----
 Structure from the checkpoint file:  "Grambow2020_b97d3_006626_forward_mol1.chk"
 Charge =  0 Multiplicity = 1

                         Standard orientation:
 ---------------------------------------------------------------------
 Center     Atomic      Atomic             Coordinates (Angstroms)
 Number     Number       Type             X           Y           Z
 ---------------------------------------------------------------------
      1          6           0       -2.083560    0.157363    0.163852
      2          6           0       -0.930093   -0.719640   -0.324903
      3          6           0        0.387219   -0.497778    0.394216
      4          7           0        1.426243   -1.271225   -0.020709
      5          6           0        0.991587    1.536937    0.506815
      6          7           0        0.677828    1.460822   -0.645332
      7          1           0       -1.846024    1.215168    0.017197
      8          1           0       -2.283543   -0.015826    1.230896
      9          1           0       -2.999088   -0.081988   -0.393202
     10          1           0       -1.174835   -1.783112   -0.146830
     11          1           0       -0.783942   -0.605127   -1.406481
     12          1           0        0.312309   -0.416327    1.475347
     13          1           0        1.549315   -1.340432   -1.029120
     14          1           0        2.306393   -1.160825    0.474604
 ---------------------------------------------------------------------

 SCF Done:  E(RHF) =  -266.260481545     A.U. after    2 cycles

 The electronic state is 1-A.
 Alpha  occ. eigenvalues --  -15.80487 -15.71858 -11.53337 -11.42815 -11.37667
 Alpha  occ. eigenvalues --  -11.34282  -1.42977  -1.26044  -1.18055  -0.98128
 Alpha  occ. eigenvalues --   -0.87345  -0.73019  -0.66407  -0.64983  -0.60364
 Alpha  occ. eigenvalues --   -0.56295  -0.54694  -0.50429  -0.49518  -0.48235
 Alpha  occ. eigenvalues --   -0.40439  -0.38781  -0.37138
 Alpha virt. eigenvalues --    0.03636   0.04548   0.04991   0.05514   0.05654
 Alpha virt. eigenvalues --    0.06055   0.08153   0.08639   0.09642   0.11401
 Alpha virt. eigenvalues --    0.12100   0.12775   0.13496   0.14262   0.14722

 Mulliken charges:
               1
     1  C   -3.537256
     2  C   -3.302089
     3  C    1.342804
     4  N   -3.354453
     5  C    0.107780
     6  N   -1.026677
     7  H    1.394226
     8  H    1.211609
     9  H    1.109338
    10  H    1.278126
    11  H    1.422499
    12  H    1.969911
    13  H    0.661754
    14  H    0.722429
 Sum of Mulliken charges =   0.00000

 Dipole moment (field-independent basis, Debye):
    X=             -0.4871    Y=             -4.9085    Z=             -0.3714  Tot=              4.9466

 Test job not archived.
 1\1\GINC-SE023\SP\RHF\Aug-CC-pVDZ\C4H8N2\OHZDE\09-Apr-2025\0\\#t hf au
 g-cc-pvdz iop(5/13=1,5/36=2,99/5=2) pseudo=read geom=check guess=(read
 ,tcheck) scf=(maxcycle=1)\\title\\0,1\C,0,-1.81059536,0.17325724,0.087
 76945\C,0,-0.53709676,-0.5874422,-0.28376759\C,0,0.7228361,-0.0923443,
 0.40115044\N,0,1.86720556,-0.75810103,0.08947427\C,0,1.03474886,2.0048
 4503,0.25111129\N,0,0.7559434,1.73913832,-0.88173809\H,0,-1.72056219,1
 .22659898,-0.19373858\H,0,-2.00399715,0.11094706,1.16817872\H,0,-2.673
 29059,-0.26173594,-0.43407913\H,0,-0.6340489,-1.64336192,0.02962521\H,

 Normal termination of Gaussian 16 at Wed Apr  9 03:09:00 2025.
