 Gaussian 16, Revision C.01,

 ----------------------------------------------------------------------
 #t hf aug-cc-pvdz symm=none int=(grid=ultrafine) guess=(read,tcheck) s
 table=(opt,rrhf)
 ----------------------------------------------------------------------
 -----
 title
 -----
 Symbolic Z-matrix:
 Charge =  0 Multiplicity = 1

 SCF Done:  E(RHF) =  -338.598435039     A.U. after   17 cycles
 Normal termination of Gaussian 16 at Wed Apr  9 19:16:57 2025.
 Gaussian 16:  ES64L-G16RevC.01  3-Jul-2019

 ----------------------------------------------------------------------
 #t hf aug-cc-pvdz iop(5/13=1,5/36=2,99/5=2) pseudo=read geom=check gue
 ss=(read,tcheck) scf=(maxcycle=1)
 ----------------------------------------------------------------------
 -----
 title
 -----
 Structure from the checkpoint file:  "Grambow2020_wb97xd3_008547_reverse_mol2.chk"
 Charge =  0 Multiplicity = 1

                         Standard orientation:
 ---------------------------------------------------------------------
 Center     Atomic      Atomic             Coordinates (Angstroms)
 Number     Number       Type             X           Y           Z
 ---------------------------------------------------------------------
      1          6           0       -1.119756   -1.605369   -0.474748
      2          6           0       -0.452596   -0.375462    0.098657
      3          7           0       -1.331183    0.808250   -0.086916
      4          8           0       -0.752306    1.852800   -0.106114
      5          6           0        1.007859   -0.147464    0.181392
      6          7           0        2.102717    0.021229   -0.594292
      7          6           0        0.424731   -0.386456    1.310816
      8          1           0       -1.324992   -1.488963   -1.541208
      9          1           0       -0.478927   -2.476244   -0.340070
     10          1           0       -2.071622   -1.791999    0.025749
     11          1           0        2.949243    0.291146   -0.122547
     12          1           0        1.951850    0.488729   -1.470972
     13          1           0        0.430728   -0.562912    2.369710
 ---------------------------------------------------------------------

 SCF Done:  E(RHF) =  -340.139565848     A.U. after    2 cycles

 The electronic state is 1-A.
 Alpha  occ. eigenvalues --  -21.10687 -15.83858 -15.78997 -11.49301 -11.45522
 Alpha  occ. eigenvalues --  -11.40900 -11.37742  -1.85293  -1.41757  -1.28003
 Alpha  occ. eigenvalues --   -1.08639  -0.99759  -0.81073  -0.76748  -0.69529
 Alpha  occ. eigenvalues --   -0.65908  -0.63773  -0.59055  -0.57137  -0.52054
 Alpha  occ. eigenvalues --   -0.50773  -0.47544  -0.44643  -0.37446  -0.31461
 Alpha  occ. eigenvalues --   -0.25327
 Alpha virt. eigenvalues --    0.03207   0.04878   0.05503   0.05788   0.06558
 Alpha virt. eigenvalues --    0.06729   0.10487   0.10902   0.11472   0.12296
 Alpha virt. eigenvalues --    0.12759   0.14181   0.14481   0.14832   0.15096

 Mulliken charges:
               1
     1  C   -4.107425
     2  C    0.606327
     3  N    0.512290
     4  O   -2.185175
     5  C    3.831938
     6  N   -3.657315
     7  C   -0.934327
     8  H    1.199551
     9  H    1.246395
    10  H    1.160016
    11  H    0.700779
    12  H    0.726522
    13  H    0.900422
 Sum of Mulliken charges =   0.00000

 Dipole moment (field-independent basis, Debye):
    X=              2.8651    Y=             -0.1690    Z=             -0.2618  Tot=              2.8820

 Test job not archived.
 1\1\GINC-SE114\SP\RHF\Aug-CC-pVDZ\C4H6N2O1\OHZDE\09-Apr-2025\0\\#t hf
 aug-cc-pvdz iop(5/13=1,5/36=2,99/5=2) pseudo=read geom=check guess=(re
 ad,tcheck) scf=(maxcycle=1)\\title\\0,1\C,0,-1.72028346,-0.28050006,0.
 25656069\C,0,-0.40925748,0.16274656,-0.35278974\N,0,-0.42675631,-0.078
 71321,-1.81870831\O,0,0.65458351,-0.20687329,-2.30945409\C,0,0.9026995
 4,0.16316811,0.33315908\N,0,1.81552137,-0.67054605,0.88137013\C,0,0.38
 74458,1.33247244,0.13317349\H,0,-1.90402884,-1.34289554,0.08173925\H,0
 ,-1.71201675,-0.10445553,1.33181034\H,0,-2.55198467,0.2743806,-0.18134

 Normal termination of Gaussian 16 at Wed Apr  9 19:17:01 2025.
