 Gaussian 16, Revision C.01,

 ----------------------------------------------------------------------
 #t hf aug-cc-pvdz symm=none int=(grid=ultrafine) guess=(read,tcheck) s
 table=(opt,rrhf)
 ----------------------------------------------------------------------
 -----
 title
 -----
 Symbolic Z-matrix:
 Charge =  0 Multiplicity = 1

 SCF Done:  E(RHF) =  -323.787869380     A.U. after   15 cycles
 Normal termination of Gaussian 16 at Wed Apr  9 18:45:44 2025.
 Gaussian 16:  ES64L-G16RevC.01  3-Jul-2019

 ----------------------------------------------------------------------
 #t hf aug-cc-pvdz iop(5/13=1,5/36=2,99/5=2) pseudo=read geom=check gue
 ss=(read,tcheck) scf=(maxcycle=1)
 ----------------------------------------------------------------------
 -----
 title
 -----
 Structure from the checkpoint file:  "Grambow2020_wb97xd3_007620_reverse_mol2.chk"
 Charge =  0 Multiplicity = 1

                         Standard orientation:
 ---------------------------------------------------------------------
 Center     Atomic      Atomic             Coordinates (Angstroms)
 Number     Number       Type             X           Y           Z
 ---------------------------------------------------------------------
      1          6           0       -1.252513    1.604958   -0.191803
      2          6           0       -1.414311    0.265937    0.470320
      3          7           0       -1.710811   -0.885492   -0.378280
      4          6           0       -0.451912   -0.855264    0.356481
      5          6           0        0.779211   -0.798723   -0.496908
      6          6           0        2.396996    0.830715   -0.098644
      7          8           0        1.878476   -0.285263    0.288285
      8          1           0       -0.703200    1.529742   -1.128662
      9          1           0       -2.232271    2.034249   -0.410196
     10          1           0       -0.713505    2.293946    0.461043
     11          1           0       -1.938110    0.300453    1.422587
     12          1           0       -2.374544   -1.513939    0.054142
     13          1           0       -0.357655   -1.497361    1.227992
     14          1           0        0.653847   -0.157376   -1.367340
     15          1           0        1.074242   -1.799928   -0.815054
     16          1           0        3.194249    1.005014    0.660490
 ---------------------------------------------------------------------

 SCF Done:  E(RHF) =  -325.293733283     A.U. after    2 cycles

 The electronic state is 1-A.
 Alpha  occ. eigenvalues --  -21.11806 -15.73814 -11.51365 -11.45809 -11.41197
 Alpha  occ. eigenvalues --  -11.40726 -11.37449  -1.82132  -1.46703  -1.08736
 Alpha  occ. eigenvalues --   -1.08080  -0.90058  -0.84151  -0.79703  -0.73300
 Alpha  occ. eigenvalues --   -0.65723  -0.61229  -0.57213  -0.56653  -0.54125
 Alpha  occ. eigenvalues --   -0.51415  -0.47630  -0.44526  -0.43207  -0.41368
 Alpha  occ. eigenvalues --   -0.35607  -0.31221
 Alpha virt. eigenvalues --    0.03909   0.04938   0.05184   0.05573   0.05762
 Alpha virt. eigenvalues --    0.05933   0.06842   0.07716   0.09208   0.10046
 Alpha virt. eigenvalues --    0.11539   0.12111   0.13401   0.13508   0.13803

 Mulliken charges:
               1
     1  C   -4.023300
     2  C    0.007369
     3  N   -2.056096
     4  C   -0.786747
     5  C   -1.852250
     6  C   -1.109082
     7  O   -2.194747
     8  H    1.312204
     9  H    1.039130
    10  H    1.278895
    11  H    1.528152
    12  H    0.615820
    13  H    1.538436
    14  H    2.027744
    15  H    1.129652
    16  H    1.544821
 Sum of Mulliken charges =  -0.00000

 Dipole moment (field-independent basis, Debye):
    X=             -1.2856    Y=             -2.0956    Z=              2.1087  Tot=              3.2390

 Test job not archived.
 1\1\GINC-SE113\SP\RHF\Aug-CC-pVDZ\C5H9N1O1\OHZDE\09-Apr-2025\0\\#t hf
 aug-cc-pvdz iop(5/13=1,5/36=2,99/5=2) pseudo=read geom=check guess=(re
 ad,tcheck) scf=(maxcycle=1)\\title\\0,1\C,0,-1.3319069,-0.11848629,1.2
 461511\C,0,-1.288866,0.01446393,-0.24985512\N,0,-1.00307675,1.33226002
 ,-0.81160409\C,0,-0.05856267,0.24598992,-1.04295802\C,0,1.29365493,0.4
 3911882,-0.42542811\C,0,2.21295036,-1.23544707,0.90935202\O,0,1.942004
 11,-0.84534566,-0.28997788\H,0,-0.54612499,0.46151558,1.72703831\H,0,-
 2.29200227,0.23724065,1.6250801\H,0,-1.21088727,-1.16190013,1.5429424\

 Normal termination of Gaussian 16 at Wed Apr  9 18:45:50 2025.
