 Gaussian 16, Revision C.01,

 ----------------------------------------------------------------------
 #t hf aug-cc-pvdz symm=none int=(grid=ultrafine) guess=(read,tcheck) s
 table=(opt,rrhf)
 ----------------------------------------------------------------------
 -----
 title
 -----
 Symbolic Z-matrix:
 Charge =  0 Multiplicity = 1

 SCF Done:  E(RHF) =  -344.877594810     A.U. after   14 cycles

 1\1\GINC-SE222\Stability\RHF\Aug-CC-pVDZ\C5H10O2\OHZDE\09-Apr-2025\0\\
 #t hf aug-cc-pvdz symm=none int=(grid=ultrafine) guess=(read,tcheck) s
 table=(opt,rrhf)\\title\\0,1\C,0,-2.16852562,-0.68138781,1.13481951\C,
 0,-1.86529698,0.3695053,0.11437736\O,0,-1.39960723,1.45075897,0.361544
 81\C,0,1.08178761,0.05841707,-1.5098154\C,0,1.87068692,0.81852154,-0.4
 3881617\C,0,1.40480791,-0.30280341,0.49523206\O,0,0.60779862,-0.898984
 39,-0.54501517\H,0,-3.22747107,-0.94756169,1.08298917\H,0,-1.59347175,
 -1.57619578,0.88610612\H,0,-1.91995628,-0.33426294,2.13633402\H,0,-2.1

 Normal termination of Gaussian 16 at Wed Apr  9 03:34:03 2025.
 Gaussian 16:  ES64L-G16RevC.01  3-Jul-2019

 ----------------------------------------------------------------------
 #t hf aug-cc-pvdz iop(5/13=1,5/36=2,99/5=2) pseudo=read geom=check gue
 ss=(read,tcheck) scf=(maxcycle=1)
 ----------------------------------------------------------------------
 -----
 title
 -----
 Structure from the checkpoint file:  "Grambow2020_wb97xd3_007057_reverse_mol2.chk"
 Charge =  0 Multiplicity = 1

                         Standard orientation:
 ---------------------------------------------------------------------
 Center     Atomic      Atomic             Coordinates (Angstroms)
 Number     Number       Type             X           Y           Z
 ---------------------------------------------------------------------
      1          6           0        2.389259   -0.820916   -0.070546
      2          6           0        1.731603    0.457563    0.342501
      3          8           0        1.367723    1.317390   -0.416022
      4          6           0       -1.593964    0.299352    0.921862
      5          6           0       -1.965839    0.539007   -0.544915
      6          6           0       -1.185393   -0.753461   -0.804317
      7          8           0       -0.797386   -0.849513    0.578794
      8          1           0        3.365770   -0.903622    0.413693
      9          1           0        1.775984   -1.651928    0.285175
     10          1           0        2.504362   -0.867349   -1.152170
     11          1           0        1.594422    0.584245    1.435511
     12          1           0       -0.994359    1.079974    1.396198
     13          1           0       -2.422060    0.024858    1.581474
     14          1           0       -3.027879    0.512757   -0.779997
     15          1           0       -1.509130    1.425276   -0.979081
     16          1           0       -0.318426   -0.660343   -1.463151
     17          1           0       -1.785381   -1.616150   -1.107330
 ---------------------------------------------------------------------

 SCF Done:  E(RHF) =  -346.459647465     A.U. after    2 cycles

 The electronic state is 1-A.
 Alpha  occ. eigenvalues --  -21.05200 -21.03191 -11.47928 -11.44617 -11.42360
 Alpha  occ. eigenvalues --  -11.38218 -11.36473  -1.76429  -1.70381  -1.11426
 Alpha  occ. eigenvalues --   -1.10802  -0.98880  -0.81117  -0.79893  -0.68299
 Alpha  occ. eigenvalues --   -0.66141  -0.63407  -0.58539  -0.56707  -0.55209
 Alpha  occ. eigenvalues --   -0.51810  -0.50801  -0.49070  -0.42335  -0.42088
 Alpha  occ. eigenvalues --   -0.35602  -0.29120  -0.28875
 Alpha virt. eigenvalues --    0.04012   0.04858   0.05310   0.05526   0.05803
 Alpha virt. eigenvalues --    0.06688   0.06796   0.07141   0.07852   0.08723
 Alpha virt. eigenvalues --    0.10718   0.12961   0.13033   0.13536   0.13879

 Mulliken charges:
               1
     1  C   -4.035827
     2  C    1.155952
     3  O   -2.728304
     4  C   -1.517300
     5  C   -3.243041
     6  C   -1.620918
     7  O   -2.279430
     8  H    1.200808
     9  H    1.426613
    10  H    1.334936
    11  H    1.624212
    12  H    1.669728
    13  H    1.349375
    14  H    1.222010
    15  H    1.329900
    16  H    1.801455
    17  H    1.309830
 Sum of Mulliken charges =   0.00000

 Dipole moment (field-independent basis, Debye):
    X=             -0.3378    Y=             -0.5464    Z=              0.1576  Tot=              0.6614

 Test job not archived.
 1\1\GINC-SE222\SP\RHF\Aug-CC-pVDZ\C5H10O2\OHZDE\09-Apr-2025\0\\#t hf a
 ug-cc-pvdz iop(5/13=1,5/36=2,99/5=2) pseudo=read geom=check guess=(rea
 d,tcheck) scf=(maxcycle=1)\\title\\0,1\C,0,-2.16852562,-0.68138781,1.1
 3481951\C,0,-1.86529698,0.3695053,0.11437736\O,0,-1.39960723,1.4507589
 7,0.36154481\C,0,1.08178761,0.05841707,-1.5098154\C,0,1.87068692,0.818
 52154,-0.43881617\C,0,1.40480791,-0.30280341,0.49523206\O,0,0.60779862
 ,-0.89898439,-0.54501517\H,0,-3.22747107,-0.94756169,1.08298917\H,0,-1
 .59347175,-1.57619578,0.88610612\H,0,-1.91995628,-0.33426294,2.1363340

 Normal termination of Gaussian 16 at Wed Apr  9 03:34:09 2025.
