 Gaussian 16, Revision C.01,

 ----------------------------------------------------------------------
 #t hf aug-cc-pvdz symm=none int=(grid=ultrafine) guess=(read,tcheck) s
 table=(opt,rrhf)
 ----------------------------------------------------------------------
 -----
 title
 -----
 Symbolic Z-matrix:
 Charge =  0 Multiplicity = 1

 SCF Done:  E(RHF) =  -344.884341189     A.U. after   13 cycles

 1\1\GINC-SE393\Stability\RHF\Aug-CC-pVDZ\C5H10O2\OHZDE\09-Apr-2025\0\\
 #t hf aug-cc-pvdz symm=none int=(grid=ultrafine) guess=(read,tcheck) s
 table=(opt,rrhf)\\title\\0,1\C,0,2.06992345,0.92292771,-0.4430931\O,0,
 0.73863679,0.94950569,0.00691776\C,0,0.01117225,-0.22542803,-0.2661299
 4\C,0,0.16942768,-1.19893799,0.91089307\O,0,-0.43865744,-2.4509948,0.6
 7310996\C,0,-1.43081048,0.10438036,-0.51451502\C,0,-1.95784776,1.31488
 7,-0.43599986\H,0,2.64460405,0.10481918,0.00717441\H,0,2.11843575,0.82
 537055,-1.53451204\H,0,2.52590403,1.86794964,-0.15123438\H,0,0.4094492

 Normal termination of Gaussian 16 at Wed Apr  9 03:27:25 2025.
 Gaussian 16:  ES64L-G16RevC.01  3-Jul-2019

 ----------------------------------------------------------------------
 #t hf aug-cc-pvdz iop(5/13=1,5/36=2,99/5=2) pseudo=read geom=check gue
 ss=(read,tcheck) scf=(maxcycle=1)
 ----------------------------------------------------------------------
 -----
 title
 -----
 Structure from the checkpoint file:  "Grambow2020_wb97xd3_006657_reverse_mol2.chk"
 Charge =  0 Multiplicity = 1

                         Standard orientation:
 ---------------------------------------------------------------------
 Center     Atomic      Atomic             Coordinates (Angstroms)
 Number     Number       Type             X           Y           Z
 ---------------------------------------------------------------------
      1          6           0       -2.115521   -1.139889    0.188043
      2          8           0       -1.280682   -0.129570   -0.319735
      3          6           0       -0.017128   -0.056833    0.298624
      4          6           0        0.965915   -0.960296   -0.460014
      5          8           0        2.233060   -1.033948    0.158752
      6          6           0        0.460685    1.364502    0.334498
      7          6           0       -0.182955    2.395881   -0.186312
      8          1           0       -1.673138   -2.137455    0.080992
      9          1           0       -2.344952   -0.970617    1.247182
     10          1           0       -3.041482   -1.108481   -0.384473
     11          1           0       -0.079080   -0.423512    1.334222
     12          1           0        1.035538   -0.605687   -1.494153
     13          1           0        0.571915   -1.978075   -0.481440
     14          1           0        1.412133    1.516107    0.837398
     15          1           0        0.226171    3.396993   -0.129302
     16          1           0        2.747581   -0.266882   -0.095505
     17          1           0       -1.139694    2.265565   -0.676095
 ---------------------------------------------------------------------

 SCF Done:  E(RHF) =  -346.471821382     A.U. after    2 cycles

 The electronic state is 1-A.
 Alpha  occ. eigenvalues --  -21.07363 -21.04506 -11.47544 -11.42414 -11.40811
 Alpha  occ. eigenvalues --  -11.40360 -11.36876  -1.77388  -1.70809  -1.19030
 Alpha  occ. eigenvalues --   -1.05331  -0.97474  -0.89348  -0.77394  -0.68851
 Alpha  occ. eigenvalues --   -0.65118  -0.62907  -0.61833  -0.56288  -0.55933
 Alpha  occ. eigenvalues --   -0.53739  -0.52824  -0.44997  -0.42538  -0.38848
 Alpha  occ. eigenvalues --   -0.35600  -0.33407  -0.27966
 Alpha virt. eigenvalues --    0.03852   0.05031   0.05393   0.05624   0.06227
 Alpha virt. eigenvalues --    0.06349   0.06650   0.07038   0.07946   0.08640
 Alpha virt. eigenvalues --    0.11158   0.12038   0.12651   0.13802   0.15017

 Mulliken charges:
               1
     1  C   -3.174729
     2  O   -3.330690
     3  C   -0.279089
     4  C   -0.964307
     5  O   -2.643239
     6  C   -0.107628
     7  C   -3.147722
     8  H    1.365646
     9  H    1.344037
    10  H    1.214759
    11  H    1.781672
    12  H    1.514917
    13  H    1.359466
    14  H    1.371669
    15  H    1.413757
    16  H    0.737455
    17  H    1.544026
 Sum of Mulliken charges =   0.00000

 Dipole moment (field-independent basis, Debye):
    X=             -0.3815    Y=              0.1072    Z=             -0.0499  Tot=              0.3994

 Test job not archived.
 1\1\GINC-SE393\SP\RHF\Aug-CC-pVDZ\C5H10O2\OHZDE\09-Apr-2025\0\\#t hf a
 ug-cc-pvdz iop(5/13=1,5/36=2,99/5=2) pseudo=read geom=check guess=(rea
 d,tcheck) scf=(maxcycle=1)\\title\\0,1\C,0,2.06992345,0.92292771,-0.44
 30931\O,0,0.73863679,0.94950569,0.00691776\C,0,0.01117225,-0.22542803,
 -0.26612994\C,0,0.16942768,-1.19893799,0.91089307\O,0,-0.43865744,-2.4
 509948,0.67310996\C,0,-1.43081048,0.10438036,-0.51451502\C,0,-1.957847
 76,1.314887,-0.43599986\H,0,2.64460405,0.10481918,0.00717441\H,0,2.118
 43575,0.82537055,-1.53451204\H,0,2.52590403,1.86794964,-0.15123438\H,0

 Normal termination of Gaussian 16 at Wed Apr  9 03:27:31 2025.
