 Gaussian 16, Revision C.01,

 ----------------------------------------------------------------------
 #t hf aug-cc-pvdz symm=none int=(grid=ultrafine) guess=(read,tcheck) s
 table=(opt,rrhf)
 ----------------------------------------------------------------------
 -----
 title
 -----
 Symbolic Z-matrix:
 Charge =  0 Multiplicity = 1

 SCF Done:  E(RHF) =  -317.598683520     A.U. after   16 cycles
 Normal termination of Gaussian 16 at Wed Apr  9 19:25:51 2025.
 Gaussian 16:  ES64L-G16RevC.01  3-Jul-2019

 ----------------------------------------------------------------------
 #t hf aug-cc-pvdz iop(5/13=1,5/36=2,99/5=2) pseudo=read geom=check gue
 ss=(read,tcheck) scf=(maxcycle=1)
 ----------------------------------------------------------------------
 -----
 title
 -----
 Structure from the checkpoint file:  "Grambow2020_wb97xd3_008972_reverse_mol1.chk"
 Charge =  0 Multiplicity = 1

                         Standard orientation:
 ---------------------------------------------------------------------
 Center     Atomic      Atomic             Coordinates (Angstroms)
 Number     Number       Type             X           Y           Z
 ---------------------------------------------------------------------
      1          7           0        1.657382    0.101249   -0.881715
      2          6           0        0.565858   -0.028237    0.039011
      3          6           0        1.332317   -0.166622    1.345108
      4          7           0       -0.326182   -1.189153   -0.059579
      5          6           0       -1.498722   -0.693432   -0.081651
      6          7           0       -1.619975    0.729138   -0.045532
      7          6           0       -0.406408    1.121107   -0.020329
      8          1           0        2.223955   -0.735072   -0.875608
      9          1           0        1.370368    0.345559   -1.819592
     10          1           0        0.990498    0.631695    2.036296
     11          1           0       -2.397641   -1.296711   -0.139132
     12          1           0       -0.124027    2.168998    0.012982
 ---------------------------------------------------------------------

 SCF Done:  E(RHF) =  -319.025804216     A.U. after    2 cycles

 The electronic state is 1-A.
 Alpha  occ. eigenvalues --  -15.76348 -15.75849 -15.73907 -11.50345 -11.45852
 Alpha  occ. eigenvalues --  -11.45012 -11.42451  -1.56802  -1.36138  -1.26064
 Alpha  occ. eigenvalues --   -1.08483  -0.93899  -0.83024  -0.79948  -0.72670
 Alpha  occ. eigenvalues --   -0.65223  -0.61005  -0.58316  -0.56626  -0.48630
 Alpha  occ. eigenvalues --   -0.44816  -0.40985  -0.38279  -0.36227  -0.34200
 Alpha virt. eigenvalues --    0.03497   0.04314   0.05314   0.05680   0.05956
 Alpha virt. eigenvalues --    0.06900   0.08305   0.10024   0.10328   0.11144
 Alpha virt. eigenvalues --    0.11847   0.12891   0.14047   0.14916   0.15381

 Mulliken charges:
               1
     1  N   -2.932395
     2  C    3.991441
     3  C   -2.117556
     4  N   -2.887433
     5  C    1.053280
     6  N   -3.115534
     7  C    0.511246
     8  H    0.638531
     9  H    0.505649
    10  H    1.389122
    11  H    1.653456
    12  H    1.310195
 Sum of Mulliken charges =   0.00000

 Dipole moment (field-independent basis, Debye):
    X=             -0.3795    Y=              1.3086    Z=             -1.2699  Tot=              1.8625

 Test job not archived.
 1\1\GINC-SE340\SP\RHF\Aug-CC-pVDZ\C4H5N3\OHZDE\09-Apr-2025\0\\#t hf au
 g-cc-pvdz iop(5/13=1,5/36=2,99/5=2) pseudo=read geom=check guess=(read
 ,tcheck) scf=(maxcycle=1)\\title\\0,1\N,0,-1.58665246,0.06994983,-0.65
 615413\C,0,-0.30110018,0.30525542,-0.06631066\C,0,-0.55791907,1.642455
 39,0.61077047\N,0,0.86860475,0.48204122,-0.93448075\C,0,1.73612165,-0.
 32884635,-0.4751855\N,0,1.36135709,-1.14466844,0.63553515\C,0,0.150275
 07,-0.80468447,0.84698455\H,0,-1.80017487,0.78888308,-1.33292328\H,0,-
 1.68741243,-0.85347441,-1.05466795\H,0,-0.32943724,1.53561808,1.691637

 Normal termination of Gaussian 16 at Wed Apr  9 19:25:55 2025.
