 Gaussian 16, Revision C.01,

 ----------------------------------------------------------------------
 #t hf aug-cc-pvdz symm=none int=(grid=ultrafine) guess=(read,tcheck) s
 table=(opt,rrhf)
 ----------------------------------------------------------------------
 -----
 title
 -----
 Symbolic Z-matrix:
 Charge =  0 Multiplicity = 1

 SCF Done:  E(RHF) =  -286.652467014     A.U. after   19 cycles
 Normal termination of Gaussian 16 at Wed Apr  9 19:02:08 2025.
 Gaussian 16:  ES64L-G16RevC.01  3-Jul-2019

 ----------------------------------------------------------------------
 #t hf aug-cc-pvdz iop(5/13=1,5/36=2,99/5=2) pseudo=read geom=check gue
 ss=(read,tcheck) scf=(maxcycle=1)
 ----------------------------------------------------------------------
 -----
 title
 -----
 Structure from the checkpoint file:  "Grambow2020_wb97xd3_008001_forward_mol1.chk"
 Charge =  0 Multiplicity = 1

                         Standard orientation:
 ---------------------------------------------------------------------
 Center     Atomic      Atomic             Coordinates (Angstroms)
 Number     Number       Type             X           Y           Z
 ---------------------------------------------------------------------
      1          6           0        2.140142   -1.143881   -0.061349
      2          6           0        1.325530    0.072080   -0.018932
      3          6           0        1.135734    1.320817    0.111070
      4          6           0       -0.320617    1.653395    0.053723
      5          6           0       -0.390912    0.197646   -0.337644
      6          6           0       -1.241099   -0.790336    0.537237
      7          7           0       -2.376356   -0.614141   -0.229658
      8          1           0        1.803975   -1.860603    0.689321
      9          1           0        3.177675   -0.883969    0.148673
     10          1           0        2.087374   -1.618990   -1.041877
     11          1           0       -0.619317    2.380576   -0.695855
     12          1           0       -0.753167    1.887724    1.022742
     13          1           0       -0.475431    0.045924   -1.412424
     14          1           0       -1.297137   -0.379369    1.550283
     15          1           0       -0.763157   -1.778398    0.570757
     16          1           0       -2.418991   -1.352243   -0.928646
 ---------------------------------------------------------------------

 SCF Done:  E(RHF) =  -288.074611504     A.U. after    2 cycles

 The electronic state is 1-A.
 Alpha  occ. eigenvalues --  -15.65769 -11.52331 -11.47615 -11.44794 -11.43680
 Alpha  occ. eigenvalues --  -11.42831 -11.40510  -1.40671  -1.25903  -1.14030
 Alpha  occ. eigenvalues --   -0.96900  -0.93750  -0.84617  -0.69839  -0.67213
 Alpha  occ. eigenvalues --   -0.64685  -0.62096  -0.60182  -0.57349  -0.53767
 Alpha  occ. eigenvalues --   -0.52018  -0.48385  -0.44971  -0.38343  -0.34103
 Alpha  occ. eigenvalues --   -0.22537
 Alpha virt. eigenvalues --    0.02279   0.04764   0.05040   0.05369   0.05813
 Alpha virt. eigenvalues --    0.06566   0.06592   0.06956   0.07336   0.09178
 Alpha virt. eigenvalues --    0.09622   0.10963   0.12091   0.12524   0.13149

 Mulliken charges:
               1
     1  C   -4.712235
     2  C    4.267688
     3  C   -1.711467
     4  C   -3.730574
     5  C   -0.269476
     6  C   -2.457959
     7  N   -2.115035
     8  H    1.269582
     9  H    1.025974
    10  H    1.226605
    11  H    1.290625
    12  H    1.319426
    13  H    1.338879
    14  H    1.318666
    15  H    1.386736
    16  H    0.552565
 Sum of Mulliken charges =   0.00000

 Dipole moment (field-independent basis, Debye):
    X=              3.2407    Y=             -1.1848    Z=             -0.1610  Tot=              3.4543

 Test job not archived.
 1\1\GINC-SE224\SP\RHF\Aug-CC-pVDZ\C6H9N1\OHZDE\09-Apr-2025\0\\#t hf au
 g-cc-pvdz iop(5/13=1,5/36=2,99/5=2) pseudo=read geom=check guess=(read
 ,tcheck) scf=(maxcycle=1)\\title\\0,1\C,0,1.49583942,0.97117489,1.6021
 7583\C,0,1.18377815,-0.09166473,0.644605\C,0,1.46429056,-1.07425941,-0
 .109111\C,0,0.26497674,-1.51988331,-0.88236313\C,0,-0.4004959,-0.53396
 286,0.04630334\C,0,-1.17820134,0.68638652,-0.56219301\N,0,-2.38287124,
 0.01067641,-0.57515197\H,0,1.21878607,1.9468847,1.2003827\H,0,2.568134
 2,0.96945437,1.79792427\H,0,0.96548879,0.82102635,2.54352223\H,0,-0.01

 Normal termination of Gaussian 16 at Wed Apr  9 19:02:13 2025.
