 Gaussian 16, Revision C.01,

 ----------------------------------------------------------------------
 #t hf aug-cc-pvdz symm=none int=(grid=ultrafine) guess=(read,tcheck) s
 table=(opt,rrhf)
 ----------------------------------------------------------------------
 -----
 title
 -----
 Symbolic Z-matrix:
 Charge =  0 Multiplicity = 1

 SCF Done:  E(RHF) =  -343.467830743     A.U. after   16 cycles
 Normal termination of Gaussian 16 at Wed Apr  9 03:28:23 2025.
 Gaussian 16:  ES64L-G16RevC.01  3-Jul-2019

 ----------------------------------------------------------------------
 #t hf aug-cc-pvdz iop(5/13=1,5/36=2,99/5=2) pseudo=read geom=check gue
 ss=(read,tcheck) scf=(maxcycle=1)
 ----------------------------------------------------------------------
 -----
 title
 -----
 Structure from the checkpoint file:  "Grambow2020_wb97xd3_006719_forward_mol1.chk"
 Charge =  0 Multiplicity = 1

                         Standard orientation:
 ---------------------------------------------------------------------
 Center     Atomic      Atomic             Coordinates (Angstroms)
 Number     Number       Type             X           Y           Z
 ---------------------------------------------------------------------
      1          8           0       -2.219677   -0.565451    0.137116
      2          6           0       -1.517672    0.402514   -0.470186
      3          6           0        0.535866    1.252918   -0.375859
      4          8           0       -0.113750    0.488482    0.814961
      5          6           0        0.939244   -0.453497    0.797000
      6          6           0        1.155545   -1.137272   -0.519714
      7          6           0        1.676779    0.252612   -0.321978
      8          1           0       -1.974023   -1.424470   -0.215943
      9          1           0       -1.230880    0.203128   -1.489751
     10          1           0       -1.886844    1.393190   -0.258315
     11          1           0        0.850059    2.207426    0.057000
     12          1           0        1.216891   -0.900346    1.745504
     13          1           0        0.338478   -1.315553   -1.210543
     14          1           0        1.886282   -1.936128   -0.475593
     15          1           0        2.728880    0.484851   -0.424556
 ---------------------------------------------------------------------

 SCF Done:  E(RHF) =  -345.050226893     A.U. after    2 cycles

 The electronic state is 1-A.
 Alpha  occ. eigenvalues --  -21.13956 -21.03960 -11.53033 -11.44486 -11.41021
 Alpha  occ. eigenvalues --  -11.37914 -11.33093  -1.81595  -1.75109  -1.24436
 Alpha  occ. eigenvalues --   -0.99903  -0.95225  -0.84206  -0.75030  -0.72263
 Alpha  occ. eigenvalues --   -0.70100  -0.63948  -0.59682  -0.58224  -0.49145
 Alpha  occ. eigenvalues --   -0.48203  -0.46644  -0.43558  -0.41570  -0.35590
 Alpha  occ. eigenvalues --   -0.27007  -0.20947
 Alpha virt. eigenvalues --    0.03584   0.04586   0.04923   0.05527   0.05823
 Alpha virt. eigenvalues --    0.06213   0.06938   0.08201   0.10265   0.10544
 Alpha virt. eigenvalues --    0.12729   0.12786   0.13135   0.14312   0.14649

 Mulliken charges:
               1
     1  O   -2.664976
     2  C   -0.462478
     3  C   -1.288416
     4  O   -2.552582
     5  C    1.253629
     6  C   -2.878912
     7  C   -1.184950
     8  H    0.711131
     9  H    1.459440
    10  H    1.394650
    11  H    1.161021
    12  H    1.280856
    13  H    1.281519
    14  H    1.233842
    15  H    1.256225
 Sum of Mulliken charges =  -0.00000

 Dipole moment (field-independent basis, Debye):
    X=             -1.6993    Y=             -2.3918    Z=              0.9128  Tot=              3.0727

 Test job not archived.
 1\1\GINC-SE435\SP\RHF\Aug-CC-pVDZ\C5H8O2\OHZDE\09-Apr-2025\0\\#t hf au
 g-cc-pvdz iop(5/13=1,5/36=2,99/5=2) pseudo=read geom=check guess=(read
 ,tcheck) scf=(maxcycle=1)\\title\\0,1\O,0,1.6845326,1.66886775,0.60207
 172\C,0,1.71372078,0.43420619,0.07925121\C,0,0.37558678,-1.33974569,-0
 .02843055\O,0,0.25421273,-0.26079871,1.08761523\C,0,-1.07930588,0.0021
 1372,0.70154729\C,0,-1.26034349,0.37357761,-0.73973952\C,0,-1.07786471
 ,-1.06657777,-0.37202387\H,0,1.15286118,2.24953987,0.05156667\H,0,1.63
 240812,0.37849323,-0.99396883\H,0,2.44793009,-0.20647116,0.5408644\H,0

 Normal termination of Gaussian 16 at Wed Apr  9 03:28:27 2025.
