 Gaussian 16, Revision C.01,

 ----------------------------------------------------------------------
 #t hf aug-cc-pvdz symm=none int=(grid=ultrafine) guess=(read,tcheck) s
 table=(opt,rrhf)
 ----------------------------------------------------------------------
 -----
 title
 -----
 Symbolic Z-matrix:
 Charge =  0 Multiplicity = 1

 SCF Done:  E(RHF) =  -306.650757122     A.U. after   14 cycles
 Normal termination of Gaussian 16 at Wed Apr  9 03:59:45 2025.
 Gaussian 16:  ES64L-G16RevC.01  3-Jul-2019

 ----------------------------------------------------------------------
 #t hf aug-cc-pvdz iop(5/13=1,5/36=2,99/5=2) pseudo=read geom=check gue
 ss=(read,tcheck) scf=(maxcycle=1)
 ----------------------------------------------------------------------
 -----
 title
 -----
 Structure from the checkpoint file:  "Grambow2020_wb97xd3_008781_reverse_mol2.chk"
 Charge =  0 Multiplicity = 1

                         Standard orientation:
 ---------------------------------------------------------------------
 Center     Atomic      Atomic             Coordinates (Angstroms)
 Number     Number       Type             X           Y           Z
 ---------------------------------------------------------------------
      1          8           0       -1.232182   -1.143266    0.449292
      2          6           0       -1.312299    0.071248   -0.116973
      3          6           0       -2.049165    1.157834   -0.045698
      4          6           0        1.530476    0.394161    0.911414
      5          6           0        1.891464    0.672790   -0.512609
      6          6           0        1.167862   -0.596453   -0.150453
      7          6           0       -0.242935   -0.761913   -0.579437
      8          1           0       -1.822308    2.003726   -0.677460
      9          1           0       -2.885997    1.214493    0.636720
     10          1           0        0.727859    0.972632    1.349605
     11          1           0        2.318196    0.116755    1.598181
     12          1           0        1.324567    1.435273   -1.031547
     13          1           0        2.927185    0.595112   -0.814399
     14          1           0        1.751616   -1.508834   -0.186567
     15          1           0       -0.396076   -1.309031   -1.506337
 ---------------------------------------------------------------------

 SCF Done:  E(RHF) =  -308.091716693     A.U. after    2 cycles

 The electronic state is 1-A.
 Alpha  occ. eigenvalues --  -21.08288 -11.51073 -11.45936 -11.42419 -11.41625
 Alpha  occ. eigenvalues --  -11.38697 -11.37094  -1.81301  -1.32245  -1.09704
 Alpha  occ. eigenvalues --   -1.01508  -0.87064  -0.85461  -0.75786  -0.70820
 Alpha  occ. eigenvalues --   -0.64157  -0.63855  -0.59650  -0.54538  -0.51634
 Alpha  occ. eigenvalues --   -0.48494  -0.43737  -0.40881  -0.39760  -0.35957
 Alpha  occ. eigenvalues --   -0.28428
 Alpha virt. eigenvalues --    0.03858   0.04961   0.05082   0.05495   0.05879
 Alpha virt. eigenvalues --    0.06201   0.07513   0.07814   0.10228   0.10868
 Alpha virt. eigenvalues --    0.12157   0.12940   0.13269   0.14015   0.14432

 Mulliken charges:
               1
     1  O   -3.038943
     2  C    5.135765
     3  C   -5.306801
     4  C   -2.446769
     5  C   -2.336684
     6  C   -0.382529
     7  C   -1.974176
     8  H    1.154796
     9  H    1.363379
    10  H    1.403510
    11  H    1.203834
    12  H    1.416105
    13  H    1.203198
    14  H    1.195727
    15  H    1.409589
 Sum of Mulliken charges =   0.00000

 Dipole moment (field-independent basis, Debye):
    X=              1.1729    Y=             -0.5669    Z=             -0.0628  Tot=              1.3042

 Test job not archived.
 1\1\GINC-SE253\SP\RHF\Aug-CC-pVDZ\C6H8O1\OHZDE\09-Apr-2025\0\\#t hf au
 g-cc-pvdz iop(5/13=1,5/36=2,99/5=2) pseudo=read geom=check guess=(read
 ,tcheck) scf=(maxcycle=1)\\title\\0,1\O,0,0.45759142,-1.53609201,1.350
 2011\C,0,0.03135867,-1.60083806,0.07888215\C,0,-0.8287746,-2.27615575,
 -0.65107474\C,0,-0.67863365,1.32570332,0.49659898\C,0,0.19580482,1.587
 87424,-0.68763564\C,0,0.73499231,0.83374263,0.49823733\C,0,1.03191135,
 -0.61254323,0.35043217\H,0,-0.92812718,-2.05826547,-1.7040577\H,0,-1.4
 3749178,-3.05357289,-0.21030278\H,0,-1.46362321,0.58874365,0.38928599\

 Normal termination of Gaussian 16 at Wed Apr  9 03:59:50 2025.
