 Gaussian 16, Revision C.01,

 ----------------------------------------------------------------------
 #t hf aug-cc-pvdz symm=none int=(grid=ultrafine) guess=(read,tcheck) s
 table=(opt,rrhf)
 ----------------------------------------------------------------------
 -----
 title
 -----
 Symbolic Z-matrix:
 Charge =  0 Multiplicity = 1

 SCF Done:  E(RHF) =  -231.598064130     A.U. after   15 cycles
 Normal termination of Gaussian 16 at Wed Apr  9 16:54:13 2025.
 Gaussian 16:  ES64L-G16RevC.01  3-Jul-2019

 ----------------------------------------------------------------------
 #t hf aug-cc-pvdz iop(5/13=1,5/36=2,99/5=2) pseudo=read geom=check gue
 ss=(read,tcheck) scf=(maxcycle=1)
 ----------------------------------------------------------------------
 -----
 title
 -----
 Structure from the checkpoint file:  "Grambow2020_b97d3_006871_forward_mol1.chk"
 Charge =  0 Multiplicity = 1

                         Standard orientation:
 ---------------------------------------------------------------------
 Center     Atomic      Atomic             Coordinates (Angstroms)
 Number     Number       Type             X           Y           Z
 ---------------------------------------------------------------------
      1          6           0        1.334837   -0.458650   -0.415181
      2          6           0        0.666953    0.909367   -0.391434
      3          6           0       -0.898611    0.751606   -0.265938
      4          6           0       -1.491531   -0.659602   -0.244899
      5          6           0        0.165093   -0.935635    0.556903
      6          6           0       -0.020796    0.584062    0.918964
      7          1           0        2.274218   -0.445467    0.153359
      8          1           0        1.478031   -0.997154   -1.366883
      9          1           0        1.118571    1.853639   -0.693077
     10          1           0       -1.498507    1.640298   -0.453284
     11          1           0       -0.425815   -1.282546   -0.516314
     12          1           0       -1.723546   -1.168644   -1.216608
     13          1           0        0.267822   -1.784531    1.233643
     14          1           0       -0.026444    1.037520    1.908677
 ---------------------------------------------------------------------

 SCF Done:  E(RHF) =  -232.757230333     A.U. after    2 cycles

 The electronic state is 1-A.
 Alpha  occ. eigenvalues --  -11.51181 -11.46246 -11.43190 -11.41917 -11.38432
 Alpha  occ. eigenvalues --  -11.36382  -1.47077  -1.06182  -1.05296  -0.90980
 Alpha  occ. eigenvalues --   -0.79429  -0.75852  -0.73133  -0.63825  -0.59385
 Alpha  occ. eigenvalues --   -0.55320  -0.51476  -0.44610  -0.43649  -0.40172
 Alpha  occ. eigenvalues --   -0.34552  -0.26717
 Alpha virt. eigenvalues --    0.03806   0.04743   0.05093   0.05471   0.05845
 Alpha virt. eigenvalues --    0.06152   0.06589   0.08276   0.10043   0.11693
 Alpha virt. eigenvalues --    0.12149   0.13146   0.13448   0.13877   0.14913

 Mulliken charges:
               1
     1  C   -2.758560
     2  C   -1.088511
     3  C   -0.456763
     4  C   -2.998519
     5  C   -2.809320
     6  C   -0.239650
     7  H    1.243531
     8  H    1.114582
     9  H    1.324698
    10  H    1.426758
    11  H    2.033287
    12  H    0.820924
    13  H    1.225304
    14  H    1.162240
 Sum of Mulliken charges =  -0.00000

 Dipole moment (field-independent basis, Debye):
    X=              2.7277    Y=              0.4990    Z=             -0.0155  Tot=              2.7730

 Test job not archived.
 1\1\GINC-SE043\SP\RHF\Aug-CC-pVDZ\C6H8\OHZDE\09-Apr-2025\0\\#t hf aug-
 cc-pvdz iop(5/13=1,5/36=2,99/5=2) pseudo=read geom=check guess=(read,t
 check) scf=(maxcycle=1)\\title\\0,1\C,0,-1.18615122,-0.30766245,0.5989
 3901\C,0,-0.47707657,1.02121518,0.37667897\C,0,1.03302843,0.77699894,-
 0.01264108\C,0,1.55361928,-0.66203276,-0.05360466\C,0,-0.22952411,-0.8
 9329046,-0.53360987\C,0,-0.04838024,0.59430218,-1.01254066\H,0,-2.2105
 6441,-0.2753715,0.20475058\H,0,-1.17937243,-0.78863727,1.5913325\H,0,-
 0.82803579,2.00165494,0.69630495\H,0,1.69306698,1.64212192,0.01301315\

 Normal termination of Gaussian 16 at Wed Apr  9 16:54:17 2025.
