 Gaussian 16, Revision C.01,

 ----------------------------------------------------------------------
 #t hf aug-cc-pvdz symm=none int=(grid=ultrafine) guess=(read,tcheck) s
 table=(opt,rrhf)
 ----------------------------------------------------------------------
 -----
 title
 -----
 Symbolic Z-matrix:
 Charge =  0 Multiplicity = 1

 SCF Done:  E(RHF) =  -301.844205457     A.U. after   17 cycles
 Normal termination of Gaussian 16 at Wed Apr  9 17:06:20 2025.
 Gaussian 16:  ES64L-G16RevC.01  3-Jul-2019

 ----------------------------------------------------------------------
 #t hf aug-cc-pvdz iop(5/13=1,5/36=2,99/5=2) pseudo=read geom=check gue
 ss=(read,tcheck) scf=(maxcycle=1)
 ----------------------------------------------------------------------
 -----
 title
 -----
 Structure from the checkpoint file:  "Grambow2020_b97d3_007041_reverse_mol1.chk"
 Charge =  0 Multiplicity = 1

                         Standard orientation:
 ---------------------------------------------------------------------
 Center     Atomic      Atomic             Coordinates (Angstroms)
 Number     Number       Type             X           Y           Z
 ---------------------------------------------------------------------
      1          6           0       -2.049580   -0.561036   -0.167835
      2          7           0       -0.137226    0.530492   -0.481587
      3          6           0       -0.354951    1.671220    0.392533
      4          6           0        0.851742   -0.395329   -0.041894
      5          8           0        1.933627    0.235124   -0.263623
      6          7           0        0.434006   -1.554186    0.377698
      7          1           0       -2.249715    0.117000   -1.000805
      8          1           0       -2.499712   -1.531754   -0.448534
      9          1           0       -2.460018   -0.171988    0.769207
     10          1           0        0.442709    2.395766    0.171563
     11          1           0       -1.303094    2.143621    0.108080
     12          1           0       -0.340688    1.433781    1.467712
     13          1           0        1.150447   -2.255139    0.561422
     14          1           0       -0.969663   -1.135550    0.110737
 ---------------------------------------------------------------------

 SCF Done:  E(RHF) =  -303.243742232     A.U. after    2 cycles

 The electronic state is 1-A.
 Alpha  occ. eigenvalues --  -21.02683 -15.88565 -15.71747 -11.50011 -11.44549
 Alpha  occ. eigenvalues --  -11.38134  -1.70991  -1.40521  -1.28577  -1.04674
 Alpha  occ. eigenvalues --   -1.01527  -0.77840  -0.67100  -0.66603  -0.65076
 Alpha  occ. eigenvalues --   -0.61979  -0.57345  -0.55645  -0.52957  -0.46813
 Alpha  occ. eigenvalues --   -0.43512  -0.38635  -0.29511  -0.28087
 Alpha virt. eigenvalues --    0.02986   0.04245   0.05275   0.05419   0.05636
 Alpha virt. eigenvalues --    0.06373   0.07197   0.07885   0.08852   0.11181
 Alpha virt. eigenvalues --    0.12234   0.13395   0.13758   0.14688   0.15178

 Mulliken charges:
               1
     1  C   -5.320733
     2  N   -1.800883
     3  C   -3.574592
     4  C    5.776887
     5  O   -2.672096
     6  N   -3.201901
     7  H    1.300263
     8  H    0.747384
     9  H    1.147094
    10  H    1.331224
    11  H    1.359980
    12  H    1.452553
    13  H    0.779208
    14  H    2.675612
 Sum of Mulliken charges =   0.00000

 Dipole moment (field-independent basis, Debye):
    X=             -1.5883    Y=              1.9402    Z=              0.5221  Tot=              2.5612

 Test job not archived.
 1\1\GINC-SE162\SP\RHF\Aug-CC-pVDZ\C3H8N2O1\OHZDE\09-Apr-2025\0\\#t hf
 aug-cc-pvdz iop(5/13=1,5/36=2,99/5=2) pseudo=read geom=check guess=(re
 ad,tcheck) scf=(maxcycle=1)\\title\\0,1\C,0,-0.95087672,-0.71922303,1.
 24015205\N,0,-0.07989805,-0.28723745,-0.76028648\C,0,-0.68213547,1.010
 00504,-1.01955922\C,0,1.32335899,-0.27100652,-0.51710223\O,0,1.7989936
 4,-0.05865434,-1.67718376\N,0,1.71688643,-0.5112871,0.69982428\H,0,-1.
 67222634,-1.12778568,0.528565\H,0,-0.84516785,-1.47781783,2.03831481\H
 ,0,-1.28224904,0.24759812,1.63170621\H,0,-0.48676886,1.24380421,-2.076

 Normal termination of Gaussian 16 at Wed Apr  9 17:06:25 2025.
