 Gaussian 16, Revision C.01,

 ----------------------------------------------------------------------
 #t hf aug-cc-pvdz symm=none int=(grid=ultrafine) guess=(read,tcheck) s
 table=(opt,rrhf)
 ----------------------------------------------------------------------
 -----
 title
 -----
 Symbolic Z-matrix:
 Charge =  0 Multiplicity = 1

 SCF Done:  E(RHF) =  -306.431614730     A.U. after   15 cycles
 Normal termination of Gaussian 16 at Wed Apr  9 19:14:05 2025.
 Gaussian 16:  ES64L-G16RevC.01  3-Jul-2019

 ----------------------------------------------------------------------
 #t hf aug-cc-pvdz iop(5/13=1,5/36=2,99/5=2) pseudo=read geom=check gue
 ss=(read,tcheck) scf=(maxcycle=1)
 ----------------------------------------------------------------------
 -----
 title
 -----
 Structure from the checkpoint file:  "Grambow2020_wb97xd3_008452_reverse_mol1.chk"
 Charge =  0 Multiplicity = 1

                         Standard orientation:
 ---------------------------------------------------------------------
 Center     Atomic      Atomic             Coordinates (Angstroms)
 Number     Number       Type             X           Y           Z
 ---------------------------------------------------------------------
      1          6           0       -1.182665    0.850866   -0.724520
      2          6           0       -1.269995   -0.614328   -0.316523
      3          6           0        0.076193   -1.168404    0.046870
      4          8           0        1.239000   -0.642492   -0.559850
      5          6           0        1.594867    0.545513    0.080474
      6          6           0       -0.334194    1.147810    0.460940
      7          6           0       -0.597360   -0.244925    1.002951
      8          1           0        0.291996    1.064090   -0.558848
      9          1           0       -1.118465    1.278618   -1.719604
     10          1           0       -2.136031   -1.252264   -0.450903
     11          1           0        0.179256   -2.209660    0.331072
     12          1           0        2.250815    1.131586   -0.564689
     13          1           0        1.983997    0.427522    1.094790
     14          1           0       -0.237520    2.073795    1.017346
     15          1           0       -0.847128   -0.472941    2.028492
 ---------------------------------------------------------------------

 SCF Done:  E(RHF) =  -307.890835233     A.U. after    2 cycles

 The electronic state is 1-A.
 Alpha  occ. eigenvalues --  -21.06153 -11.52368 -11.48363 -11.43179 -11.43137
 Alpha  occ. eigenvalues --  -11.40352 -11.36068  -1.79457  -1.39980  -1.12411
 Alpha  occ. eigenvalues --   -0.95645  -0.91614  -0.83279  -0.75564  -0.74186
 Alpha  occ. eigenvalues --   -0.67742  -0.64179  -0.58745  -0.56606  -0.50381
 Alpha  occ. eigenvalues --   -0.46059  -0.45204  -0.39824  -0.36471  -0.31533
 Alpha  occ. eigenvalues --   -0.20071
 Alpha virt. eigenvalues --    0.03698   0.04489   0.04903   0.05190   0.05659
 Alpha virt. eigenvalues --    0.06241   0.06729   0.09423   0.09745   0.10623
 Alpha virt. eigenvalues --    0.12342   0.13036   0.13492   0.13623   0.14231

 Mulliken charges:
               1
     1  C   -1.587992
     2  C   -1.082152
     3  C    0.801234
     4  O   -3.306235
     5  C   -2.002851
     6  C   -3.429547
     7  C   -0.624337
     8  H    2.491086
     9  H    0.930795
    10  H    1.349651
    11  H    1.475541
    12  H    0.881201
    13  H    1.479284
    14  H    1.406777
    15  H    1.217545
 Sum of Mulliken charges =   0.00000

 Dipole moment (field-independent basis, Debye):
    X=              1.1879    Y=             -0.1299    Z=              1.4118  Tot=              1.8497

 Test job not archived.
 1\1\GINC-SE104\SP\RHF\Aug-CC-pVDZ\C6H8O1\OHZDE\09-Apr-2025\0\\#t hf au
 g-cc-pvdz iop(5/13=1,5/36=2,99/5=2) pseudo=read geom=check guess=(read
 ,tcheck) scf=(maxcycle=1)\\title\\0,1\C,0,1.02478403,1.20969385,-0.129
 0759\C,0,1.46781861,-0.24137949,-0.26687561\C,0,0.44180771,-1.18756155
 ,0.28386901\O,0,-0.39972673,-0.77325675,1.34074332\C,0,-1.44128154,-0.
 00123201,0.82387572\C,0,-0.32019091,0.8675421,-0.66514317\C,0,0.171621
 4,-0.52291553,-1.02220255\H,0,-0.30643163,0.99839387,0.52724038\H,0,1.
 27596791,1.92854709,0.6438675\H,0,2.46481376,-0.56977051,-0.53742841\H

 Normal termination of Gaussian 16 at Wed Apr  9 19:14:10 2025.
