 Gaussian 16, Revision C.01,

 ----------------------------------------------------------------------
 #t hf aug-cc-pvdz symm=none int=(grid=ultrafine) guess=(read,tcheck) s
 table=(opt,rrhf)
 ----------------------------------------------------------------------
 -----
 title
 -----
 Symbolic Z-matrix:
 Charge =  0 Multiplicity = 1

 SCF Done:  E(RHF) =  -338.596842761     A.U. after   16 cycles
 Normal termination of Gaussian 16 at Wed Apr  9 18:17:13 2025.
 Gaussian 16:  ES64L-G16RevC.01  3-Jul-2019

 ----------------------------------------------------------------------
 #t hf aug-cc-pvdz iop(5/13=1,5/36=2,99/5=2) pseudo=read geom=check gue
 ss=(read,tcheck) scf=(maxcycle=1)
 ----------------------------------------------------------------------
 -----
 title
 -----
 Structure from the checkpoint file:  "Grambow2020_wb97xd3_006844_reverse_mol1.chk"
 Charge =  0 Multiplicity = 1

                         Standard orientation:
 ---------------------------------------------------------------------
 Center     Atomic      Atomic             Coordinates (Angstroms)
 Number     Number       Type             X           Y           Z
 ---------------------------------------------------------------------
      1          7           0        2.270380   -0.483615    0.025258
      2          6           0        0.939895   -0.007955   -0.092382
      3          6           0        0.405572    1.212322    0.228857
      4          7           0       -0.922571    1.240915   -0.010643
      5          6           0       -1.398245    0.031151   -0.580505
      6          8           0       -1.371107   -1.038794    0.683084
      7          6           0       -0.160969   -0.760222   -0.584251
      8          1           0        2.956757    0.198817   -0.257505
      9          1           0        2.491994   -0.809529    0.955250
     10          1           0        0.929198    2.081428    0.610598
     11          1           0       -1.469443    2.080856   -0.017108
     12          1           0       -2.027790   -1.661618    0.358264
     13          1           0       -0.064047   -1.732469   -1.046800
 ---------------------------------------------------------------------

 SCF Done:  E(RHF) =  -340.152438400     A.U. after    2 cycles

 The electronic state is 1-A.
 Alpha  occ. eigenvalues --  -21.07630 -15.75961 -15.74854 -11.48878 -11.46285
 Alpha  occ. eigenvalues --  -11.40189 -11.38263  -1.71914  -1.46129  -1.32164
 Alpha  occ. eigenvalues --   -1.10218  -1.02027  -0.82715  -0.79952  -0.70371
 Alpha  occ. eigenvalues --   -0.66104  -0.61311  -0.58655  -0.54929  -0.53212
 Alpha  occ. eigenvalues --   -0.48808  -0.42973  -0.37447  -0.35539  -0.31647
 Alpha  occ. eigenvalues --   -0.24491
 Alpha virt. eigenvalues --    0.03387   0.04896   0.05481   0.05888   0.06283
 Alpha virt. eigenvalues --    0.06750   0.09731   0.10415   0.11186   0.12129
 Alpha virt. eigenvalues --    0.12960   0.13523   0.14213   0.14952   0.15675

 Mulliken charges:
               1
     1  N   -3.596650
     2  C    2.904123
     3  C   -0.506753
     4  N   -2.817331
     5  C   -0.735349
     6  O   -1.905558
     7  C    0.841317
     8  H    0.528974
     9  H    0.430653
    10  H    1.538992
    11  H    0.735141
    12  H    0.911062
    13  H    1.671378
 Sum of Mulliken charges =  -0.00000

 Dipole moment (field-independent basis, Debye):
    X=              1.6412    Y=              1.1584    Z=              2.4144  Tot=              3.1408

 Test job not archived.
 1\1\GINC-SE117\SP\RHF\Aug-CC-pVDZ\C4H6N2O1\OHZDE\09-Apr-2025\0\\#t hf
 aug-cc-pvdz iop(5/13=1,5/36=2,99/5=2) pseudo=read geom=check guess=(re
 ad,tcheck) scf=(maxcycle=1)\\title\\0,1\N,0,-1.9600917,0.81469502,-0.2
 2446561\C,0,-0.69901482,0.1666644,-0.21958543\C,0,-0.38591841,-1.15721
 195,-0.05498563\N,0,0.94991053,-1.34919326,-0.08409261\C,0,1.6661284,-
 0.14938753,-0.33316107\O,0,1.54112048,0.68851257,1.08967852\C,0,0.5568
 1756,0.81198616,-0.38140165\H,0,-2.66206235,0.30177676,-0.73528361\H,0
 ,-2.30547105,1.01262297,0.70384209\H,0,-1.07289004,-1.98670287,0.06859

 Normal termination of Gaussian 16 at Wed Apr  9 18:17:17 2025.
