 Gaussian 16, Revision C.01,

 ----------------------------------------------------------------------
 #t hf aug-cc-pvdz symm=none int=(grid=ultrafine) guess=(read,tcheck) s
 table=(opt,rrhf)
 ----------------------------------------------------------------------
 -----
 title
 -----
 Symbolic Z-matrix:
 Charge =  0 Multiplicity = 1

 SCF Done:  E(RHF) =  -358.485065524     A.U. after   16 cycles
 Normal termination of Gaussian 16 at Wed Apr  9 03:34:11 2025.
 Gaussian 16:  ES64L-G16RevC.01  3-Jul-2019

 ----------------------------------------------------------------------
 #t hf aug-cc-pvdz iop(5/13=1,5/36=2,99/5=2) pseudo=read geom=check gue
 ss=(read,tcheck) scf=(maxcycle=1)
 ----------------------------------------------------------------------
 -----
 title
 -----
 Structure from the checkpoint file:  "Grambow2020_wb97xd3_007082_reverse_mol2.chk"
 Charge =  0 Multiplicity = 1

                         Standard orientation:
 ---------------------------------------------------------------------
 Center     Atomic      Atomic             Coordinates (Angstroms)
 Number     Number       Type             X           Y           Z
 ---------------------------------------------------------------------
      1          8           0        2.130152   -0.357744    0.052748
      2          6           0        0.975016   -0.010929    0.079619
      3          7           0        0.453168    1.189725   -0.271422
      4          6           0       -0.969793    1.304229   -0.006598
      5          6           0       -1.439778    0.018730    0.601972
      6          8           0       -0.860102   -1.291859   -0.705082
      7          6           0       -0.231271   -0.841345    0.518870
      8          1           0        1.026600    1.912238   -0.669742
      9          1           0       -1.556598    1.559003   -0.892509
     10          1           0       -1.189648    2.068309    0.751580
     11          1           0       -1.601044   -1.859470   -0.462085
     12          1           0       -0.016929   -1.635437    1.228206
 ---------------------------------------------------------------------

 SCF Done:  E(RHF) =  -360.046816475     A.U. after    2 cycles

 The electronic state is 1-A.
 Alpha  occ. eigenvalues --  -21.12934 -21.03706 -15.77039 -11.51862 -11.46929
 Alpha  occ. eigenvalues --  -11.45418 -11.40644  -1.80187  -1.70408  -1.43879
 Alpha  occ. eigenvalues --   -1.12479  -1.04887  -0.83265  -0.82405  -0.70725
 Alpha  occ. eigenvalues --   -0.67210  -0.63366  -0.58914  -0.53688  -0.51256
 Alpha  occ. eigenvalues --   -0.49366  -0.44765  -0.39350  -0.36671  -0.32030
 Alpha  occ. eigenvalues --   -0.27746
 Alpha virt. eigenvalues --    0.03365   0.05025   0.05353   0.05787   0.06148
 Alpha virt. eigenvalues --    0.07772   0.09925   0.10261   0.11874   0.12717
 Alpha virt. eigenvalues --    0.12957   0.13994   0.14227   0.14765   0.15734

 Mulliken charges:
               1
     1  O   -3.443536
     2  C    5.557710
     3  N   -2.581374
     4  C   -2.020529
     5  C   -0.815757
     6  O   -2.218018
     7  C   -0.660732
     8  H    0.779185
     9  H    1.491678
    10  H    1.448435
    11  H    0.853724
    12  H    1.609213
 Sum of Mulliken charges =  -0.00000

 Dipole moment (field-independent basis, Debye):
    X=             -0.6599    Y=              0.5882    Z=             -1.2615  Tot=              1.5404

 Test job not archived.
 1\1\GINC-SE220\SP\RHF\Aug-CC-pVDZ\C4H5N1O2\OHZDE\09-Apr-2025\0\\#t hf
 aug-cc-pvdz iop(5/13=1,5/36=2,99/5=2) pseudo=read geom=check guess=(re
 ad,tcheck) scf=(maxcycle=1)\\title\\0,1\O,0,0.81124492,2.17120207,0.84
 700565\C,0,0.48334646,1.11566724,0.36361123\N,0,1.28084606,0.101269,-0
 .05125637\C,0,0.55662712,-0.98234785,-0.69105412\C,0,-0.89953244,-0.63
 138468,-0.70429251\O,0,-1.25570006,-0.28074358,1.16980791\C,0,-0.93820
 796,0.62578865,0.08636591\H,0,2.27623434,0.13121732,0.08221281\H,0,0.7
 239874,-1.95370948,-0.21931839\H,0,0.82652943,-1.09202859,-1.75035211\

 Normal termination of Gaussian 16 at Wed Apr  9 03:34:16 2025.
