 Gaussian 16, Revision C.01,

 ----------------------------------------------------------------------
 #t hf aug-cc-pvdz symm=none int=(grid=ultrafine) guess=(read,tcheck) s
 table=(opt,rrhf)
 ----------------------------------------------------------------------
 -----
 title
 -----
 Symbolic Z-matrix:
 Charge =  0 Multiplicity = 1

 SCF Done:  E(RHF) =  -302.821536600     A.U. after   15 cycles
 Normal termination of Gaussian 16 at Wed Apr  9 18:23:23 2025.
 Gaussian 16:  ES64L-G16RevC.01  3-Jul-2019

 ----------------------------------------------------------------------
 #t hf aug-cc-pvdz iop(5/13=1,5/36=2,99/5=2) pseudo=read geom=check gue
 ss=(read,tcheck) scf=(maxcycle=1)
 ----------------------------------------------------------------------
 -----
 title
 -----
 Structure from the checkpoint file:  "Grambow2020_wb97xd3_006955_reverse_mol2.chk"
 Charge =  0 Multiplicity = 1

                         Standard orientation:
 ---------------------------------------------------------------------
 Center     Atomic      Atomic             Coordinates (Angstroms)
 Number     Number       Type             X           Y           Z
 ---------------------------------------------------------------------
      1          6           0       -1.548581   -1.230195   -0.569041
      2          6           0       -0.907239    0.014816   -0.006763
      3          6           0       -1.574869    1.316456   -0.370739
      4          7           0       -0.377364   -0.032407    1.377616
      5          6           0        0.520759   -0.006456    0.271317
      6          6           0        1.761334    0.024825   -0.065180
      7          7           0        2.932647   -0.087265   -0.421123
      8          1           0       -1.556120   -1.195765   -1.659849
      9          1           0       -2.583929   -1.309581   -0.227848
     10          1           0       -1.006235   -2.126297   -0.264712
     11          1           0       -2.621576    1.303428   -0.057709
     12          1           0       -1.074496    2.148762    0.121552
     13          1           0       -1.543205    1.474560   -1.450596
     14          1           0       -0.441632   -0.972795    1.758950
     15          1           0        3.431794    0.798719   -0.472802
 ---------------------------------------------------------------------

 SCF Done:  E(RHF) =  -304.263877990     A.U. after    2 cycles

 The electronic state is 1-A.
 Alpha  occ. eigenvalues --  -15.76796 -15.75638 -11.49565 -11.47378 -11.42855
 Alpha  occ. eigenvalues --  -11.40157 -11.38574  -1.49060  -1.34112  -1.13815
 Alpha  occ. eigenvalues --   -1.03062  -1.00812  -0.85406  -0.72374  -0.66401
 Alpha  occ. eigenvalues --   -0.64624  -0.60914  -0.58141  -0.55042  -0.53377
 Alpha  occ. eigenvalues --   -0.50544  -0.49643  -0.44610  -0.42363  -0.36074
 Alpha  occ. eigenvalues --   -0.29441
 Alpha virt. eigenvalues --    0.03184   0.05404   0.05518   0.05803   0.06076
 Alpha virt. eigenvalues --    0.06126   0.07218   0.07522   0.09779   0.10334
 Alpha virt. eigenvalues --    0.12291   0.12851   0.13193   0.14023   0.14280

 Mulliken charges:
               1
     1  C   -4.795104
     2  C    1.821031
     3  C   -4.325510
     4  N   -2.578839
     5  C    2.744181
     6  C    2.378334
     7  N   -3.593183
     8  H    1.164709
     9  H    1.155473
    10  H    1.198820
    11  H    1.154389
    12  H    1.244726
    13  H    1.161743
    14  H    0.603258
    15  H    0.665974
 Sum of Mulliken charges =  -0.00000

 Dipole moment (field-independent basis, Debye):
    X=             -1.6833    Y=              0.1912    Z=             -0.3337  Tot=              1.7267

 Test job not archived.
 1\1\GINC-SE220\SP\RHF\Aug-CC-pVDZ\C5H8N2\OHZDE\09-Apr-2025\0\\#t hf au
 g-cc-pvdz iop(5/13=1,5/36=2,99/5=2) pseudo=read geom=check guess=(read
 ,tcheck) scf=(maxcycle=1)\\title\\0,1\C,0,-0.92404668,1.44107264,-0.28
 679465\C,0,-0.44334557,0.01381637,-0.18987352\C,0,-1.3436693,-0.930150
 7,0.56565238\N,0,0.21319711,-0.58788636,-1.3757955\C,0,0.98881388,-0.2
 3936688,-0.23205143\C,0,2.17136514,-0.25900798,0.2723502\N,0,3.3072725
 ,-0.13399272,0.72547194\H,0,-1.03813647,1.87334134,0.70881142\H,0,-1.8
 967513,1.47978501,-0.78379258\H,0,-0.21797354,2.05920414,-0.84278728\H

 Normal termination of Gaussian 16 at Wed Apr  9 18:23:28 2025.
