 Gaussian 16, Revision C.01,

 ----------------------------------------------------------------------
 #t hf aug-cc-pvdz symm=none int=(grid=ultrafine) guess=(read,tcheck) s
 table=(opt,rrhf)
 ----------------------------------------------------------------------
 -----
 title
 -----
 Symbolic Z-matrix:
 Charge =  0 Multiplicity = 1

 SCF Done:  E(RHF) =  -307.734143178     A.U. after   17 cycles

 1\1\GINC-SE115\Stability\RHF\Aug-CC-pVDZ\C6H10O1\OHZDE\09-Apr-2025\0\\
 #t hf aug-cc-pvdz symm=none int=(grid=ultrafine) guess=(read,tcheck) s
 table=(opt,rrhf)\\title\\0,1\C,0,2.09660425,0.20835889,0.27464946\C,0,
 0.64900331,-0.06778626,-0.02539699\C,0,0.05096897,-1.38307417,0.086679
 8\C,0,-1.40519751,-1.13897893,0.3098032\C,0,-1.68391102,0.22411331,-0.
 33675821\C,0,-0.40162987,0.9411983,-0.04050567\O,0,-0.25486594,2.20471
 499,-0.52554724\H,0,2.23669409,0.28232251,1.35357601\H,0,2.44804438,1.
 13612571,-0.18142342\H,0,2.72140277,-0.60517596,-0.09422172\H,0,0.5841

 Normal termination of Gaussian 16 at Wed Apr  9 18:53:04 2025.
 Gaussian 16:  ES64L-G16RevC.01  3-Jul-2019

 ----------------------------------------------------------------------
 #t hf aug-cc-pvdz iop(5/13=1,5/36=2,99/5=2) pseudo=read geom=check gue
 ss=(read,tcheck) scf=(maxcycle=1)
 ----------------------------------------------------------------------
 -----
 title
 -----
 Structure from the checkpoint file:  "Grambow2020_wb97xd3_007741_forward_mol1.chk"
 Charge =  0 Multiplicity = 1

                         Standard orientation:
 ---------------------------------------------------------------------
 Center     Atomic      Atomic             Coordinates (Angstroms)
 Number     Number       Type             X           Y           Z
 ---------------------------------------------------------------------
      1          6           0        1.991155   -0.970541    0.087550
      2          6           0        0.566854   -0.530432   -0.111209
      3          6           0       -0.544364   -1.455407   -0.210218
      4          6           0       -1.747562   -0.676108    0.207866
      5          6           0       -1.406564    0.784962   -0.112662
      6          6           0        0.061187    0.802104    0.190052
      7          8           0        0.742294    1.958589   -0.037797
      8          1           0        2.153585   -1.213125    1.138239
      9          1           0        2.710187   -0.201593   -0.202235
     10          1           0        2.197344   -1.863186   -0.503169
     11          1           0       -0.427878   -2.514003   -0.017638
     12          1           0       -1.782866   -0.727293    1.319438
     13          1           0       -2.710108   -1.010412   -0.177584
     14          1           0       -1.571487    1.015727   -1.183192
     15          1           0       -1.983673    1.501238    0.469478
     16          1           0        0.335864   -0.280373   -1.202391
     17          1           0        1.616446    1.896843    0.353159
 ---------------------------------------------------------------------

 SCF Done:  E(RHF) =  -309.214299734     A.U. after    2 cycles

 The electronic state is 1-A.
 Alpha  occ. eigenvalues --  -21.11184 -11.48502 -11.45288 -11.41780 -11.39756
 Alpha  occ. eigenvalues --  -11.39094 -11.34779  -1.76172  -1.35356  -1.12952
 Alpha  occ. eigenvalues --   -0.99668  -0.98137  -0.80795  -0.75367  -0.67451
 Alpha  occ. eigenvalues --   -0.65671  -0.61858  -0.59115  -0.54854  -0.51612
 Alpha  occ. eigenvalues --   -0.51223  -0.48773  -0.45886  -0.44344  -0.43222
 Alpha  occ. eigenvalues --   -0.37869  -0.18143
 Alpha virt. eigenvalues --    0.03210   0.04925   0.05306   0.05621   0.05775
 Alpha virt. eigenvalues --    0.06047   0.06500   0.07155   0.07540   0.08215
 Alpha virt. eigenvalues --    0.09270   0.11076   0.12251   0.13034   0.14080

 Mulliken charges:
               1
     1  C   -4.490232
     2  C   -1.093117
     3  C   -1.390516
     4  C   -2.967491
     5  C   -3.709754
     6  C    4.195673
     7  O   -3.686302
     8  H    1.312724
     9  H    1.191791
    10  H    1.176494
    11  H    1.454777
    12  H    1.331268
    13  H    1.337857
    14  H    1.136619
    15  H    1.325188
    16  H    2.089305
    17  H    0.785714
 Sum of Mulliken charges =  -0.00000

 Dipole moment (field-independent basis, Debye):
    X=              1.7117    Y=              1.1115    Z=              0.6377  Tot=              2.1382

 Test job not archived.
 1\1\GINC-SE115\SP\RHF\Aug-CC-pVDZ\C6H10O1\OHZDE\09-Apr-2025\0\\#t hf a
 ug-cc-pvdz iop(5/13=1,5/36=2,99/5=2) pseudo=read geom=check guess=(rea
 d,tcheck) scf=(maxcycle=1)\\title\\0,1\C,0,2.09660425,0.20835889,0.274
 64946\C,0,0.64900331,-0.06778626,-0.02539699\C,0,0.05096897,-1.3830741
 7,0.0866798\C,0,-1.40519751,-1.13897893,0.3098032\C,0,-1.68391102,0.22
 411331,-0.33675821\C,0,-0.40162987,0.9411983,-0.04050567\O,0,-0.254865
 94,2.20471499,-0.52554724\H,0,2.23669409,0.28232251,1.35357601\H,0,2.4
 4804438,1.13612571,-0.18142342\H,0,2.72140277,-0.60517596,-0.09422172\

 Normal termination of Gaussian 16 at Wed Apr  9 18:53:10 2025.
