 Gaussian 16, Revision C.01,

 ----------------------------------------------------------------------
 #t hf aug-cc-pvdz symm=none int=(grid=ultrafine) guess=(read,tcheck) s
 table=(opt,rrhf)
 ----------------------------------------------------------------------
 -----
 title
 -----
 Symbolic Z-matrix:
 Charge =  0 Multiplicity = 1

 SCF Done:  E(RHF) =  -323.917113176     A.U. after   14 cycles
 Normal termination of Gaussian 16 at Wed Apr  9 03:52:43 2025.
 Gaussian 16:  ES64L-G16RevC.01  3-Jul-2019

 ----------------------------------------------------------------------
 #t hf aug-cc-pvdz iop(5/13=1,5/36=2,99/5=2) pseudo=read geom=check gue
 ss=(read,tcheck) scf=(maxcycle=1)
 ----------------------------------------------------------------------
 -----
 title
 -----
 Structure from the checkpoint file:  "Grambow2020_wb97xd3_008340_reverse_mol2.chk"
 Charge =  0 Multiplicity = 1

                         Standard orientation:
 ---------------------------------------------------------------------
 Center     Atomic      Atomic             Coordinates (Angstroms)
 Number     Number       Type             X           Y           Z
 ---------------------------------------------------------------------
      1          7           0       -2.357124    0.051946   -0.000236
      2          6           0       -0.970169    0.119911    0.007255
      3          6           0       -0.238430    1.233817    0.114132
      4          6           0        1.263683    1.210499    0.091793
      5          6           0        1.754343   -0.159451   -0.366554
      6          6           0        0.919999   -1.239405    0.293186
      7          8           0       -0.451699   -1.130451   -0.070292
      8          1           0       -2.700831   -0.804966   -0.402776
      9          1           0       -2.807006    0.865367   -0.384397
     10          1           0       -0.757087    2.179004    0.211039
     11          1           0        1.674838    1.439276    1.082477
     12          1           0        1.647167    1.983877   -0.579788
     13          1           0        1.652547   -0.254024   -1.451272
     14          1           0        2.807819   -0.310756   -0.120761
     15          1           0        0.997476   -1.169913    1.384879
     16          1           0        1.221976   -2.240106   -0.014267
 ---------------------------------------------------------------------

 SCF Done:  E(RHF) =  -325.441424098     A.U. after    2 cycles

 The electronic state is 1-A.
 Alpha  occ. eigenvalues --  -21.06419 -15.74952 -11.48191 -11.44069 -11.41967
 Alpha  occ. eigenvalues --  -11.36822 -11.33977  -1.80176  -1.33655  -1.22386
 Alpha  occ. eigenvalues --   -1.07805  -0.93318  -0.87769  -0.73813  -0.69172
 Alpha  occ. eigenvalues --   -0.66517  -0.62935  -0.58181  -0.56755  -0.54332
 Alpha  occ. eigenvalues --   -0.51803  -0.49984  -0.46797  -0.42374  -0.37719
 Alpha  occ. eigenvalues --   -0.34402  -0.25016
 Alpha virt. eigenvalues --    0.03836   0.05094   0.05470   0.05790   0.06058
 Alpha virt. eigenvalues --    0.06149   0.06598   0.06772   0.08464   0.11744
 Alpha virt. eigenvalues --    0.12561   0.13311   0.14027   0.14727   0.14836

 Mulliken charges:
               1
     1  N   -3.462775
     2  C    4.264169
     3  C   -0.264696
     4  C   -2.764458
     5  C   -3.142249
     6  C   -1.595675
     7  O   -3.844429
     8  H    0.794179
     9  H    0.496567
    10  H    1.504321
    11  H    1.208646
    12  H    1.194150
    13  H    1.349212
    14  H    1.294739
    15  H    1.595487
    16  H    1.372812
 Sum of Mulliken charges =  -0.00000

 Dipole moment (field-independent basis, Debye):
    X=             -0.0788    Y=             -0.7560    Z=             -0.8310  Tot=              1.1262

 Test job not archived.
 1\1\GINC-SE339\SP\RHF\Aug-CC-pVDZ\C5H9N1O1\OHZDE\09-Apr-2025\0\\#t hf
 aug-cc-pvdz iop(5/13=1,5/36=2,99/5=2) pseudo=read geom=check guess=(re
 ad,tcheck) scf=(maxcycle=1)\\title\\0,1\N,0,2.54610951,0.41384275,-0.2
 4369673\C,0,1.18936848,0.16029426,-0.09109828\C,0,0.64603031,-0.991188
 69,0.31697066\C,0,-0.84018711,-1.17900577,0.43216411\C,0,-1.56359466,-
 0.02570674,-0.25643916\C,0,-0.86607823,1.27765627,0.07882496\O,0,0.480
 68498,1.27910991,-0.38135832\H,0,2.72796929,1.19840134,-0.84856577\H,0
 ,3.09108764,-0.39533863,-0.48834138\H,0,1.30909928,-1.81108938,0.56166

 Normal termination of Gaussian 16 at Wed Apr  9 03:52:49 2025.
