 Gaussian 16, Revision C.01,

 ----------------------------------------------------------------------
 #t hf aug-cc-pvdz symm=none int=(grid=ultrafine) guess=(read,tcheck) s
 table=(opt,rrhf)
 ----------------------------------------------------------------------
 -----
 title
 -----
 Symbolic Z-matrix:
 Charge =  0 Multiplicity = 1

 SCF Done:  E(RHF) =  -322.697201888     A.U. after   14 cycles
 Normal termination of Gaussian 16 at Wed Apr  9 18:18:14 2025.
 Gaussian 16:  ES64L-G16RevC.01  3-Jul-2019

 ----------------------------------------------------------------------
 #t hf aug-cc-pvdz iop(5/13=1,5/36=2,99/5=2) pseudo=read geom=check gue
 ss=(read,tcheck) scf=(maxcycle=1)
 ----------------------------------------------------------------------
 -----
 title
 -----
 Structure from the checkpoint file:  "Grambow2020_wb97xd3_006852_reverse_mol2.chk"
 Charge =  0 Multiplicity = 1

                         Standard orientation:
 ---------------------------------------------------------------------
 Center     Atomic      Atomic             Coordinates (Angstroms)
 Number     Number       Type             X           Y           Z
 ---------------------------------------------------------------------
      1          6           0        2.815419   -0.183703   -0.443102
      2          6           0        1.731605    0.088565    0.559740
      3          6           0        0.484323    0.299498    0.266488
      4          6           0       -0.795167    0.467794    0.030424
      5          7           0       -1.449693    1.714848   -0.076399
      6          6           0       -1.698991   -0.715828   -0.023123
      7          8           0       -1.345974   -1.862284   -0.044236
      8          1           0        3.253507   -1.168292   -0.265930
      9          1           0        3.617504    0.552281   -0.352695
     10          1           0        2.426147   -0.156110   -1.459621
     11          1           0        2.018598    0.096653    1.610103
     12          1           0       -0.810454    2.493604   -0.045200
     13          1           0       -2.036489    1.784184   -0.895668
     14          1           0       -2.776299   -0.445927   -0.044869
 ---------------------------------------------------------------------

 SCF Done:  E(RHF) =  -324.181405037     A.U. after    2 cycles

 The electronic state is 1-A.
 Alpha  occ. eigenvalues --  -21.05936 -15.76457 -11.49043 -11.44629 -11.43977
 Alpha  occ. eigenvalues --  -11.41000 -11.38560  -1.70980  -1.38127  -1.20584
 Alpha  occ. eigenvalues --   -1.06491  -0.95990  -0.86265  -0.70637  -0.68152
 Alpha  occ. eigenvalues --   -0.64921  -0.60889  -0.57501  -0.56537  -0.52028
 Alpha  occ. eigenvalues --   -0.51243  -0.49810  -0.42549  -0.35760  -0.29816
 Alpha  occ. eigenvalues --   -0.29303
 Alpha virt. eigenvalues --    0.03095   0.04681   0.05556   0.05730   0.06350
 Alpha virt. eigenvalues --    0.06417   0.06808   0.10088   0.10796   0.11024
 Alpha virt. eigenvalues --    0.11404   0.11933   0.13253   0.13446   0.13656

 Mulliken charges:
               1
     1  C   -4.440723
     2  C   -2.110075
     3  C    2.720558
     4  C    1.073188
     5  N   -3.212149
     6  C    1.465897
     7  O   -2.958762
     8  H    1.162029
     9  H    1.177015
    10  H    1.334964
    11  H    1.298201
    12  H    0.600400
    13  H    0.459236
    14  H    1.430222
 Sum of Mulliken charges =  -0.00000

 Dipole moment (field-independent basis, Debye):
    X=              1.0043    Y=              1.5718    Z=             -0.7429  Tot=              2.0078

 Test job not archived.
 1\1\GINC-SE014\SP\RHF\Aug-CC-pVDZ\C5H7N1O1\OHZDE\09-Apr-2025\0\\#t hf
 aug-cc-pvdz iop(5/13=1,5/36=2,99/5=2) pseudo=read geom=check guess=(re
 ad,tcheck) scf=(maxcycle=1)\\title\\0,1\C,0,2.37507075,-0.63845157,0.4
 114819\C,0,1.23694113,-0.62548547,-0.56778747\C,0,0.04248408,-0.184690
 18,-0.31249809\C,0,-1.16445572,0.29397549,-0.12455876\N,0,-2.30107055,
 -0.46834993,0.22461963\C,0,-1.440723,1.73205693,-0.40082777\O,0,-0.612
 26144,2.57133414,-0.62149471\H,0,3.19770525,-0.02320551,0.04071107\H,0
 ,2.75860279,-1.65277172,0.54280545\H,0,2.06384265,-0.25223224,1.380799

 Normal termination of Gaussian 16 at Wed Apr  9 18:18:18 2025.
