 Gaussian 16, Revision C.01,

 ----------------------------------------------------------------------
 #t hf aug-cc-pvdz symm=none int=(grid=ultrafine) guess=(read,tcheck) s
 table=(opt,rrhf)
 ----------------------------------------------------------------------
 -----
 title
 -----
 Symbolic Z-matrix:
 Charge =  0 Multiplicity = 1

 SCF Done:  E(RHF) =  -322.638962566     A.U. after   15 cycles
 Normal termination of Gaussian 16 at Wed Apr  9 18:50:35 2025.
 Gaussian 16:  ES64L-G16RevC.01  3-Jul-2019

 ----------------------------------------------------------------------
 #t hf aug-cc-pvdz iop(5/13=1,5/36=2,99/5=2) pseudo=read geom=check gue
 ss=(read,tcheck) scf=(maxcycle=1)
 ----------------------------------------------------------------------
 -----
 title
 -----
 Structure from the checkpoint file:  "Grambow2020_wb97xd3_007715_reverse_mol2.chk"
 Charge =  0 Multiplicity = 1

                         Standard orientation:
 ---------------------------------------------------------------------
 Center     Atomic      Atomic             Coordinates (Angstroms)
 Number     Number       Type             X           Y           Z
 ---------------------------------------------------------------------
      1          6           0        2.549699   -0.317880   -0.151731
      2          7           0        1.232679   -0.796181    0.222119
      3          6           0        0.256148   -0.047546    0.202204
      4          8           0        0.159564    1.338220   -0.186407
      5          6           0       -1.167723    1.383530   -0.057690
      6          6           0       -2.101041   -1.043278   -0.321564
      7          6           0       -1.232117   -0.064273    0.443732
      8          1           0        3.216680   -0.445616    0.701312
      9          1           0        2.928388   -0.944248   -0.959546
     10          1           0        2.563656    0.727785   -0.466922
     11          1           0       -3.153188   -0.800187   -0.170818
     12          1           0       -1.892431   -1.003622   -1.391441
     13          1           0       -1.927473   -2.062728    0.022457
     14          1           0       -1.470705   -0.067195    1.511680
 ---------------------------------------------------------------------

 SCF Done:  E(RHF) =  -324.117504435     A.U. after    2 cycles

 The electronic state is 1-A.
 Alpha  occ. eigenvalues --  -21.12801 -15.74865 -11.51260 -11.45523 -11.42004
 Alpha  occ. eigenvalues --  -11.39926 -11.39308  -1.86477  -1.38876  -1.20814
 Alpha  occ. eigenvalues --   -1.03508  -0.97864  -0.82986  -0.72874  -0.65296
 Alpha  occ. eigenvalues --   -0.64288  -0.63361  -0.59228  -0.57706  -0.55426
 Alpha  occ. eigenvalues --   -0.50876  -0.47685  -0.43425  -0.38559  -0.37435
 Alpha  occ. eigenvalues --   -0.32421
 Alpha virt. eigenvalues --    0.03398   0.04774   0.05620   0.06005   0.06223
 Alpha virt. eigenvalues --    0.06469   0.07131   0.08787   0.10083   0.11153
 Alpha virt. eigenvalues --    0.11420   0.12253   0.12960   0.13228   0.14047

 Mulliken charges:
               1
     1  C   -3.645329
     2  N   -3.158526
     3  C    5.228868
     4  O   -2.572824
     5  C    0.472959
     6  C   -3.927050
     7  C   -1.596006
     8  H    1.350645
     9  H    1.354590
    10  H    1.270587
    11  H    1.257207
    12  H    1.270153
    13  H    1.220021
    14  H    1.474705
 Sum of Mulliken charges =  -0.00000

 Dipole moment (field-independent basis, Debye):
    X=              1.5870    Y=             -1.3359    Z=              0.1865  Tot=              2.0828

 Test job not archived.
 1\1\GINC-SE362\SP\RHF\Aug-CC-pVDZ\C5H7N1O1\OHZDE\09-Apr-2025\0\\#t hf
 aug-cc-pvdz iop(5/13=1,5/36=2,99/5=2) pseudo=read geom=check guess=(re
 ad,tcheck) scf=(maxcycle=1)\\title\\0,1\C,0,2.40002591,0.1600465,0.887
 70001\N,0,1.02586396,0.58662016,0.70661361\C,0,0.3313143,0.1234699,-0.
 19757546\O,0,0.64614641,-0.87833482,-1.1864951\C,0,-0.59037498,-0.9140
 1596,-1.68654913\C,0,-2.24670509,-0.093925,0.16118746\C,0,-1.07005378,
 0.20049122,-0.74874045\H,0,3.04655395,1.0324788,0.78908191\H,0,2.51350
 713,-0.21782463,1.90388974\H,0,2.71855811,-0.60682352,0.17819094\H,0,-

 Normal termination of Gaussian 16 at Wed Apr  9 18:50:38 2025.
