 Gaussian 16, Revision C.01,

 ----------------------------------------------------------------------
 #t hf aug-cc-pvdz symm=none int=(grid=ultrafine) guess=(read,tcheck) s
 table=(opt,rrhf)
 ----------------------------------------------------------------------
 -----
 title
 -----
 Symbolic Z-matrix:
 Charge =  0 Multiplicity = 1

 SCF Done:  E(RHF) =  -318.824632523     A.U. after   17 cycles
 Normal termination of Gaussian 16 at Wed Apr  9 18:21:16 2025.
 Gaussian 16:  ES64L-G16RevC.01  3-Jul-2019

 ----------------------------------------------------------------------
 #t hf aug-cc-pvdz iop(5/13=1,5/36=2,99/5=2) pseudo=read geom=check gue
 ss=(read,tcheck) scf=(maxcycle=1)
 ----------------------------------------------------------------------
 -----
 title
 -----
 Structure from the checkpoint file:  "Grambow2020_wb97xd3_006929_reverse_mol2.chk"
 Charge =  0 Multiplicity = 1

                         Standard orientation:
 ---------------------------------------------------------------------
 Center     Atomic      Atomic             Coordinates (Angstroms)
 Number     Number       Type             X           Y           Z
 ---------------------------------------------------------------------
      1          7           0        2.331037   -0.511741    0.365832
      2          6           0        1.123698   -0.199685   -0.363653
      3          6           0       -0.094413   -1.062983   -0.231072
      4          6           0       -1.122342   -0.163400   -0.022824
      5          7           0       -2.507385   -0.446567    0.057176
      6          6           0       -0.624765    1.154905    0.060052
      7          7           0        0.682126    1.177551   -0.055790
      8          1           0        2.079988   -0.846218    1.288784
      9          1           0        2.796354   -1.283498   -0.092425
     10          1           0        1.350643   -0.198541   -1.439042
     11          1           0       -2.904546   -0.211168    0.956186
     12          1           0       -2.642298   -1.435330   -0.102544
     13          1           0       -1.184333    2.074855    0.198417
     14          1           0        1.270679    1.992180   -0.034921
 ---------------------------------------------------------------------

 SCF Done:  E(RHF) =  -320.315949222     A.U. after    2 cycles

 The electronic state is 1-A.
 Alpha  occ. eigenvalues --  -15.78766 -15.74025 -15.72813 -11.48559 -11.44197
 Alpha  occ. eigenvalues --  -11.39233 -11.33298  -1.52645  -1.32391  -1.29992
 Alpha  occ. eigenvalues --   -1.08451  -1.01273  -0.82919  -0.75338  -0.73830
 Alpha  occ. eigenvalues --   -0.68159  -0.63923  -0.59699  -0.55324  -0.52604
 Alpha  occ. eigenvalues --   -0.50761  -0.47703  -0.41981  -0.34643  -0.30033
 Alpha  occ. eigenvalues --   -0.27483
 Alpha virt. eigenvalues --    0.03182   0.05006   0.05276   0.05586   0.06406
 Alpha virt. eigenvalues --    0.06769   0.07574   0.08053   0.10747   0.11873
 Alpha virt. eigenvalues --    0.12082   0.12826   0.13778   0.14256   0.15451

 Mulliken charges:
               1
     1  N   -2.796445
     2  C    0.937628
     3  C   -2.830357
     4  C    5.058079
     5  N   -3.639741
     6  C   -0.018673
     7  N   -3.191867
     8  H    0.522909
     9  H    0.543710
    10  H    1.851696
    11  H    0.476542
    12  H    0.746992
    13  H    1.527797
    14  H    0.811730
 Sum of Mulliken charges =   0.00000

 Dipole moment (field-independent basis, Debye):
    X=              0.9538    Y=              4.1099    Z=              1.1498  Tot=              4.3730

 Test job not archived.
 1\1\GINC-SE362\SP\RHF\Aug-CC-pVDZ\C4H7N3\OHZDE\09-Apr-2025\0\\#t hf au
 g-cc-pvdz iop(5/13=1,5/36=2,99/5=2) pseudo=read geom=check guess=(read
 ,tcheck) scf=(maxcycle=1)\\title\\0,1\N,0,-2.30223606,-0.50774107,-0.3
 5800605\C,0,-1.09977278,-0.22318214,0.39052893\C,0,0.12842933,-1.06374
 601,0.21269186\C,0,1.14625466,-0.14224409,0.05738391\N,0,2.53460067,-0
 .40465464,-0.0351557\C,0,0.63364246,1.17286196,0.04717039\N,0,-0.67361
 048,1.17406567,0.16111662\H,0,-2.04583411,-0.78720938,-1.2976313\H,0,-
 2.7593713,-1.3091748,0.05534663\H,0,-1.32847745,-0.28475012,1.46378114

 Normal termination of Gaussian 16 at Wed Apr  9 18:21:20 2025.
