 Gaussian 16, Revision C.01,

 ----------------------------------------------------------------------
 #t hf aug-cc-pvdz symm=none int=(grid=ultrafine) guess=(read,tcheck) s
 table=(opt,rrhf)
 ----------------------------------------------------------------------
 -----
 title
 -----
 Symbolic Z-matrix:
 Charge =  0 Multiplicity = 1

 SCF Done:  E(RHF) =  -304.492875371     A.U. after   17 cycles
 Normal termination of Gaussian 16 at Wed Apr  9 03:16:25 2025.
 Gaussian 16:  ES64L-G16RevC.01  3-Jul-2019

 ----------------------------------------------------------------------
 #t hf aug-cc-pvdz iop(5/13=1,5/36=2,99/5=2) pseudo=read geom=check gue
 ss=(read,tcheck) scf=(maxcycle=1)
 ----------------------------------------------------------------------
 -----
 title
 -----
 Structure from the checkpoint file:  "Grambow2020_b97d3_007025_forward_mol1.chk"
 Charge =  0 Multiplicity = 1

                         Standard orientation:
 ---------------------------------------------------------------------
 Center     Atomic      Atomic             Coordinates (Angstroms)
 Number     Number       Type             X           Y           Z
 ---------------------------------------------------------------------
      1          8           0        1.593161   -0.600151   -0.563695
      2          6           0        0.757802   -0.851749    0.686287
      3          6           0        0.955897    1.227066   -0.035772
      4          6           0       -0.105102    0.362823    0.573055
      5          6           0       -1.215489   -0.015659   -0.387453
      6          8           0       -2.395935   -0.118482   -0.081117
      7          1           0        2.495996   -0.470243   -0.227532
      8          1           0        0.276159   -1.832263    0.633983
      9          1           0        1.816681    1.471467    0.587292
     10          1           0        0.828494    1.782681   -0.963777
     11          1           0       -0.521368    0.779215    1.503237
     12          1           0       -0.832422   -0.316679   -1.391411
 ---------------------------------------------------------------------

 SCF Done:  E(RHF) =  -305.846882401     A.U. after    2 cycles

 The electronic state is 1-A.
 Alpha  occ. eigenvalues --  -21.11250 -21.05104 -11.56823 -11.47938 -11.43135
 Alpha  occ. eigenvalues --  -11.34588  -1.74226  -1.68323  -1.23919  -1.00464
 Alpha  occ. eigenvalues --   -0.86907  -0.80767  -0.70619  -0.68682  -0.59086
 Alpha  occ. eigenvalues --   -0.56174  -0.53538  -0.51316  -0.46078  -0.42345
 Alpha  occ. eigenvalues --   -0.37139  -0.29837  -0.22742
 Alpha virt. eigenvalues --    0.01644   0.03848   0.04112   0.05369   0.06327
 Alpha virt. eigenvalues --    0.06824   0.07461   0.09881   0.10413   0.11022
 Alpha virt. eigenvalues --    0.12361   0.13770   0.14708   0.15153   0.15593

 Mulliken charges:
               1
     1  O   -1.767310
     2  C   -0.339641
     3  C   -2.180069
     4  C   -2.708828
     5  C    1.861245
     6  O   -2.840897
     7  H    0.879658
     8  H    1.445775
     9  H    1.352769
    10  H    1.487033
    11  H    1.459271
    12  H    1.350994
 Sum of Mulliken charges =   0.00000

 Dipole moment (field-independent basis, Debye):
    X=              2.5512    Y=              3.2665    Z=             -2.3378  Tot=              4.7585

 Test job not archived.
 1\1\GINC-SE141\SP\RHF\Aug-CC-pVDZ\C4H6O2\OHZDE\09-Apr-2025\0\\#t hf au
 g-cc-pvdz iop(5/13=1,5/36=2,99/5=2) pseudo=read geom=check guess=(read
 ,tcheck) scf=(maxcycle=1)\\title\\0,1\O,0,-1.37216044,0.76951494,-0.11
 136489\C,0,-1.03437391,-0.70282634,0.09281885\C,0,0.34090966,0.5243494
 6,-1.12567082\C,0,0.43967019,-0.57986769,-0.11856799\C,0,1.00690871,-0
 .14358868,1.21810058\O,0,1.74657399,-0.82449215,1.91605044\H,0,-1.9340
 5621,0.77964882,-0.90456255\H,0,-1.38769817,-1.04482883,1.06971116\H,0
 ,-0.12662347,0.28573105,-2.08137118\H,0,0.87719468,1.4689211,-1.046193

 Normal termination of Gaussian 16 at Wed Apr  9 03:16:30 2025.
