 Gaussian 16, Revision C.01,

 ----------------------------------------------------------------------
 #t hf aug-cc-pvdz symm=none int=(grid=ultrafine) guess=(read,tcheck) s
 table=(opt,rrhf)
 ----------------------------------------------------------------------
 -----
 title
 -----
 Symbolic Z-matrix:
 Charge =  0 Multiplicity = 1

 SCF Done:  E(RHF) =  -342.273907557     A.U. after   18 cycles
 Normal termination of Gaussian 16 at Wed Apr  9 19:30:11 2025.
 Gaussian 16:  ES64L-G16RevC.01  3-Jul-2019

 ----------------------------------------------------------------------
 #t hf aug-cc-pvdz iop(5/13=1,5/36=2,99/5=2) pseudo=read geom=check gue
 ss=(read,tcheck) scf=(maxcycle=1)
 ----------------------------------------------------------------------
 -----
 title
 -----
 Structure from the checkpoint file:  "Grambow2020_wb97xd3_009062_reverse_mol1.chk"
 Charge =  0 Multiplicity = 1

                         Standard orientation:
 ---------------------------------------------------------------------
 Center     Atomic      Atomic             Coordinates (Angstroms)
 Number     Number       Type             X           Y           Z
 ---------------------------------------------------------------------
      1          8           0        1.756688    0.092260   -0.605661
      2          6           0       -0.312795    1.331313   -0.464070
      3          6           0       -1.302936    0.188974   -0.817110
      4          6           0       -1.263842   -0.944264    0.267949
      5          6           0        0.089956   -0.457407    0.663127
      6          8           0        1.049902   -0.973269    0.019576
      7          6           0        0.106237    0.987016    0.948557
      8          1           0       -1.109568   -0.173873   -1.824868
      9          1           0       -2.273549    0.694764   -0.842778
     10          1           0       -1.249317   -1.949452   -0.141117
     11          1           0       -2.024171   -0.837209    1.037287
     12          1           0        1.039356    1.430344    1.267797
     13          1           0       -0.735183    1.249713    1.601636
 ---------------------------------------------------------------------

 SCF Done:  E(RHF) =  -343.796020749     A.U. after    2 cycles

 The electronic state is 1-A.
 Alpha  occ. eigenvalues --  -21.13122 -20.99919 -11.54634 -11.48402 -11.44878
 Alpha  occ. eigenvalues --  -11.44023 -11.40727  -1.97224  -1.40584  -1.32368
 Alpha  occ. eigenvalues --   -1.11022  -1.00788  -0.81462  -0.78051  -0.70647
 Alpha  occ. eigenvalues --   -0.67697  -0.62916  -0.58257  -0.55939  -0.52850
 Alpha  occ. eigenvalues --   -0.49018  -0.47651  -0.40019  -0.34147  -0.27455
 Alpha  occ. eigenvalues --   -0.23822
 Alpha virt. eigenvalues --    0.02931   0.04506   0.04577   0.04728   0.05973
 Alpha virt. eigenvalues --    0.06763   0.07215   0.08290   0.08724   0.11121
 Alpha virt. eigenvalues --    0.12235   0.13025   0.13831   0.14137   0.14634

 Mulliken charges:
               1
     1  O   -0.446593
     2  C   -0.445089
     3  C   -2.338946
     4  C   -3.369635
     5  C    4.064145
     6  O   -2.744674
     7  C   -3.040240
     8  H    1.394323
     9  H    1.348851
    10  H    1.351539
    11  H    1.250322
    12  H    1.526363
    13  H    1.449634
 Sum of Mulliken charges =   0.00000

 Dipole moment (field-independent basis, Debye):
    X=             -2.5314    Y=             -1.6756    Z=              1.6284  Tot=              3.4449

 Test job not archived.
 1\1\GINC-SE014\SP\RHF\Aug-CC-pVDZ\C5H6O2\OHZDE\09-Apr-2025\0\\#t hf au
 g-cc-pvdz iop(5/13=1,5/36=2,99/5=2) pseudo=read geom=check guess=(read
 ,tcheck) scf=(maxcycle=1)\\title\\0,1\O,0,1.40689091,-1.04266844,1.481
 03276\C,0,0.3850509,-1.17025842,-0.70474497\C,0,-1.0219689,-0.62108128
 ,-0.34605945\C,0,-0.93729694,0.86993459,0.13644683\C,0,0.50094986,0.63
 729995,0.4578377\O,0,0.72128951,0.19646792,1.62355028\C,0,1.24663895,0
 .07339897,-0.67972742\H,0,-1.50674081,-1.27877635,0.37300857\H,0,-1.57
 658815,-0.71416742,-1.28536994\H,0,-1.53743743,1.08657065,1.01442709\H

 Normal termination of Gaussian 16 at Wed Apr  9 19:30:15 2025.
