 Gaussian 16, Revision C.01,

 ----------------------------------------------------------------------
 #t hf aug-cc-pvdz symm=none int=(grid=ultrafine) guess=(read,tcheck) s
 table=(opt,rrhf)
 ----------------------------------------------------------------------
 -----
 title
 -----
 Symbolic Z-matrix:
 Charge =  0 Multiplicity = 1

 SCF Done:  E(RHF) =  -306.773484713     A.U. after   16 cycles

 1\1\GINC-SE041\Stability\RHF\Aug-CC-pVDZ\C4H10O2\OHZDE\09-Apr-2025\0\\
 #t hf aug-cc-pvdz symm=none int=(grid=ultrafine) guess=(read,tcheck) s
 table=(opt,rrhf)\\title\\0,1\O,0,-1.22176869,0.8702983,-1.11957179\C,0
 ,-1.81331799,-0.08684511,-0.40477113\C,0,0.0108921,-1.38499237,0.40679
 911\C,0,0.65301546,-0.26614225,1.24741601\C,0,1.24526163,0.48572344,0.
 05874902\O,0,0.99093324,1.9015139,0.13128422\H,0,-0.61062569,1.4205978
 9,-0.55573379\H,0,-2.04745232,0.08393005,0.6459698\H,0,-2.44514948,-0.
 74883639,-0.99256606\H,0,0.79087369,-2.11370739,0.12353793\H,0,-0.8231

 Normal termination of Gaussian 16 at Wed Apr  9 17:30:33 2025.
 Gaussian 16:  ES64L-G16RevC.01  3-Jul-2019

 ----------------------------------------------------------------------
 #t hf aug-cc-pvdz iop(5/13=1,5/36=2,99/5=2) pseudo=read geom=check gue
 ss=(read,tcheck) scf=(maxcycle=1)
 ----------------------------------------------------------------------
 -----
 title
 -----
 Structure from the checkpoint file:  "Grambow2020_b97d3_007161_forward_mol1.chk"
 Charge =  0 Multiplicity = 1

                         Standard orientation:
 ---------------------------------------------------------------------
 Center     Atomic      Atomic             Coordinates (Angstroms)
 Number     Number       Type             X           Y           Z
 ---------------------------------------------------------------------
      1          8           0        1.210610   -1.281051   -0.237840
      2          6           0        1.848046   -0.215163    0.246467
      3          6           0        0.416416    1.599367   -0.327544
      4          6           0       -0.786448    1.138192    0.515796
      5          6           0       -1.213242    0.025688   -0.437708
      6          8           0       -1.486739   -1.207074    0.255042
      7          1           0        0.310479   -1.386840    0.177867
      8          1           0        1.684656    0.094821    1.278578
      9          1           0        2.811572   -0.027633   -0.221931
     10          1           0        0.051684    2.227136   -1.159715
     11          1           0        1.234683    2.161035    0.147193
     12          1           0       -1.538564    1.905190    0.752938
     13          1           0       -0.463441    0.696994    1.469984
     14          1           0        0.278840    0.508663   -0.972026
     15          1           0       -1.993625    0.290204   -1.166434
     16          1           0       -1.755883   -1.853074   -0.426140
 ---------------------------------------------------------------------

 SCF Done:  E(RHF) =  -308.231854494     A.U. after    2 cycles

 The electronic state is 1-A.
 Alpha  occ. eigenvalues --  -21.13030 -21.06687 -11.49880 -11.41775 -11.37366
 Alpha  occ. eigenvalues --  -11.34553  -1.77957  -1.69382  -1.18907  -0.97323
 Alpha  occ. eigenvalues --   -0.89454  -0.80502  -0.72086  -0.64986  -0.63467
 Alpha  occ. eigenvalues --   -0.61494  -0.57265  -0.51587  -0.47410  -0.45919
 Alpha  occ. eigenvalues --   -0.44155  -0.41624  -0.37699  -0.35965  -0.18927
 Alpha virt. eigenvalues --    0.03730   0.04751   0.05162   0.05726   0.05891
 Alpha virt. eigenvalues --    0.06094   0.06489   0.07152   0.09290   0.09478
 Alpha virt. eigenvalues --    0.10012   0.12717   0.13064   0.13653   0.14607

 Mulliken charges:
               1
     1  O   -2.732767
     2  C   -1.220026
     3  C   -3.235908
     4  C   -3.018530
     5  C   -0.054071
     6  O   -2.722709
     7  H    1.322177
     8  H    1.413287
     9  H    1.455683
    10  H    0.819919
    11  H    1.270750
    12  H    1.175484
    13  H    1.378923
    14  H    2.104828
    15  H    1.246368
    16  H    0.796591
 Sum of Mulliken charges =  -0.00000

 Dipole moment (field-independent basis, Debye):
    X=              1.5944    Y=             -1.1418    Z=              0.6574  Tot=              2.0683

 Test job not archived.
 1\1\GINC-SE041\SP\RHF\Aug-CC-pVDZ\C4H10O2\OHZDE\09-Apr-2025\0\\#t hf a
 ug-cc-pvdz iop(5/13=1,5/36=2,99/5=2) pseudo=read geom=check guess=(rea
 d,tcheck) scf=(maxcycle=1)\\title\\0,1\O,0,-1.22176869,0.8702983,-1.11
 957179\C,0,-1.81331799,-0.08684511,-0.40477113\C,0,0.0108921,-1.384992
 37,0.40679911\C,0,0.65301546,-0.26614225,1.24741601\C,0,1.24526163,0.4
 8572344,0.05874902\O,0,0.99093324,1.9015139,0.13128422\H,0,-0.61062569
 ,1.42059789,-0.55573379\H,0,-2.04745232,0.08393005,0.6459698\H,0,-2.44
 514948,-0.74883639,-0.99256606\H,0,0.79087369,-2.11370739,0.12353793\H

 Normal termination of Gaussian 16 at Wed Apr  9 17:30:38 2025.
