 Gaussian 16, Revision C.01,

 ----------------------------------------------------------------------
 #t hf aug-cc-pvdz symm=none int=(grid=ultrafine) guess=(read,tcheck) s
 table=(opt,rrhf)
 ----------------------------------------------------------------------
 -----
 title
 -----
 Symbolic Z-matrix:
 Charge =  0 Multiplicity = 1

 SCF Done:  E(RHF) =  -375.546639574     A.U. after   17 cycles
 Normal termination of Gaussian 16 at Wed Apr  9 03:46:29 2025.
 Gaussian 16:  ES64L-G16RevC.01  3-Jul-2019

 ----------------------------------------------------------------------
 #t hf aug-cc-pvdz iop(5/13=1,5/36=2,99/5=2) pseudo=read geom=check gue
 ss=(read,tcheck) scf=(maxcycle=1)
 ----------------------------------------------------------------------
 -----
 title
 -----
 Structure from the checkpoint file:  "Grambow2020_wb97xd3_007917_reverse_mol1.chk"
 Charge =  0 Multiplicity = 1

                         Standard orientation:
 ---------------------------------------------------------------------
 Center     Atomic      Atomic             Coordinates (Angstroms)
 Number     Number       Type             X           Y           Z
 ---------------------------------------------------------------------
      1          6           0        2.697328   -0.100411   -0.084494
      2          8           0        1.416606   -0.661255   -0.297831
      3          6           0        0.351933   -0.025252    0.276657
      4          7           0        0.103879    1.349854    0.104800
      5          7           0       -0.764840   -0.748680    0.376769
      6          6           0       -1.786465   -0.069889   -0.172889
      7          8           0       -2.967496   -0.115013   -0.136238
      8          1           0        3.415346   -0.829559   -0.451156
      9          1           0        2.878185    0.077181    0.981757
     10          1           0        2.840590    0.834167   -0.636403
     11          1           0        0.884291    1.799977   -0.390577
     12          1           0        0.656582    0.495090    1.316506
     13          1           0       -1.217918    0.798384   -0.834191
 ---------------------------------------------------------------------

 SCF Done:  E(RHF) =  -377.203124293     A.U. after    2 cycles

 The electronic state is 1-A.
 Alpha  occ. eigenvalues --  -21.10857 -21.05552 -15.86838 -15.73130 -11.52607
 Alpha  occ. eigenvalues --  -11.49581 -11.45129  -1.84162  -1.71799  -1.47289
 Alpha  occ. eigenvalues --   -1.28776  -1.05604  -0.92469  -0.79992  -0.74707
 Alpha  occ. eigenvalues --   -0.71388  -0.66939  -0.61566  -0.60359  -0.53510
 Alpha  occ. eigenvalues --   -0.51738  -0.49612  -0.43285  -0.40471  -0.37642
 Alpha  occ. eigenvalues --   -0.31545  -0.29057
 Alpha virt. eigenvalues --    0.01779   0.02945   0.04078   0.04725   0.05516
 Alpha virt. eigenvalues --    0.06099   0.06978   0.09690   0.11192   0.12103
 Alpha virt. eigenvalues --    0.12783   0.13449   0.13868   0.14565   0.15083

 Mulliken charges:
               1
     1  C   -2.857604
     2  O   -3.134097
     3  C    3.642687
     4  N   -1.757936
     5  N   -2.833771
     6  C    2.976371
     7  O   -2.958625
     8  H    1.282003
     9  H    1.240049
    10  H    1.273287
    11  H    0.703493
    12  H    1.599787
    13  H    0.824355
 Sum of Mulliken charges =  -0.00000

 Dipole moment (field-independent basis, Debye):
    X=              4.2130    Y=              1.9019    Z=             -0.5777  Tot=              4.6583

 Test job not archived.
 1\1\GINC-SE454\SP\RHF\Aug-CC-pVDZ\C3H6N2O2\OHZDE\09-Apr-2025\0\\#t hf
 aug-cc-pvdz iop(5/13=1,5/36=2,99/5=2) pseudo=read geom=check guess=(re
 ad,tcheck) scf=(maxcycle=1)\\title\\0,1\C,0,-1.75922316,-0.18061574,-0
 .91795964\O,0,-1.18130844,0.12468867,0.33627818\C,0,0.10756202,-0.2790
 5323,0.54572775\N,0,1.15491523,0.02722513,-0.34378257\N,0,0.49924806,-
 0.31499276,1.82081265\C,0,1.63273731,0.39400168,1.95911632\O,0,2.50005
 355,0.48174318,2.75803954\H,0,-2.81847341,0.04724811,-0.83012359\H,0,-
 1.63904666,-1.24268458,-1.16025581\H,0,-1.34097241,0.42501733,-1.72841

 Normal termination of Gaussian 16 at Wed Apr  9 03:46:33 2025.
