 Gaussian 16, Revision C.01,

 ----------------------------------------------------------------------
 #t hf aug-cc-pvdz symm=none int=(grid=ultrafine) guess=(read,tcheck) s
 table=(opt,rrhf)
 ----------------------------------------------------------------------
 -----
 title
 -----
 Symbolic Z-matrix:
 Charge =  0 Multiplicity = 1

 SCF Done:  E(RHF) =  -343.568974015     A.U. after   15 cycles
 Normal termination of Gaussian 16 at Wed Apr  9 18:27:27 2025.
 Gaussian 16:  ES64L-G16RevC.01  3-Jul-2019

 ----------------------------------------------------------------------
 #t hf aug-cc-pvdz iop(5/13=1,5/36=2,99/5=2) pseudo=read geom=check gue
 ss=(read,tcheck) scf=(maxcycle=1)
 ----------------------------------------------------------------------
 -----
 title
 -----
 Structure from the checkpoint file:  "Grambow2020_wb97xd3_007149_reverse_mol1.chk"
 Charge =  0 Multiplicity = 1

                         Standard orientation:
 ---------------------------------------------------------------------
 Center     Atomic      Atomic             Coordinates (Angstroms)
 Number     Number       Type             X           Y           Z
 ---------------------------------------------------------------------
      1          8           0       -1.911871    0.968919   -0.317029
      2          6           0       -1.017744    0.024372   -0.049297
      3          6           0        0.887790    1.389935    0.055055
      4          6           0        1.727237    0.360729    0.346772
      5          8           0        1.905492   -0.649247   -0.445412
      6          6           0       -0.581327   -1.125312   -0.614706
      7          6           0       -0.897546   -1.098497    0.885789
      8          1           0       -2.098666    1.467354    0.483770
      9          1           0        0.590794    1.583840   -0.966330
     10          1           0        0.740782    2.182195    0.779006
     11          1           0        2.172912    0.284042    1.344255
     12          1           0        0.828099   -0.987437   -0.703414
     13          1           0       -1.012077   -1.708238   -1.414785
     14          1           0       -1.819117   -1.544940    1.255578
     15          1           0       -0.062156   -1.141559    1.579781
 ---------------------------------------------------------------------

 SCF Done:  E(RHF) =  -345.165526617     A.U. after    2 cycles

 The electronic state is 1-A.
 Alpha  occ. eigenvalues --  -21.14821 -21.03255 -11.51230 -11.44770 -11.44541
 Alpha  occ. eigenvalues --  -11.38067 -11.36549  -1.79884  -1.71046  -1.29457
 Alpha  occ. eigenvalues --   -1.08651  -0.89226  -0.81522  -0.79317  -0.69990
 Alpha  occ. eigenvalues --   -0.66918  -0.64131  -0.59656  -0.57902  -0.53543
 Alpha  occ. eigenvalues --   -0.48675  -0.46464  -0.43750  -0.40766  -0.37423
 Alpha  occ. eigenvalues --   -0.27892  -0.27149
 Alpha virt. eigenvalues --    0.03368   0.04581   0.04725   0.05787   0.06155
 Alpha virt. eigenvalues --    0.06658   0.07349   0.08894   0.09050   0.11377
 Alpha virt. eigenvalues --    0.12164   0.12836   0.13246   0.13597   0.14699

 Mulliken charges:
               1
     1  O   -3.529720
     2  C    3.540397
     3  C   -3.599673
     4  C    1.085051
     5  O   -3.536067
     6  C   -2.230043
     7  C   -2.896320
     8  H    0.705046
     9  H    1.358527
    10  H    1.366537
    11  H    1.565531
    12  H    2.434651
    13  H    1.093710
    14  H    1.238913
    15  H    1.403460
 Sum of Mulliken charges =  -0.00000

 Dipole moment (field-independent basis, Debye):
    X=             -2.3680    Y=              0.7002    Z=              0.8641  Tot=              2.6162

 Test job not archived.
 1\1\GINC-SE224\SP\RHF\Aug-CC-pVDZ\C5H8O2\OHZDE\09-Apr-2025\0\\#t hf au
 g-cc-pvdz iop(5/13=1,5/36=2,99/5=2) pseudo=read geom=check guess=(read
 ,tcheck) scf=(maxcycle=1)\\title\\0,1\O,0,-0.39789047,-1.45339003,-1.5
 4347048\C,0,-0.50145367,-0.41595796,-0.72108333\C,0,1.50894588,-0.7183
 7258,0.45090336\C,0,1.32725648,0.37641328,1.2366954\O,0,0.31970189,0.5
 0684235,2.04118471\C,0,-1.37331477,0.03540816,0.21060692\C,0,-0.820144
 03,1.01054377,-0.83596338\H,0,0.23878068,-1.2499755,-2.2347603\H,0,1.0
 2452148,-1.65432759,0.6924675\H,0,2.34314744,-0.7490562,-0.23942834\H,

 Normal termination of Gaussian 16 at Wed Apr  9 18:27:32 2025.
