 Gaussian 16, Revision C.01,

 ----------------------------------------------------------------------
 #t hf aug-cc-pvdz symm=none int=(grid=ultrafine) guess=(read,tcheck) s
 table=(opt,rrhf)
 ----------------------------------------------------------------------
 -----
 title
 -----
 Symbolic Z-matrix:
 Charge =  0 Multiplicity = 1

 SCF Done:  E(RHF) =  -323.787970344     A.U. after   15 cycles
 Normal termination of Gaussian 16 at Wed Apr  9 03:52:44 2025.
 Gaussian 16:  ES64L-G16RevC.01  3-Jul-2019

 ----------------------------------------------------------------------
 #t hf aug-cc-pvdz iop(5/13=1,5/36=2,99/5=2) pseudo=read geom=check gue
 ss=(read,tcheck) scf=(maxcycle=1)
 ----------------------------------------------------------------------
 -----
 title
 -----
 Structure from the checkpoint file:  "Grambow2020_wb97xd3_008325_reverse_mol1.chk"
 Charge =  0 Multiplicity = 1

                         Standard orientation:
 ---------------------------------------------------------------------
 Center     Atomic      Atomic             Coordinates (Angstroms)
 Number     Number       Type             X           Y           Z
 ---------------------------------------------------------------------
      1          7           0        1.470409    0.263485   -1.055863
      2          6           0        0.926784    0.358065    0.141142
      3          6           0       -0.176932    1.386173    0.291745
      4          6           0       -1.443782    0.719390   -0.282529
      5          6           0       -1.429053   -0.749291    0.139051
      6          6           0       -0.211535   -1.424639   -0.338559
      7          8           0        1.140019   -0.404689    1.152437
      8          1           0        2.214947   -0.433939   -1.007390
      9          1           0       -0.306940    1.608441    1.350387
     10          1           0        0.043998    2.300837   -0.256573
     11          1           0       -1.413530    0.780953   -1.372853
     12          1           0       -2.358784    1.209129    0.054344
     13          1           0       -1.529892   -0.863203    1.217278
     14          1           0       -2.250990   -1.292152   -0.355297
     15          1           0       -0.035028   -1.433925   -1.404276
     16          1           0        0.230312   -2.221215    0.240820
 ---------------------------------------------------------------------

 SCF Done:  E(RHF) =  -325.305935123     A.U. after    2 cycles

 The electronic state is 1-A.
 Alpha  occ. eigenvalues --  -20.98024 -15.68234 -11.56074 -11.47390 -11.45899
 Alpha  occ. eigenvalues --  -11.41505 -11.36843  -1.66595  -1.31224  -1.22970
 Alpha  occ. eigenvalues --   -1.11312  -0.96400  -0.87265  -0.75156  -0.70092
 Alpha  occ. eigenvalues --   -0.67112  -0.64263  -0.57759  -0.55128  -0.51486
 Alpha  occ. eigenvalues --   -0.51289  -0.49189  -0.47392  -0.45880  -0.34414
 Alpha  occ. eigenvalues --   -0.25047  -0.23981
 Alpha virt. eigenvalues --    0.02480   0.03440   0.04712   0.05034   0.05512
 Alpha virt. eigenvalues --    0.05875   0.06189   0.07107   0.07645   0.08660
 Alpha virt. eigenvalues --    0.11502   0.12469   0.12613   0.13294   0.13573

 Mulliken charges:
               1
     1  N   -3.486455
     2  C    6.909432
     3  C   -3.246166
     4  C   -2.573147
     5  C   -2.665330
     6  C   -3.063345
     7  O   -3.508380
     8  H    0.542225
     9  H    1.393603
    10  H    1.348615
    11  H    1.409895
    12  H    1.262085
    13  H    1.474187
    14  H    1.301192
    15  H    1.511911
    16  H    1.389677
 Sum of Mulliken charges =   0.00000

 Dipole moment (field-independent basis, Debye):
    X=             -4.2627    Y=             -2.8912    Z=              0.2017  Tot=              5.1546

 Test job not archived.
 1\1\GINC-SE364\SP\RHF\Aug-CC-pVDZ\C5H9N1O1\OHZDE\09-Apr-2025\0\\#t hf
 aug-cc-pvdz iop(5/13=1,5/36=2,99/5=2) pseudo=read geom=check guess=(re
 ad,tcheck) scf=(maxcycle=1)\\title\\0,1\N,0,1.68278708,0.88418944,0.78
 646759\C,0,1.23318079,0.35074046,-0.33182577\C,0,0.8851937,-1.12349336
 ,-0.27337244\C,0,-0.51195605,-1.19271317,0.37661436\C,0,-1.33708364,-0
 .02732093,-0.16744145\C,0,-0.68388869,1.26100596,0.11558912\O,0,0.9408
 1265,0.9648118,-1.42151259\H,0,1.90887415,1.86218827,0.59807851\H,0,0.
 85562931,-1.5172639,-1.28880237\H,0,1.60215107,-1.68551997,0.32342763\

 Normal termination of Gaussian 16 at Wed Apr  9 03:52:50 2025.
