 Gaussian 16, Revision C.01,

 ----------------------------------------------------------------------
 #t hf aug-cc-pvdz symm=none int=(grid=ultrafine) guess=(read,tcheck) s
 table=(opt,rrhf)
 ----------------------------------------------------------------------
 -----
 title
 -----
 Symbolic Z-matrix:
 Charge =  0 Multiplicity = 1

 SCF Done:  E(RHF) =  -269.532216110     A.U. after   17 cycles
 Normal termination of Gaussian 16 at Wed Apr  9 18:06:10 2025.
 Gaussian 16:  ES64L-G16RevC.01  3-Jul-2019

 ----------------------------------------------------------------------
 #t hf aug-cc-pvdz iop(5/13=1,5/36=2,99/5=2) pseudo=read geom=check gue
 ss=(read,tcheck) scf=(maxcycle=1)
 ----------------------------------------------------------------------
 -----
 title
 -----
 Structure from the checkpoint file:  "Grambow2020_wb97xd3_006590_forward_mol1.chk"
 Charge =  0 Multiplicity = 1

                         Standard orientation:
 ---------------------------------------------------------------------
 Center     Atomic      Atomic             Coordinates (Angstroms)
 Number     Number       Type             X           Y           Z
 ---------------------------------------------------------------------
      1          6           0        2.187018   -0.184642   -0.507553
      2          6           0        1.020541   -0.185325    0.471627
      3          6           0        0.156361    1.395404    0.244986
      4          6           0       -1.171670    1.172829   -0.119814
      5          6           0       -1.974899    0.236048   -0.311361
      6          6           0        0.075471   -1.206848    0.318626
      7          6           0       -1.125374   -1.392437    0.029997
      8          1           0        1.821516   -0.225780   -1.534680
      9          1           0        2.791890    0.715772   -0.387549
     10          1           0        2.832599   -1.047289   -0.341250
     11          1           0        1.360525   -0.086663    1.503194
     12          1           0        0.281336    1.901149    1.201217
     13          1           0        0.758345    1.876474   -0.524935
     14          1           0       -2.986669    0.019691   -0.596568
     15          1           0       -1.864237   -2.163525   -0.078474
 ---------------------------------------------------------------------

 SCF Done:  E(RHF) =  -270.905402109     A.U. after    2 cycles

 The electronic state is 1-A.
 Alpha  occ. eigenvalues --  -11.47516 -11.43821 -11.43439 -11.40737 -11.39193
 Alpha  occ. eigenvalues --  -11.38323 -11.37344  -1.29827  -1.13225  -1.08008
 Alpha  occ. eigenvalues --   -0.98706  -0.89532  -0.77145  -0.68814  -0.63862
 Alpha  occ. eigenvalues --   -0.62449  -0.58987  -0.56157  -0.53533  -0.52055
 Alpha  occ. eigenvalues --   -0.50052  -0.40484  -0.40145  -0.31745  -0.28910
 Alpha virt. eigenvalues --    0.03251   0.05016   0.05649   0.05718   0.06108
 Alpha virt. eigenvalues --    0.06308   0.06850   0.07092   0.08464   0.10942
 Alpha virt. eigenvalues --    0.11107   0.11623   0.12651   0.12970   0.13603

 Mulliken charges:
               1
     1  C   -3.957900
     2  C   -1.866934
     3  C   -3.695736
     4  C    2.955294
     5  C   -2.969475
     6  C    3.106423
     7  C   -3.033861
     8  H    1.327906
     9  H    1.281873
    10  H    1.170004
    11  H    1.171099
    12  H    1.166277
    13  H    1.388067
    14  H    0.991727
    15  H    0.965237
 Sum of Mulliken charges =   0.00000

 Dipole moment (field-independent basis, Debye):
    X=              0.7054    Y=              0.1492    Z=              0.1204  Tot=              0.7310

 Test job not archived.
 1\1\GINC-SE362\SP\RHF\Aug-CC-pVDZ\C7H8\OHZDE\09-Apr-2025\0\\#t hf aug-
 cc-pvdz iop(5/13=1,5/36=2,99/5=2) pseudo=read geom=check guess=(read,t
 check) scf=(maxcycle=1)\\title\\0,1\C,0,-0.91195243,-1.60542713,-0.745
 70143\C,0,0.13529504,-0.93021578,0.12998461\C,0,0.96354522,0.30255921,
 -0.91459317\C,0,0.82067822,1.57685501,-0.36500896\C,0,0.3340794,2.1471
 2568,0.63371012\C,0,-0.33500175,-0.26747483,1.27001605\C,0,-0.42196091
 ,0.87293342,1.77169885\H,0,-1.70344132,-0.9004883,-1.00431375\H,0,-0.4
 6238265,-1.97967252,-1.66702901\H,0,-1.36490859,-2.45005898,-0.2260681

 Normal termination of Gaussian 16 at Wed Apr  9 18:06:16 2025.
