 Gaussian 16, Revision C.01,

 ----------------------------------------------------------------------
 #t hf aug-cc-pvdz symm=none int=(grid=ultrafine) guess=(read,tcheck) s
 table=(opt,rrhf)
 ----------------------------------------------------------------------
 -----
 title
 -----
 Symbolic Z-matrix:
 Charge =  0 Multiplicity = 1

 SCF Done:  E(RHF) =  -320.252675233     A.U. after   19 cycles
 Normal termination of Gaussian 16 at Wed Apr  9 18:47:20 2025.
 Gaussian 16:  ES64L-G16RevC.01  3-Jul-2019

 ----------------------------------------------------------------------
 #t hf aug-cc-pvdz iop(5/13=1,5/36=2,99/5=2) pseudo=read geom=check gue
 ss=(read,tcheck) scf=(maxcycle=1)
 ----------------------------------------------------------------------
 -----
 title
 -----
 Structure from the checkpoint file:  "Grambow2020_wb97xd3_007652_forward_mol1.chk"
 Charge =  0 Multiplicity = 1

                         Standard orientation:
 ---------------------------------------------------------------------
 Center     Atomic      Atomic             Coordinates (Angstroms)
 Number     Number       Type             X           Y           Z
 ---------------------------------------------------------------------
      1          7           0       -2.752211   -0.224499   -0.209509
      2          6           0       -1.616954   -0.108555   -0.053687
      3          6           0       -0.220576    0.044272    0.155512
      4          6           0        0.620400   -1.133909    0.149630
      5          8           0        1.813157   -1.166356   -0.070237
      6          6           0        1.371968    1.464666   -0.378108
      7          6           0        0.292314    1.375134    0.351701
      8          1           0        0.071547   -2.055599    0.411431
      9          1           0        2.303485    0.931614   -0.516630
     10          1           0       -0.297724    2.176678    0.783369
 ---------------------------------------------------------------------

 SCF Done:  E(RHF) =  -321.648119683     A.U. after    2 cycles

 The electronic state is 1-A.
 Alpha  occ. eigenvalues --  -21.06862 -15.76413 -11.52322 -11.50688 -11.49762
 Alpha  occ. eigenvalues --  -11.46666 -11.43260  -1.72777  -1.35216  -1.26599
 Alpha  occ. eigenvalues --   -1.08013  -0.89639  -0.83060  -0.75573  -0.67103
 Alpha  occ. eigenvalues --   -0.62683  -0.56139  -0.54859  -0.50784  -0.46310
 Alpha  occ. eigenvalues --   -0.45553  -0.44235  -0.33024  -0.28224
 Alpha virt. eigenvalues --    0.00221   0.02699   0.05400   0.05956   0.06874
 Alpha virt. eigenvalues --    0.08920   0.09554   0.09930   0.10519   0.10853
 Alpha virt. eigenvalues --    0.12285   0.13192   0.13429   0.14330   0.15074

 Mulliken charges:
               1
     1  N   -2.422566
     2  C    1.411781
     3  C    1.477731
     4  C    1.330696
     5  O   -3.015746
     6  C   -2.386334
     7  C   -0.968775
     8  H    1.601732
     9  H    1.400629
    10  H    1.570853
 Sum of Mulliken charges =  -0.00000

 Dipole moment (field-independent basis, Debye):
    X=              3.6333    Y=              1.9634    Z=              1.1669  Tot=              4.2916

 Test job not archived.
 1\1\GINC-SE045\SP\RHF\Aug-CC-pVDZ\C5H3N1O1\OHZDE\09-Apr-2025\0\\#t hf
 aug-cc-pvdz iop(5/13=1,5/36=2,99/5=2) pseudo=read geom=check guess=(re
 ad,tcheck) scf=(maxcycle=1)\\title\\0,1\N,0,2.79122338,-0.16610402,-0.
 97899894\C,0,1.72708937,-0.08653066,-0.54561893\C,0,0.41995071,-0.0013
 9808,0.00313852\C,0,-0.11074286,1.30082202,0.3466082\O,0,-1.28287347,1
 .59623773,0.4510243\C,0,-1.53159568,-0.98460166,-0.24834631\C,0,-0.320
 62161,-1.22340072,0.17921447\H,0,0.67759227,2.04527971,0.55542228\H,0,
 -2.32454118,-0.26787611,-0.07923591\H,0,0.15655308,-2.18243722,0.35099

 Normal termination of Gaussian 16 at Wed Apr  9 18:47:23 2025.
