 Gaussian 16, Revision C.01,

 ----------------------------------------------------------------------
 #t hf aug-cc-pvdz symm=none int=(grid=ultrafine) guess=(read,tcheck) s
 table=(opt,rrhf)
 ----------------------------------------------------------------------
 -----
 title
 -----
 Symbolic Z-matrix:
 Charge =  0 Multiplicity = 1

 SCF Done:  E(RHF) =  -301.644837075     A.U. after   14 cycles
 Normal termination of Gaussian 16 at Wed Apr  9 19:23:01 2025.
 Gaussian 16:  ES64L-G16RevC.01  3-Jul-2019

 ----------------------------------------------------------------------
 #t hf aug-cc-pvdz iop(5/13=1,5/36=2,99/5=2) pseudo=read geom=check gue
 ss=(read,tcheck) scf=(maxcycle=1)
 ----------------------------------------------------------------------
 -----
 title
 -----
 Structure from the checkpoint file:  "Grambow2020_wb97xd3_008866_reverse_mol2.chk"
 Charge =  0 Multiplicity = 1

                         Standard orientation:
 ---------------------------------------------------------------------
 Center     Atomic      Atomic             Coordinates (Angstroms)
 Number     Number       Type             X           Y           Z
 ---------------------------------------------------------------------
      1          7           0       -1.173885    2.093973    0.084985
      2          6           0       -1.358142    0.980933   -0.126563
      3          6           0       -1.592647   -0.415490   -0.413982
      4          6           0       -0.545786   -1.402242   -0.227533
      5          6           0        2.936207   -0.296432   -0.215250
      6          6           0        2.159908    0.642585    0.301736
      7          7           0       -1.360187   -1.419744    0.708070
      8          1           0       -2.427953   -0.608047   -1.077208
      9          1           0        0.362840   -1.874520   -0.568055
     10          1           0        3.308833   -1.120554    0.383527
     11          1           0        3.243464   -0.271204   -1.255046
     12          1           0        1.793729    1.474226   -0.288904
     13          1           0        1.860348    0.624370    1.343854
 ---------------------------------------------------------------------

 SCF Done:  E(RHF) =  -303.039158780     A.U. after    2 cycles

 The electronic state is 1-A.
 Alpha  occ. eigenvalues --  -15.80675 -15.76624 -11.53088 -11.47769 -11.43802
 Alpha  occ. eigenvalues --  -11.41644 -11.37923  -1.51504  -1.30788  -1.14593
 Alpha  occ. eigenvalues --   -1.01787  -0.86668  -0.83065  -0.74272  -0.69478
 Alpha  occ. eigenvalues --   -0.65194  -0.57012  -0.56583  -0.53341  -0.50330
 Alpha  occ. eigenvalues --   -0.49500  -0.44663  -0.44355  -0.37796  -0.37149
 Alpha virt. eigenvalues --    0.03144   0.04531   0.05299   0.05474   0.06623
 Alpha virt. eigenvalues --    0.07370   0.09233   0.09298   0.09803   0.11018
 Alpha virt. eigenvalues --    0.11651   0.12174   0.13201   0.13412   0.13986

 Mulliken charges:
               1
     1  N   -2.262721
     2  C    1.506090
     3  C   -0.795686
     4  C    0.822734
     5  C   -2.935925
     6  C   -2.808702
     7  N   -1.710100
     8  H    1.404234
     9  H    1.100398
    10  H    1.398510
    11  H    1.364076
    12  H    1.464508
    13  H    1.452585
 Sum of Mulliken charges =   0.00000

 Dipole moment (field-independent basis, Debye):
    X=              1.0446    Y=             -3.1944    Z=             -1.7160  Tot=              3.7736

 Test job not archived.
 1\1\GINC-SE114\SP\RHF\Aug-CC-pVDZ\C5H6N2\OHZDE\09-Apr-2025\0\\#t hf au
 g-cc-pvdz iop(5/13=1,5/36=2,99/5=2) pseudo=read geom=check guess=(read
 ,tcheck) scf=(maxcycle=1)\\title\\0,1\N,0,1.97501699,1.35002189,1.5001
 9339\C,0,1.96272265,0.93501785,0.43006234\C,0,1.95926716,0.39570939,-0
 .91036128\C,0,0.72850437,-0.0589901,-1.5290941\C,0,-2.08504722,-0.9789
 7805,0.61211869\C,0,-1.39252536,0.00181513,1.16900884\N,0,1.05815688,1
 .06351487,-1.94167081\H,0,2.9222086,0.04098723,-1.25907169\H,0,-0.0433
 8518,-0.80603423,-1.6325994\H,0,-2.85265943,-0.78442231,-0.12914989\H,

 Normal termination of Gaussian 16 at Wed Apr  9 19:23:05 2025.
