 Gaussian 16, Revision C.01,

 ----------------------------------------------------------------------
 #t hf aug-cc-pvdz symm=none int=(grid=ultrafine) guess=(read,tcheck) s
 table=(opt,rrhf)
 ----------------------------------------------------------------------
 -----
 title
 -----
 Symbolic Z-matrix:
 Charge =  0 Multiplicity = 1

 SCF Done:  E(RHF) =  -307.782404455     A.U. after   14 cycles

 1\1\GINC-SE173\Stability\RHF\Aug-CC-pVDZ\C6H10O1\OHZDE\09-Apr-2025\0\\
 #t hf aug-cc-pvdz symm=none int=(grid=ultrafine) guess=(read,tcheck) s
 table=(opt,rrhf)\\title\\0,1\C,0,-2.15822288,-0.48565615,0.30585535\C,
 0,-0.8905082,-0.13710046,-0.45453243\O,0,-0.48431383,1.18032886,-0.057
 25527\C,0,0.86000039,1.3942824,-0.41936668\C,0,1.58367477,0.06164276,-
 0.30197179\C,0,1.04837556,-0.71998187,0.90742444\C,0,0.15601275,-1.192
 50824,-0.16260774\H,0,-2.90237618,0.29241633,0.13710476\H,0,-1.9615534
 5,-0.5482584,1.37751165\H,0,-2.55791438,-1.43949402,-0.03637544\H,0,-1

 Normal termination of Gaussian 16 at Wed Apr  9 18:19:54 2025.
 Gaussian 16:  ES64L-G16RevC.01  3-Jul-2019

 ----------------------------------------------------------------------
 #t hf aug-cc-pvdz iop(5/13=1,5/36=2,99/5=2) pseudo=read geom=check gue
 ss=(read,tcheck) scf=(maxcycle=1)
 ----------------------------------------------------------------------
 -----
 title
 -----
 Structure from the checkpoint file:  "Grambow2020_wb97xd3_006888_forward_mol1.chk"
 Charge =  0 Multiplicity = 1

                         Standard orientation:
 ---------------------------------------------------------------------
 Center     Atomic      Atomic             Coordinates (Angstroms)
 Number     Number       Type             X           Y           Z
 ---------------------------------------------------------------------
      1          6           0        2.234244    0.137291    0.154500
      2          6           0        0.878346   -0.159703   -0.462036
      3          8           0        0.230081   -1.148939    0.350127
      4          6           0       -1.148504   -1.173533    0.062062
      5          6           0       -1.568929    0.245925   -0.286928
      6          6           0       -0.810309    1.248589    0.595842
      7          6           0        0.095285    1.133329   -0.557924
      8          1           0        2.787614   -0.794597    0.268538
      9          1           0        2.119729    0.593198    1.139426
     10          1           0        2.803388    0.812451   -0.483400
     11          1           0        1.021551   -0.572096   -1.469093
     12          1           0       -1.370640   -1.857884   -0.767319
     13          1           0       -1.661092   -1.535764    0.955929
     14          1           0       -2.629743    0.455816   -0.401329
     15          1           0       -0.517498    0.794292    1.541008
     16          1           0       -1.301574    2.208716    0.721821
     17          1           0       -1.173182    0.495991   -1.339686
 ---------------------------------------------------------------------

 SCF Done:  E(RHF) =  -309.260210426     A.U. after    2 cycles

 The electronic state is 1-A.
 Alpha  occ. eigenvalues --  -21.03981 -11.48184 -11.45364 -11.42379 -11.40395
 Alpha  occ. eigenvalues --  -11.38918 -11.36247  -1.77321  -1.29764  -1.15423
 Alpha  occ. eigenvalues --   -1.00634  -0.91314  -0.85496  -0.76874  -0.69701
 Alpha  occ. eigenvalues --   -0.65428  -0.62412  -0.58967  -0.53634  -0.52560
 Alpha  occ. eigenvalues --   -0.50352  -0.49665  -0.47134  -0.43893  -0.39092
 Alpha  occ. eigenvalues --   -0.30665  -0.29016
 Alpha virt. eigenvalues --    0.04010   0.04976   0.05118   0.05307   0.05634
 Alpha virt. eigenvalues --    0.05818   0.06559   0.07041   0.07487   0.09253
 Alpha virt. eigenvalues --    0.11255   0.12189   0.12567   0.13142   0.13783

 Mulliken charges:
               1
     1  C   -4.193500
     2  C    1.268836
     3  O   -3.504112
     4  C   -1.374277
     5  C   -2.466122
     6  C   -3.353443
     7  C   -0.141068
     8  H    1.242390
     9  H    1.251656
    10  H    1.187525
    11  H    1.715453
    12  H    1.446843
    13  H    1.414437
    14  H    1.285199
    15  H    1.527535
    16  H    1.370710
    17  H    1.321937
 Sum of Mulliken charges =  -0.00000

 Dipole moment (field-independent basis, Debye):
    X=             -1.3015    Y=             -1.2548    Z=              1.0686  Tot=              2.1001

 Test job not archived.
 1\1\GINC-SE173\SP\RHF\Aug-CC-pVDZ\C6H10O1\OHZDE\09-Apr-2025\0\\#t hf a
 ug-cc-pvdz iop(5/13=1,5/36=2,99/5=2) pseudo=read geom=check guess=(rea
 d,tcheck) scf=(maxcycle=1)\\title\\0,1\C,0,-2.15822288,-0.48565615,0.3
 0585535\C,0,-0.8905082,-0.13710046,-0.45453243\O,0,-0.48431383,1.18032
 886,-0.05725527\C,0,0.86000039,1.3942824,-0.41936668\C,0,1.58367477,0.
 06164276,-0.30197179\C,0,1.04837556,-0.71998187,0.90742444\C,0,0.15601
 275,-1.19250824,-0.16260774\H,0,-2.90237618,0.29241633,0.13710476\H,0,
 -1.96155345,-0.5482584,1.37751165\H,0,-2.55791438,-1.43949402,-0.03637

 Normal termination of Gaussian 16 at Wed Apr  9 18:20:00 2025.
