 Gaussian 16, Revision C.01,

 ----------------------------------------------------------------------
 #t hf aug-cc-pvdz symm=none int=(grid=ultrafine) guess=(read,tcheck) s
 table=(opt,rrhf)
 ----------------------------------------------------------------------
 -----
 title
 -----
 Symbolic Z-matrix:
 Charge =  0 Multiplicity = 1

 SCF Done:  E(RHF) =  -233.037762515     A.U. after   12 cycles
 Normal termination of Gaussian 16 at Wed Apr  9 03:15:05 2025.
 Gaussian 16:  ES64L-G16RevC.01  3-Jul-2019

 ----------------------------------------------------------------------
 #t hf aug-cc-pvdz iop(5/13=1,5/36=2,99/5=2) pseudo=read geom=check gue
 ss=(read,tcheck) scf=(maxcycle=1)
 ----------------------------------------------------------------------
 -----
 title
 -----
 Structure from the checkpoint file:  "Grambow2020_b97d3_006948_forward_mol2.chk"
 Charge =  0 Multiplicity = 1

                         Standard orientation:
 ---------------------------------------------------------------------
 Center     Atomic      Atomic             Coordinates (Angstroms)
 Number     Number       Type             X           Y           Z
 ---------------------------------------------------------------------
      1          6           0       -2.120268   -0.001006   -0.193167
      2          6           0       -0.709613   -0.001138    0.398544
      3          6           0        0.152176    1.232567   -0.002100
      4          6           0        1.555337    0.672638   -0.066920
      5          6           0        1.557388   -0.670832   -0.067218
      6          6           0        0.155359   -1.232800   -0.002378
      7          1           0       -2.686675   -0.889173    0.122911
      8          1           0       -2.077189   -0.001009   -1.292948
      9          1           0       -2.684088    0.889228    0.122022
     10          1           0       -0.783648   -0.001073    1.497488
     11          1           0       -0.150981    1.627104   -0.989156
     12          1           0        0.047011    2.063748    0.711858
     13          1           0        2.442823    1.301504   -0.147486
     14          1           0        2.446719   -1.296749   -0.148079
     15          1           0       -0.146937   -1.627101   -0.989657
     16          1           0        0.050693   -2.063048    0.712474
 ---------------------------------------------------------------------

 SCF Done:  E(RHF) =  -234.222558994     A.U. after    2 cycles

 The electronic state is 1-A.
 Alpha  occ. eigenvalues --  -11.44475 -11.43836 -11.38996 -11.38743 -11.36817
 Alpha  occ. eigenvalues --  -11.33903  -1.32907  -1.09402  -1.02440  -0.94161
 Alpha  occ. eigenvalues --   -0.79486  -0.75241  -0.67710  -0.62827  -0.55926
 Alpha  occ. eigenvalues --   -0.54829  -0.54471  -0.48779  -0.46612  -0.45004
 Alpha  occ. eigenvalues --   -0.42723  -0.40841  -0.32119
 Alpha virt. eigenvalues --    0.03982   0.05120   0.05543   0.05691   0.05972
 Alpha virt. eigenvalues --    0.06030   0.06574   0.06690   0.07995   0.08376
 Alpha virt. eigenvalues --    0.12300   0.12491   0.13543   0.14451   0.15024

 Mulliken charges:
               1
     1  C   -4.067765
     2  C   -0.501647
     3  C   -3.957092
     4  C   -0.336439
     5  C   -0.342750
     6  C   -3.956383
     7  H    1.202148
     8  H    1.269363
     9  H    1.200816
    10  H    1.527579
    11  H    1.405355
    12  H    1.179669
    13  H    1.396084
    14  H    1.395587
    15  H    1.406101
    16  H    1.179373
 Sum of Mulliken charges =   0.00000

 Dipole moment (field-independent basis, Debye):
    X=             -0.1020    Y=             -0.0008    Z=              0.0489  Tot=              0.1131

 Test job not archived.
 1\1\GINC-SE249\SP\RHF\Aug-CC-pVDZ\C6H10\OHZDE\09-Apr-2025\0\\#t hf aug
 -cc-pvdz iop(5/13=1,5/36=2,99/5=2) pseudo=read geom=check guess=(read,
 tcheck) scf=(maxcycle=1)\\title\\0,1\C,0,1.93581356,-0.11636326,-0.126
 49117\C,0,0.49700712,-0.25364842,0.374568\C,0,-0.44015073,-1.04901391,
 -0.58165048\C,0,-1.78445805,-0.38485496,-0.38591225\C,0,-1.6729209,0.7
 8716556,0.26126954\C,0,-0.23490943,1.10154222,0.60621764\H,0,2.5550992
 ,0.44858645,0.58546376\H,0,1.95951696,0.41409109,-1.09056006\H,0,2.402
 25721,-1.10169957,-0.27242388\H,0,0.50413794,-0.78695199,1.33825605\H,

 Normal termination of Gaussian 16 at Wed Apr  9 03:15:11 2025.
