 Gaussian 16, Revision C.01,

 ----------------------------------------------------------------------
 #t hf aug-cc-pvdz symm=none int=(grid=ultrafine) guess=(read,tcheck) s
 table=(opt,rrhf)
 ----------------------------------------------------------------------
 -----
 title
 -----
 Symbolic Z-matrix:
 Charge =  0 Multiplicity = 1

 SCF Done:  E(RHF) =  -380.624356948     A.U. after   15 cycles
 Normal termination of Gaussian 16 at Wed Apr  9 19:15:02 2025.
 Gaussian 16:  ES64L-G16RevC.01  3-Jul-2019

 ----------------------------------------------------------------------
 #t hf aug-cc-pvdz iop(5/13=1,5/36=2,99/5=2) pseudo=read geom=check gue
 ss=(read,tcheck) scf=(maxcycle=1)
 ----------------------------------------------------------------------
 -----
 title
 -----
 Structure from the checkpoint file:  "Grambow2020_wb97xd3_008485_forward_mol1.chk"
 Charge =  0 Multiplicity = 1

                         Standard orientation:
 ---------------------------------------------------------------------
 Center     Atomic      Atomic             Coordinates (Angstroms)
 Number     Number       Type             X           Y           Z
 ---------------------------------------------------------------------
      1          6           0        2.838992   -0.251247   -0.484345
      2          8           0        1.607354   -0.738005    0.041152
      3          6           0        0.696236    0.202871    0.348521
      4          8           0        0.892654    1.382508    0.194683
      5          6           0       -0.569053   -0.394165    0.818381
      6          6           0       -2.120040   -0.039600   -0.760139
      7          8           0       -3.286414   -0.003935   -0.118694
      8          1           0        3.342046    0.385629    0.243716
      9          1           0        3.439768   -1.132372   -0.695128
     10          1           0        2.669183    0.322395   -1.395701
     11          1           0       -0.467819   -1.401457    1.217506
     12          1           0       -1.122223    0.269494    1.471079
     13          1           0       -1.732357    0.980061   -0.837024
     14          1           0       -1.224055   -0.779404   -0.326428
     15          1           0       -3.690106   -0.876047   -0.149645
 ---------------------------------------------------------------------

 SCF Done:  E(RHF) =  -382.305472129     A.U. after    2 cycles

 The electronic state is 1-A.
 Alpha  occ. eigenvalues --  -21.13387 -21.08791 -21.03992 -11.52044 -11.44050
 Alpha  occ. eigenvalues --  -11.41060 -11.39949  -1.84510  -1.77757  -1.65571
 Alpha  occ. eigenvalues --   -1.13207  -1.00832  -0.91426  -0.75537  -0.69545
 Alpha  occ. eigenvalues --   -0.66632  -0.62843  -0.62135  -0.58499  -0.54661
 Alpha  occ. eigenvalues --   -0.53478  -0.52901  -0.48711  -0.42478  -0.41341
 Alpha  occ. eigenvalues --   -0.32133  -0.29721  -0.27036
 Alpha virt. eigenvalues --    0.03594   0.04621   0.05534   0.06222   0.06381
 Alpha virt. eigenvalues --    0.06756   0.07040   0.07336   0.09447   0.10627
 Alpha virt. eigenvalues --    0.12416   0.12977   0.14051   0.14674   0.14878

 Mulliken charges:
               1
     1  C   -2.848044
     2  O   -3.253887
     3  C    6.531187
     4  O   -3.185275
     5  C   -4.897559
     6  C   -1.073565
     7  O   -2.407929
     8  H    1.300256
     9  H    1.309886
    10  H    1.277809
    11  H    1.274376
    12  H    1.405046
    13  H    1.392039
    14  H    2.389808
    15  H    0.785852
 Sum of Mulliken charges =  -0.00000

 Dipole moment (field-independent basis, Debye):
    X=             -0.7388    Y=             -1.4192    Z=              0.6306  Tot=              1.7198

 Test job not archived.
 1\1\GINC-SE220\SP\RHF\Aug-CC-pVDZ\C4H8O3\OHZDE\09-Apr-2025\0\\#t hf au
 g-cc-pvdz iop(5/13=1,5/36=2,99/5=2) pseudo=read geom=check guess=(read
 ,tcheck) scf=(maxcycle=1)\\title\\0,1\C,0,-2.75076119,0.36661527,-0.31
 911414\O,0,-1.54564444,0.30753372,0.43865499\C,0,-0.5985341,-0.5180189
 6,-0.04228709\O,0,-0.74360659,-1.17003826,-1.04608829\C,0,0.63606586,-
 0.46255969,0.7644739\C,0,2.2151163,0.54011616,-0.47012764\O,0,3.375991
 43,0.05265659,-0.03664859\H,0,-3.23320464,-0.61065075,-0.34989987\H,0,
 -3.38618972,1.08623957,0.19089943\H,0,-2.54851581,0.69146154,-1.339917

 Normal termination of Gaussian 16 at Wed Apr  9 19:15:07 2025.
