 Gaussian 16, Revision C.01,

 ----------------------------------------------------------------------
 #t hf aug-cc-pvdz symm=none int=(grid=ultrafine) guess=(read,tcheck) s
 table=(opt,rrhf)
 ----------------------------------------------------------------------
 -----
 title
 -----
 Symbolic Z-matrix:
 Charge =  0 Multiplicity = 1

 SCF Done:  E(RHF) =  -283.561633312     A.U. after   16 cycles
 Normal termination of Gaussian 16 at Wed Apr  9 16:06:45 2025.
 Gaussian 16:  ES64L-G16RevC.01  3-Jul-2019

 ----------------------------------------------------------------------
 #t hf aug-cc-pvdz iop(5/13=1,5/36=2,99/5=2) pseudo=read geom=check gue
 ss=(read,tcheck) scf=(maxcycle=1)
 ----------------------------------------------------------------------
 -----
 title
 -----
 Structure from the checkpoint file:  "Grambow2020_b97d3_006724_forward_mol1.chk"
 Charge =  0 Multiplicity = 1

                         Standard orientation:
 ---------------------------------------------------------------------
 Center     Atomic      Atomic             Coordinates (Angstroms)
 Number     Number       Type             X           Y           Z
 ---------------------------------------------------------------------
      1          6           0        1.687149   -0.160206    0.588705
      2          6           0        0.743991   -0.577228   -0.441444
      3          8           0       -0.568694   -1.169298   -0.097334
      4          6           0       -1.366864   -0.119567    0.207844
      5          7           0       -0.921445    1.083225    0.081357
      6          6           0        0.448799    0.952527   -0.332871
      7          1           0        1.185052   -0.264299    1.572247
      8          1           0        1.229677    1.297790    0.485718
      9          1           0        1.077487   -1.015206   -1.381777
     10          1           0       -2.357115   -0.382846    0.574438
     11          1           0        0.786112    1.563217   -1.174855
 ---------------------------------------------------------------------

 SCF Done:  E(RHF) =  -284.836878006     A.U. after    2 cycles

 The electronic state is 1-A.
 Alpha  occ. eigenvalues --  -21.10376 -15.74486 -11.50492 -11.47854 -11.45509
 Alpha  occ. eigenvalues --  -11.40423  -1.82952  -1.38935  -1.23010  -0.93486
 Alpha  occ. eigenvalues --   -0.88970  -0.81083  -0.71706  -0.61776  -0.59166
 Alpha  occ. eigenvalues --   -0.57294  -0.55340  -0.52423  -0.42364  -0.39159
 Alpha  occ. eigenvalues --   -0.33288  -0.31972
 Alpha virt. eigenvalues --    0.03631   0.05397   0.05777   0.06198   0.07192
 Alpha virt. eigenvalues --    0.08775   0.09933   0.10086   0.10658   0.12900
 Alpha virt. eigenvalues --    0.13353   0.13680   0.14606   0.15280   0.15803

 Mulliken charges:
               1
     1  C   -1.579098
     2  C    0.405875
     3  O   -3.030186
     4  C    1.573283
     5  N   -2.901709
     6  C   -0.929779
     7  H    1.025412
     8  H    1.037282
     9  H    1.440753
    10  H    1.642241
    11  H    1.315926
 Sum of Mulliken charges =   0.00000

 Dipole moment (field-independent basis, Debye):
    X=             -1.5382    Y=             -1.1721    Z=             -0.7544  Tot=              2.0758

 Test job not archived.
 1\1\GINC-SE162\SP\RHF\Aug-CC-pVDZ\C4H5N1O1\OHZDE\09-Apr-2025\0\\#t hf
 aug-cc-pvdz iop(5/13=1,5/36=2,99/5=2) pseudo=read geom=check guess=(re
 ad,tcheck) scf=(maxcycle=1)\\title\\0,1\C,0,-1.47934528,0.40331258,-0.
 54262216\C,0,-0.34500287,-0.47785138,-0.79057254\O,0,1.00199002,0.0579
 3189,-1.09164972\C,0,1.52909825,0.39825109,0.10771857\N,0,0.87482869,0
 .14958909,1.18994099\C,0,-0.37564733,-0.42144336,0.76986245\H,0,-1.100
 5415,1.44534428,-0.51148099\H,0,-1.31029557,0.27411066,0.97407389\H,0,
 -0.45834249,-1.42542757,-1.31642635\H,0,2.49481381,0.8979804,0.0633523

 Normal termination of Gaussian 16 at Wed Apr  9 16:06:48 2025.
