 Gaussian 16, Revision C.01,

 ----------------------------------------------------------------------
 #t hf aug-cc-pvdz symm=none int=(grid=ultrafine) guess=(read,tcheck) s
 table=(opt,rrhf)
 ----------------------------------------------------------------------
 -----
 title
 -----
 Symbolic Z-matrix:
 Charge =  0 Multiplicity = 1

 SCF Done:  E(RHF) =  -344.868081836     A.U. after   13 cycles

 1\1\GINC-SE162\Stability\RHF\Aug-CC-pVDZ\C5H10O2\OHZDE\09-Apr-2025\0\\
 #t hf aug-cc-pvdz symm=none int=(grid=ultrafine) guess=(read,tcheck) s
 table=(opt,rrhf)\\title\\0,1\O,0,0.75923859,-1.34031387,2.25920081\C,0
 ,1.89160631,0.03819878,-0.83885086\C,0,0.65301585,-0.20898609,-1.23799
 054\C,0,-0.59266855,0.47654557,-0.7742342\C,0,-1.593306,-0.41821079,-0
 .01474005\O,0,-1.38188764,0.31358034,1.20490605\C,0,-0.55472302,1.2810
 2256,0.53240329\H,0,-0.04082045,-0.80918053,2.14580917\H,0,2.72936453,
 -0.51335096,-1.24663166\H,0,2.12374887,0.80058598,-0.10398388\H,0,1.17

 Normal termination of Gaussian 16 at Wed Apr  9 18:42:44 2025.
 Gaussian 16:  ES64L-G16RevC.01  3-Jul-2019

 ----------------------------------------------------------------------
 #t hf aug-cc-pvdz iop(5/13=1,5/36=2,99/5=2) pseudo=read geom=check gue
 ss=(read,tcheck) scf=(maxcycle=1)
 ----------------------------------------------------------------------
 -----
 title
 -----
 Structure from the checkpoint file:  "Grambow2020_wb97xd3_007552_reverse_mol2.chk"
 Charge =  0 Multiplicity = 1

                         Standard orientation:
 ---------------------------------------------------------------------
 Center     Atomic      Atomic             Coordinates (Angstroms)
 Number     Number       Type             X           Y           Z
 ---------------------------------------------------------------------
      1          8           0        0.678818    2.459400   -0.167587
      2          6           0       -2.207125    0.400152    0.292101
      3          6           0       -1.536728   -0.460900   -0.458683
      4          6           0       -0.291240   -1.198770   -0.083103
      5          6           0        0.959621   -0.845256   -0.913205
      6          8           0        1.603976   -0.263609    0.233200
      7          6           0        0.541228   -0.694149    1.103606
      8          1           0        1.208688    1.669419    0.006260
      9          1           0       -3.108029    0.875979   -0.074358
     10          1           0       -1.896949    0.657654    1.298400
     11          1           0       -0.202500    2.123156   -0.345058
     12          1           0       -1.909014   -0.685027   -1.456409
     13          1           0       -0.500251   -2.269686   -0.056314
     14          1           0        0.813919   -0.112079   -1.710915
     15          1           0        1.523124   -1.699253   -1.297118
     16          1           0        0.880869   -1.473497    1.789608
     17          1           0        0.133258    0.140550    1.676716
 ---------------------------------------------------------------------

 SCF Done:  E(RHF) =  -346.461655703     A.U. after    2 cycles

 The electronic state is 1-A.
 Alpha  occ. eigenvalues --  -21.06415 -21.05173 -11.47332 -11.46111 -11.43299
 Alpha  occ. eigenvalues --  -11.40670 -11.38596  -1.78770  -1.63257  -1.23630
 Alpha  occ. eigenvalues --   -1.07041  -1.01144  -0.86959  -0.77924  -0.71250
 Alpha  occ. eigenvalues --   -0.67645  -0.63760  -0.60339  -0.58488  -0.55829
 Alpha  occ. eigenvalues --   -0.52113  -0.48845  -0.45025  -0.43837  -0.39341
 Alpha  occ. eigenvalues --   -0.34769  -0.32634  -0.30429
 Alpha virt. eigenvalues --    0.03356   0.04712   0.04815   0.04953   0.05059
 Alpha virt. eigenvalues --    0.06010   0.07187   0.08334   0.08582   0.09669
 Alpha virt. eigenvalues --    0.10890   0.11277   0.12615   0.13036   0.13531

 Mulliken charges:
               1
     1  O   -2.395492
     2  C   -3.265826
     3  C   -0.908633
     4  C   -2.453711
     5  C   -1.121247
     6  O   -2.466201
     7  C   -1.134581
     8  H    1.350627
     9  H    1.376751
    10  H    1.497537
    11  H    1.041301
    12  H    1.278247
    13  H    1.161284
    14  H    1.727837
    15  H    1.304077
    16  H    1.283560
    17  H    1.724471
 Sum of Mulliken charges =  -0.00000

 Dipole moment (field-independent basis, Debye):
    X=             -0.9835    Y=             -2.2940    Z=             -0.0756  Tot=              2.4971

 Test job not archived.
 1\1\GINC-SE162\SP\RHF\Aug-CC-pVDZ\C5H10O2\OHZDE\09-Apr-2025\0\\#t hf a
 ug-cc-pvdz iop(5/13=1,5/36=2,99/5=2) pseudo=read geom=check guess=(rea
 d,tcheck) scf=(maxcycle=1)\\title\\0,1\O,0,0.75923859,-1.34031387,2.25
 920081\C,0,1.89160631,0.03819878,-0.83885086\C,0,0.65301585,-0.2089860
 9,-1.23799054\C,0,-0.59266855,0.47654557,-0.7742342\C,0,-1.593306,-0.4
 1821079,-0.01474005\O,0,-1.38188764,0.31358034,1.20490605\C,0,-0.55472
 302,1.28102256,0.53240329\H,0,-0.04082045,-0.80918053,2.14580917\H,0,2
 .72936453,-0.51335096,-1.24663166\H,0,2.12374887,0.80058598,-0.1039838

 Normal termination of Gaussian 16 at Wed Apr  9 18:42:50 2025.
