 Gaussian 16, Revision C.01,

 ----------------------------------------------------------------------
 #t hf aug-cc-pvdz symm=none int=(grid=ultrafine) guess=(read,tcheck) s
 table=(opt,rrhf)
 ----------------------------------------------------------------------
 -----
 title
 -----
 Symbolic Z-matrix:
 Charge =  0 Multiplicity = 1

 SCF Done:  E(RHF) =  -268.659256747     A.U. after   17 cycles
 Normal termination of Gaussian 16 at Wed Apr  9 03:21:07 2025.
 Gaussian 16:  ES64L-G16RevC.01  3-Jul-2019

 ----------------------------------------------------------------------
 #t hf aug-cc-pvdz iop(5/13=1,5/36=2,99/5=2) pseudo=read geom=check gue
 ss=(read,tcheck) scf=(maxcycle=1)
 ----------------------------------------------------------------------
 -----
 title
 -----
 Structure from the checkpoint file:  "Grambow2020_wb97xd3_006052_forward_mol1.chk"
 Charge =  0 Multiplicity = 1

                         Standard orientation:
 ---------------------------------------------------------------------
 Center     Atomic      Atomic             Coordinates (Angstroms)
 Number     Number       Type             X           Y           Z
 ---------------------------------------------------------------------
      1          6           0       -2.337131   -0.794425    0.050798
      2          8           0       -1.887287    0.493634   -0.280859
      3          6           0       -0.612434    0.782612    0.239940
      4          6           0        0.484874   -0.045204   -0.274240
      5          6           0        1.724234   -0.183895    0.025905
      6          6           0        3.100604   -0.218983   -0.101907
      7          1           0       -2.430414   -0.916741    1.139497
      8          1           0       -3.318323   -0.920550   -0.404345
      9          1           0       -1.657889   -1.565063   -0.331473
     10          1           0       -0.420642    1.829392   -0.014902
     11          1           0       -0.637692    0.712336    1.341318
     12          1           0        3.694003   -0.809841    0.583012
     13          1           0        3.623414    0.410894   -0.814774
     14          1           0        2.084957    0.069866    1.105559
 ---------------------------------------------------------------------

 SCF Done:  E(RHF) =  -269.918715854     A.U. after    2 cycles

 The electronic state is 1-A.
 Alpha  occ. eigenvalues --  -21.03425 -11.46032 -11.45325 -11.42734 -11.38730
 Alpha  occ. eigenvalues --  -11.38416  -1.74846  -1.23768  -1.07873  -0.97336
 Alpha  occ. eigenvalues --   -0.88320  -0.73293  -0.65950  -0.64487  -0.62571
 Alpha  occ. eigenvalues --   -0.58271  -0.55920  -0.53175  -0.50300  -0.37888
 Alpha  occ. eigenvalues --   -0.36988  -0.29408  -0.26866
 Alpha virt. eigenvalues --    0.02001   0.05036   0.05179   0.05528   0.06075
 Alpha virt. eigenvalues --    0.06441   0.06601   0.07482   0.08129   0.10382
 Alpha virt. eigenvalues --    0.11427   0.12794   0.13071   0.13561   0.13912

 Mulliken charges:
               1
     1  C   -2.808478
     2  O   -2.831144
     3  C   -1.547052
     4  C   -1.775419
     5  C    2.316893
     6  C   -3.541788
     7  H    1.308424
     8  H    1.240088
     9  H    1.422336
    10  H    1.155983
    11  H    1.320582
    12  H    1.298270
    13  H    1.198321
    14  H    1.242984
 Sum of Mulliken charges =  -0.00000

 Dipole moment (field-independent basis, Debye):
    X=              2.3528    Y=              0.6811    Z=              1.3590  Tot=              2.8011

 Test job not archived.
 1\1\GINC-SE036\SP\RHF\Aug-CC-pVDZ\C5H8O1\OHZDE\09-Apr-2025\0\\#t hf au
 g-cc-pvdz iop(5/13=1,5/36=2,99/5=2) pseudo=read geom=check guess=(read
 ,tcheck) scf=(maxcycle=1)\\title\\0,1\C,0,-2.50713531,0.0370258,0.1105
 1356\O,0,-1.81383858,-1.08818515,-0.36350075\C,0,-0.56369582,-0.768470
 93,-0.92467475\C,0,0.41942416,-0.19586075,0.00233015\C,0,1.58247857,0.
 32851089,-0.13061455\C,0,2.93831753,0.55016846,0.02600977\H,0,-2.72305
 672,0.74478895,-0.7027387\H,0,-3.44765281,-0.31674819,0.53012212\H,0,-
 1.93672624,0.55920647,0.88726528\H,0,-0.17208227,-1.7082201,-1.3259061

 Normal termination of Gaussian 16 at Wed Apr  9 03:21:12 2025.
