 Gaussian 16, Revision C.01,

 ----------------------------------------------------------------------
 #t hf aug-cc-pvdz symm=none int=(grid=ultrafine) guess=(read,tcheck) s
 table=(opt,rrhf)
 ----------------------------------------------------------------------
 -----
 title
 -----
 Symbolic Z-matrix:
 Charge =  0 Multiplicity = 1

 SCF Done:  E(RHF) =  -264.975071438     A.U. after   16 cycles
 Normal termination of Gaussian 16 at Wed Apr  9 16:52:07 2025.
 Gaussian 16:  ES64L-G16RevC.01  3-Jul-2019

 ----------------------------------------------------------------------
 #t hf aug-cc-pvdz iop(5/13=1,5/36=2,99/5=2) pseudo=read geom=check gue
 ss=(read,tcheck) scf=(maxcycle=1)
 ----------------------------------------------------------------------
 -----
 title
 -----
 Structure from the checkpoint file:  "Grambow2020_b97d3_006847_reverse_mol2.chk"
 Charge =  0 Multiplicity = 1

                         Standard orientation:
 ---------------------------------------------------------------------
 Center     Atomic      Atomic             Coordinates (Angstroms)
 Number     Number       Type             X           Y           Z
 ---------------------------------------------------------------------
      1          6           0        1.576887   -1.624506    0.036187
      2          7           0        0.263963   -1.070276   -0.294858
      3          6           0       -0.499363   -0.481110    0.598673
      4          6           0        1.571961    2.274793   -0.025713
      5          6           0       -1.723734    0.028943    0.089398
      6          7           0       -2.770459    0.518831   -0.155924
      7          1           0        1.739001   -1.470148    1.105931
      8          1           0        2.353761   -1.105824   -0.541943
      9          1           0        1.604420   -2.696223   -0.204188
     10          1           0        0.007940   -1.158801   -1.289217
     11          1           0        1.114687    1.704980    0.792064
     12          1           0        1.872597    3.264984    0.336729
     13          1           0        2.456215    1.741748   -0.398643
     14          1           0        0.842342    2.390687   -0.836537
 ---------------------------------------------------------------------

 SCF Done:  E(RHF) =  -266.232266543     A.U. after    2 cycles

 The electronic state is 1-A.
 Alpha  occ. eigenvalues --  -15.83195 -15.77548 -11.45937 -11.42888 -11.42411
 Alpha  occ. eigenvalues --  -11.36168  -1.46838  -1.29410  -1.08218  -1.02970
 Alpha  occ. eigenvalues --   -0.91344  -0.76879  -0.64100  -0.62700  -0.57808
 Alpha  occ. eigenvalues --   -0.54331  -0.53929  -0.53809  -0.53260  -0.50013
 Alpha  occ. eigenvalues --   -0.47300  -0.41001  -0.35032
 Alpha virt. eigenvalues --    0.02629   0.04316   0.04940   0.05426   0.06055
 Alpha virt. eigenvalues --    0.06998   0.07808   0.08327   0.08669   0.09951
 Alpha virt. eigenvalues --    0.10741   0.12078   0.13096   0.13814   0.14549

 Mulliken charges:
               1
     1  C   -3.391972
     2  N   -2.152907
     3  C    0.040630
     4  C   -5.256628
     5  C    2.446407
     6  N   -2.020890
     7  H    1.505007
     8  H    1.435678
     9  H    1.314803
    10  H    0.824364
    11  H    1.492320
    12  H    1.176094
    13  H    1.287165
    14  H    1.299927
 Sum of Mulliken charges =   0.00000

 Dipole moment (field-independent basis, Debye):
    X=              4.0429    Y=             -2.4417    Z=             -2.0124  Tot=              5.1339

 Test job not archived.
 1\1\GINC-SE226\SP\RHF\Aug-CC-pVDZ\C4H8N2\OHZDE\09-Apr-2025\0\\#t hf au
 g-cc-pvdz iop(5/13=1,5/36=2,99/5=2) pseudo=read geom=check guess=(read
 ,tcheck) scf=(maxcycle=1)\\title\\0,1\C,0,1.92825985,-0.36248183,0.234
 85913\N,0,0.93945314,0.59085633,0.73878274\C,0,0.36579615,1.48726129,-
 0.03294064\C,0,-1.69215096,-1.19535435,-0.9514535\C,0,-0.59583668,2.30
 423442,0.62006514\N,0,-1.42431357,3.06106233,0.98971989\H,0,2.07935001
 ,-0.14976402,-0.8264535\H,0,1.55391162,-1.38706429,0.36482834\H,0,2.87
 253799,-0.25161148,0.78545971\H,0,0.71604713,0.47715182,1.73842985\H,0

 Normal termination of Gaussian 16 at Wed Apr  9 16:52:11 2025.
