 Gaussian 16, Revision C.01,

 ----------------------------------------------------------------------
 #t hf aug-cc-pvdz symm=none int=(grid=ultrafine) guess=(read,tcheck) s
 table=(opt,rrhf)
 ----------------------------------------------------------------------
 -----
 title
 -----
 Symbolic Z-matrix:
 Charge =  0 Multiplicity = 1

 SCF Done:  E(RHF) =  -318.698490643     A.U. after   16 cycles
 Normal termination of Gaussian 16 at Wed Apr  9 18:57:47 2025.
 Gaussian 16:  ES64L-G16RevC.01  3-Jul-2019

 ----------------------------------------------------------------------
 #t hf aug-cc-pvdz iop(5/13=1,5/36=2,99/5=2) pseudo=read geom=check gue
 ss=(read,tcheck) scf=(maxcycle=1)
 ----------------------------------------------------------------------
 -----
 title
 -----
 Structure from the checkpoint file:  "Grambow2020_wb97xd3_007952_reverse_mol1.chk"
 Charge =  0 Multiplicity = 1

                         Standard orientation:
 ---------------------------------------------------------------------
 Center     Atomic      Atomic             Coordinates (Angstroms)
 Number     Number       Type             X           Y           Z
 ---------------------------------------------------------------------
      1          6           0        2.329960   -0.738570   -0.458033
      2          6           0        1.695210    0.284391    0.455353
      3          6           0        0.004906    0.299526    0.185225
      4          6           0        0.405243    1.423379   -0.316099
      5          7           0       -2.425888    0.355530   -0.210014
      6          7           0       -1.955311   -0.766862   -0.009200
      7          7           0       -0.620765   -0.789446    0.393640
      8          1           0        3.337577   -0.966882   -0.104955
      9          1           0        1.750188   -1.660458   -0.464359
     10          1           0        2.396478   -0.354136   -1.475397
     11          1           0        1.609609   -0.034230    1.496172
     12          1           0        2.261415    1.217012    0.466786
     13          1           0        0.439663    2.387928    0.167367
     14          1           0       -3.393099    0.203847   -0.505275
 ---------------------------------------------------------------------

 SCF Done:  E(RHF) =  -320.205274085     A.U. after    2 cycles

 The electronic state is 1-A.
 Alpha  occ. eigenvalues --  -15.81534 -15.77711 -15.73366 -11.49486 -11.46551
 Alpha  occ. eigenvalues --  -11.42963 -11.38811  -1.59703  -1.35971  -1.22685
 Alpha  occ. eigenvalues --   -1.07929  -0.92617  -0.89069  -0.73540  -0.69141
 Alpha  occ. eigenvalues --   -0.66073  -0.62413  -0.59322  -0.58059  -0.53243
 Alpha  occ. eigenvalues --   -0.51598  -0.47621  -0.43769  -0.38483  -0.35615
 Alpha  occ. eigenvalues --   -0.31124
 Alpha virt. eigenvalues --    0.03484   0.04969   0.05489   0.05777   0.05913
 Alpha virt. eigenvalues --    0.06468   0.07661   0.09270   0.10257   0.11286
 Alpha virt. eigenvalues --    0.12280   0.12576   0.13626   0.14333   0.14815

 Mulliken charges:
               1
     1  C   -3.645502
     2  C   -3.368942
     3  C    3.550646
     4  C   -1.845207
     5  N   -1.389430
     6  N    0.089946
     7  N   -1.802198
     8  H    1.151085
     9  H    1.338621
    10  H    1.325506
    11  H    1.199089
    12  H    1.322806
    13  H    1.250652
    14  H    0.822929
 Sum of Mulliken charges =   0.00000

 Dipole moment (field-independent basis, Debye):
    X=              2.2337    Y=              1.6652    Z=              0.8948  Tot=              2.9263

 Test job not archived.
 1\1\GINC-SE116\SP\RHF\Aug-CC-pVDZ\C4H7N3\OHZDE\09-Apr-2025\0\\#t hf au
 g-cc-pvdz iop(5/13=1,5/36=2,99/5=2) pseudo=read geom=check guess=(read
 ,tcheck) scf=(maxcycle=1)\\title\\0,1\C,0,-1.79633677,0.70377594,0.048
 2898\C,0,-1.01305416,-0.49190745,-0.4420581\C,0,0.63538597,-0.28515281
 ,-0.02947482\C,0,0.62007052,-0.13416652,-1.31462455\N,0,3.0161798,0.00
 833996,0.53069748\N,0,2.23493138,0.16721622,1.47194175\N,0,0.9088537,-
 0.17354644,1.20887943\H,0,-2.86133573,0.46336715,0.05624312\H,0,-1.496
 12854,0.97112439,1.06044218\H,0,-1.63772236,1.55990679,-0.60678609\H,0

 Normal termination of Gaussian 16 at Wed Apr  9 18:57:51 2025.
