 Gaussian 16, Revision C.01,

 ----------------------------------------------------------------------
 #t hf aug-cc-pvdz symm=none int=(grid=ultrafine) guess=(read,tcheck) s
 table=(opt,rrhf)
 ----------------------------------------------------------------------
 -----
 title
 -----
 Symbolic Z-matrix:
 Charge =  0 Multiplicity = 1

 SCF Done:  E(RHF) =  -338.645769164     A.U. after   16 cycles
 Normal termination of Gaussian 16 at Wed Apr  9 03:27:46 2025.
 Gaussian 16:  ES64L-G16RevC.01  3-Jul-2019

 ----------------------------------------------------------------------
 #t hf aug-cc-pvdz iop(5/13=1,5/36=2,99/5=2) pseudo=read geom=check gue
 ss=(read,tcheck) scf=(maxcycle=1)
 ----------------------------------------------------------------------
 -----
 title
 -----
 Structure from the checkpoint file:  "Grambow2020_wb97xd3_006688_forward_mol1.chk"
 Charge =  0 Multiplicity = 1

                         Standard orientation:
 ---------------------------------------------------------------------
 Center     Atomic      Atomic             Coordinates (Angstroms)
 Number     Number       Type             X           Y           Z
 ---------------------------------------------------------------------
      1          6           0       -2.476312   -0.596030    0.313618
      2          6           0       -1.570807    0.086207   -0.454059
      3          6           0       -0.696889    1.126122   -0.052562
      4          7           0        0.579487    1.104784    0.127107
      5          6           0        1.134731   -0.177651    0.003315
      6          7           0        2.484232   -0.162929    0.086884
      7          8           0        0.486030   -1.199360   -0.162752
      8          1           0       -2.461309   -0.615602    1.406130
      9          1           0       -2.809345    0.440491   -0.437115
     10          1           0       -3.194919   -1.258000   -0.164198
     11          1           0       -1.168691    2.110842   -0.011113
     12          1           0        2.991374   -1.019846   -0.022474
     13          1           0        2.964273    0.712122    0.170971
 ---------------------------------------------------------------------

 SCF Done:  E(RHF) =  -340.169790792     A.U. after    2 cycles

 The electronic state is 1-A.
 Alpha  occ. eigenvalues --  -21.00617 -15.76396 -15.71351 -11.48570 -11.47087
 Alpha  occ. eigenvalues --  -11.46870 -11.41161  -1.70953  -1.39311  -1.32214
 Alpha  occ. eigenvalues --   -1.21706  -0.97437  -0.82893  -0.74974  -0.69996
 Alpha  occ. eigenvalues --   -0.68989  -0.62465  -0.57567  -0.56800  -0.52867
 Alpha  occ. eigenvalues --   -0.49806  -0.43339  -0.39073  -0.32097  -0.30989
 Alpha  occ. eigenvalues --   -0.26746
 Alpha virt. eigenvalues --    0.02915   0.05044   0.05211   0.05588   0.06144
 Alpha virt. eigenvalues --    0.07368   0.08690   0.09462   0.10645   0.12011
 Alpha virt. eigenvalues --    0.12870   0.13956   0.14403   0.14964   0.15067

 Mulliken charges:
               1
     1  C   -2.505043
     2  C   -1.944457
     3  C    0.812749
     4  N   -3.016530
     5  C    5.158309
     6  N   -2.785661
     7  O   -2.695176
     8  H    1.355377
     9  H    1.401710
    10  H    1.330140
    11  H    1.517076
    12  H    0.666692
    13  H    0.704814
 Sum of Mulliken charges =   0.00000

 Dipole moment (field-independent basis, Debye):
    X=             -1.6506    Y=             -0.2036    Z=              1.3994  Tot=              2.1735

 Test job not archived.
 1\1\GINC-SE159\SP\RHF\Aug-CC-pVDZ\C4H6N2O1\OHZDE\09-Apr-2025\0\\#t hf
 aug-cc-pvdz iop(5/13=1,5/36=2,99/5=2) pseudo=read geom=check guess=(re
 ad,tcheck) scf=(maxcycle=1)\\title\\0,1\C,0,-2.21438125,0.56253358,0.0
 1460474\C,0,-1.25525878,-0.3791968,0.275259\C,0,-0.37450027,-1.0025360
 4,-0.6423836\N,0,0.89073793,-0.8275748,-0.81683705\C,0,1.41720682,0.21
 719304,-0.04253143\N,0,2.76103838,0.31404203,-0.15694857\O,0,0.7504738
 2,0.96125758,0.66040284\H,0,-2.25250614,1.1612357,-0.89879138\H,0,-2.4
 833799,-0.72912664,0.10482133\H,0,-2.92640083,0.8332561,0.79090739\H,0

 Normal termination of Gaussian 16 at Wed Apr  9 03:27:50 2025.
