 Gaussian 16, Revision C.01,

 ----------------------------------------------------------------------
 #t hf aug-cc-pvdz symm=none int=(grid=ultrafine) guess=(read,tcheck) s
 table=(opt,rrhf)
 ----------------------------------------------------------------------
 -----
 title
 -----
 Symbolic Z-matrix:
 Charge =  0 Multiplicity = 1

 SCF Done:  E(RHF) =  -374.490850518     A.U. after   15 cycles
 Normal termination of Gaussian 16 at Wed Apr  9 19:19:45 2025.
 Gaussian 16:  ES64L-G16RevC.01  3-Jul-2019

 ----------------------------------------------------------------------
 #t hf aug-cc-pvdz iop(5/13=1,5/36=2,99/5=2) pseudo=read geom=check gue
 ss=(read,tcheck) scf=(maxcycle=1)
 ----------------------------------------------------------------------
 -----
 title
 -----
 Structure from the checkpoint file:  "Grambow2020_wb97xd3_008644_reverse_mol1.chk"
 Charge =  0 Multiplicity = 1

                         Standard orientation:
 ---------------------------------------------------------------------
 Center     Atomic      Atomic             Coordinates (Angstroms)
 Number     Number       Type             X           Y           Z
 ---------------------------------------------------------------------
      1          6           0       -0.129948    1.970216   -0.066395
      2          7           0       -0.423501    0.594416    0.259691
      3          7           0        0.323630   -0.440754    0.983938
      4          6           0        1.416718   -0.814042    0.224692
      5          8           0        1.790521   -0.320106   -0.815059
      6          6           0       -1.172673   -0.359897   -0.036038
      7          8           0       -2.009291   -1.070620   -0.404757
      8          1           0        0.182302    2.468667    0.850108
      9          1           0        0.666057    2.006291   -0.807340
     10          1           0       -1.037404    2.435408   -0.446769
     11          1           0        1.953725   -1.637857    0.723575
 ---------------------------------------------------------------------

 SCF Done:  E(RHF) =  -376.116016597     A.U. after    2 cycles

 The electronic state is 1-A.
 Alpha  occ. eigenvalues --  -21.15438 -21.04290 -15.83961 -15.75512 -11.63909
 Alpha  occ. eigenvalues --  -11.47298 -11.45033  -1.81152  -1.71893  -1.58605
 Alpha  occ. eigenvalues --   -1.23111  -1.08506  -0.84166  -0.77680  -0.72776
 Alpha  occ. eigenvalues --   -0.65282  -0.64400  -0.61071  -0.60096  -0.55942
 Alpha  occ. eigenvalues --   -0.53899  -0.46631  -0.44179  -0.35858  -0.30323
 Alpha  occ. eigenvalues --   -0.29728
 Alpha virt. eigenvalues --    0.02783   0.05486   0.05630   0.06580   0.07979
 Alpha virt. eigenvalues --    0.10004   0.10715   0.11118   0.11929   0.12278
 Alpha virt. eigenvalues --    0.13438   0.13940   0.15055   0.15247   0.16833

 Mulliken charges:
               1
     1  C   -3.461887
     2  N   -2.002689
     3  N   -1.255656
     4  C    1.927405
     5  O   -2.531936
     6  C    4.345015
     7  O   -2.876809
     8  H    1.390958
     9  H    1.453841
    10  H    1.411698
    11  H    1.600059
 Sum of Mulliken charges =  -0.00000

 Dipole moment (field-independent basis, Debye):
    X=             -1.7817    Y=              2.4230    Z=             -0.7466  Tot=              3.0988

 Test job not archived.
 1\1\GINC-SE036\SP\RHF\Aug-CC-pVDZ\C3H4N2O2\OHZDE\09-Apr-2025\0\\#t hf
 aug-cc-pvdz iop(5/13=1,5/36=2,99/5=2) pseudo=read geom=check guess=(re
 ad,tcheck) scf=(maxcycle=1)\\title\\0,1\C,0,-1.47612463,-0.50525183,0.
 1447278\N,0,-0.4204333,0.41489071,-0.20767219\N,0,0.8265261,0.25982985
 ,-0.96619875\C,0,1.69983547,-0.52065664,-0.23216026\O,0,1.47479078,-1.
 08858267,0.81263502\C,0,0.06353096,1.53008996,0.07787447\O,0,0.2939393
 4,2.60455599,0.44317484\H,0,-1.78747054,-1.01655084,-0.76498076\H,0,-1
 .10492895,-1.22223929,0.87415824\H,0,-2.30996863,0.06546361,0.54914276

 Normal termination of Gaussian 16 at Wed Apr  9 19:19:49 2025.
