 Gaussian 16, Revision C.01,

 ----------------------------------------------------------------------
 #t hf aug-cc-pvdz symm=none int=(grid=ultrafine) guess=(read,tcheck) s
 table=(opt,rrhf)
 ----------------------------------------------------------------------
 -----
 title
 -----
 Symbolic Z-matrix:
 Charge =  0 Multiplicity = 1

 SCF Done:  E(RHF) =  -359.485154673     A.U. after   20 cycles
 Normal termination of Gaussian 16 at Wed Apr  9 03:46:39 2025.
 Gaussian 16:  ES64L-G16RevC.01  3-Jul-2019

 ----------------------------------------------------------------------
 #t hf aug-cc-pvdz iop(5/13=1,5/36=2,99/5=2) pseudo=read geom=check gue
 ss=(read,tcheck) scf=(maxcycle=1)
 ----------------------------------------------------------------------
 -----
 title
 -----
 Structure from the checkpoint file:  "Grambow2020_wb97xd3_007890_forward_mol1.chk"
 Charge =  0 Multiplicity = 1

                         Standard orientation:
 ---------------------------------------------------------------------
 Center     Atomic      Atomic             Coordinates (Angstroms)
 Number     Number       Type             X           Y           Z
 ---------------------------------------------------------------------
      1          6           0       -1.808199   -0.889391    0.361126
      2          6           0       -0.680193   -0.433810   -0.529383
      3          7           0       -0.496710    0.865159   -0.851209
      4          8           0       -0.635096    1.567866    0.251073
      5          6           0        0.567936   -1.038037   -0.399870
      6          6           0        1.790064   -0.200936   -0.298456
      7          8           0        1.283297    0.121184    0.970184
      8          1           0       -2.688809   -0.267705    0.206454
      9          1           0       -2.058882   -1.919040    0.097417
     10          1           0       -1.546365   -0.866675    1.420815
     11          1           0        0.143289    0.998767    0.830423
     12          1           0        0.626629   -2.011762    0.072428
     13          1           0        2.722701   -0.762030   -0.242795
     14          1           0        1.875156    0.632976   -0.996836
 ---------------------------------------------------------------------

 SCF Done:  E(RHF) =  -361.114573477     A.U. after    2 cycles

 The electronic state is 1-A.
 Alpha  occ. eigenvalues --  -21.09712 -21.01994 -15.85762 -11.51605 -11.44463
 Alpha  occ. eigenvalues --  -11.43713 -11.39523  -1.86261  -1.67784  -1.30891
 Alpha  occ. eigenvalues --   -1.07782  -1.05996  -0.93470  -0.78655  -0.71360
 Alpha  occ. eigenvalues --   -0.66712  -0.62084  -0.61057  -0.58031  -0.55947
 Alpha  occ. eigenvalues --   -0.52335  -0.48702  -0.46060  -0.37996  -0.34703
 Alpha  occ. eigenvalues --   -0.29020  -0.24333
 Alpha virt. eigenvalues --    0.03168   0.04248   0.05049   0.05679   0.05875
 Alpha virt. eigenvalues --    0.06678   0.07330   0.08177   0.09017   0.10291
 Alpha virt. eigenvalues --    0.12286   0.13412   0.13484   0.14034   0.15198

 Mulliken charges:
               1
     1  C   -3.930450
     2  C    1.262790
     3  N   -1.068664
     4  O   -2.053833
     5  C    0.125156
     6  C   -1.737788
     7  O   -2.124377
     8  H    1.302034
     9  H    1.087337
    10  H    1.188763
    11  H    1.605457
    12  H    1.615287
    13  H    1.339431
    14  H    1.388858
 Sum of Mulliken charges =   0.00000

 Dipole moment (field-independent basis, Debye):
    X=              0.5325    Y=             -1.0465    Z=              1.1053  Tot=              1.6126

 Test job not archived.
 1\1\GINC-SE123\SP\RHF\Aug-CC-pVDZ\C4H7N1O2\OHZDE\09-Apr-2025\0\\#t hf
 aug-cc-pvdz iop(5/13=1,5/36=2,99/5=2) pseudo=read geom=check guess=(re
 ad,tcheck) scf=(maxcycle=1)\\title\\0,1\C,0,-1.43706029,-1.08108344,-0
 .47428996\C,0,-0.58738481,0.15840862,-0.59540155\N,0,-0.83794306,1.275
 80121,0.12098661\O,0,-1.08224995,0.90456809,1.35810918\C,0,0.79174946,
 0.02040284,-0.7318955\C,0,1.70521196,0.82437607,0.1188889\O,0,1.242568
 31,-0.01231316,1.14647516\H,0,-2.47531605,-0.81263264,-0.284947\H,0,-1
 .38562957,-1.62581143,-1.41937686\H,0,-1.09890724,-1.75001786,0.319557

 Normal termination of Gaussian 16 at Wed Apr  9 03:46:43 2025.
