 Gaussian 16, Revision C.01,

 ----------------------------------------------------------------------
 #t hf aug-cc-pvdz symm=none int=(grid=ultrafine) guess=(read,tcheck) s
 table=(opt,rrhf)
 ----------------------------------------------------------------------
 -----
 title
 -----
 Symbolic Z-matrix:
 Charge =  0 Multiplicity = 1

 SCF Done:  E(RHF) =  -305.740971598     A.U. after   15 cycles
 Normal termination of Gaussian 16 at Wed Apr  9 03:05:54 2025.
 Gaussian 16:  ES64L-G16RevC.01  3-Jul-2019

 ----------------------------------------------------------------------
 #t hf aug-cc-pvdz iop(5/13=1,5/36=2,99/5=2) pseudo=read geom=check gue
 ss=(read,tcheck) scf=(maxcycle=1)
 ----------------------------------------------------------------------
 -----
 title
 -----
 Structure from the checkpoint file:  "Grambow2020_b97d3_006517_reverse_mol1.chk"
 Charge =  0 Multiplicity = 1

                         Standard orientation:
 ---------------------------------------------------------------------
 Center     Atomic      Atomic             Coordinates (Angstroms)
 Number     Number       Type             X           Y           Z
 ---------------------------------------------------------------------
      1          8           0        1.468211   -0.763222   -0.652556
      2          6           0        1.525973    0.239545    0.204721
      3          6           0        0.252783    0.883832    0.555566
      4          6           0       -0.820417    0.997476   -0.494955
      5          6           0       -1.635069   -0.266239   -0.179273
      6          8           0       -0.729498   -1.075367    0.606980
      7          1           0        0.103692   -1.239719   -0.005196
      8          1           0        2.187545    0.115481    1.095339
      9          1           0        1.916232    1.257872   -0.217843
     10          1           0        0.160809    1.441481    1.493457
     11          1           0       -1.396093    1.929494   -0.427551
     12          1           0       -0.337763    0.915997   -1.480240
     13          1           0       -1.989916   -0.801186   -1.073229
     14          1           0       -2.493828   -0.038399    0.463517
 ---------------------------------------------------------------------

 SCF Done:  E(RHF) =  -307.138900221     A.U. after    2 cycles

 The electronic state is 1-A.
 Alpha  occ. eigenvalues --  -21.04477 -20.94791 -11.55297 -11.47027 -11.43461
 Alpha  occ. eigenvalues --  -11.41438  -1.71829  -1.60195  -1.23246  -1.06072
 Alpha  occ. eigenvalues --   -0.92025  -0.81168  -0.71363  -0.67015  -0.64513
 Alpha  occ. eigenvalues --   -0.60487  -0.55481  -0.52299  -0.49258  -0.44279
 Alpha  occ. eigenvalues --   -0.40747  -0.32875  -0.24707  -0.23213
 Alpha virt. eigenvalues --    0.02925   0.03885   0.04288   0.05222   0.05494
 Alpha virt. eigenvalues --    0.06165   0.06465   0.07216   0.09674   0.11874
 Alpha virt. eigenvalues --    0.12099   0.12897   0.13124   0.13701   0.14085

 Mulliken charges:
               1
     1  O   -2.657771
     2  C   -0.140086
     3  C   -1.101406
     4  C   -3.157606
     5  C   -1.058254
     6  O   -2.356952
     7  H    1.352691
     8  H    1.267141
     9  H    1.056294
    10  H    1.487658
    11  H    1.258704
    12  H    1.376723
    13  H    1.306816
    14  H    1.366047
 Sum of Mulliken charges =   0.00000

 Dipole moment (field-independent basis, Debye):
    X=             -2.8849    Y=              2.7839    Z=              1.4334  Tot=              4.2576

 Test job not archived.
 1\1\GINC-SE041\SP\RHF\Aug-CC-pVDZ\C4H8O2\OHZDE\09-Apr-2025\0\\#t hf au
 g-cc-pvdz iop(5/13=1,5/36=2,99/5=2) pseudo=read geom=check guess=(read
 ,tcheck) scf=(maxcycle=1)\\title\\0,1\O,0,-1.84634768,0.60722498,-0.47
 03585\C,0,-1.56083491,-0.58288082,0.0255583\C,0,-0.14430649,-0.8636089
 9,0.2973086\C,0,0.90248343,-0.27929178,-0.61432306\C,0,1.24339536,1.00
 249311,0.16097932\O,0,0.11923131,1.1766812,1.05476739\H,0,-0.72158835,
 1.25620618,0.436161\H,0,-2.22393788,-0.97425393,0.83388495\H,0,-1.5852
 5087,-1.47587194,-0.72930883\H,0,0.13207473,-1.63611193,1.02251531\H,0

 Normal termination of Gaussian 16 at Wed Apr  9 03:05:59 2025.
