 Gaussian 16, Revision C.01,

 ----------------------------------------------------------------------
 #t hf aug-cc-pvdz symm=none int=(grid=ultrafine) guess=(read,tcheck) s
 table=(opt,rrhf)
 ----------------------------------------------------------------------
 -----
 title
 -----
 Symbolic Z-matrix:
 Charge =  0 Multiplicity = 1

 SCF Done:  E(RHF) =  -360.880421187     A.U. after   13 cycles
 Normal termination of Gaussian 16 at Wed Apr  9 03:58:16 2025.
 Gaussian 16:  ES64L-G16RevC.01  3-Jul-2019

 ----------------------------------------------------------------------
 #t hf aug-cc-pvdz iop(5/13=1,5/36=2,99/5=2) pseudo=read geom=check gue
 ss=(read,tcheck) scf=(maxcycle=1)
 ----------------------------------------------------------------------
 -----
 title
 -----
 Structure from the checkpoint file:  "Grambow2020_wb97xd3_008684_reverse_mol2.chk"
 Charge =  0 Multiplicity = 1

                         Standard orientation:
 ---------------------------------------------------------------------
 Center     Atomic      Atomic             Coordinates (Angstroms)
 Number     Number       Type             X           Y           Z
 ---------------------------------------------------------------------
      1          6           0        3.032822   -0.017875    0.681967
      2          7           0        2.576081   -0.611211   -0.333293
      3          6           0       -0.104771    1.645403   -0.191719
      4          6           0       -0.741694    0.469616   -0.213839
      5          8           0       -0.210763   -0.714042   -0.537275
      6          8           0       -2.051056    0.397388    0.083762
      7          6           0       -2.595105   -0.872300    0.403647
      8          1           0        4.087649   -0.025415    0.965100
      9          1           0        0.770065   -0.648423   -0.578505
     10          1           0        2.344800    0.541069    1.315413
     11          1           0        3.296345   -1.098297   -0.860516
     12          1           0        0.911361    1.723623   -0.547006
     13          1           0       -0.636180    2.533847    0.110427
     14          1           0       -3.636355   -0.686293    0.659171
     15          1           0       -2.083446   -1.319600    1.259094
     16          1           0       -2.539765   -1.557860   -0.442360
 ---------------------------------------------------------------------

 SCF Done:  E(RHF) =  -362.508104261     A.U. after    2 cycles

 The electronic state is 1-A.
 Alpha  occ. eigenvalues --  -21.06979 -21.05822 -15.77536 -11.47509 -11.44969
 Alpha  occ. eigenvalues --  -11.39630 -11.33101  -1.83450  -1.67657  -1.36324
 Alpha  occ. eigenvalues --   -1.08260  -0.96606  -0.90518  -0.78074  -0.70350
 Alpha  occ. eigenvalues --   -0.65141  -0.62513  -0.61130  -0.60866  -0.56119
 Alpha  occ. eigenvalues --   -0.51792  -0.49081  -0.46005  -0.45633  -0.39705
 Alpha  occ. eigenvalues --   -0.37858  -0.33259  -0.24255
 Alpha virt. eigenvalues --    0.02923   0.04799   0.04882   0.06028   0.06555
 Alpha virt. eigenvalues --    0.06921   0.07200   0.07592   0.09009   0.09720
 Alpha virt. eigenvalues --    0.11361   0.11606   0.14405   0.14541   0.15357

 Mulliken charges:
               1
     1  C   -1.356693
     2  N   -2.350511
     3  C   -4.269437
     4  C    6.143660
     5  O   -3.985675
     6  O   -3.686962
     7  C   -2.885250
     8  H    1.369579
     9  H    1.765013
    10  H    1.596123
    11  H    0.701831
    12  H    1.508143
    13  H    1.411051
    14  H    1.278673
    15  H    1.339354
    16  H    1.421102
 Sum of Mulliken charges =  -0.00000

 Dipole moment (field-independent basis, Debye):
    X=              2.7040    Y=             -1.8814    Z=              0.9276  Tot=              3.4222

 Test job not archived.
 1\1\GINC-SE143\SP\RHF\Aug-CC-pVDZ\C4H9N1O2\OHZDE\09-Apr-2025\0\\#t hf
 aug-cc-pvdz iop(5/13=1,5/36=2,99/5=2) pseudo=read geom=check guess=(re
 ad,tcheck) scf=(maxcycle=1)\\title\\0,1\C,0,-2.83337293,0.69019063,0.0
 3907184\N,0,-2.3958523,-0.32611005,-0.56683446\C,0,0.19853146,-0.36185
 221,1.79265979\C,0,0.8793682,-0.37731111,0.64163524\O,0,0.38217559,-0.
 64428222,-0.57041711\O,0,2.20164959,-0.1331893,0.62788951\C,0,2.807442
 24,0.19949931,-0.61015529\H,0,-3.87460945,1.01760034,0.00020875\H,0,-0
 .60133085,-0.64601492,-0.54315907\H,0,-2.14227607,1.27793207,0.6423878

 Normal termination of Gaussian 16 at Wed Apr  9 03:58:21 2025.
