 Gaussian 16, Revision C.01,

 ----------------------------------------------------------------------
 #t hf aug-cc-pvdz symm=none int=(grid=ultrafine) guess=(read,tcheck) s
 table=(opt,rrhf)
 ----------------------------------------------------------------------
 -----
 title
 -----
 Symbolic Z-matrix:
 Charge =  0 Multiplicity = 1

 SCF Done:  E(RHF) =  -358.439695182     A.U. after   17 cycles
 Normal termination of Gaussian 16 at Wed Apr  9 18:11:26 2025.
 Gaussian 16:  ES64L-G16RevC.01  3-Jul-2019

 ----------------------------------------------------------------------
 #t hf aug-cc-pvdz iop(5/13=1,5/36=2,99/5=2) pseudo=read geom=check gue
 ss=(read,tcheck) scf=(maxcycle=1)
 ----------------------------------------------------------------------
 -----
 title
 -----
 Structure from the checkpoint file:  "Grambow2020_wb97xd3_006745_reverse_mol1.chk"
 Charge =  0 Multiplicity = 1

                         Standard orientation:
 ---------------------------------------------------------------------
 Center     Atomic      Atomic             Coordinates (Angstroms)
 Number     Number       Type             X           Y           Z
 ---------------------------------------------------------------------
      1          8           0       -2.510415   -0.338686    0.224826
      2          6           0       -1.420586   -0.541722   -0.215326
      3          6           0       -0.288213    0.479150   -0.105037
      4          8           0       -0.433353    1.657585    0.020826
      5          7           0        0.978899   -0.124296   -0.178591
      6          6           0        1.226065   -1.440215    0.183919
      7          6           0        2.134527    0.517187    0.019571
      8          1           0       -1.163927   -1.457289   -0.782704
      9          1           0        1.096974   -2.241931   -0.532658
     10          1           0        1.678812   -1.614103    1.145997
     11          1           0        2.162923    1.418534    0.622202
     12          1           0        3.012311    0.127275   -0.466678
 ---------------------------------------------------------------------

 SCF Done:  E(RHF) =  -360.005930038     A.U. after    2 cycles

 The electronic state is 1-A.
 Alpha  occ. eigenvalues --  -21.09871 -21.08715 -15.83097 -11.54299 -11.49716
 Alpha  occ. eigenvalues --  -11.45881 -11.41188  -1.77753  -1.72250  -1.50748
 Alpha  occ. eigenvalues --   -1.08001  -1.00414  -0.91102  -0.76577  -0.73365
 Alpha  occ. eigenvalues --   -0.69342  -0.64357  -0.61815  -0.55897  -0.54944
 Alpha  occ. eigenvalues --   -0.53575  -0.45728  -0.38276  -0.36772  -0.31866
 Alpha  occ. eigenvalues --   -0.27672
 Alpha virt. eigenvalues --    0.03018   0.03752   0.05058   0.05393   0.06427
 Alpha virt. eigenvalues --    0.06792   0.09062   0.10271   0.10719   0.11889
 Alpha virt. eigenvalues --    0.12301   0.12737   0.13463   0.13850   0.14561

 Mulliken charges:
               1
     1  O   -2.638606
     2  C    1.089488
     3  C    4.308975
     4  O   -3.201096
     5  N   -2.465479
     6  C   -2.280299
     7  C   -1.972438
     8  H    1.456509
     9  H    1.475587
    10  H    1.379173
    11  H    1.476624
    12  H    1.371563
 Sum of Mulliken charges =  -0.00000

 Dipole moment (field-independent basis, Debye):
    X=              1.5947    Y=             -0.1721    Z=             -0.4993  Tot=              1.6799

 Test job not archived.
 1\1\GINC-SE232\SP\RHF\Aug-CC-pVDZ\C4H5N1O2\OHZDE\09-Apr-2025\0\\#t hf
 aug-cc-pvdz iop(5/13=1,5/36=2,99/5=2) pseudo=read geom=check guess=(re
 ad,tcheck) scf=(maxcycle=1)\\title\\0,1\O,0,2.94060592,-0.30906279,-0.
 64701202\C,0,1.78558959,-0.58532325,-0.53609723\C,0,0.9192882,-0.04735
 228,0.60263881\O,0,1.32617954,0.316944,1.66440318\N,0,-0.44589258,-0.0
 3291545,0.26916873\C,0,-0.91870786,0.05694169,-1.03179972\C,0,-1.40411
 619,0.50658814,1.02876618\H,0,1.27031043,-1.29270859,-1.21443869\H,0,-
 1.05504442,-0.83510768,-1.63059508\H,0,-1.27190879,1.01802241,-1.36703

 Normal termination of Gaussian 16 at Wed Apr  9 18:11:31 2025.
