 Gaussian 16, Revision C.01,

 ----------------------------------------------------------------------
 #t hf aug-cc-pvdz symm=none int=(grid=ultrafine) guess=(read,tcheck) s
 table=(opt,rrhf)
 ----------------------------------------------------------------------
 -----
 title
 -----
 Symbolic Z-matrix:
 Charge =  0 Multiplicity = 1

 SCF Done:  E(RHF) =  -269.956442179     A.U. after   15 cycles

 1\1\GINC-SE042\Stability\RHF\Aug-CC-pVDZ\C5H10O1\OHZDE\09-Apr-2025\0\\
 #t hf aug-cc-pvdz symm=none int=(grid=ultrafine) guess=(read,tcheck) s
 table=(opt,rrhf)\\title\\0,1\C,0,-2.41310825,0.46956142,-0.16475045\C,
 0,-1.21161292,-0.46883876,0.00692351\C,0,0.11851806,0.29440835,0.09891
 131\C,0,1.30603125,-0.6461258,0.23871344\C,0,3.2370392,0.31141122,-0.7
 0487417\O,0,2.53694363,0.1390307,0.39686408\H,0,-3.35322075,-0.0960931
 4,-0.22523517\H,0,-2.49119556,1.16755514,0.68151387\H,0,-2.31722848,1.
 06590284,-1.08366513\H,0,-1.34659036,-1.07936744,0.9145049\H,0,-1.1700

 Normal termination of Gaussian 16 at Wed Apr  9 16:00:59 2025.
 Gaussian 16:  ES64L-G16RevC.01  3-Jul-2019

 ----------------------------------------------------------------------
 #t hf aug-cc-pvdz iop(5/13=1,5/36=2,99/5=2) pseudo=read geom=check gue
 ss=(read,tcheck) scf=(maxcycle=1)
 ----------------------------------------------------------------------
 -----
 title
 -----
 Structure from the checkpoint file:  "Grambow2020_b97d3_006644_reverse_mol2.chk"
 Charge =  0 Multiplicity = 1

                         Standard orientation:
 ---------------------------------------------------------------------
 Center     Atomic      Atomic             Coordinates (Angstroms)
 Number     Number       Type             X           Y           Z
 ---------------------------------------------------------------------
      1          6           0       -2.893398   -0.461898   -0.010908
      2          6           0       -1.686472    0.462203    0.196520
      3          6           0       -0.361879   -0.207260   -0.200377
      4          6           0        0.831223    0.706186    0.037238
      5          6           0        2.760059   -0.555908    0.509191
      6          8           0        2.056157    0.043356   -0.428403
      7          1           0       -3.829443    0.037113    0.275873
      8          1           0       -2.979949   -0.765499   -1.064375
      9          1           0       -2.797339   -1.374862    0.594476
     10          1           0       -1.821482    1.383846   -0.392559
     11          1           0       -1.636364    0.772312    1.252654
     12          1           0       -0.212531   -1.126606    0.387031
     13          1           0       -0.392241   -0.499929   -1.261295
     14          1           0        0.962299    0.936917    1.101916
     15          1           0        0.761238    1.629917   -0.551546
     16          1           0        3.599355   -0.999995   -0.104935
 ---------------------------------------------------------------------

 SCF Done:  E(RHF) =  -271.249881686     A.U. after    2 cycles

 The electronic state is 1-A.
 Alpha  occ. eigenvalues --  -21.11134 -11.45555 -11.42067 -11.41218 -11.38538
 Alpha  occ. eigenvalues --  -11.35656  -1.79833  -1.23476  -1.07231  -0.93671
 Alpha  occ. eigenvalues --   -0.84318  -0.80229  -0.68582  -0.62033  -0.60634
 Alpha  occ. eigenvalues --   -0.55743  -0.54497  -0.53278  -0.48505  -0.47413
 Alpha  occ. eigenvalues --   -0.46571  -0.45644  -0.39618  -0.31415
 Alpha virt. eigenvalues --    0.03966   0.05003   0.05324   0.05636   0.05959
 Alpha virt. eigenvalues --    0.06196   0.06878   0.07341   0.08488   0.09045
 Alpha virt. eigenvalues --    0.09545   0.11030   0.12056   0.13612   0.14088

 Mulliken charges:
               1
     1  C   -3.816506
     2  C   -2.855683
     3  C   -2.508898
     4  C   -1.334875
     5  C   -1.252744
     6  O   -2.292875
     7  H    1.103811
     8  H    1.263129
     9  H    1.289517
    10  H    1.415951
    11  H    1.374593
    12  H    1.545452
    13  H    1.513765
    14  H    1.699112
    15  H    1.340611
    16  H    1.515638
 Sum of Mulliken charges =   0.00000

 Dipole moment (field-independent basis, Debye):
    X=             -1.6130    Y=              0.9718    Z=             -1.8613  Tot=              2.6477

 Test job not archived.
 1\1\GINC-SE042\SP\RHF\Aug-CC-pVDZ\C5H10O1\OHZDE\09-Apr-2025\0\\#t hf a
 ug-cc-pvdz iop(5/13=1,5/36=2,99/5=2) pseudo=read geom=check guess=(rea
 d,tcheck) scf=(maxcycle=1)\\title\\0,1\C,0,-2.41310825,0.46956142,-0.1
 6475045\C,0,-1.21161292,-0.46883876,0.00692351\C,0,0.11851806,0.294408
 35,0.09891131\C,0,1.30603125,-0.6461258,0.23871344\C,0,3.2370392,0.311
 41122,-0.70487417\O,0,2.53694363,0.1390307,0.39686408\H,0,-3.35322075,
 -0.09609314,-0.22523517\H,0,-2.49119556,1.16755514,0.68151387\H,0,-2.3
 1722848,1.06590284,-1.08366513\H,0,-1.34659036,-1.07936744,0.9145049\H

 Normal termination of Gaussian 16 at Wed Apr  9 16:01:03 2025.
