 Gaussian 16, Revision C.01,

 ----------------------------------------------------------------------
 #t hf aug-cc-pvdz symm=none int=(grid=ultrafine) guess=(read,tcheck) s
 table=(opt,rrhf)
 ----------------------------------------------------------------------
 -----
 title
 -----
 Symbolic Z-matrix:
 Charge =  0 Multiplicity = 1

 SCF Done:  E(RHF) =  -374.602300728     A.U. after   15 cycles
 Normal termination of Gaussian 16 at Wed Apr  9 18:36:27 2025.
 Gaussian 16:  ES64L-G16RevC.01  3-Jul-2019

 ----------------------------------------------------------------------
 #t hf aug-cc-pvdz iop(5/13=1,5/36=2,99/5=2) pseudo=read geom=check gue
 ss=(read,tcheck) scf=(maxcycle=1)
 ----------------------------------------------------------------------
 -----
 title
 -----
 Structure from the checkpoint file:  "Grambow2020_wb97xd3_007329_reverse_mol2.chk"
 Charge =  0 Multiplicity = 1

                         Standard orientation:
 ---------------------------------------------------------------------
 Center     Atomic      Atomic             Coordinates (Angstroms)
 Number     Number       Type             X           Y           Z
 ---------------------------------------------------------------------
      1          7           0       -1.977488   -0.903456   -0.409444
      2          6           0       -0.953725   -0.320320    0.413610
      3          6           0       -0.920513    1.178983    0.125087
      4          8           0        0.073596    1.778358   -0.160246
      5          6           0        1.445972   -0.496383    0.036512
      6          8           0        2.559780   -0.259468   -0.189787
      7          7           0        0.345802   -0.924061    0.293928
      8          1           0       -2.194526   -1.844202   -0.114160
      9          1           0       -1.689847   -0.935682   -1.378887
     10          1           0       -1.909716    1.666673    0.195322
     11          1           0       -1.281519   -0.418978    1.455345
 ---------------------------------------------------------------------

 SCF Done:  E(RHF) =  -376.214564119     A.U. after    2 cycles

 The electronic state is 1-A.
 Alpha  occ. eigenvalues --  -21.11612 -21.09318 -15.76924 -15.76026 -11.57748
 Alpha  occ. eigenvalues --  -11.51924 -11.46988  -1.76811  -1.74577  -1.45808
 Alpha  occ. eigenvalues --   -1.31421  -1.04898  -0.87667  -0.74550  -0.71660
 Alpha  occ. eigenvalues --   -0.66578  -0.62318  -0.60704  -0.57673  -0.56539
 Alpha  occ. eigenvalues --   -0.50986  -0.46524  -0.41633  -0.38095  -0.33070
 Alpha  occ. eigenvalues --   -0.31226
 Alpha virt. eigenvalues --    0.03317   0.04776   0.05180   0.06140   0.08696
 Alpha virt. eigenvalues --    0.09910   0.10660   0.11074   0.11667   0.12685
 Alpha virt. eigenvalues --    0.13016   0.13595   0.15335   0.15628   0.16192

 Mulliken charges:
               1
     1  N   -2.593570
     2  C    0.332844
     3  C    1.830723
     4  O   -2.707981
     5  C    3.795669
     6  O   -2.564551
     7  N   -2.555560
     8  H    0.548444
     9  H    0.622633
    10  H    1.562847
    11  H    1.728504
 Sum of Mulliken charges =  -0.00000

 Dipole moment (field-independent basis, Debye):
    X=             -1.0811    Y=             -0.2213    Z=             -0.0649  Tot=              1.1055

 Test job not archived.
 1\1\GINC-SE340\SP\RHF\Aug-CC-pVDZ\C3H4N2O2\OHZDE\09-Apr-2025\0\\#t hf
 aug-cc-pvdz iop(5/13=1,5/36=2,99/5=2) pseudo=read geom=check guess=(re
 ad,tcheck) scf=(maxcycle=1)\\title\\0,1\N,0,-1.6081182,-0.26465166,-0.
 23515809\C,0,-0.31207666,-0.26590939,0.38599557\C,0,0.10136078,1.18764
 032,0.6062708\O,0,1.14730479,1.64204227,0.24788807\C,0,1.7986501,-0.74
 924013,-0.72889071\O,0,2.86166908,-0.66721817,-1.1884231\N,0,0.6985547
 1,-1.01753034,-0.30775376\H,0,-2.02724506,-1.1828589,-0.212124\H,0,-1.
 54784396,0.03033959,-1.20104741\H,0,-0.66392937,1.79323029,1.12481524\

 Normal termination of Gaussian 16 at Wed Apr  9 18:36:30 2025.
