 Gaussian 16, Revision C.01,

 ----------------------------------------------------------------------
 #t hf aug-cc-pvdz symm=none int=(grid=ultrafine) guess=(read,tcheck) s
 table=(opt,rrhf)
 ----------------------------------------------------------------------
 -----
 title
 -----
 Symbolic Z-matrix:
 Charge =  0 Multiplicity = 1

 SCF Done:  E(RHF) =  -191.987212275     A.U. after   13 cycles
 Normal termination of Gaussian 16 at Wed Apr  9 16:28:41 2025.
 Gaussian 16:  ES64L-G16RevC.01  3-Jul-2019

 ----------------------------------------------------------------------
 #t hf aug-cc-pvdz iop(5/13=1,5/36=2,99/5=2) pseudo=read geom=check gue
 ss=(read,tcheck) scf=(maxcycle=1)
 ----------------------------------------------------------------------
 -----
 title
 -----
 Structure from the checkpoint file:  "Grambow2020_b97d3_006806_forward_mol2.chk"
 Charge =  0 Multiplicity = 1

                         Standard orientation:
 ---------------------------------------------------------------------
 Center     Atomic      Atomic             Coordinates (Angstroms)
 Number     Number       Type             X           Y           Z
 ---------------------------------------------------------------------
      1          6           0        1.290408   -0.619858    0.003053
      2          6           0        0.000010    0.190982   -0.000779
      3          8           0       -0.000992    1.412696    0.000147
      4          6           0       -1.289556   -0.621334   -0.003247
      5          1           0        2.151307    0.036490    0.168660
      6          1           0        1.261397   -1.405722    0.772481
      7          1           0        1.406558   -1.129235   -0.966662
      8          1           0       -1.412022   -1.114953    0.973844
      9          1           0       -2.149442    0.032375   -0.183846
     10          1           0       -1.255026   -1.419257   -0.759815
 ---------------------------------------------------------------------

 SCF Done:  E(RHF) =  -192.878466905     A.U. after    2 cycles

 The electronic state is 1-A.
 Alpha  occ. eigenvalues --  -21.04925 -11.48490 -11.39410 -11.38192  -1.69626
 Alpha  occ. eigenvalues --   -1.15381  -1.03338  -0.75006  -0.61582  -0.61422
 Alpha  occ. eigenvalues --   -0.60112  -0.55449  -0.51139  -0.47259  -0.40461
 Alpha  occ. eigenvalues --   -0.28269
 Alpha virt. eigenvalues --    0.02867   0.05488   0.05687   0.06018   0.06716
 Alpha virt. eigenvalues --    0.07098   0.10102   0.12195   0.13536   0.13802
 Alpha virt. eigenvalues --    0.14899   0.15838   0.16054   0.16929   0.17492

 Mulliken charges:
               1
     1  C   -3.945440
     2  C    3.339936
     3  O   -3.089359
     4  C   -3.946448
     5  H    1.268183
     6  H    1.311502
     7  H    1.240343
     8  H    1.239004
     9  H    1.267252
    10  H    1.315028
 Sum of Mulliken charges =  -0.00000

 Dipole moment (field-independent basis, Debye):
    X=              0.0014    Y=             -1.5209    Z=              0.0007  Tot=              1.5209

 Test job not archived.
 1\1\GINC-SE105\SP\RHF\Aug-CC-pVDZ\C3H6O1\OHZDE\09-Apr-2025\0\\#t hf au
 g-cc-pvdz iop(5/13=1,5/36=2,99/5=2) pseudo=read geom=check guess=(read
 ,tcheck) scf=(maxcycle=1)\\title\\0,1\C,0,-1.24334678,-0.11600387,0.35
 981844\C,0,0.00881688,0.65323368,-0.04386686\O,0,0.02492773,1.8718843,
 -0.12883115\C,0,1.23934583,-0.19679146,-0.3372947\H,0,-2.10832722,0.55
 498851,0.39053511\H,0,-1.43620994,-0.94895985,-0.33259122\H,0,-1.09572
 137,-0.55991886,1.35703866\H,0,1.08312782,-0.75408601,-1.27451538\H,0,
 2.12397444,0.44005246,-0.44320948\H,0,1.40341263,-0.9443989,0.45291659

 Normal termination of Gaussian 16 at Wed Apr  9 16:28:43 2025.
