 Gaussian 16, Revision C.01,

 ----------------------------------------------------------------------
 #t hf aug-cc-pvdz symm=none int=(grid=ultrafine) guess=(read,tcheck) s
 table=(opt,rrhf)
 ----------------------------------------------------------------------
 -----
 title
 -----
 Symbolic Z-matrix:
 Charge =  0 Multiplicity = 1

 SCF Done:  E(RHF) =  -302.161569303     A.U. after   15 cycles
 Normal termination of Gaussian 16 at Wed Apr  9 16:05:40 2025.
 Gaussian 16:  ES64L-G16RevC.01  3-Jul-2019

 ----------------------------------------------------------------------
 #t hf aug-cc-pvdz iop(5/13=1,5/36=2,99/5=2) pseudo=read geom=check gue
 ss=(read,tcheck) scf=(maxcycle=1)
 ----------------------------------------------------------------------
 -----
 title
 -----
 Structure from the checkpoint file:  "Grambow2020_b97d3_006718_reverse_mol1.chk"
 Charge =  0 Multiplicity = 1

                         Standard orientation:
 ---------------------------------------------------------------------
 Center     Atomic      Atomic             Coordinates (Angstroms)
 Number     Number       Type             X           Y           Z
 ---------------------------------------------------------------------
      1          8           0       -2.338444   -0.727677   -0.006091
      2          6           0       -1.295513   -0.102316    0.004789
      3          6           0       -0.841472    1.291113   -0.003698
      4          6           0        0.261728    0.553332    0.011362
      5          6           0        1.709590    0.276238   -0.003232
      6          8           0        2.216424   -0.828112   -0.001577
      7          1           0       -0.310968   -0.896821    0.025402
      8          1           0        2.281135    1.232932   -0.019384
 ---------------------------------------------------------------------

 SCF Done:  E(RHF) =  -303.459965006     A.U. after    2 cycles

 The electronic state is 1-A.
 Alpha  occ. eigenvalues --  -21.13338 -21.11046 -11.58615 -11.57603 -11.53014
 Alpha  occ. eigenvalues --  -11.44911  -1.77290  -1.73978  -1.34211  -1.03947
 Alpha  occ. eigenvalues --   -0.84184  -0.77538  -0.66867  -0.59395  -0.59346
 Alpha  occ. eigenvalues --   -0.54220  -0.51094  -0.45608  -0.37881  -0.36752
 Alpha  occ. eigenvalues --   -0.33048
 Alpha virt. eigenvalues --    0.02812   0.05148   0.05858   0.08244   0.09133
 Alpha virt. eigenvalues --    0.09380   0.09700   0.10633   0.10960   0.12546
 Alpha virt. eigenvalues --    0.13082   0.13400   0.14769   0.15828   0.16169

 Mulliken charges:
               1
     1  O   -2.952172
     2  C    2.549190
     3  C   -2.975171
     4  C    2.334145
     5  C    1.374379
     6  O   -2.739351
     7  H    1.089168
     8  H    1.319812
 Sum of Mulliken charges =   0.00000

 Dipole moment (field-independent basis, Debye):
    X=              2.0362    Y=             -1.1587    Z=              0.0144  Tot=              2.3428

 Test job not archived.
 1\1\GINC-SE125\SP\RHF\Aug-CC-pVDZ\C4H2O2\OHZDE\09-Apr-2025\0\\#t hf au
 g-cc-pvdz iop(5/13=1,5/36=2,99/5=2) pseudo=read geom=check guess=(read
 ,tcheck) scf=(maxcycle=1)\\title\\0,1\O,0,-2.55971842,-0.61649953,0.39
 948934\C,0,-1.50547141,-0.11925133,0.05277976\C,0,-1.0258326,1.0374913
 ,-0.70864253\C,0,0.0630664,0.38306884,-0.32442103\C,0,1.50394851,0.089
 86059,-0.21865298\O,0,1.98958098,-0.86031584,0.36255135\H,0,-0.5359937
 3,-0.81443462,0.4744743\H,0,2.09247226,0.86933658,-0.7555372\\Version=
 ES64L-G16RevC.01\State=1-A\HF=-303.459965\RMSD=3.952e-01\Dipole=0.7920

 Normal termination of Gaussian 16 at Wed Apr  9 16:05:46 2025.
