 Gaussian 16, Revision C.01,

 ----------------------------------------------------------------------
 #t hf aug-cc-pvdz symm=none int=(grid=ultrafine) guess=(read,tcheck) s
 table=(opt,rrhf)
 ----------------------------------------------------------------------
 -----
 title
 -----
 Symbolic Z-matrix:
 Charge =  0 Multiplicity = 1

 SCF Done:  E(RHF) =  -283.532395911     A.U. after   17 cycles
 Normal termination of Gaussian 16 at Wed Apr  9 16:05:49 2025.
 Gaussian 16:  ES64L-G16RevC.01  3-Jul-2019

 ----------------------------------------------------------------------
 #t hf aug-cc-pvdz iop(5/13=1,5/36=2,99/5=2) pseudo=read geom=check gue
 ss=(read,tcheck) scf=(maxcycle=1)
 ----------------------------------------------------------------------
 -----
 title
 -----
 Structure from the checkpoint file:  "Grambow2020_b97d3_006720_reverse_mol1.chk"
 Charge =  0 Multiplicity = 1

                         Standard orientation:
 ---------------------------------------------------------------------
 Center     Atomic      Atomic             Coordinates (Angstroms)
 Number     Number       Type             X           Y           Z
 ---------------------------------------------------------------------
      1          6           0        1.678479   -0.262479   -0.607974
      2          6           0        0.281847    0.962926    0.479077
      3          8           0       -0.741654    1.204549   -0.251810
      4          6           0       -1.495658   -0.444833   -0.223404
      5          7           0       -0.727715   -1.285719    0.193333
      6          6           0        0.790190   -0.407754    0.485509
      7          1           0        1.345537    0.177516   -1.543115
      8          1           0        2.715840   -0.585920   -0.531240
      9          1           0        0.703512    1.738506    1.124853
     10          1           0       -2.491803   -0.261993   -0.600121
     11          1           0        1.225002   -0.791629    1.411528
 ---------------------------------------------------------------------

 SCF Done:  E(RHF) =  -284.843492359     A.U. after    2 cycles

 The electronic state is 1-A.
 Alpha  occ. eigenvalues --  -21.08617 -15.75965 -11.50549 -11.48197 -11.45945
 Alpha  occ. eigenvalues --  -11.37145  -1.75849  -1.34938  -1.18883  -0.91965
 Alpha  occ. eigenvalues --   -0.83611  -0.81294  -0.71776  -0.60670  -0.58338
 Alpha  occ. eigenvalues --   -0.55145  -0.52638  -0.48537  -0.47394  -0.39914
 Alpha  occ. eigenvalues --   -0.34047  -0.24344
 Alpha virt. eigenvalues --    0.03518   0.05187   0.05409   0.05849   0.06895
 Alpha virt. eigenvalues --    0.09113   0.09931   0.10010   0.11011   0.11888
 Alpha virt. eigenvalues --    0.13636   0.14256   0.14545   0.15104   0.15763

 Mulliken charges:
               1
     1  C   -2.189717
     2  C    1.960832
     3  O   -2.773917
     4  C    0.798212
     5  N   -2.152720
     6  C   -2.668623
     7  H    1.278222
     8  H    1.351476
     9  H    1.456022
    10  H    1.485833
    11  H    1.454381
 Sum of Mulliken charges =  -0.00000

 Dipole moment (field-independent basis, Debye):
    X=             -1.3259    Y=              1.4743    Z=              0.7942  Tot=              2.1360

 Test job not archived.
 1\1\GINC-SE226\SP\RHF\Aug-CC-pVDZ\C4H5N1O1\OHZDE\09-Apr-2025\0\\#t hf
 aug-cc-pvdz iop(5/13=1,5/36=2,99/5=2) pseudo=read geom=check guess=(re
 ad,tcheck) scf=(maxcycle=1)\\title\\0,1\C,0,-1.43912129,0.49599341,0.1
 4921592\C,0,0.05336823,-0.76956749,-0.74783975\O,0,0.96694155,-0.04878
 426,-1.28261752\C,0,1.76180659,0.55600554,0.23138602\N,0,1.07682408,0.
 35683703,1.21201285\C,0,-0.41330016,-0.37957648,0.58157673\H,0,-1.2417
 4891,1.26416243,-0.5923331\H,0,-2.44888313,0.41353016,0.54946744\H,0,-
 0.30165594,-1.6790424,-1.24095736\H,0,2.69564017,0.96135484,-0.1309640

 Normal termination of Gaussian 16 at Wed Apr  9 16:05:53 2025.
