 Gaussian 16, Revision C.01,

 ----------------------------------------------------------------------
 #t hf aug-cc-pvdz symm=none int=(grid=ultrafine) guess=(read,tcheck) s
 table=(opt,rrhf)
 ----------------------------------------------------------------------
 -----
 title
 -----
 Symbolic Z-matrix:
 Charge =  0 Multiplicity = 1

 SCF Done:  E(RHF) =  -358.514699380     A.U. after   15 cycles
 Normal termination of Gaussian 16 at Wed Apr  9 18:15:01 2025.
 Gaussian 16:  ES64L-G16RevC.01  3-Jul-2019

 ----------------------------------------------------------------------
 #t hf aug-cc-pvdz iop(5/13=1,5/36=2,99/5=2) pseudo=read geom=check gue
 ss=(read,tcheck) scf=(maxcycle=1)
 ----------------------------------------------------------------------
 -----
 title
 -----
 Structure from the checkpoint file:  "Grambow2020_wb97xd3_006799_reverse_mol2.chk"
 Charge =  0 Multiplicity = 1

                         Standard orientation:
 ---------------------------------------------------------------------
 Center     Atomic      Atomic             Coordinates (Angstroms)
 Number     Number       Type             X           Y           Z
 ---------------------------------------------------------------------
      1          8           0        0.670460   -1.174873    0.228194
      2          6           0        1.762960   -0.505374   -0.245947
      3          6           0        1.633972    0.808466   -0.268196
      4          6           0        0.278624    1.155703    0.282964
      5          7           0       -0.314326   -0.175081    0.411382
      6          6           0       -1.536684   -0.489436   -0.109902
      7          8           0       -2.413365    0.323664   -0.263338
      8          1           0        2.587075   -1.148768   -0.512578
      9          1           0        2.376416    1.518645   -0.590960
     10          1           0       -0.349433    1.753872   -0.381474
     11          1           0        0.332985    1.661271    1.251798
     12          1           0       -1.636756   -1.565929   -0.318819
 ---------------------------------------------------------------------

 SCF Done:  E(RHF) =  -360.077267384     A.U. after    2 cycles

 The electronic state is 1-A.
 Alpha  occ. eigenvalues --  -21.11648 -21.04594 -15.79019 -11.49283 -11.47542
 Alpha  occ. eigenvalues --  -11.45951 -11.39673  -1.89245  -1.71075  -1.32271
 Alpha  occ. eigenvalues --   -1.20233  -0.97877  -0.83956  -0.82056  -0.73503
 Alpha  occ. eigenvalues --   -0.69093  -0.62311  -0.56787  -0.54212  -0.52203
 Alpha  occ. eigenvalues --   -0.50582  -0.48781  -0.45734  -0.35458  -0.30681
 Alpha  occ. eigenvalues --   -0.25999
 Alpha virt. eigenvalues --    0.03128   0.04756   0.05519   0.06317   0.06683
 Alpha virt. eigenvalues --    0.09250   0.10104   0.10364   0.11398   0.12697
 Alpha virt. eigenvalues --    0.13273   0.13415   0.14085   0.15146   0.15651

 Mulliken charges:
               1
     1  O   -3.146137
     2  C    0.925117
     3  C   -1.070239
     4  C   -2.731911
     5  N   -0.388266
     6  C    1.970890
     7  O   -2.607220
     8  H    1.396788
     9  H    1.245273
    10  H    1.487520
    11  H    1.272520
    12  H    1.645665
 Sum of Mulliken charges =   0.00000

 Dipole moment (field-independent basis, Debye):
    X=              2.3674    Y=             -0.2450    Z=             -0.1688  Tot=              2.3860

 Test job not archived.
 1\1\GINC-SE029\SP\RHF\Aug-CC-pVDZ\C4H5N1O2\OHZDE\09-Apr-2025\0\\#t hf
 aug-cc-pvdz iop(5/13=1,5/36=2,99/5=2) pseudo=read geom=check guess=(re
 ad,tcheck) scf=(maxcycle=1)\\title\\0,1\O,0,0.91718244,-1.09438335,0.1
 35379\C,0,1.6296709,-0.01317393,-0.3004455\C,0,0.99270362,1.13917626,-
 0.20211195\C,0,-0.35707523,0.87805566,0.40717689\N,0,-0.36995217,-0.58
 428524,0.42868787\C,0,-1.39658267,-1.31884358,-0.09204971\O,0,-2.52965
 686,-0.91181455,-0.1529987\H,0,2.62441458,-0.25488516,-0.64143421\H,0,
 1.37637097,2.10744993,-0.47597384\H,0,-1.20569729,1.22482424,-0.187240

 Normal termination of Gaussian 16 at Wed Apr  9 18:15:05 2025.
