 Gaussian 16, Revision C.01,

 ----------------------------------------------------------------------
 #t hf aug-cc-pvdz symm=none int=(grid=ultrafine) guess=(read,tcheck) s
 table=(opt,rrhf)
 ----------------------------------------------------------------------
 -----
 title
 -----
 Symbolic Z-matrix:
 Charge =  0 Multiplicity = 1

 SCF Done:  E(RHF) =  -344.936392360     A.U. after   15 cycles

 1\1\GINC-SE060\Stability\RHF\Aug-CC-pVDZ\C5H10O2\OHZDE\09-Apr-2025\0\\
 #t hf aug-cc-pvdz symm=none int=(grid=ultrafine) guess=(read,tcheck) s
 table=(opt,rrhf)\\title\\0,1\C,0,-2.39094579,-0.52989525,0.27283929\C,
 0,-1.20395542,0.32949469,-0.071355\O,0,-1.1472641,1.4915032,0.25522105
 \C,0,-0.09821083,-0.34049828,-0.86507514\C,0,1.24555206,0.36798384,-0.
 77851097\C,0,1.98431625,0.06864029,0.51921913\O,0,1.19119201,0.2553142
 1,1.67374473\H,0,-3.22146029,0.08732582,0.60770499\H,0,-2.69103899,-1.
 14811798,-0.57551261\H,0,-2.0969318,-1.20666159,1.07972117\H,0,-0.4559

 Normal termination of Gaussian 16 at Wed Apr  9 03:34:07 2025.
 Gaussian 16:  ES64L-G16RevC.01  3-Jul-2019

 ----------------------------------------------------------------------
 #t hf aug-cc-pvdz iop(5/13=1,5/36=2,99/5=2) pseudo=read geom=check gue
 ss=(read,tcheck) scf=(maxcycle=1)
 ----------------------------------------------------------------------
 -----
 title
 -----
 Structure from the checkpoint file:  "Grambow2020_wb97xd3_007058_reverse_mol2.chk"
 Charge =  0 Multiplicity = 1

                         Standard orientation:
 ---------------------------------------------------------------------
 Center     Atomic      Atomic             Coordinates (Angstroms)
 Number     Number       Type             X           Y           Z
 ---------------------------------------------------------------------
      1          6           0       -2.369076   -0.180350   -0.677640
      2          6           0       -1.176462    0.050227    0.211446
      3          8           0       -1.019574   -0.572592    1.234976
      4          6           0       -0.198955    1.118581   -0.240939
      5          6           0        1.185107    0.997035    0.379334
      6          6           0        2.035408   -0.075547   -0.288527
      7          8           0        1.377750   -1.320467   -0.408882
      8          1           0       -3.123679   -0.764379   -0.155782
      9          1           0       -2.790213    0.764216   -1.027487
     10          1           0       -2.032795   -0.732234   -1.559601
     11          1           0       -0.662507    2.073554    0.034061
     12          1           0        0.981399   -1.540397    0.439089
     13          1           0       -0.148842    1.114349   -1.334108
     14          1           0        1.715846    1.949669    0.304482
     15          1           0        1.076239    0.777368    1.444745
     16          1           0        2.982875   -0.182974    0.254722
     17          1           0        2.280134    0.225621   -1.310922
 ---------------------------------------------------------------------

 SCF Done:  E(RHF) =  -346.526474299     A.U. after    2 cycles

 The electronic state is 1-A.
 Alpha  occ. eigenvalues --  -21.05786 -21.04729 -11.50122 -11.43886 -11.41820
 Alpha  occ. eigenvalues --  -11.38948 -11.36928  -1.71756  -1.70052  -1.22051
 Alpha  occ. eigenvalues --   -1.10752  -1.00001  -0.86302  -0.74157  -0.65983
 Alpha  occ. eigenvalues --   -0.65287  -0.62879  -0.59448  -0.58510  -0.56002
 Alpha  occ. eigenvalues --   -0.51925  -0.49891  -0.47060  -0.45923  -0.41818
 Alpha  occ. eigenvalues --   -0.39097  -0.30761  -0.28462
 Alpha virt. eigenvalues --    0.03606   0.04882   0.05083   0.05475   0.05788
 Alpha virt. eigenvalues --    0.06102   0.06569   0.07439   0.07698   0.08639
 Alpha virt. eigenvalues --    0.10962   0.12357   0.13595   0.13715   0.14161

 Mulliken charges:
               1
     1  C   -4.424478
     2  C    4.732836
     3  O   -3.405482
     4  C   -3.650839
     5  C   -2.976660
     6  C   -0.823823
     7  O   -2.568818
     8  H    1.255834
     9  H    1.304350
    10  H    1.255390
    11  H    1.365726
    12  H    0.878467
    13  H    1.715320
    14  H    1.289233
    15  H    1.437716
    16  H    1.215166
    17  H    1.400061
 Sum of Mulliken charges =  -0.00000

 Dipole moment (field-independent basis, Debye):
    X=             -0.2111    Y=              1.1676    Z=             -0.5866  Tot=              1.3237

 Test job not archived.
 1\1\GINC-SE060\SP\RHF\Aug-CC-pVDZ\C5H10O2\OHZDE\09-Apr-2025\0\\#t hf a
 ug-cc-pvdz iop(5/13=1,5/36=2,99/5=2) pseudo=read geom=check guess=(rea
 d,tcheck) scf=(maxcycle=1)\\title\\0,1\C,0,-2.39094579,-0.52989525,0.2
 7283929\C,0,-1.20395542,0.32949469,-0.071355\O,0,-1.1472641,1.4915032,
 0.25522105\C,0,-0.09821083,-0.34049828,-0.86507514\C,0,1.24555206,0.36
 798384,-0.77851097\C,0,1.98431625,0.06864029,0.51921913\O,0,1.19119201
 ,0.25531421,1.67374473\H,0,-3.22146029,0.08732582,0.60770499\H,0,-2.69
 103899,-1.14811798,-0.57551261\H,0,-2.0969318,-1.20666159,1.07972117\H

 Normal termination of Gaussian 16 at Wed Apr  9 03:34:13 2025.
