 Gaussian 16, Revision C.01,

 ----------------------------------------------------------------------
 #t hf aug-cc-pvdz symm=none int=(grid=ultrafine) guess=(read,tcheck) s
 table=(opt,rrhf)
 ----------------------------------------------------------------------
 -----
 title
 -----
 Symbolic Z-matrix:
 Charge =  0 Multiplicity = 1

 SCF Done:  E(RHF) =  -283.640823119     A.U. after   15 cycles
 Normal termination of Gaussian 16 at Wed Apr  9 03:09:43 2025.
 Gaussian 16:  ES64L-G16RevC.01  3-Jul-2019

 ----------------------------------------------------------------------
 #t hf aug-cc-pvdz iop(5/13=1,5/36=2,99/5=2) pseudo=read geom=check gue
 ss=(read,tcheck) scf=(maxcycle=1)
 ----------------------------------------------------------------------
 -----
 title
 -----
 Structure from the checkpoint file:  "Grambow2020_b97d3_006663_reverse_mol2.chk"
 Charge =  0 Multiplicity = 1

                         Standard orientation:
 ---------------------------------------------------------------------
 Center     Atomic      Atomic             Coordinates (Angstroms)
 Number     Number       Type             X           Y           Z
 ---------------------------------------------------------------------
      1          7           0       -1.875014   -0.534473   -0.580061
      2          6           0       -0.897520   -0.209108    0.158021
      3          6           0        0.460897   -0.674412    0.536023
      4          6           0        1.522180   -0.057088   -0.391474
      5          6           0       -1.919013    0.821372    0.188888
      6          8           0        2.506240    0.530767    0.001807
      7          1           0        0.511806   -1.768004    0.399340
      8          1           0        0.705861   -0.415648    1.572530
      9          1           0        1.310675   -0.210507   -1.475706
     10          1           0       -1.830175    1.723695   -0.422634
     11          1           0       -2.622255    0.881052    1.023696
 ---------------------------------------------------------------------

 SCF Done:  E(RHF) =  -284.907997672     A.U. after    2 cycles

 The electronic state is 1-A.
 Alpha  occ. eigenvalues --  -21.08912 -15.77308 -11.51046 -11.49066 -11.45912
 Alpha  occ. eigenvalues --  -11.42350  -1.72627  -1.46277  -1.16573  -0.92895
 Alpha  occ. eigenvalues --   -0.86194  -0.76408  -0.67423  -0.65128  -0.61012
 Alpha  occ. eigenvalues --   -0.59647  -0.54020  -0.47772  -0.45287  -0.39818
 Alpha  occ. eigenvalues --   -0.37380  -0.31316
 Alpha virt. eigenvalues --    0.03373   0.05278   0.05574   0.05977   0.06365
 Alpha virt. eigenvalues --    0.08994   0.09477   0.10406   0.11318   0.11829
 Alpha virt. eigenvalues --    0.12860   0.13748   0.14485   0.14953   0.14970

 Mulliken charges:
               1
     1  N   -2.084418
     2  C    3.483938
     3  C   -4.434701
     4  C    1.686815
     5  C   -2.506714
     6  O   -2.660660
     7  H    1.380415
     8  H    1.083904
     9  H    1.472080
    10  H    1.288028
    11  H    1.291314
 Sum of Mulliken charges =   0.00000

 Dipole moment (field-independent basis, Debye):
    X=              0.5813    Y=             -0.0246    Z=              0.9085  Tot=              1.0789

 Test job not archived.
 1\1\GINC-SE051\SP\RHF\Aug-CC-pVDZ\C4H5N1O1\OHZDE\09-Apr-2025\0\\#t hf
 aug-cc-pvdz iop(5/13=1,5/36=2,99/5=2) pseudo=read geom=check guess=(re
 ad,tcheck) scf=(maxcycle=1)\\title\\0,1\N,0,1.36105447,1.25795572,0.43
 172379\C,0,0.58615398,0.44444496,-0.15466321\C,0,0.27451763,-1.0061539
 2,-0.21244491\C,0,-0.82963858,-1.36332612,0.79796389\C,0,0.24915764,1.
 81015042,-0.51183258\O,0,-1.83872117,-1.97060921,0.5123446\H,0,1.17397
 538,-1.57390251,0.08056413\H,0,-0.05134732,-1.31278295,-1.21299642\H,0
 ,-0.61197585,-1.02007061,1.83653514\H,0,-0.57799887,2.33403868,-0.0246

 Normal termination of Gaussian 16 at Wed Apr  9 03:09:46 2025.
