 Gaussian 16, Revision C.01,

 ----------------------------------------------------------------------
 #t hf aug-cc-pvdz symm=none int=(grid=ultrafine) guess=(read,tcheck) s
 table=(opt,rrhf)
 ----------------------------------------------------------------------
 -----
 title
 -----
 Symbolic Z-matrix:
 Charge =  0 Multiplicity = 1

 SCF Done:  E(RHF) =  -358.342886517     A.U. after   18 cycles
 Normal termination of Gaussian 16 at Wed Apr  9 03:39:14 2025.
 Gaussian 16:  ES64L-G16RevC.01  3-Jul-2019

 ----------------------------------------------------------------------
 #t hf aug-cc-pvdz iop(5/13=1,5/36=2,99/5=2) pseudo=read geom=check gue
 ss=(read,tcheck) scf=(maxcycle=1)
 ----------------------------------------------------------------------
 -----
 title
 -----
 Structure from the checkpoint file:  "Grambow2020_wb97xd3_007447_forward_mol1.chk"
 Charge =  0 Multiplicity = 1

                         Standard orientation:
 ---------------------------------------------------------------------
 Center     Atomic      Atomic             Coordinates (Angstroms)
 Number     Number       Type             X           Y           Z
 ---------------------------------------------------------------------
      1          8           0        2.499089    0.152294   -0.646197
      2          6           0        1.768759   -0.021948    0.543156
      3          6           0        0.330497   -0.276754    0.318330
      4          7           0       -0.491065   -1.106496    0.071724
      5          8           0       -1.662283   -1.248349   -0.194204
      6          6           0       -2.097006    0.985925   -0.143397
      7          6           0       -1.001677    1.439993    0.139444
      8          1           0        2.080749    0.835973   -1.174356
      9          1           0        2.200190   -0.883478    1.054077
     10          1           0        1.865003    0.842417    1.209325
     11          1           0       -3.103953    0.742781   -0.387840
     12          1           0       -0.302424    2.212922    0.374739
 ---------------------------------------------------------------------

 SCF Done:  E(RHF) =  -359.963028845     A.U. after    2 cycles

 The electronic state is 1-A.
 Alpha  occ. eigenvalues --  -21.10386 -21.07584 -15.87446 -11.50016 -11.46162
 Alpha  occ. eigenvalues --  -11.43839 -11.40847  -1.84096  -1.74764  -1.27139
 Alpha  occ. eigenvalues --   -1.11289  -1.04990  -0.80347  -0.75102  -0.68525
 Alpha  occ. eigenvalues --   -0.66076  -0.65751  -0.62744  -0.57476  -0.56716
 Alpha  occ. eigenvalues --   -0.46638  -0.39710  -0.37490  -0.35962  -0.29627
 Alpha  occ. eigenvalues --   -0.28785
 Alpha virt. eigenvalues --    0.02938   0.04895   0.05203   0.05725   0.06032
 Alpha virt. eigenvalues --    0.09267   0.10204   0.10695   0.11341   0.12290
 Alpha virt. eigenvalues --    0.12588   0.13314   0.13665   0.14833   0.15415

 Mulliken charges:
               1
     1  O   -2.382173
     2  C   -1.078436
     3  C    3.050201
     4  N    0.033783
     5  O   -2.652320
     6  C   -0.689473
     7  C   -0.983066
     8  H    0.815632
     9  H    1.121979
    10  H    1.369130
    11  H    0.548722
    12  H    0.846021
 Sum of Mulliken charges =  -0.00000

 Dipole moment (field-independent basis, Debye):
    X=              0.0521    Y=              0.8182    Z=              0.1515  Tot=              0.8338

 Test job not archived.
 1\1\GINC-SE435\SP\RHF\Aug-CC-pVDZ\C4H5N1O2\OHZDE\09-Apr-2025\0\\#t hf
 aug-cc-pvdz iop(5/13=1,5/36=2,99/5=2) pseudo=read geom=check guess=(re
 ad,tcheck) scf=(maxcycle=1)\\title\\0,1\O,0,-2.2164296,-0.00356497,-1.
 03368593\C,0,-1.66679183,-0.06043751,0.25974555\C,0,-0.2881613,0.46636
 182,0.33676442\N,0,0.38119967,1.44851161,0.44441368\O,0,1.52544012,1.8
 3864668,0.41123094\C,0,2.37173921,-0.22448234,-0.04791882\C,0,1.359462
 97,-0.90334008,-0.06716566\H,0,-1.61999747,-0.43777671,-1.64777589\H,0
 ,-2.30816912,0.54503807,0.90118159\H,0,-1.66766035,-1.08139616,0.65700

 Normal termination of Gaussian 16 at Wed Apr  9 03:39:18 2025.
