 Gaussian 16, Revision C.01,

 ----------------------------------------------------------------------
 #t hf aug-cc-pvdz symm=none int=(grid=ultrafine) guess=(read,tcheck) s
 table=(opt,rrhf)
 ----------------------------------------------------------------------
 -----
 title
 -----
 Symbolic Z-matrix:
 Charge =  0 Multiplicity = 1

 SCF Done:  E(RHF) =  -315.561898971     A.U. after   17 cycles
 Normal termination of Gaussian 16 at Wed Apr  9 03:09:41 2025.
 Gaussian 16:  ES64L-G16RevC.01  3-Jul-2019

 ----------------------------------------------------------------------
 #t hf aug-cc-pvdz iop(5/13=1,5/36=2,99/5=2) pseudo=read geom=check gue
 ss=(read,tcheck) scf=(maxcycle=1)
 ----------------------------------------------------------------------
 -----
 title
 -----
 Structure from the checkpoint file:  "Grambow2020_b97d3_006682_reverse_mol2.chk"
 Charge =  0 Multiplicity = 1

                         Standard orientation:
 ---------------------------------------------------------------------
 Center     Atomic      Atomic             Coordinates (Angstroms)
 Number     Number       Type             X           Y           Z
 ---------------------------------------------------------------------
      1          8           0        2.418785   -1.005230    0.029435
      2          6           0        1.186092   -0.484428   -0.037364
      3          7           0        0.812144    0.694225    0.069634
      4          7           0        0.155055    1.731974   -0.168164
      5          7           0       -3.212373   -0.381637    0.074719
      6          6           0       -2.099345   -0.697905   -0.073991
      7          1           0        3.103022   -0.298631    0.055885
      8          1           0       -0.197401    2.105511    0.734716
      9          1           0       -1.060173   -0.982973   -0.191276
 ---------------------------------------------------------------------

 SCF Done:  E(RHF) =  -316.933152207     A.U. after    2 cycles

 The electronic state is 1-A.
 Alpha  occ. eigenvalues --  -21.17168 -15.89108 -15.83960 -15.77118 -11.49898
 Alpha  occ. eigenvalues --  -11.42775  -1.80941  -1.56641  -1.29205  -1.17566
 Alpha  occ. eigenvalues --   -0.81142  -0.80673  -0.73608  -0.65497  -0.63143
 Alpha  occ. eigenvalues --   -0.52959  -0.51004  -0.50760  -0.44905  -0.44852
 Alpha  occ. eigenvalues --   -0.36850  -0.35732
 Alpha virt. eigenvalues --    0.02015   0.04805   0.05692   0.07966   0.09424
 Alpha virt. eigenvalues --    0.10217   0.11008   0.12534   0.13078   0.13914
 Alpha virt. eigenvalues --    0.14984   0.16564   0.17059   0.17661   0.17959

 Mulliken charges:
               1
     1  O   -2.708854
     2  C    2.369369
     3  N   -0.102270
     4  N   -1.293503
     5  N   -2.432922
     6  C    0.624390
     7  H    0.847436
     8  H    0.685867
     9  H    2.010487
 Sum of Mulliken charges =  -0.00000

 Dipole moment (field-independent basis, Debye):
    X=              4.9620    Y=              0.8470    Z=              0.8933  Tot=              5.1124

 Test job not archived.
 1\1\GINC-SE112\SP\RHF\Aug-CC-pVDZ\C2H3N3O1\OHZDE\09-Apr-2025\0\\#t hf
 aug-cc-pvdz iop(5/13=1,5/36=2,99/5=2) pseudo=read geom=check guess=(re
 ad,tcheck) scf=(maxcycle=1)\\title\\0,1\O,0,-2.43079301,-0.74462425,-0
 .02152618\C,0,-1.16559943,-0.30957278,-0.09394133\N,0,-0.10052748,-0.9
 2583743,0.06837972\N,0,1.08616574,-1.26919897,-0.12935459\N,0,2.167656
 56,2.56427148,-0.10111231\C,0,1.13183224,2.04472652,-0.23569655\H,0,-2
 .46624946,-1.72421633,0.06393998\H,0,1.58306433,-1.25524225,0.78270115
 \H,0,0.17122251,1.55340001,-0.33926188\\Version=ES64L-G16RevC.01\State

 Normal termination of Gaussian 16 at Wed Apr  9 03:09:43 2025.
