 Gaussian 16, Revision C.01,

 ----------------------------------------------------------------------
 #t hf aug-cc-pvdz symm=none int=(grid=ultrafine) guess=(read,tcheck) s
 table=(opt,rrhf)
 ----------------------------------------------------------------------
 -----
 title
 -----
 Symbolic Z-matrix:
 Charge =  0 Multiplicity = 1

 SCF Done:  E(RHF) =  -338.554677485     A.U. after   15 cycles
 Normal termination of Gaussian 16 at Wed Apr  9 18:59:50 2025.
 Gaussian 16:  ES64L-G16RevC.01  3-Jul-2019

 ----------------------------------------------------------------------
 #t hf aug-cc-pvdz iop(5/13=1,5/36=2,99/5=2) pseudo=read geom=check gue
 ss=(read,tcheck) scf=(maxcycle=1)
 ----------------------------------------------------------------------
 -----
 title
 -----
 Structure from the checkpoint file:  "Grambow2020_wb97xd3_007973_forward_mol1.chk"
 Charge =  0 Multiplicity = 1

                         Standard orientation:
 ---------------------------------------------------------------------
 Center     Atomic      Atomic             Coordinates (Angstroms)
 Number     Number       Type             X           Y           Z
 ---------------------------------------------------------------------
      1          7           0        1.538111   -1.544273    0.067675
      2          6           0        0.679099   -0.743869   -0.135236
      3          8           0        1.528610    0.895272   -0.293506
      4          6           0        0.334785    1.349224    0.311667
      5          6           0       -0.514277    0.109272    0.053453
      6          6           0       -1.759848   -0.074693   -0.719287
      7          7           0       -1.715326   -0.311722    0.717947
      8          1           0        2.038509   -0.381904    0.052195
      9          1           0        0.429675    1.548101    1.385617
     10          1           0       -0.052281    2.237103   -0.191935
     11          1           0       -1.819371   -0.923097   -1.391990
     12          1           0       -2.311411    0.806089   -1.024440
     13          1           0       -1.712059   -1.296112    0.955661
 ---------------------------------------------------------------------

 SCF Done:  E(RHF) =  -340.110737917     A.U. after    2 cycles

 The electronic state is 1-A.
 Alpha  occ. eigenvalues --  -20.99938 -15.78440 -15.77930 -11.55923 -11.50929
 Alpha  occ. eigenvalues --  -11.46103 -11.43437  -1.71776  -1.49341  -1.37846
 Alpha  occ. eigenvalues --   -1.08179  -0.96877  -0.92342  -0.77700  -0.71301
 Alpha  occ. eigenvalues --   -0.65367  -0.64017  -0.60653  -0.54353  -0.52927
 Alpha  occ. eigenvalues --   -0.51485  -0.47377  -0.41610  -0.38326  -0.29803
 Alpha  occ. eigenvalues --   -0.27732
 Alpha virt. eigenvalues --    0.03394   0.05135   0.05311   0.05717   0.06592
 Alpha virt. eigenvalues --    0.07619   0.09096   0.09796   0.10537   0.11288
 Alpha virt. eigenvalues --    0.12567   0.13220   0.14023   0.14561   0.14871

 Mulliken charges:
               1
     1  N   -3.074425
     2  C    2.921338
     3  O   -2.590921
     4  C   -1.665785
     5  C    1.970681
     6  C   -1.945881
     7  N   -2.146804
     8  H    0.823014
     9  H    1.144204
    10  H    1.222860
    11  H    1.392188
    12  H    1.299953
    13  H    0.649578
 Sum of Mulliken charges =   0.00000

 Dipole moment (field-independent basis, Debye):
    X=             -2.5231    Y=              0.0453    Z=             -0.5199  Tot=              2.5765

 Test job not archived.
 1\1\GINC-SE125\SP\RHF\Aug-CC-pVDZ\C4H6N2O1\OHZDE\09-Apr-2025\0\\#t hf
 aug-cc-pvdz iop(5/13=1,5/36=2,99/5=2) pseudo=read geom=check guess=(re
 ad,tcheck) scf=(maxcycle=1)\\title\\0,1\N,0,1.88185041,-1.36377225,-0.
 9178599\C,0,0.94568599,-0.65930362,-0.70097017\O,0,1.62663263,1.049885
 19,-0.4807723\C,0,0.55758869,1.14324856,0.43898388\C,0,-0.2381211,-0.0
 6486565,-0.04306228\C,0,-1.6021187,-0.17365377,-0.59992131\N,0,-1.2407
 2589,-0.81776056,0.65639403\H,0,2.28552994,-0.19379246,-0.65341958\H,0
 ,0.86149854,1.02575228,1.48576889\H,0,0.01252891,2.08154126,0.31947682

 Normal termination of Gaussian 16 at Wed Apr  9 18:59:56 2025.
