 Gaussian 16, Revision C.01,

 ----------------------------------------------------------------------
 #t hf aug-cc-pvdz symm=none int=(grid=ultrafine) guess=(read,tcheck) s
 table=(opt,rrhf)
 ----------------------------------------------------------------------
 -----
 title
 -----
 Symbolic Z-matrix:
 Charge =  0 Multiplicity = 1

 SCF Done:  E(RHF) =  -374.514808630     A.U. after   15 cycles
 Normal termination of Gaussian 16 at Wed Apr  9 18:37:13 2025.
 Gaussian 16:  ES64L-G16RevC.01  3-Jul-2019

 ----------------------------------------------------------------------
 #t hf aug-cc-pvdz iop(5/13=1,5/36=2,99/5=2) pseudo=read geom=check gue
 ss=(read,tcheck) scf=(maxcycle=1)
 ----------------------------------------------------------------------
 -----
 title
 -----
 Structure from the checkpoint file:  "Grambow2020_wb97xd3_007336_forward_mol1.chk"
 Charge =  0 Multiplicity = 1

                         Standard orientation:
 ---------------------------------------------------------------------
 Center     Atomic      Atomic             Coordinates (Angstroms)
 Number     Number       Type             X           Y           Z
 ---------------------------------------------------------------------
      1          7           0        2.327651   -0.454888   -0.203151
      2          6           0        1.044441   -0.017086    0.114686
      3          6           0        0.549958    1.316622   -0.033409
      4          8           0       -0.807022    1.149940   -0.023404
      5          6           0       -1.199806   -0.183401   -0.019530
      6          8           0       -2.328588   -0.553420   -0.065397
      7          7           0       -0.038134   -0.900815    0.069271
      8          1           0        2.760798   -1.041679    0.493318
      9          1           0        2.926840    0.316652   -0.457369
     10          1           0        1.013405    0.648975    1.171837
     11          1           0       -0.010342   -1.902994    0.069312
 ---------------------------------------------------------------------

 SCF Done:  E(RHF) =  -376.128949957     A.U. after    2 cycles

 The electronic state is 1-A.
 Alpha  occ. eigenvalues --  -21.12418 -21.05762 -15.80785 -15.79761 -11.54292
 Alpha  occ. eigenvalues --  -11.51218 -11.43741  -1.89657  -1.70084  -1.48532
 Alpha  occ. eigenvalues --   -1.34514  -1.10380  -0.88513  -0.83830  -0.73775
 Alpha  occ. eigenvalues --   -0.72611  -0.66376  -0.62331  -0.54750  -0.53649
 Alpha  occ. eigenvalues --   -0.45962  -0.45256  -0.41147  -0.40384  -0.32010
 Alpha  occ. eigenvalues --   -0.30423
 Alpha virt. eigenvalues --    0.02304   0.04494   0.04889   0.05488   0.09015
 Alpha virt. eigenvalues --    0.10058   0.10920   0.11275   0.11810   0.12681
 Alpha virt. eigenvalues --    0.13345   0.14307   0.14664   0.14921   0.16455

 Mulliken charges:
               1
     1  N   -2.914429
     2  C    2.154488
     3  C    0.158806
     4  O   -2.732926
     5  C    5.498413
     6  O   -3.180945
     7  N   -2.380438
     8  H    0.582429
     9  H    0.601763
    10  H    1.496493
    11  H    0.716343
 Sum of Mulliken charges =  -0.00000

 Dipole moment (field-independent basis, Debye):
    X=              3.2702    Y=             -3.0300    Z=              0.9840  Tot=              4.5655

 Test job not archived.
 1\1\GINC-SE029\SP\RHF\Aug-CC-pVDZ\C3H4N2O2\OHZDE\09-Apr-2025\0\\#t hf
 aug-cc-pvdz iop(5/13=1,5/36=2,99/5=2) pseudo=read geom=check guess=(re
 ad,tcheck) scf=(maxcycle=1)\\title\\0,1\N,0,-1.77249375,-0.34681245,0.
 23562956\C,0,-0.48249429,0.13066918,0.01830104\C,0,0.03374533,1.389570
 92,0.45862492\O,0,1.38782177,1.2079717,0.40594788\C,0,1.75881806,-0.09
 679424,0.10256706\O,0,2.88144324,-0.48545184,0.0598631\N,0,0.5855568,-
 0.75780758,-0.13944895\H,0,-2.2155339,-0.75618863,-0.57253856\H,0,-2.3
 5888538,0.35773671,0.65833869\H,0,-0.44119056,1.01558794,-0.86339123\H

 Normal termination of Gaussian 16 at Wed Apr  9 18:37:17 2025.
