 Gaussian 16, Revision C.01,

 ----------------------------------------------------------------------
 #t hf aug-cc-pvdz symm=none int=(grid=ultrafine) guess=(read,tcheck) s
 table=(opt,rrhf)
 ----------------------------------------------------------------------
 -----
 title
 -----
 Symbolic Z-matrix:
 Charge =  0 Multiplicity = 1

 SCF Done:  E(RHF) =  -322.591724929     A.U. after   16 cycles
 Normal termination of Gaussian 16 at Wed Apr  9 04:04:47 2025.
 Gaussian 16:  ES64L-G16RevC.01  3-Jul-2019

 ----------------------------------------------------------------------
 #t hf aug-cc-pvdz iop(5/13=1,5/36=2,99/5=2) pseudo=read geom=check gue
 ss=(read,tcheck) scf=(maxcycle=1)
 ----------------------------------------------------------------------
 -----
 title
 -----
 Structure from the checkpoint file:  "Grambow2020_wb97xd3_009161_reverse_mol1.chk"
 Charge =  0 Multiplicity = 1

                         Standard orientation:
 ---------------------------------------------------------------------
 Center     Atomic      Atomic             Coordinates (Angstroms)
 Number     Number       Type             X           Y           Z
 ---------------------------------------------------------------------
      1          6           0        2.047070   -1.259170    0.013624
      2          7           0        0.676712   -0.804647   -0.089870
      3          6           0       -2.600573   -0.988054    0.234078
      4          6           0       -1.928363    0.130986   -0.024477
      5          6           0       -0.907407    0.982852   -0.084183
      6          6           0        0.451857    0.434277   -0.037906
      7          8           0        1.460250    1.345322    0.068179
      8          1           0        2.534433   -0.891902    0.922488
      9          1           0        2.649094   -0.921723   -0.836336
     10          1           0        2.059427   -2.348285    0.028387
     11          1           0       -3.006739   -1.507825   -0.640348
     12          1           0       -3.055101    0.462447    0.013046
     13          1           0       -1.076847    2.044683   -0.193114
     14          1           0        1.101243    2.227212    0.182711
 ---------------------------------------------------------------------

 SCF Done:  E(RHF) =  -324.065300271     A.U. after    2 cycles

 The electronic state is 1-A.
 Alpha  occ. eigenvalues --  -21.11083 -15.69466 -11.49630 -11.48271 -11.44701
 Alpha  occ. eigenvalues --  -11.40461 -11.36559  -1.77571  -1.35365  -1.24625
 Alpha  occ. eigenvalues --   -1.07269  -0.96807  -0.79800  -0.73148  -0.68478
 Alpha  occ. eigenvalues --   -0.64742  -0.59572  -0.58278  -0.55188  -0.51206
 Alpha  occ. eigenvalues --   -0.50986  -0.45352  -0.43970  -0.35030  -0.33093
 Alpha  occ. eigenvalues --   -0.28334
 Alpha virt. eigenvalues --    0.02764   0.04699   0.05269   0.05773   0.06545
 Alpha virt. eigenvalues --    0.07253   0.07388   0.08434   0.09565   0.11202
 Alpha virt. eigenvalues --    0.11612   0.12754   0.13466   0.13692   0.14087

 Mulliken charges:
               1
     1  C   -3.347500
     2  N   -3.266170
     3  C   -3.843678
     4  C    2.596612
     5  C   -3.384276
     6  C    5.949858
     7  O   -3.749718
     8  H    1.345314
     9  H    1.338812
    10  H    1.323706
    11  H    1.074769
    12  H    1.420156
    13  H    1.486289
    14  H    1.055828
 Sum of Mulliken charges =   0.00000

 Dipole moment (field-independent basis, Debye):
    X=             -0.7094    Y=              2.3123    Z=             -1.2257  Tot=              2.7115

 Test job not archived.
 1\1\GINC-SE016\SP\RHF\Aug-CC-pVDZ\C5H7N1O1\OHZDE\09-Apr-2025\0\\#t hf
 aug-cc-pvdz iop(5/13=1,5/36=2,99/5=2) pseudo=read geom=check guess=(re
 ad,tcheck) scf=(maxcycle=1)\\title\\0,1\C,0,-2.13344332,0.67169257,0.6
 8366714\N,0,-0.92100583,-0.02942695,0.31813669\C,0,0.88845973,-2.45810
 905,-0.98819746\C,0,1.36592594,-1.26837031,-0.63110596\C,0,1.3766974,0
 .02840265,-0.33134771\C,0,0.11726517,0.64843482,0.09299384\O,0,0.13473
 384,2.00486597,0.22679157\H,0,-2.4100252,1.42842994,-0.05747624\H,0,-2
 .02891759,1.18313982,1.64607616\H,0,-2.94757074,-0.04719806,0.76694156

 Normal termination of Gaussian 16 at Wed Apr  9 04:04:51 2025.
