 Gaussian 16, Revision C.01,

 ----------------------------------------------------------------------
 #t hf aug-cc-pvdz symm=none int=(grid=ultrafine) guess=(read,tcheck) s
 table=(opt,rrhf)
 ----------------------------------------------------------------------
 -----
 title
 -----
 Symbolic Z-matrix:
 Charge =  0 Multiplicity = 1

 SCF Done:  E(RHF) =  -322.495470136     A.U. after   15 cycles
 Normal termination of Gaussian 16 at Wed Apr  9 03:26:48 2025.
 Gaussian 16:  ES64L-G16RevC.01  3-Jul-2019

 ----------------------------------------------------------------------
 #t hf aug-cc-pvdz iop(5/13=1,5/36=2,99/5=2) pseudo=read geom=check gue
 ss=(read,tcheck) scf=(maxcycle=1)
 ----------------------------------------------------------------------
 -----
 title
 -----
 Structure from the checkpoint file:  "Grambow2020_wb97xd3_006647_forward_mol1.chk"
 Charge =  0 Multiplicity = 1

                         Standard orientation:
 ---------------------------------------------------------------------
 Center     Atomic      Atomic             Coordinates (Angstroms)
 Number     Number       Type             X           Y           Z
 ---------------------------------------------------------------------
      1          6           0        1.780544    0.731038    0.000347
      2          7           0        1.596297   -1.009877   -0.000267
      3          6           0        0.543450   -0.180346   -0.000131
      4          6           0       -0.716100   -0.034401    0.907077
      5          6           0       -1.209049    1.103259   -0.001823
      6          6           0       -0.716736   -0.037665   -0.907075
      7          8           0       -1.376599   -0.985542    0.002059
      8          1           0        1.870265    1.280139    0.932212
      9          1           0        1.870220    1.282884   -0.929982
     10          1           0        2.660649   -0.009252   -0.002573
     11          1           0       -0.847442   -0.179900    1.977540
     12          1           0       -0.669036    2.051096   -0.003919
     13          1           0       -2.289747    1.225622   -0.001610
     14          1           0       -0.848854   -0.188421   -1.976644
 ---------------------------------------------------------------------

 SCF Done:  E(RHF) =  -323.989317716     A.U. after    2 cycles

 The electronic state is 1-A.
 Alpha  occ. eigenvalues --  -21.03665 -15.74968 -11.52222 -11.49244 -11.48251
 Alpha  occ. eigenvalues --  -11.43431 -11.39563  -1.80731  -1.41683  -1.17648
 Alpha  occ. eigenvalues --   -0.98663  -0.94491  -0.92554  -0.75019  -0.71284
 Alpha  occ. eigenvalues --   -0.65890  -0.63229  -0.58802  -0.54417  -0.49263
 Alpha  occ. eigenvalues --   -0.48069  -0.43234  -0.43192  -0.36739  -0.30489
 Alpha  occ. eigenvalues --   -0.28428
 Alpha virt. eigenvalues --    0.03567   0.04923   0.05281   0.05315   0.05536
 Alpha virt. eigenvalues --    0.06189   0.07574   0.10132   0.10706   0.11845
 Alpha virt. eigenvalues --    0.12847   0.13401   0.13851   0.14206   0.14568

 Mulliken charges:
               1
     1  C   -3.401801
     2  N   -2.484775
     3  C    3.465762
     4  C   -0.682824
     5  C   -2.379631
     6  C   -0.685639
     7  O   -2.785556
     8  H    1.331979
     9  H    1.331158
    10  H    1.124596
    11  H    1.206715
    12  H    1.484727
    13  H    1.269193
    14  H    1.206096
 Sum of Mulliken charges =   0.00000

 Dipole moment (field-independent basis, Debye):
    X=              0.1198    Y=              2.3767    Z=             -0.0018  Tot=              2.3797

 Test job not archived.
 1\1\GINC-SE108\SP\RHF\Aug-CC-pVDZ\C5H7N1O1\OHZDE\09-Apr-2025\0\\#t hf
 aug-cc-pvdz iop(5/13=1,5/36=2,99/5=2) pseudo=read geom=check guess=(re
 ad,tcheck) scf=(maxcycle=1)\\title\\0,1\C,0,-1.52372715,-0.76595228,-0
 .1034874\N,0,-1.76981957,0.93463642,0.23142789\C,0,-0.54683432,0.40346
 169,0.09443213\C,0,0.73488424,0.40084837,0.98211714\C,0,1.46510736,-0.
 38792939,-0.11696069\C,0,0.68448121,0.74815147,-0.7977699\O,0,1.118089
 63,1.63851616,0.28834726\H,0,-1.4509553,-1.48675543,0.70464707\H,0,-1.
 50179516,-1.13619906,-1.12354857\H,0,-2.55756536,-0.276837,0.01720926\

 Normal termination of Gaussian 16 at Wed Apr  9 03:26:53 2025.
