 Gaussian 16, Revision C.01,

 ----------------------------------------------------------------------
 #t hf aug-cc-pvdz symm=none int=(grid=ultrafine) guess=(read,tcheck) s
 table=(opt,rrhf)
 ----------------------------------------------------------------------
 -----
 title
 -----
 Symbolic Z-matrix:
 Charge =  0 Multiplicity = 1

 SCF Done:  E(RHF) =  -337.514256840     A.U. after   16 cycles
 Normal termination of Gaussian 16 at Wed Apr  9 04:04:28 2025.
 Gaussian 16:  ES64L-G16RevC.01  3-Jul-2019

 ----------------------------------------------------------------------
 #t hf aug-cc-pvdz iop(5/13=1,5/36=2,99/5=2) pseudo=read geom=check gue
 ss=(read,tcheck) scf=(maxcycle=1)
 ----------------------------------------------------------------------
 -----
 title
 -----
 Structure from the checkpoint file:  "Grambow2020_wb97xd3_009185_reverse_mol2.chk"
 Charge =  0 Multiplicity = 1

                         Standard orientation:
 ---------------------------------------------------------------------
 Center     Atomic      Atomic             Coordinates (Angstroms)
 Number     Number       Type             X           Y           Z
 ---------------------------------------------------------------------
      1          8           0        2.567726   -0.650149   -0.262793
      2          6           0        1.716232    0.106210   -0.085939
      3          6           0        0.773710    0.997258    0.123959
      4          6           0       -0.606668    0.572619    0.471102
      5          7           0       -1.610183    0.497490   -0.644813
      6          6           0       -1.718737   -0.812985   -0.207812
      7          7           0       -0.785127   -0.881030    0.672983
      8          1           0        1.047724    2.038699    0.031991
      9          1           0       -1.005253    1.143965    1.311732
     10          1           0       -2.413270    1.111427   -0.679592
     11          1           0       -2.391059   -1.586730   -0.566838
 ---------------------------------------------------------------------

 SCF Done:  E(RHF) =  -339.004179651     A.U. after    2 cycles

 The electronic state is 1-A.
 Alpha  occ. eigenvalues --  -21.13568 -15.75592 -15.72369 -11.54468 -11.49899
 Alpha  occ. eigenvalues --  -11.45613 -11.40196  -1.77368  -1.57655  -1.19469
 Alpha  occ. eigenvalues --   -1.16562  -0.97146  -0.79611  -0.74213  -0.69951
 Alpha  occ. eigenvalues --   -0.67879  -0.60964  -0.57488  -0.54897  -0.51198
 Alpha  occ. eigenvalues --   -0.46987  -0.45717  -0.39188  -0.34133  -0.28424
 Alpha virt. eigenvalues --    0.03221   0.04771   0.05087   0.05782   0.08703
 Alpha virt. eigenvalues --    0.09917   0.10120   0.11473   0.11725   0.12859
 Alpha virt. eigenvalues --    0.13278   0.13629   0.14123   0.15126   0.15831

 Mulliken charges:
               1
     1  O   -2.372300
     2  C    1.740347
     3  C    0.244234
     4  C   -1.310872
     5  N   -2.156168
     6  C    1.268923
     7  N   -2.248505
     8  H    1.420559
     9  H    1.524469
    10  H    0.658437
    11  H    1.230877
 Sum of Mulliken charges =  -0.00000

 Dipole moment (field-independent basis, Debye):
    X=             -1.5640    Y=              1.0650    Z=             -0.8007  Tot=              2.0546

 Test job not archived.
 1\1\GINC-SE329\SP\RHF\Aug-CC-pVDZ\C4H4N2O1\OHZDE\09-Apr-2025\0\\#t hf
 aug-cc-pvdz iop(5/13=1,5/36=2,99/5=2) pseudo=read geom=check guess=(re
 ad,tcheck) scf=(maxcycle=1)\\title\\0,1\O,0,2.73228018,-1.36988898,-0.
 2326858\C,0,2.01231316,-0.47096939,-0.27728808\C,0,1.2237725,0.5784327
 9,-0.33500092\C,0,-0.11912438,0.55289539,0.29922757\N,0,-1.29528314,0.
 23505195,-0.58030589\C,0,-1.47685271,-0.77818757,0.3473138\N,0,-0.4241
 6024,-0.66720362,1.07640799\H,0,1.59422345,1.4477324,-0.8596203\H,0,-0
 .30642503,1.4555797,0.88407525\H,0,-2.01882626,0.91672847,-0.76706487\

 Normal termination of Gaussian 16 at Wed Apr  9 04:04:32 2025.
