 Gaussian 16, Revision C.01,

 ----------------------------------------------------------------------
 #t hf aug-cc-pvdz symm=none int=(grid=ultrafine) guess=(read,tcheck) s
 table=(opt,rrhf)
 ----------------------------------------------------------------------
 -----
 title
 -----
 Symbolic Z-matrix:
 Charge =  0 Multiplicity = 1

 SCF Done:  E(RHF) =  -358.374615629     A.U. after   15 cycles
 Normal termination of Gaussian 16 at Wed Apr  9 18:13:58 2025.
 Gaussian 16:  ES64L-G16RevC.01  3-Jul-2019

 ----------------------------------------------------------------------
 #t hf aug-cc-pvdz iop(5/13=1,5/36=2,99/5=2) pseudo=read geom=check gue
 ss=(read,tcheck) scf=(maxcycle=1)
 ----------------------------------------------------------------------
 -----
 title
 -----
 Structure from the checkpoint file:  "Grambow2020_wb97xd3_006781_reverse_mol2.chk"
 Charge =  0 Multiplicity = 1

                         Standard orientation:
 ---------------------------------------------------------------------
 Center     Atomic      Atomic             Coordinates (Angstroms)
 Number     Number       Type             X           Y           Z
 ---------------------------------------------------------------------
      1          8           0       -1.577855    0.694591   -0.166546
      2          6           0       -0.328217    0.757450    0.534785
      3          6           0        0.864570    0.785723   -0.385586
      4          6           0        1.931939   -0.038284    0.201079
      5          7           0        0.866885   -0.716993   -0.533961
      6          6           0       -0.252078   -0.768147    0.420100
      7          8           0       -1.506507   -0.755999   -0.236306
      8          1           0       -0.384971    1.402352    1.410774
      9          1           0        1.005789    1.451373   -1.226706
     10          1           0        1.993743   -0.158794    1.279598
     11          1           0        2.883002   -0.065243   -0.313205
     12          1           0       -0.188152   -1.539931    1.187822
 ---------------------------------------------------------------------

 SCF Done:  E(RHF) =  -359.928943026     A.U. after    2 cycles

 The electronic state is 1-A.
 Alpha  occ. eigenvalues --  -21.09930 -21.09576 -15.74049 -11.55544 -11.48994
 Alpha  occ. eigenvalues --  -11.45529 -11.41028  -2.01347  -1.53701  -1.44806
 Alpha  occ. eigenvalues --   -1.08973  -0.99951  -0.90626  -0.77265  -0.74073
 Alpha  occ. eigenvalues --   -0.71088  -0.67551  -0.55136  -0.53628  -0.51798
 Alpha  occ. eigenvalues --   -0.44652  -0.43223  -0.40682  -0.38052  -0.33746
 Alpha  occ. eigenvalues --   -0.25147
 Alpha virt. eigenvalues --    0.03679   0.04921   0.05008   0.05341   0.06346
 Alpha virt. eigenvalues --    0.09081   0.09659   0.10608   0.11619   0.12549
 Alpha virt. eigenvalues --    0.13173   0.14109   0.14464   0.14862   0.15560

 Mulliken charges:
               1
     1  O   -1.883416
     2  C   -1.303324
     3  C    0.042967
     4  C   -2.029041
     5  N   -1.971465
     6  C    2.157639
     7  O   -1.965531
     8  H    1.237967
     9  H    1.267578
    10  H    1.468280
    11  H    1.339951
    12  H    1.638396
 Sum of Mulliken charges =  -0.00000

 Dipole moment (field-independent basis, Debye):
    X=              1.3046    Y=              0.8654    Z=              1.3340  Tot=              2.0568

 Test job not archived.
 1\1\GINC-SE108\SP\RHF\Aug-CC-pVDZ\C4H5N1O2\OHZDE\09-Apr-2025\0\\#t hf
 aug-cc-pvdz iop(5/13=1,5/36=2,99/5=2) pseudo=read geom=check guess=(re
 ad,tcheck) scf=(maxcycle=1)\\title\\0,1\O,0,1.35949254,-1.49714448,-0.
 29219473\C,0,0.67378494,-0.3066218,-0.70435377\C,0,0.62191379,0.747254
 43,0.37141489\C,0,-0.69700306,1.39635438,0.3318267\N,0,-0.58395321,0.1
 1414487,1.02351173\C,0,-0.59189186,-0.88086532,-0.06037927\O,0,0.14087
 812,-2.04239397,0.28386927\H,0,0.89030581,-0.05014236,-1.74060307\H,0,
 1.46257663,1.11726831,0.943158\H,0,-1.24807899,1.4489521,-0.60363811\H

 Normal termination of Gaussian 16 at Wed Apr  9 18:14:03 2025.
