 Gaussian 16, Revision C.01,

 ----------------------------------------------------------------------
 #t hf aug-cc-pvdz symm=none int=(grid=ultrafine) guess=(read,tcheck) s
 table=(opt,rrhf)
 ----------------------------------------------------------------------
 -----
 title
 -----
 Symbolic Z-matrix:
 Charge =  0 Multiplicity = 1

 SCF Done:  E(RHF) =  -325.099778067     A.U. after   13 cycles
 Normal termination of Gaussian 16 at Wed Apr  9 19:11:10 2025.
 Gaussian 16:  ES64L-G16RevC.01  3-Jul-2019

 ----------------------------------------------------------------------
 #t hf aug-cc-pvdz iop(5/13=1,5/36=2,99/5=2) pseudo=read geom=check gue
 ss=(read,tcheck) scf=(maxcycle=1)
 ----------------------------------------------------------------------
 -----
 title
 -----
 Structure from the checkpoint file:  "Grambow2020_wb97xd3_008239_reverse_mol2.chk"
 Charge =  0 Multiplicity = 1

                         Standard orientation:
 ---------------------------------------------------------------------
 Center     Atomic      Atomic             Coordinates (Angstroms)
 Number     Number       Type             X           Y           Z
 ---------------------------------------------------------------------
      1          6           0       -1.002201    1.488882   -1.021526
      2          6           0       -0.030425    1.869113    0.086343
      3          6           0        0.155229    0.779497    1.135391
      4          7           0        0.731806   -0.430521    0.602463
      5          6           0        1.674853   -0.788266   -0.037135
      6          8           0        2.553519   -1.249118   -0.653660
      7          6           0       -2.710665   -1.780147    0.016416
      8          1           0       -1.100768    2.296747   -1.747702
      9          1           0       -0.668045    0.598042   -1.556101
     10          1           0       -1.994759    1.278645   -0.616520
     11          1           0        0.946317    2.122995   -0.336974
     12          1           0       -0.385982    2.764645    0.604403
     13          1           0        0.788291    1.140874    1.949601
     14          1           0       -0.809492    0.512096    1.571165
     15          1           0       -1.629094   -1.653217    0.045932
     16          1           0       -3.076870   -1.556877   -0.984792
     17          1           0       -3.178416   -1.104212    0.731711
     18          1           0       -2.962718   -2.807619    0.274380
 ---------------------------------------------------------------------

 SCF Done:  E(RHF) =  -326.644953120     A.U. after    2 cycles

 The electronic state is 1-A.
 Alpha  occ. eigenvalues --  -21.10629 -15.75697 -11.57628 -11.46290 -11.41194
 Alpha  occ. eigenvalues --  -11.36651 -11.35560  -1.75766  -1.41301  -1.19428
 Alpha  occ. eigenvalues --   -1.02799  -1.02327  -0.88005  -0.70534  -0.66726
 Alpha  occ. eigenvalues --   -0.64274  -0.59859  -0.58975  -0.57110  -0.54395
 Alpha  occ. eigenvalues --   -0.53617  -0.53450  -0.53317  -0.49512  -0.48169
 Alpha  occ. eigenvalues --   -0.47776  -0.34125  -0.32089
 Alpha virt. eigenvalues --    0.03258   0.04486   0.04942   0.05540   0.05798
 Alpha virt. eigenvalues --    0.06191   0.06536   0.07379   0.07512   0.08768
 Alpha virt. eigenvalues --    0.09287   0.11149   0.11759   0.12459   0.13168

 Mulliken charges:
               1
     1  C   -3.843289
     2  C   -2.849531
     3  C   -2.565046
     4  N   -2.111185
     5  C    4.074041
     6  O   -2.780729
     7  C   -5.368292
     8  H    1.101788
     9  H    1.539418
    10  H    1.463892
    11  H    1.508284
    12  H    1.314262
    13  H    1.372884
    14  H    1.742130
    15  H    1.658526
    16  H    1.241420
    17  H    1.289575
    18  H    1.211853
 Sum of Mulliken charges =  -0.00000

 Dipole moment (field-independent basis, Debye):
    X=             -0.4125    Y=              1.6461    Z=              0.3251  Tot=              1.7279

 Test job not archived.
 1\1\GINC-SE226\SP\RHF\Aug-CC-pVDZ\C5H11N1O1\OHZDE\09-Apr-2025\0\\#t hf
  aug-cc-pvdz iop(5/13=1,5/36=2,99/5=2) pseudo=read geom=check guess=(r
 ead,tcheck) scf=(maxcycle=1)\\title\\0,1\C,0,-1.30133924,-0.16606094,-
 0.91225977\C,0,-1.70105031,0.53458207,0.37833271\C,0,-0.59272039,0.566
 20739,1.42372074\N,0,0.5679422,1.31016946,0.99948224\C,0,0.85489905,2.
 38350839,0.56130001\O,0,1.2489443,3.39533538,0.13063135\C,0,2.08488269
 ,-1.85379356,-0.3058082\H,0,-2.12368371,-0.16186767,-1.62879624\H,0,-0
 .44611264,0.32245318,-1.38233087\H,0,-1.02561595,-1.20619263,-0.723833

 Normal termination of Gaussian 16 at Wed Apr  9 19:11:16 2025.
