 Gaussian 16, Revision C.01,

 ----------------------------------------------------------------------
 #t hf aug-cc-pvdz symm=none int=(grid=ultrafine) guess=(read,tcheck) s
 table=(opt,rrhf)
 ----------------------------------------------------------------------
 -----
 title
 -----
 Symbolic Z-matrix:
 Charge =  0 Multiplicity = 1

 SCF Done:  E(RHF) =  -316.394801744     A.U. after   19 cycles
 Normal termination of Gaussian 16 at Wed Apr  9 18:34:09 2025.
 Gaussian 16:  ES64L-G16RevC.01  3-Jul-2019

 ----------------------------------------------------------------------
 #t hf aug-cc-pvdz iop(5/13=1,5/36=2,99/5=2) pseudo=read geom=check gue
 ss=(read,tcheck) scf=(maxcycle=1)
 ----------------------------------------------------------------------
 -----
 title
 -----
 Structure from the checkpoint file:  "Grambow2020_wb97xd3_007271_reverse_mol1.chk"
 Charge =  0 Multiplicity = 1

                         Standard orientation:
 ---------------------------------------------------------------------
 Center     Atomic      Atomic             Coordinates (Angstroms)
 Number     Number       Type             X           Y           Z
 ---------------------------------------------------------------------
      1          7           0       -2.310296    0.004873   -0.493634
      2          6           0       -1.260566   -0.178436   -0.012343
      3          6           0       -0.188840   -1.138700    0.535624
      4          7           0        0.903307   -1.183244   -0.001746
      5          6           0        1.680385   -0.138322   -0.326992
      6          6           0        1.035843    1.056570   -0.080859
      7          7           0       -0.161390    1.006629    0.495967
      8          1           0        2.628505   -0.272522   -0.819419
      9          1           0        1.451174    2.005252   -0.398878
     10          1           0       -0.701955    1.862792    0.521601
 ---------------------------------------------------------------------

 SCF Done:  E(RHF) =  -317.835310658     A.U. after    2 cycles

 The electronic state is 1-A.
 Alpha  occ. eigenvalues --  -15.83479 -15.81249 -15.71494 -11.50842 -11.50399
 Alpha  occ. eigenvalues --  -11.45634 -11.44958  -1.56682  -1.37598  -1.27760
 Alpha  occ. eigenvalues --   -1.12339  -0.93078  -0.88585  -0.77756  -0.67063
 Alpha  occ. eigenvalues --   -0.64311  -0.61746  -0.57934  -0.51090  -0.48764
 Alpha  occ. eigenvalues --   -0.47597  -0.43283  -0.32963  -0.30977
 Alpha virt. eigenvalues --    0.02539   0.04032   0.04532   0.06061   0.08321
 Alpha virt. eigenvalues --    0.09128   0.10057   0.10539   0.11130   0.11952
 Alpha virt. eigenvalues --    0.12249   0.12627   0.13156   0.14047   0.14906

 Mulliken charges:
               1
     1  N   -2.704685
     2  C    3.399037
     3  C    0.212431
     4  N   -2.672408
     5  C    0.359858
     6  C    0.401419
     7  N   -2.468479
     8  H    1.290481
     9  H    1.493377
    10  H    0.688970
 Sum of Mulliken charges =  -0.00000

 Dipole moment (field-independent basis, Debye):
    X=              5.0324    Y=              2.6147    Z=             -0.0767  Tot=              5.6716

 Test job not archived.
 1\1\GINC-SE035\SP\RHF\Aug-CC-pVDZ\C4H3N3\OHZDE\09-Apr-2025\0\\#t hf au
 g-cc-pvdz iop(5/13=1,5/36=2,99/5=2) pseudo=read geom=check guess=(read
 ,tcheck) scf=(maxcycle=1)\\title\\0,1\N,0,2.58362982,0.31235009,0.6169
 8609\C,0,1.63651665,-0.1371458,0.09919847\C,0,0.83414287,-1.35298434,-
 0.39970588\N,0,-0.26451226,-1.57853953,0.07528501\C,0,-1.26455296,-0.6
 9804913,0.23700252\C,0,-0.86378919,0.57779635,-0.10268857\N,0,0.360048
 63,0.73022797,-0.60025736\H,0,-2.20061788,-0.98421685,0.68568411\H,0,-
 1.49060229,1.44156284,0.08344912\H,0,0.71192562,1.6757914,-0.6895645\\

 Normal termination of Gaussian 16 at Wed Apr  9 18:34:13 2025.
