 Gaussian 16, Revision C.01,

 ----------------------------------------------------------------------
 #t hf aug-cc-pvdz symm=none int=(grid=ultrafine) guess=(read,tcheck) s
 table=(opt,rrhf)
 ----------------------------------------------------------------------
 -----
 title
 -----
 Symbolic Z-matrix:
 Charge =  0 Multiplicity = 1

 SCF Done:  E(RHF) =  -302.722263706     A.U. after   17 cycles
 Normal termination of Gaussian 16 at Wed Apr  9 18:24:29 2025.
 Gaussian 16:  ES64L-G16RevC.01  3-Jul-2019

 ----------------------------------------------------------------------
 #t hf aug-cc-pvdz iop(5/13=1,5/36=2,99/5=2) pseudo=read geom=check gue
 ss=(read,tcheck) scf=(maxcycle=1)
 ----------------------------------------------------------------------
 -----
 title
 -----
 Structure from the checkpoint file:  "Grambow2020_wb97xd3_006963_reverse_mol1.chk"
 Charge =  0 Multiplicity = 1

                         Standard orientation:
 ---------------------------------------------------------------------
 Center     Atomic      Atomic             Coordinates (Angstroms)
 Number     Number       Type             X           Y           Z
 ---------------------------------------------------------------------
      1          6           0        0.240099    1.432847    0.465578
      2          6           0        0.876495    0.167477    0.316949
      3          6           0        1.811343   -0.038899   -0.855010
      4          7           0        0.307947   -0.990405    0.910680
      5          6           0       -0.687153   -1.328456   -0.085727
      6          6           0       -1.499509   -0.270453   -0.398610
      7          7           0       -1.956353    0.813176   -0.442430
      8          1           0        0.596777    2.283317   -0.103172
      9          1           0        1.425249    0.888842    1.149181
     10          1           0       -0.433594    1.603173    1.293031
     11          1           0        2.226463   -1.043532   -0.811636
     12          1           0        1.281284    0.089616   -1.797764
     13          1           0        2.630526    0.682106   -0.826900
     14          1           0       -0.066263   -0.817199    1.836445
     15          1           0       -0.569249   -2.220807   -0.676021
 ---------------------------------------------------------------------

 SCF Done:  E(RHF) =  -304.187155639     A.U. after    2 cycles

 The electronic state is 1-A.
 Alpha  occ. eigenvalues --  -15.75636 -15.70218 -11.54477 -11.49619 -11.41239
 Alpha  occ. eigenvalues --  -11.40470 -11.36268  -1.47470  -1.26053  -1.21391
 Alpha  occ. eigenvalues --   -1.06767  -0.96963  -0.84517  -0.72288  -0.70518
 Alpha  occ. eigenvalues --   -0.67685  -0.63761  -0.58294  -0.55046  -0.53066
 Alpha  occ. eigenvalues --   -0.52152  -0.48582  -0.44489  -0.39520  -0.36580
 Alpha  occ. eigenvalues --   -0.23799
 Alpha virt. eigenvalues --    0.02352   0.04336   0.04525   0.05047   0.05669
 Alpha virt. eigenvalues --    0.06151   0.06920   0.07061   0.08145   0.11262
 Alpha virt. eigenvalues --    0.11501   0.11946   0.12678   0.13398   0.13760

 Mulliken charges:
               1
     1  C   -2.153900
     2  C    0.776403
     3  C   -3.898944
     4  N   -3.196395
     5  C   -0.868723
     6  C    1.934278
     7  N   -2.391750
     8  H    1.534399
     9  H    1.206342
    10  H    1.466015
    11  H    1.258965
    12  H    1.343405
    13  H    1.073204
    14  H    0.475844
    15  H    1.440858
 Sum of Mulliken charges =  -0.00000

 Dipole moment (field-independent basis, Debye):
    X=              4.8554    Y=              2.1470    Z=              1.5529  Tot=              5.5314

 Test job not archived.
 1\1\GINC-SE108\SP\RHF\Aug-CC-pVDZ\C5H8N2\OHZDE\09-Apr-2025\0\\#t hf au
 g-cc-pvdz iop(5/13=1,5/36=2,99/5=2) pseudo=read geom=check guess=(read
 ,tcheck) scf=(maxcycle=1)\\title\\0,1\C,0,-0.20896628,1.41671781,0.082
 31095\C,0,-0.47208634,0.06667784,-0.28703046\C,0,-1.24567993,-0.808816
 15,0.67478212\N,0,0.35019005,-0.58338987,-1.24501174\C,0,1.45699183,-0
 .98699526,-0.40274085\C,0,1.97244725,0.05387606,0.32395013\N,0,2.12321
 187,1.12200373,0.794324\H,0,-0.74646455,1.86098162,0.91160029\H,0,-1.2
 4295081,0.86953095,-0.8117228\H,0,0.34373649,2.06037709,-0.58684883\H,

 Normal termination of Gaussian 16 at Wed Apr  9 18:24:34 2025.
