 Gaussian 16, Revision C.01,

 ----------------------------------------------------------------------
 #t hf aug-cc-pvdz symm=none int=(grid=ultrafine) guess=(read,tcheck) s
 table=(opt,rrhf)
 ----------------------------------------------------------------------
 -----
 title
 -----
 Symbolic Z-matrix:
 Charge =  0 Multiplicity = 1

 SCF Done:  E(RHF) =  -302.843809348     A.U. after   15 cycles
 Normal termination of Gaussian 16 at Wed Apr  9 19:03:57 2025.
 Gaussian 16:  ES64L-G16RevC.01  3-Jul-2019

 ----------------------------------------------------------------------
 #t hf aug-cc-pvdz iop(5/13=1,5/36=2,99/5=2) pseudo=read geom=check gue
 ss=(read,tcheck) scf=(maxcycle=1)
 ----------------------------------------------------------------------
 -----
 title
 -----
 Structure from the checkpoint file:  "Grambow2020_wb97xd3_008038_reverse_mol2.chk"
 Charge =  0 Multiplicity = 1

                         Standard orientation:
 ---------------------------------------------------------------------
 Center     Atomic      Atomic             Coordinates (Angstroms)
 Number     Number       Type             X           Y           Z
 ---------------------------------------------------------------------
      1          6           0       -2.000525   -1.192867    0.059471
      2          6           0       -0.504493   -1.135713   -0.219954
      3          6           0        2.455598   -0.673203   -0.355182
      4          7           0        1.636494    0.116174    0.272066
      5          6           0        0.163370    0.052522    0.462026
      6          6           0       -0.416506    1.326086    0.011247
      7          7           0       -0.861101    2.324559   -0.335795
      8          1           0       -2.516049   -0.313244   -0.329238
      9          1           0       -2.436405   -2.071715   -0.415200
     10          1           0       -2.204420   -1.259400    1.130415
     11          1           0       -0.020956   -2.043872    0.145065
     12          1           0       -0.321276   -1.082038   -1.295291
     13          1           0        1.867051   -1.492583   -0.802032
     14          1           0        2.039260    0.926952    0.726793
     15          1           0       -0.019616   -0.010178    1.539947
 ---------------------------------------------------------------------

 SCF Done:  E(RHF) =  -304.282597990     A.U. after    2 cycles

 The electronic state is 1-A.
 Alpha  occ. eigenvalues --  -15.81401 -15.77633 -11.52449 -11.45778 -11.43559
 Alpha  occ. eigenvalues --  -11.39689 -11.39217  -1.47434  -1.31952  -1.22335
 Alpha  occ. eigenvalues --   -1.07009  -0.93490  -0.84969  -0.75362  -0.70834
 Alpha  occ. eigenvalues --   -0.64948  -0.61780  -0.58446  -0.54788  -0.51687
 Alpha  occ. eigenvalues --   -0.51309  -0.50757  -0.46505  -0.45557  -0.43562
 Alpha  occ. eigenvalues --   -0.34118
 Alpha virt. eigenvalues --    0.02939   0.04646   0.05238   0.05411   0.06048
 Alpha virt. eigenvalues --    0.06631   0.06944   0.07872   0.08970   0.10407
 Alpha virt. eigenvalues --    0.11137   0.11700   0.12726   0.13089   0.13497

 Mulliken charges:
               1
     1  C   -3.631130
     2  C   -2.884913
     3  C   -1.791803
     4  N   -2.102084
     5  C   -0.459113
     6  C    2.798232
     7  N   -2.492241
     8  H    1.263699
     9  H    1.030229
    10  H    1.145495
    11  H    1.505918
    12  H    1.481619
    13  H    1.673878
    14  H    0.681989
    15  H    1.780227
 Sum of Mulliken charges =  -0.00000

 Dipole moment (field-independent basis, Debye):
    X=             -2.1636    Y=             -2.2170    Z=              1.8093  Tot=              3.5875

 Test job not archived.
 1\1\GINC-SE174\SP\RHF\Aug-CC-pVDZ\C5H8N2\OHZDE\09-Apr-2025\0\\#t hf au
 g-cc-pvdz iop(5/13=1,5/36=2,99/5=2) pseudo=read geom=check guess=(read
 ,tcheck) scf=(maxcycle=1)\\title\\0,1\C,0,1.75571683,-0.76958637,-0.42
 252275\C,0,0.70801272,0.31972758,-0.23499033\C,0,-1.58382231,2.1162115
 2,0.48228428\N,0,-1.57694606,0.83828045,0.71537813\C,0,-0.54863189,-0.
 20246167,0.45145237\C,0,-1.17376308,-1.28425456,-0.3233747\N,0,-1.6697
 3995,-2.12745515,-0.92176585\H,0,1.39089228,-1.57187067,-1.0658256\H,0
 ,2.6503811,-0.35255513,-0.88440894\H,0,2.05033582,-1.20895282,0.533028

 Normal termination of Gaussian 16 at Wed Apr  9 19:04:02 2025.
