 Gaussian 16, Revision C.01,

 ----------------------------------------------------------------------
 #t hf aug-cc-pvdz symm=none int=(grid=ultrafine) guess=(read,tcheck) s
 table=(opt,rrhf)
 ----------------------------------------------------------------------
 -----
 title
 -----
 Symbolic Z-matrix:
 Charge =  0 Multiplicity = 1

 SCF Done:  E(RHF) =  -338.748259633     A.U. after   14 cycles
 Normal termination of Gaussian 16 at Wed Apr  9 18:17:08 2025.
 Gaussian 16:  ES64L-G16RevC.01  3-Jul-2019

 ----------------------------------------------------------------------
 #t hf aug-cc-pvdz iop(5/13=1,5/36=2,99/5=2) pseudo=read geom=check gue
 ss=(read,tcheck) scf=(maxcycle=1)
 ----------------------------------------------------------------------
 -----
 title
 -----
 Structure from the checkpoint file:  "Grambow2020_wb97xd3_006836_forward_mol2.chk"
 Charge =  0 Multiplicity = 1

                         Standard orientation:
 ---------------------------------------------------------------------
 Center     Atomic      Atomic             Coordinates (Angstroms)
 Number     Number       Type             X           Y           Z
 ---------------------------------------------------------------------
      1          7           0        2.469161   -0.510588   -0.088104
      2          6           0        1.131359   -0.090406   -0.009262
      3          6           0        0.661220    1.191148    0.007768
      4          7           0       -0.727759    1.122231    0.005573
      5          6           0       -1.104677   -0.170817    0.001320
      6          8           0       -2.429184   -0.444110    0.008631
      7          6           0        0.006390   -0.972334   -0.012318
      8          1           0        3.120895    0.232712    0.109548
      9          1           0        2.663058   -1.295777    0.514019
     10          1           0        1.177150    2.136306    0.009040
     11          1           0       -1.361972    1.897491    0.020024
     12          1           0       -2.547078   -1.394405   -0.026374
     13          1           0        0.025857   -2.050497   -0.042631
 ---------------------------------------------------------------------

 SCF Done:  E(RHF) =  -340.287630819     A.U. after    2 cycles

 The electronic state is 1-A.
 Alpha  occ. eigenvalues --  -21.11438 -15.77011 -15.74183 -11.47436 -11.43887
 Alpha  occ. eigenvalues --  -11.38623 -11.34447  -1.77504  -1.48179  -1.32062
 Alpha  occ. eigenvalues --   -1.10081  -1.00738  -0.81604  -0.78730  -0.71912
 Alpha  occ. eigenvalues --   -0.65345  -0.59706  -0.59020  -0.56222  -0.54332
 Alpha  occ. eigenvalues --   -0.50438  -0.45492  -0.42767  -0.40242  -0.29048
 Alpha  occ. eigenvalues --   -0.22965
 Alpha virt. eigenvalues --    0.03497   0.05315   0.05433   0.05712   0.06501
 Alpha virt. eigenvalues --    0.08349   0.10395   0.12156   0.12385   0.13362
 Alpha virt. eigenvalues --    0.13809   0.14183   0.14456   0.15059   0.15964

 Mulliken charges:
               1
     1  N   -3.609343
     2  C    4.002032
     3  C   -0.746990
     4  N   -3.383019
     5  C    4.602176
     6  O   -3.678997
     7  C   -2.948009
     8  H    0.731116
     9  H    0.504323
    10  H    1.335594
    11  H    0.902482
    12  H    0.772338
    13  H    1.516297
 Sum of Mulliken charges =   0.00000

 Dipole moment (field-independent basis, Debye):
    X=             -0.8912    Y=              0.5444    Z=              0.8604  Tot=              1.3531

 Test job not archived.
 1\1\GINC-SE229\SP\RHF\Aug-CC-pVDZ\C4H6N2O1\OHZDE\09-Apr-2025\0\\#t hf
 aug-cc-pvdz iop(5/13=1,5/36=2,99/5=2) pseudo=read geom=check guess=(re
 ad,tcheck) scf=(maxcycle=1)\\title\\0,1\N,0,-2.13606364,0.67010383,-0.
 46853837\C,0,-0.86283001,0.13944987,-0.20440694\C,0,-0.46997812,-1.164
 92577,-0.29369223\N,0,0.89380847,-1.20549862,-0.02450994\C,0,1.3283369
 6,0.04202914,0.23800831\O,0,2.63734453,0.20695018,0.53526264\C,0,0.283
 29752,0.9222994,0.13749782\H,0,-2.8503213,-0.04003078,-0.51171782\H,0,
 -2.40543052,1.37680644,0.1983072\H,0,-1.02262391,-2.05770479,-0.532518

 Normal termination of Gaussian 16 at Wed Apr  9 18:17:12 2025.
