 Gaussian 16, Revision C.01,

 ----------------------------------------------------------------------
 #t hf aug-cc-pvdz symm=none int=(grid=ultrafine) guess=(read,tcheck) s
 table=(opt,rrhf)
 ----------------------------------------------------------------------
 -----
 title
 -----
 Symbolic Z-matrix:
 Charge =  0 Multiplicity = 1

 SCF Done:  E(RHF) =  -358.427085972     A.U. after   17 cycles
 Normal termination of Gaussian 16 at Wed Apr  9 18:11:28 2025.
 Gaussian 16:  ES64L-G16RevC.01  3-Jul-2019

 ----------------------------------------------------------------------
 #t hf aug-cc-pvdz iop(5/13=1,5/36=2,99/5=2) pseudo=read geom=check gue
 ss=(read,tcheck) scf=(maxcycle=1)
 ----------------------------------------------------------------------
 -----
 title
 -----
 Structure from the checkpoint file:  "Grambow2020_wb97xd3_006747_forward_mol1.chk"
 Charge =  0 Multiplicity = 1

                         Standard orientation:
 ---------------------------------------------------------------------
 Center     Atomic      Atomic             Coordinates (Angstroms)
 Number     Number       Type             X           Y           Z
 ---------------------------------------------------------------------
      1          8           0        1.950361   -1.137860   -0.094667
      2          6           0        1.739067    0.027825    0.056246
      3          6           0        0.342661    0.645551   -0.078694
      4          8           0        0.160526    1.801170    0.194427
      5          7           0       -0.618641   -0.226920   -0.573868
      6          6           0       -2.014260   -0.037748   -0.214139
      7          6           0       -1.491524   -1.141985    0.639248
      8          1           0        2.515946    0.764236    0.327661
      9          1           0       -2.700347   -0.281978   -1.018920
     10          1           0       -2.189776    0.933091    0.236853
     11          1           0       -1.120675   -0.728569    1.585791
     12          1           0       -0.517423   -1.366676   -0.328355
 ---------------------------------------------------------------------

 SCF Done:  E(RHF) =  -359.985784338     A.U. after    2 cycles

 The electronic state is 1-A.
 Alpha  occ. eigenvalues --  -21.11586 -21.09417 -15.79601 -11.54882 -11.50209
 Alpha  occ. eigenvalues --  -11.46043 -11.40983  -1.78242  -1.74271  -1.50164
 Alpha  occ. eigenvalues --   -1.09949  -0.96621  -0.90453  -0.80953  -0.73686
 Alpha  occ. eigenvalues --   -0.62564  -0.62116  -0.58990  -0.57009  -0.53202
 Alpha  occ. eigenvalues --   -0.52162  -0.46553  -0.40205  -0.37943  -0.34040
 Alpha  occ. eigenvalues --   -0.30106
 Alpha virt. eigenvalues --    0.03763   0.05447   0.05921   0.06355   0.07737
 Alpha virt. eigenvalues --    0.07973   0.08863   0.09662   0.10537   0.11576
 Alpha virt. eigenvalues --    0.12178   0.12765   0.13279   0.14518   0.14965

 Mulliken charges:
               1
     1  O   -2.775173
     2  C    0.788904
     3  C    5.140985
     4  O   -3.447762
     5  N   -2.477666
     6  C   -2.249501
     7  C   -2.070520
     8  H    1.663880
     9  H    1.444514
    10  H    1.410130
    11  H    1.284727
    12  H    1.287483
 Sum of Mulliken charges =   0.00000

 Dipole moment (field-independent basis, Debye):
    X=              0.0136    Y=              1.3841    Z=             -0.2734  Tot=              1.4109

 Test job not archived.
 1\1\GINC-SE030\SP\RHF\Aug-CC-pVDZ\C4H5N1O2\OHZDE\09-Apr-2025\0\\#t hf
 aug-cc-pvdz iop(5/13=1,5/36=2,99/5=2) pseudo=read geom=check guess=(re
 ad,tcheck) scf=(maxcycle=1)\\title\\0,1\O,0,1.68646966,1.41433115,1.24
 030411\C,0,1.94311854,0.4713138,0.55394281\C,0,0.87073329,-0.47899461,
 0.00928709\O,0,1.16524708,-1.34506076,-0.76943804\N,0,-0.39806918,-0.2
 6293002,0.53269799\C,0,-1.5691449,-0.61319755,-0.2539647\C,0,-1.394957
 93,0.86247184,-0.36763683\H,0,2.96458542,0.20675267,0.22818111\H,0,-2.
 38865797,-0.99593673,0.34598905\H,0,-1.31568005,-1.23649737,-1.1048353

 Normal termination of Gaussian 16 at Wed Apr  9 18:11:33 2025.
