 Gaussian 16, Revision C.01,

 ----------------------------------------------------------------------
 #t hf aug-cc-pvdz symm=none int=(grid=ultrafine) guess=(read,tcheck) s
 table=(opt,rrhf)
 ----------------------------------------------------------------------
 -----
 title
 -----
 Symbolic Z-matrix:
 Charge =  0 Multiplicity = 1

 SCF Done:  E(RHF) =  -302.299870765     A.U. after   15 cycles
 Normal termination of Gaussian 16 at Wed Apr  9 16:05:38 2025.
 Gaussian 16:  ES64L-G16RevC.01  3-Jul-2019

 ----------------------------------------------------------------------
 #t hf aug-cc-pvdz iop(5/13=1,5/36=2,99/5=2) pseudo=read geom=check gue
 ss=(read,tcheck) scf=(maxcycle=1)
 ----------------------------------------------------------------------
 -----
 title
 -----
 Structure from the checkpoint file:  "Grambow2020_b97d3_006718_reverse_mol2.chk"
 Charge =  0 Multiplicity = 1

                         Standard orientation:
 ---------------------------------------------------------------------
 Center     Atomic      Atomic             Coordinates (Angstroms)
 Number     Number       Type             X           Y           Z
 ---------------------------------------------------------------------
      1          8           0       -3.106234   -0.021078    0.001596
      2          6           0       -1.925371    0.021020    0.000029
      3          6           0       -0.630260   -0.205119   -0.001819
      4          6           0        0.566586    0.411171   -0.002028
      5          6           0        1.825461   -0.382067   -0.000630
      6          8           0        2.932805    0.135475    0.002157
      7          1           0        0.693674    1.500694   -0.001908
      8          1           0        1.675266   -1.485895   -0.001422
 ---------------------------------------------------------------------

 SCF Done:  E(RHF) =  -303.570519900     A.U. after    2 cycles

 The electronic state is 1-A.
 Alpha  occ. eigenvalues --  -21.16759 -21.09374 -11.58508 -11.51659 -11.48668
 Alpha  occ. eigenvalues --  -11.43775  -1.78751  -1.72499  -1.22906  -1.02964
 Alpha  occ. eigenvalues --   -0.84560  -0.73635  -0.63793  -0.62545  -0.56822
 Alpha  occ. eigenvalues --   -0.56713  -0.52803  -0.49322  -0.36808  -0.33454
 Alpha  occ. eigenvalues --   -0.31706
 Alpha virt. eigenvalues --    0.02606   0.03469   0.05882   0.07365   0.08901
 Alpha virt. eigenvalues --    0.09280   0.10373   0.11406   0.11477   0.12768
 Alpha virt. eigenvalues --    0.13172   0.13795   0.15325   0.16661   0.16723

 Mulliken charges:
               1
     1  O   -2.421325
     2  C    1.647479
     3  C    1.917691
     4  C   -1.570345
     5  C    0.577148
     6  O   -2.786496
     7  H    1.274280
     8  H    1.361569
 Sum of Mulliken charges =   0.00000

 Dipole moment (field-independent basis, Debye):
    X=             -1.9338    Y=              0.9571    Z=              0.0005  Tot=              2.1577

 Test job not archived.
 1\1\GINC-SE129\SP\RHF\Aug-CC-pVDZ\C4H2O2\OHZDE\09-Apr-2025\0\\#t hf au
 g-cc-pvdz iop(5/13=1,5/36=2,99/5=2) pseudo=read geom=check guess=(read
 ,tcheck) scf=(maxcycle=1)\\title\\0,1\O,0,-3.26892751,0.57864652,0.315
 04608\C,0,-2.12011293,0.33787976,0.17914244\C,0,-0.81733842,0.34131701
 ,0.00244771\C,0,0.25668767,-0.46628656,-0.07816033\C,0,1.61269988,0.10
 006962,-0.31154283\O,0,2.61428271,-0.59565265,-0.39443641\H,0,0.209771
 26,-1.55800317,0.01757391\H,0,1.63935134,1.20979648,-0.40529857\\Versi
 on=ES64L-G16RevC.01\State=1-A\HF=-303.5705199\RMSD=8.389e-01\Dipole=-0

 Normal termination of Gaussian 16 at Wed Apr  9 16:05:41 2025.
