 Gaussian 16, Revision C.01,

 ----------------------------------------------------------------------
 #t hf aug-cc-pvdz symm=none int=(grid=ultrafine) guess=(read,tcheck) s
 table=(opt,rrhf)
 ----------------------------------------------------------------------
 -----
 title
 -----
 Symbolic Z-matrix:
 Charge =  0 Multiplicity = 1

 SCF Done:  E(RHF) =  -308.802175292     A.U. after   15 cycles

 1\1\GINC-SE035\Stability\RHF\Aug-CC-pVDZ\C6H12O1\OHZDE\09-Apr-2025\0\\
 #t hf aug-cc-pvdz symm=none int=(grid=ultrafine) guess=(read,tcheck) s
 table=(opt,rrhf)\\title\\0,1\C,0,1.34723494,-0.96485248,-0.09649611\C,
 0,1.15404907,-0.09245696,1.00299622\O,0,2.13977715,0.90753407,1.077557
 26\C,0,-0.3084221,0.7928613,0.96003095\C,0,-0.49393013,1.54221898,-0.3
 4382517\C,0,-1.39028038,0.51356437,0.14057587\C,0,-1.15819345,-1.40451
 501,-1.23831589\H,0,-0.16082917,-0.96139054,-0.73442748\H,0,1.2536339,
 -2.03172278,0.0564538\H,0,2.01635043,-0.64456769,-0.88525305\H,0,1.027

 Normal termination of Gaussian 16 at Wed Apr  9 18:44:02 2025.
 Gaussian 16:  ES64L-G16RevC.01  3-Jul-2019

 ----------------------------------------------------------------------
 #t hf aug-cc-pvdz iop(5/13=1,5/36=2,99/5=2) pseudo=read geom=check gue
 ss=(read,tcheck) scf=(maxcycle=1)
 ----------------------------------------------------------------------
 -----
 title
 -----
 Structure from the checkpoint file:  "Grambow2020_wb97xd3_007564_forward_mol1.chk"
 Charge =  0 Multiplicity = 1

                         Standard orientation:
 ---------------------------------------------------------------------
 Center     Atomic      Atomic             Coordinates (Angstroms)
 Number     Number       Type             X           Y           Z
 ---------------------------------------------------------------------
      1          6           0        0.394818    1.565283    0.174772
      2          6           0        1.106281    0.512301   -0.451589
      3          8           0        2.271773    0.156841    0.250177
      4          6           0        0.244380   -0.960479   -0.563403
      5          6           0       -0.298463   -1.417150    0.775539
      6          6           0       -1.120599   -1.106272   -0.374967
      7          6           0       -2.310628    0.900064    0.063986
      8          1           0       -1.114373    0.930022    0.178330
      9          1           0        0.023425    2.381416   -0.430506
     10          1           0        0.634825    1.795486    1.205227
     11          1           0        1.303762    0.695138   -1.512338
     12          1           0        2.428789   -0.784449    0.134368
     13          1           0        0.795069   -1.568117   -1.273315
     14          1           0       -0.191787   -0.640985    1.544829
     15          1           0       -0.208411   -2.433867    1.146277
     16          1           0       -1.931981   -1.571989   -0.905811
     17          1           0       -2.474801    1.929941    0.396175
     18          1           0       -2.858061    0.235988    0.725275
     19          1           0       -2.675380    0.814203   -0.955956
 ---------------------------------------------------------------------

 SCF Done:  E(RHF) =  -310.343926426     A.U. after    2 cycles

 The electronic state is 1-A.
 Alpha  occ. eigenvalues --  -21.06269 -11.46882 -11.45280 -11.43849 -11.38971
 Alpha  occ. eigenvalues --  -11.38005 -11.35997  -1.71508  -1.32372  -1.09569
 Alpha  occ. eigenvalues --   -1.02744  -0.89347  -0.84426  -0.78276  -0.69873
 Alpha  occ. eigenvalues --   -0.65576  -0.63970  -0.56567  -0.55485  -0.54543
 Alpha  occ. eigenvalues --   -0.52093  -0.50726  -0.49437  -0.44648  -0.39513
 Alpha  occ. eigenvalues --   -0.37683  -0.31466  -0.22398
 Alpha virt. eigenvalues --    0.03258   0.04348   0.04707   0.04949   0.05384
 Alpha virt. eigenvalues --    0.06062   0.06266   0.06860   0.07026   0.08271
 Alpha virt. eigenvalues --    0.08669   0.09236   0.10397   0.11871   0.13408

 Mulliken charges:
               1
     1  C   -3.359284
     2  C    0.514146
     3  O   -3.076311
     4  C   -0.863847
     5  C   -2.621157
     6  C   -1.373367
     7  C   -6.110595
     8  H    4.526425
     9  H    1.022236
    10  H    1.021266
    11  H    1.569581
    12  H    0.836557
    13  H    1.053376
    14  H    1.432432
    15  H    1.238582
    16  H    1.234699
    17  H    0.896610
    18  H    1.007657
    19  H    1.050994
 Sum of Mulliken charges =   0.00000

 Dipole moment (field-independent basis, Debye):
    X=             -1.0784    Y=             -1.5265    Z=             -0.8018  Tot=              2.0337

 Test job not archived.
 1\1\GINC-SE035\SP\RHF\Aug-CC-pVDZ\C6H12O1\OHZDE\09-Apr-2025\0\\#t hf a
 ug-cc-pvdz iop(5/13=1,5/36=2,99/5=2) pseudo=read geom=check guess=(rea
 d,tcheck) scf=(maxcycle=1)\\title\\0,1\C,0,1.34723494,-0.96485248,-0.0
 9649611\C,0,1.15404907,-0.09245696,1.00299622\O,0,2.13977715,0.9075340
 7,1.07755726\C,0,-0.3084221,0.7928613,0.96003095\C,0,-0.49393013,1.542
 21898,-0.34382517\C,0,-1.39028038,0.51356437,0.14057587\C,0,-1.1581934
 5,-1.40451501,-1.23831589\H,0,-0.16082917,-0.96139054,-0.73442748\H,0,
 1.2536339,-2.03172278,0.0564538\H,0,2.01635043,-0.64456769,-0.88525305

 Normal termination of Gaussian 16 at Wed Apr  9 18:44:09 2025.
