 Gaussian 16, Revision C.01,

 ----------------------------------------------------------------------
 #t hf aug-cc-pvdz symm=none int=(grid=ultrafine) guess=(read,tcheck) s
 table=(opt,rrhf)
 ----------------------------------------------------------------------
 -----
 title
 -----
 Symbolic Z-matrix:
 Charge =  0 Multiplicity = 1

 SCF Done:  E(RHF) =  -286.670937973     A.U. after   16 cycles
 Normal termination of Gaussian 16 at Wed Apr  9 18:42:48 2025.
 Gaussian 16:  ES64L-G16RevC.01  3-Jul-2019

 ----------------------------------------------------------------------
 #t hf aug-cc-pvdz iop(5/13=1,5/36=2,99/5=2) pseudo=read geom=check gue
 ss=(read,tcheck) scf=(maxcycle=1)
 ----------------------------------------------------------------------
 -----
 title
 -----
 Structure from the checkpoint file:  "Grambow2020_wb97xd3_007555_forward_mol1.chk"
 Charge =  0 Multiplicity = 1

                         Standard orientation:
 ---------------------------------------------------------------------
 Center     Atomic      Atomic             Coordinates (Angstroms)
 Number     Number       Type             X           Y           Z
 ---------------------------------------------------------------------
      1          6           0        0.992601    1.410184   -0.615388
      2          6           0        0.609785    0.250850    0.244721
      3          6           0       -0.422312    0.377170    1.324006
      4          6           0       -1.147351   -0.133812    0.145537
      5          6           0       -2.081234    0.043082   -0.763269
      6          6           0        0.164310   -1.294005   -0.448549
      7          7           0        1.406223   -0.915735    0.239265
      8          1           0        0.225680    2.180988   -0.602382
      9          1           0        1.147613    1.097362   -1.649037
     10          1           0        1.932442    1.819669   -0.232417
     11          1           0       -0.657082    1.395930    1.616849
     12          1           0       -0.267380   -0.294445    2.166650
     13          1           0       -2.960491    0.520168   -0.308413
     14          1           0       -0.275496   -2.197347   -0.043626
     15          1           0        0.143658   -1.216471   -1.528734
     16          1           0        2.172706   -0.816532   -0.416102
 ---------------------------------------------------------------------

 SCF Done:  E(RHF) =  -288.076410707     A.U. after    2 cycles

 The electronic state is 1-A.
 Alpha  occ. eigenvalues --  -15.76964 -11.55052 -11.46073 -11.44940 -11.41946
 Alpha  occ. eigenvalues --  -11.39023 -11.32594  -1.53868  -1.23395  -1.11011
 Alpha  occ. eigenvalues --   -1.01078  -0.94344  -0.84253  -0.71491  -0.70921
 Alpha  occ. eigenvalues --   -0.66146  -0.63211  -0.58408  -0.57639  -0.55453
 Alpha  occ. eigenvalues --   -0.51937  -0.48039  -0.44465  -0.37772  -0.32186
 Alpha  occ. eigenvalues --   -0.26543
 Alpha virt. eigenvalues --    0.03039   0.04743   0.05032   0.05228   0.05560
 Alpha virt. eigenvalues --    0.06311   0.06681   0.07521   0.08273   0.09355
 Alpha virt. eigenvalues --    0.10729   0.12446   0.12628   0.13358   0.13557

 Mulliken charges:
               1
     1  C   -4.397126
     2  C    4.394242
     3  C   -3.873451
     4  C    3.289555
     5  C   -3.849014
     6  C   -2.752898
     7  N   -3.354209
     8  H    1.401570
     9  H    1.216518
    10  H    1.195310
    11  H    1.327417
    12  H    1.340548
    13  H    0.899716
    14  H    0.994022
    15  H    1.567297
    16  H    0.600502
 Sum of Mulliken charges =  -0.00000

 Dipole moment (field-independent basis, Debye):
    X=              4.6486    Y=              1.1716    Z=              1.9709  Tot=              5.1833

 Test job not archived.
 1\1\GINC-SE104\SP\RHF\Aug-CC-pVDZ\C6H9N1\OHZDE\09-Apr-2025\0\\#t hf au
 g-cc-pvdz iop(5/13=1,5/36=2,99/5=2) pseudo=read geom=check guess=(read
 ,tcheck) scf=(maxcycle=1)\\title\\0,1\C,0,-0.28759613,1.61151602,0.567
 48392\C,0,-0.40820417,0.30291952,-0.14203744\C,0,0.63815175,-0.1710136
 3,-1.10461936\C,0,0.98269427,-0.79352758,0.18740994\C,0,1.83759854,-0.
 9283066,1.17752676\C,0,-0.7435047,-1.18017362,0.7260977\N,0,-1.6398677
 ,-0.38849407,-0.12730863\H,0,0.74168637,1.9622105,0.57563813\H,0,-0.63
 117653,1.53102898,1.59985544\H,0,-0.91972087,2.33780653,0.04732574\H,0

 Normal termination of Gaussian 16 at Wed Apr  9 18:42:54 2025.
