 Gaussian 16, Revision C.01,

 ----------------------------------------------------------------------
 #t hf aug-cc-pvdz symm=none int=(grid=ultrafine) guess=(read,tcheck) s
 table=(opt,rrhf)
 ----------------------------------------------------------------------
 -----
 title
 -----
 Symbolic Z-matrix:
 Charge =  0 Multiplicity = 1

 SCF Done:  E(RHF) =  -271.966040308     A.U. after   14 cycles
 Normal termination of Gaussian 16 at Wed Apr  9 03:39:56 2025.
 Gaussian 16:  ES64L-G16RevC.01  3-Jul-2019

 ----------------------------------------------------------------------
 #t hf aug-cc-pvdz iop(5/13=1,5/36=2,99/5=2) pseudo=read geom=check gue
 ss=(read,tcheck) scf=(maxcycle=1)
 ----------------------------------------------------------------------
 -----
 title
 -----
 Structure from the checkpoint file:  "Grambow2020_wb97xd3_007421_reverse_mol1.chk"
 Charge =  0 Multiplicity = 1

                         Standard orientation:
 ---------------------------------------------------------------------
 Center     Atomic      Atomic             Coordinates (Angstroms)
 Number     Number       Type             X           Y           Z
 ---------------------------------------------------------------------
      1          6           0        2.490623   -0.468685    0.353459
      2          6           0        1.226112   -0.018581   -0.360034
      3          6           0        0.027544   -0.977965   -0.211298
      4          6           0       -1.206024   -0.089835   -0.398953
      5          6           0       -2.452399   -0.525021    0.356748
      6          6           0       -0.648132    1.262391    0.006107
      7          6           0        0.743301    1.377887   -0.003616
      8          1           0        2.317911   -0.544795    1.430463
      9          1           0        2.822372   -1.447482   -0.001737
     10          1           0        3.296650    0.248586    0.197320
     11          1           0        1.455189    0.094171   -1.430676
     12          1           0        0.059414   -1.822446   -0.901932
     13          1           0        0.021123   -1.391053    0.805238
     14          1           0       -1.446897   -0.011801   -1.467492
     15          1           0       -2.256522   -0.573344    1.431267
     16          1           0       -2.780499   -1.514959    0.034384
     17          1           0       -3.280996    0.168062    0.196369
     18          1           0       -1.301054    2.122167    0.154107
     19          1           0        0.007165    1.311751    1.098220
 ---------------------------------------------------------------------

 SCF Done:  E(RHF) =  -273.353168903     A.U. after    2 cycles

 The electronic state is 1-A.
 Alpha  occ. eigenvalues --  -11.47188 -11.44730 -11.41205 -11.39583 -11.37899
 Alpha  occ. eigenvalues --  -11.37496 -11.34170  -1.37717  -1.14108  -1.09712
 Alpha  occ. eigenvalues --   -1.00121  -0.90451  -0.82634  -0.73310  -0.66843
 Alpha  occ. eigenvalues --   -0.60804  -0.60589  -0.56830  -0.56089  -0.53242
 Alpha  occ. eigenvalues --   -0.52205  -0.48984  -0.46207  -0.44108  -0.41277
 Alpha  occ. eigenvalues --   -0.40507  -0.29939
 Alpha virt. eigenvalues --    0.03881   0.04717   0.05005   0.05340   0.05452
 Alpha virt. eigenvalues --    0.05903   0.05992   0.06995   0.07186   0.08259
 Alpha virt. eigenvalues --    0.08544   0.09516   0.11115   0.11693   0.13312

 Mulliken charges:
               1
     1  C   -4.448456
     2  C   -0.141895
     3  C   -3.675863
     4  C   -1.727993
     5  C   -4.067360
     6  C   -0.592125
     7  C   -2.028405
     8  H    1.283859
     9  H    1.199641
    10  H    1.215676
    11  H    1.635579
    12  H    1.266432
    13  H    1.655338
    14  H    1.662251
    15  H    1.309243
    16  H    1.211574
    17  H    1.180099
    18  H    1.483524
    19  H    1.578881
 Sum of Mulliken charges =   0.00000

 Dipole moment (field-independent basis, Debye):
    X=             -2.4060    Y=             -1.7554    Z=             -0.3700  Tot=              3.0012

 Test job not archived.
 1\1\GINC-SE322\SP\RHF\Aug-CC-pVDZ\C7H12\OHZDE\09-Apr-2025\0\\#t hf aug
 -cc-pvdz iop(5/13=1,5/36=2,99/5=2) pseudo=read geom=check guess=(read,
 tcheck) scf=(maxcycle=1)\\title\\0,1\C,0,-2.54471651,-0.30389512,-0.01
 712416\C,0,-1.24606157,0.48588271,0.0028814\C,0,-0.12464975,-0.1418043
 8,0.85584696\C,0,1.1737876,0.38944768,0.24142763\C,0,2.37964359,-0.531
 31317,0.35112238\C,0,0.71825104,0.68587436,-1.17576968\C,0,-0.66031133
 ,0.80421529,-1.36307014\H,0,-2.38373513,-1.29761364,-0.44393531\H,0,-2
 .9481039,-0.43421154,0.99012965\H,0,-3.29309327,0.20146625,-0.62792626

 Normal termination of Gaussian 16 at Wed Apr  9 03:40:04 2025.
