 Gaussian 16, Revision C.01,

 ----------------------------------------------------------------------
 #t hf aug-cc-pvdz symm=none int=(grid=ultrafine) guess=(read,tcheck) s
 table=(opt,rrhf)
 ----------------------------------------------------------------------
 -----
 title
 -----
 Symbolic Z-matrix:
 Charge =  0 Multiplicity = 1

 SCF Done:  E(RHF) =  -323.897330312     A.U. after   15 cycles
 Normal termination of Gaussian 16 at Wed Apr  9 18:33:36 2025.
 Gaussian 16:  ES64L-G16RevC.01  3-Jul-2019

 ----------------------------------------------------------------------
 #t hf aug-cc-pvdz iop(5/13=1,5/36=2,99/5=2) pseudo=read geom=check gue
 ss=(read,tcheck) scf=(maxcycle=1)
 ----------------------------------------------------------------------
 -----
 title
 -----
 Structure from the checkpoint file:  "Grambow2020_wb97xd3_007251_reverse_mol2.chk"
 Charge =  0 Multiplicity = 1

                         Standard orientation:
 ---------------------------------------------------------------------
 Center     Atomic      Atomic             Coordinates (Angstroms)
 Number     Number       Type             X           Y           Z
 ---------------------------------------------------------------------
      1          6           0        0.928377    1.510976    0.332581
      2          6           0        0.880385    0.021644    0.089197
      3          6           0        2.104743   -0.562124   -0.568340
      4          6           0        0.073402   -0.822693    1.023763
      5          8           0       -2.572140    0.024568    0.004731
      6          6           0       -1.537864    0.124959   -0.601690
      7          7           0       -0.384646   -0.567697   -0.316228
      8          1           0        1.055632    2.056400   -0.605378
      9          1           0        1.774780    1.757756    0.975994
     10          1           0        0.017899    1.868168    0.816791
     11          1           0        2.986320   -0.403903    0.056456
     12          1           0        1.980685   -1.631742   -0.735346
     13          1           0        2.284530   -0.084524   -1.534130
     14          1           0        0.385214   -1.840298    1.230639
     15          1           0       -0.471090   -0.331618    1.823768
     16          1           0       -1.438588    0.750527   -1.506102
 ---------------------------------------------------------------------

 SCF Done:  E(RHF) =  -325.408087218     A.U. after    2 cycles

 The electronic state is 1-A.
 Alpha  occ. eigenvalues --  -21.04368 -15.74305 -11.49660 -11.47803 -11.42313
 Alpha  occ. eigenvalues --  -11.40745 -11.37987  -1.71262  -1.50409  -1.15743
 Alpha  occ. eigenvalues --   -1.03997  -1.01798  -0.84733  -0.77692  -0.69561
 Alpha  occ. eigenvalues --   -0.65694  -0.62352  -0.57694  -0.55816  -0.55225
 Alpha  occ. eigenvalues --   -0.54256  -0.49326  -0.47498  -0.43574  -0.42697
 Alpha  occ. eigenvalues --   -0.32242  -0.29249
 Alpha virt. eigenvalues --    0.03225   0.04973   0.05183   0.05631   0.05765
 Alpha virt. eigenvalues --    0.06075   0.06357   0.07277   0.08825   0.09902
 Alpha virt. eigenvalues --    0.11481   0.12064   0.13175   0.13727   0.13877

 Mulliken charges:
               1
     1  C   -4.387019
     2  C    2.895496
     3  C   -4.560179
     4  C   -2.574345
     5  O   -2.621537
     6  C    1.972784
     7  N   -2.758426
     8  H    1.202851
     9  H    1.174610
    10  H    1.372325
    11  H    1.234014
    12  H    1.305110
    13  H    1.208932
    14  H    1.415370
    15  H    1.466875
    16  H    1.653137
 Sum of Mulliken charges =  -0.00000

 Dipole moment (field-independent basis, Debye):
    X=              2.4261    Y=              0.6010    Z=              0.4056  Tot=              2.5322

 Test job not archived.
 1\1\GINC-SE014\SP\RHF\Aug-CC-pVDZ\C5H9N1O1\OHZDE\09-Apr-2025\0\\#t hf
 aug-cc-pvdz iop(5/13=1,5/36=2,99/5=2) pseudo=read geom=check guess=(re
 ad,tcheck) scf=(maxcycle=1)\\title\\0,1\C,0,0.77678833,1.14105943,0.55
 651453\C,0,0.34259845,-0.1925523,-0.00259997\C,0,1.3495943,-0.87510412
 ,-0.8926969\C,0,-0.61090522,-1.01992506,0.79978783\O,0,-2.99687269,0.6
 4622218,0.26473314\C,0,-1.99804126,0.64088557,-0.40598212\N,0,-1.04673
 075,-0.35214841,-0.39793395\H,0,0.99751676,1.84829609,-0.24631997\H,0,
 1.68502128,1.02017856,1.14962427\H,0,0.00825557,1.57730652,1.1968756\H

 Normal termination of Gaussian 16 at Wed Apr  9 18:33:42 2025.
