 Gaussian 16, Revision C.01,

 ----------------------------------------------------------------------
 #t hf aug-cc-pvdz symm=none int=(grid=ultrafine) guess=(read,tcheck) s
 table=(opt,rrhf)
 ----------------------------------------------------------------------
 -----
 title
 -----
 Symbolic Z-matrix:
 Charge =  0 Multiplicity = 1

 SCF Done:  E(RHF) =  -322.519757068     A.U. after   17 cycles
 Normal termination of Gaussian 16 at Wed Apr  9 03:33:26 2025.
 Gaussian 16:  ES64L-G16RevC.01  3-Jul-2019

 ----------------------------------------------------------------------
 #t hf aug-cc-pvdz iop(5/13=1,5/36=2,99/5=2) pseudo=read geom=check gue
 ss=(read,tcheck) scf=(maxcycle=1)
 ----------------------------------------------------------------------
 -----
 title
 -----
 Structure from the checkpoint file:  "Grambow2020_wb97xd3_007008_forward_mol1.chk"
 Charge =  0 Multiplicity = 1

                         Standard orientation:
 ---------------------------------------------------------------------
 Center     Atomic      Atomic             Coordinates (Angstroms)
 Number     Number       Type             X           Y           Z
 ---------------------------------------------------------------------
      1          6           0        2.377702   -0.051310    0.266954
      2          6           0        1.089000   -0.763490    0.100460
      3          6           0       -0.798248    0.665608    0.870231
      4          6           0       -1.850487   -0.068691    0.568259
      5          7           0       -1.298426   -0.874558   -0.465178
      6          6           0       -0.003503   -0.111895   -0.441844
      7          8           0        0.012558    1.106086   -0.918271
      8          1           0        2.255816    0.880709    0.828759
      9          1           0        2.763288    0.255501   -0.712229
     10          1           0        3.121673   -0.667329    0.769234
     11          1           0        0.949088   -1.773449    0.461733
     12          1           0       -0.365704    1.441060    1.471267
     13          1           0       -2.854849   -0.110880    0.959988
     14          1           0       -1.767577   -0.773729   -1.360700
 ---------------------------------------------------------------------

 SCF Done:  E(RHF) =  -324.018634500     A.U. after    2 cycles

 The electronic state is 1-A.
 Alpha  occ. eigenvalues --  -20.98796 -15.74746 -11.52499 -11.48906 -11.44191
 Alpha  occ. eigenvalues --  -11.42337 -11.38527  -1.69653  -1.41099  -1.17638
 Alpha  occ. eigenvalues --   -1.06516  -0.97777  -0.83366  -0.77085  -0.70364
 Alpha  occ. eigenvalues --   -0.63255  -0.61042  -0.58052  -0.55385  -0.51999
 Alpha  occ. eigenvalues --   -0.49918  -0.45168  -0.42739  -0.35708  -0.26763
 Alpha  occ. eigenvalues --   -0.19201
 Alpha virt. eigenvalues --    0.03502   0.04542   0.04695   0.05423   0.05871
 Alpha virt. eigenvalues --    0.06738   0.07423   0.07725   0.10391   0.10963
 Alpha virt. eigenvalues --    0.12012   0.12579   0.13083   0.14165   0.14396

 Mulliken charges:
               1
     1  C   -3.826636
     2  C   -1.636734
     3  C   -2.456283
     4  C    0.957853
     5  N   -3.369846
     6  C    5.929467
     7  O   -3.325482
     8  H    1.305012
     9  H    1.203851
    10  H    1.220930
    11  H    1.346525
    12  H    0.881749
    13  H    1.194060
    14  H    0.575533
 Sum of Mulliken charges =   0.00000

 Dipole moment (field-independent basis, Debye):
    X=             -0.7427    Y=              0.3738    Z=              1.0917  Tot=              1.3723

 Test job not archived.
 1\1\GINC-SE058\SP\RHF\Aug-CC-pVDZ\C5H7N1O1\OHZDE\09-Apr-2025\0\\#t hf
 aug-cc-pvdz iop(5/13=1,5/36=2,99/5=2) pseudo=read geom=check guess=(re
 ad,tcheck) scf=(maxcycle=1)\\title\\0,1\C,0,-2.11868237,-0.07221517,-0
 .16047808\C,0,-0.77166022,-0.17516682,-0.76925347\C,0,0.94360934,0.800
 00999,0.74845864\C,0,2.06673152,0.54338167,0.10789108\N,0,1.6515551,-0
 .56522693,-0.68001765\C,0,0.30474935,-0.60296544,-0.01389807\O,0,0.231
 39789,-1.02142079,1.22312794\H,0,-2.10727254,0.54036281,0.74713281\H,0
 ,-2.45552169,-1.06197467,0.16895248\H,0,-2.8482445,0.34346139,-0.85344

 Normal termination of Gaussian 16 at Wed Apr  9 03:33:30 2025.
