 Gaussian 16, Revision C.01,

 ----------------------------------------------------------------------
 #t hf aug-cc-pvdz symm=none int=(grid=ultrafine) guess=(read,tcheck) s
 table=(opt,rrhf)
 ----------------------------------------------------------------------
 -----
 title
 -----
 Symbolic Z-matrix:
 Charge =  0 Multiplicity = 1

 SCF Done:  E(RHF) =  -273.004725664     A.U. after   15 cycles
 Normal termination of Gaussian 16 at Wed Apr  9 18:55:30 2025.
 Gaussian 16:  ES64L-G16RevC.01  3-Jul-2019

 ----------------------------------------------------------------------
 #t hf aug-cc-pvdz iop(5/13=1,5/36=2,99/5=2) pseudo=read geom=check gue
 ss=(read,tcheck) scf=(maxcycle=1)
 ----------------------------------------------------------------------
 -----
 title
 -----
 Structure from the checkpoint file:  "Grambow2020_wb97xd3_007780_reverse_mol1.chk"
 Charge =  0 Multiplicity = 1

                         Standard orientation:
 ---------------------------------------------------------------------
 Center     Atomic      Atomic             Coordinates (Angstroms)
 Number     Number       Type             X           Y           Z
 ---------------------------------------------------------------------
      1          6           0        1.383700    1.272735   -0.423478
      2          6           0        0.675062   -0.011784    0.011701
      3          6           0        0.699716   -0.119132    1.538471
      4          6           0        1.365845   -1.231636   -0.600141
      5          6           0       -0.778641    0.059061   -0.432742
      6          6           0       -1.950906    0.828193   -0.062933
      7          6           0       -2.005908   -0.647347    0.034935
      8          1           0        1.368346    1.384018   -1.512162
      9          1           0        0.902244    2.149586    0.012828
     10          1           0        2.429865    1.261492   -0.110927
     11          1           0        1.733697   -0.094710    1.887388
     12          1           0        0.162869    0.708808    2.002695
     13          1           0        0.254280   -1.053706    1.882333
     14          1           0        1.366037   -1.182462   -1.693973
     15          1           0        2.407570   -1.291557   -0.278293
     16          1           0        0.862714   -2.154295   -0.303582
     17          1           0       -0.610640   -0.270346   -1.768564
     18          1           0       -1.844851    1.500460    0.777976
     19          1           0       -0.917576    0.548933   -1.589881
     20          1           0       -2.621958   -1.215679   -0.664093
     21          1           0       -1.825804   -1.191079    0.963371
 ---------------------------------------------------------------------

 SCF Done:  E(RHF) =  -274.437772906     A.U. after    2 cycles

 The electronic state is 1-A.
 Alpha  occ. eigenvalues --  -11.50470 -11.43443 -11.41023 -11.40389 -11.40250
 Alpha  occ. eigenvalues --  -11.37034 -11.32423  -1.37675  -1.22184  -1.02336
 Alpha  occ. eigenvalues --   -1.02190  -0.93137  -0.82599  -0.80329  -0.67728
 Alpha  occ. eigenvalues --   -0.64509  -0.61650  -0.60311  -0.57282  -0.55991
 Alpha  occ. eigenvalues --   -0.54389  -0.52427  -0.48291  -0.46993  -0.44864
 Alpha  occ. eigenvalues --   -0.39453  -0.38235  -0.24855
 Alpha virt. eigenvalues --    0.03468   0.04555   0.04981   0.05080   0.05180
 Alpha virt. eigenvalues --    0.05424   0.06296   0.06650   0.07122   0.08313
 Alpha virt. eigenvalues --    0.08774   0.08869   0.09005   0.09899   0.11618

 Mulliken charges:
               1
     1  C   -5.045995
     2  C    3.503045
     3  C   -5.221575
     4  C   -5.007985
     5  C    0.430377
     6  C   -1.835357
     7  C   -2.852950
     8  H    1.200945
     9  H    1.226041
    10  H    1.172058
    11  H    1.095159
    12  H    1.169964
    13  H    1.376483
    14  H    1.297676
    15  H    1.174708
    16  H    1.224865
    17  H    0.539144
    18  H    1.070413
    19  H    1.240551
    20  H    1.108955
    21  H    1.133479
 Sum of Mulliken charges =   0.00000

 Dipole moment (field-independent basis, Debye):
    X=              3.4553    Y=             -1.6335    Z=             -0.2349  Tot=              3.8292

 Test job not archived.
 1\1\GINC-SE117\SP\RHF\Aug-CC-pVDZ\C7H14\OHZDE\09-Apr-2025\0\\#t hf aug
 -cc-pvdz iop(5/13=1,5/36=2,99/5=2) pseudo=read geom=check guess=(read,
 tcheck) scf=(maxcycle=1)\\title\\0,1\C,0,-0.53923542,1.68847505,0.5245
 1169\C,0,-0.46247374,0.20381489,0.16198271\C,0,-1.1424089,-0.02999227,
 -1.18938039\C,0,-1.15053654,-0.64036738,1.23599147\C,0,1.00131935,-0.1
 9005628,0.02790495\C,0,2.08079787,0.08959893,-0.89894412\C,0,1.6760700
 8,-1.31665461,-0.67878303\H,0,-0.04662695,1.88840739,1.48118055\H,0,-0
 .0562954,2.30081838,-0.23892503\H,0,-1.57855808,2.00972356,0.61876372\

 Normal termination of Gaussian 16 at Wed Apr  9 18:55:39 2025.
