 Gaussian 16, Revision C.01,

 ----------------------------------------------------------------------
 #t hf aug-cc-pvdz symm=none int=(grid=ultrafine) guess=(read,tcheck) s
 table=(opt,rrhf)
 ----------------------------------------------------------------------
 -----
 title
 -----
 Symbolic Z-matrix:
 Charge =  0 Multiplicity = 1

 SCF Done:  E(RHF) =  -301.616589294     A.U. after   16 cycles
 Normal termination of Gaussian 16 at Wed Apr  9 03:46:29 2025.
 Gaussian 16:  ES64L-G16RevC.01  3-Jul-2019

 ----------------------------------------------------------------------
 #t hf aug-cc-pvdz iop(5/13=1,5/36=2,99/5=2) pseudo=read geom=check gue
 ss=(read,tcheck) scf=(maxcycle=1)
 ----------------------------------------------------------------------
 -----
 title
 -----
 Structure from the checkpoint file:  "Grambow2020_wb97xd3_007928_reverse_mol2.chk"
 Charge =  0 Multiplicity = 1

                         Standard orientation:
 ---------------------------------------------------------------------
 Center     Atomic      Atomic             Coordinates (Angstroms)
 Number     Number       Type             X           Y           Z
 ---------------------------------------------------------------------
      1          6           0        1.615098    0.796682    0.023184
      2          6           0        1.656261   -0.762478    0.003761
      3          6           0        0.147024   -0.647815   -0.026018
      4          7           0       -1.032220   -1.272960    0.008051
      5          6           0       -1.977560   -0.295369    0.017218
      6          6           0       -1.254903    1.061980    0.004365
      7          7           0        0.142677    0.658644   -0.052258
      8          1           0        2.050544    1.300579   -0.838550
      9          1           0        1.959234    1.258372    0.948112
     10          1           0        2.096125   -1.208725   -0.885643
     11          1           0        2.057267   -1.237062    0.896878
     12          1           0       -1.490248    1.617393    0.915086
     13          1           0       -1.561647    1.651656   -0.861500
 ---------------------------------------------------------------------

 SCF Done:  E(RHF) =  -303.030403959     A.U. after    2 cycles

 The electronic state is 1-A.
 Alpha  occ. eigenvalues --  -15.76901 -15.70564 -11.52586 -11.47532 -11.42667
 Alpha  occ. eigenvalues --  -11.42075 -11.36154  -1.60811  -1.33445  -1.18111
 Alpha  occ. eigenvalues --   -1.00400  -0.97892  -0.78541  -0.74347  -0.72267
 Alpha  occ. eigenvalues --   -0.69368  -0.62635  -0.56473  -0.54919  -0.50127
 Alpha  occ. eigenvalues --   -0.48952  -0.47645  -0.38774  -0.35066  -0.28532
 Alpha virt. eigenvalues --    0.02573   0.04681   0.04750   0.05317   0.05429
 Alpha virt. eigenvalues --    0.07258   0.08006   0.09002   0.10392   0.10655
 Alpha virt. eigenvalues --    0.11661   0.12624   0.12711   0.12830   0.13443

 Mulliken charges:
               1
     1  C   -1.878974
     2  C   -3.322472
     3  C    4.295527
     4  N   -2.868663
     5  C   -0.472884
     6  C   -1.925233
     7  N   -2.568699
     8  H    1.511820
     9  H    1.505365
    10  H    1.305096
    11  H    1.277746
    12  H    1.563421
    13  H    1.577952
 Sum of Mulliken charges =   0.00000

 Dipole moment (field-independent basis, Debye):
    X=              6.2715    Y=              3.2755    Z=              0.0125  Tot=              7.0754

 Test job not archived.
 1\1\GINC-SE459\SP\RHF\Aug-CC-pVDZ\C5H6N2\OHZDE\09-Apr-2025\0\\#t hf au
 g-cc-pvdz iop(5/13=1,5/36=2,99/5=2) pseudo=read geom=check guess=(read
 ,tcheck) scf=(maxcycle=1)\\title\\0,1\C,0,-1.26162587,-0.52127118,0.38
 123465\C,0,-1.26604298,1.02397603,0.16853081\C,0,0.20534341,0.83141503
 ,-0.13108813\N,0,1.38434033,1.3964552,-0.40179172\C,0,2.28829386,0.381
 36295,-0.44527727\C,0,1.54252753,-0.92967848,-0.14561436\N,0,0.1712374
 ,-0.46706873,0.01145887\H,0,-1.86861932,-1.10416761,-0.31006939\H,0,-1
 .43149641,-0.84895633,1.40634249\H,0,-1.85853261,1.37978289,-0.6717158

 Normal termination of Gaussian 16 at Wed Apr  9 03:46:33 2025.
