 Gaussian 16, Revision C.01,

 ----------------------------------------------------------------------
 #t hf aug-cc-pvdz symm=none int=(grid=ultrafine) guess=(read,tcheck) s
 table=(opt,rrhf)
 ----------------------------------------------------------------------
 -----
 title
 -----
 Symbolic Z-matrix:
 Charge =  0 Multiplicity = 1

 SCF Done:  E(RHF) =  -321.481923749     A.U. after   16 cycles
 Normal termination of Gaussian 16 at Wed Apr  9 19:09:41 2025.
 Gaussian 16:  ES64L-G16RevC.01  3-Jul-2019

 ----------------------------------------------------------------------
 #t hf aug-cc-pvdz iop(5/13=1,5/36=2,99/5=2) pseudo=read geom=check gue
 ss=(read,tcheck) scf=(maxcycle=1)
 ----------------------------------------------------------------------
 -----
 title
 -----
 Structure from the checkpoint file:  "Grambow2020_wb97xd3_008190_reverse_mol2.chk"
 Charge =  0 Multiplicity = 1

                         Standard orientation:
 ---------------------------------------------------------------------
 Center     Atomic      Atomic             Coordinates (Angstroms)
 Number     Number       Type             X           Y           Z
 ---------------------------------------------------------------------
      1          8           0       -1.346385   -1.726753   -0.515778
      2          6           0       -0.539022   -1.246670    0.533939
      3          6           0        0.145667    0.064545    0.202202
      4          6           0       -0.652489    1.236270    0.057423
      5          6           0       -1.385086    2.179647   -0.059836
      6          6           0        1.444011    0.105646   -0.010726
      7          7           0        2.653440    0.136700   -0.076037
      8          1           0       -2.017671   -1.067270   -0.707727
      9          1           0       -1.127686   -1.109200    1.448516
     10          1           0        0.210002   -2.014530    0.725762
     11          1           0        3.072728   -0.017528   -0.988541
     12          1           0       -2.018849    3.029015   -0.157528
 ---------------------------------------------------------------------

 SCF Done:  E(RHF) =  -322.935583463     A.U. after    2 cycles

 The electronic state is 1-A.
 Alpha  occ. eigenvalues --  -21.07585 -15.79593 -11.51049 -11.46627 -11.44803
 Alpha  occ. eigenvalues --  -11.41540 -11.41076  -1.72202  -1.39186  -1.21809
 Alpha  occ. eigenvalues --   -1.06572  -0.95066  -0.82092  -0.73569  -0.69114
 Alpha  occ. eigenvalues --   -0.63244  -0.62578  -0.57365  -0.53560  -0.47844
 Alpha  occ. eigenvalues --   -0.45067  -0.41268  -0.38826  -0.32581  -0.29515
 Alpha virt. eigenvalues --    0.02963   0.04669   0.05947   0.06500   0.06786
 Alpha virt. eigenvalues --    0.09340   0.09937   0.10647   0.11115   0.11400
 Alpha virt. eigenvalues --    0.12074   0.12866   0.13662   0.13827   0.14830

 Mulliken charges:
               1
     1  O   -2.377533
     2  C   -2.471618
     3  C    1.354966
     4  C    3.856339
     5  C   -3.534632
     6  C    1.824075
     7  N   -3.182276
     8  H    0.777757
     9  H    1.126315
    10  H    1.254319
    11  H    0.758387
    12  H    0.613901
 Sum of Mulliken charges =   0.00000

 Dipole moment (field-independent basis, Debye):
    X=              0.0256    Y=             -0.0356    Z=             -0.8666  Tot=              0.8677

 Test job not archived.
 1\1\GINC-SE219\SP\RHF\Aug-CC-pVDZ\C5H5N1O1\OHZDE\09-Apr-2025\0\\#t hf
 aug-cc-pvdz iop(5/13=1,5/36=2,99/5=2) pseudo=read geom=check guess=(re
 ad,tcheck) scf=(maxcycle=1)\\title\\0,1\O,0,-2.06853219,-0.11895298,-0
 .54559041\C,0,-1.17619384,-0.5390557,0.46012601\C,0,0.26575403,-0.1801
 2914,0.15997687\C,0,0.64466548,1.1936805,0.16511909\C,0,0.89163556,2.3
 6811133,0.17639355\C,0,1.13443244,-1.11533199,-0.16176682\N,0,1.938665
 62,-2.00580373,-0.32974586\H,0,-1.99910151,0.8349314,-0.63317337\H,0,-
 1.44733998,-0.10503241,1.4296507\H,0,-1.27820267,-1.62148749,0.5334587

 Normal termination of Gaussian 16 at Wed Apr  9 19:09:45 2025.
