 Gaussian 16, Revision C.01,

 ----------------------------------------------------------------------
 #t hf aug-cc-pvdz symm=none int=(grid=ultrafine) guess=(read,tcheck) s
 table=(opt,rrhf)
 ----------------------------------------------------------------------
 -----
 title
 -----
 Symbolic Z-matrix:
 Charge =  0 Multiplicity = 1

 SCF Done:  E(RHF) =  -360.901176434     A.U. after   14 cycles
 Normal termination of Gaussian 16 at Wed Apr  9 18:09:17 2025.
 Gaussian 16:  ES64L-G16RevC.01  3-Jul-2019

 ----------------------------------------------------------------------
 #t hf aug-cc-pvdz iop(5/13=1,5/36=2,99/5=2) pseudo=read geom=check gue
 ss=(read,tcheck) scf=(maxcycle=1)
 ----------------------------------------------------------------------
 -----
 title
 -----
 Structure from the checkpoint file:  "Grambow2020_wb97xd3_006616_reverse_mol2.chk"
 Charge =  0 Multiplicity = 1

                         Standard orientation:
 ---------------------------------------------------------------------
 Center     Atomic      Atomic             Coordinates (Angstroms)
 Number     Number       Type             X           Y           Z
 ---------------------------------------------------------------------
      1          6           0       -1.188819    1.626283    0.074584
      2          6           0       -1.513841    0.150519    0.240733
      3          8           0       -1.933945   -0.412249   -0.968559
      4          6           0        2.784179   -0.159688   -0.427595
      5          7           0        2.153129    0.801737    0.091392
      6          6           0       -0.356162   -0.631851    0.811747
      7          8           0        0.031207   -1.652560    0.300398
      8          1           0       -0.862927    2.062515    1.021005
      9          1           0       -2.078092    2.156223   -0.265950
     10          1           0       -0.394277    1.753128   -0.659481
     11          1           0       -2.311530    0.053048    0.999088
     12          1           0       -1.432717   -1.232260   -1.073881
     13          1           0        2.312933   -1.142271   -0.450606
     14          1           0        3.784770   -0.072582   -0.861072
     15          1           0        2.692025    1.665236    0.054267
     16          1           0        0.087678   -0.248301    1.745360
 ---------------------------------------------------------------------

 SCF Done:  E(RHF) =  -362.524550704     A.U. after    2 cycles

 The electronic state is 1-A.
 Alpha  occ. eigenvalues --  -21.06426 -21.05829 -15.75478 -11.49580 -11.44062
 Alpha  occ. eigenvalues --  -11.42466 -11.37179  -1.75406  -1.68075  -1.33847
 Alpha  occ. eigenvalues --   -1.14499  -0.94837  -0.88157  -0.79423  -0.69265
 Alpha  occ. eigenvalues --   -0.68012  -0.64355  -0.59052  -0.57149  -0.53171
 Alpha  occ. eigenvalues --   -0.52314  -0.47430  -0.44045  -0.43424  -0.40824
 Alpha  occ. eigenvalues --   -0.39876  -0.31716  -0.30180
 Alpha virt. eigenvalues --    0.03610   0.04699   0.05198   0.05829   0.06366
 Alpha virt. eigenvalues --    0.06610   0.07497   0.07972   0.08287   0.09986
 Alpha virt. eigenvalues --    0.11022   0.12609   0.13471   0.14084   0.14652

 Mulliken charges:
               1
     1  C   -3.523152
     2  C    0.431578
     3  O   -3.112989
     4  C   -1.190228
     5  N   -2.468142
     6  C    1.163425
     7  O   -2.774386
     8  H    1.286318
     9  H    1.166793
    10  H    1.401849
    11  H    1.518099
    12  H    0.749498
    13  H    1.616154
    14  H    1.404765
    15  H    0.742505
    16  H    1.587911
 Sum of Mulliken charges =  -0.00000

 Dipole moment (field-independent basis, Debye):
    X=              2.1315    Y=              0.6429    Z=              0.0499  Tot=              2.2269

 Test job not archived.
 1\1\GINC-SE162\SP\RHF\Aug-CC-pVDZ\C4H9N1O2\OHZDE\09-Apr-2025\0\\#t hf
 aug-cc-pvdz iop(5/13=1,5/36=2,99/5=2) pseudo=read geom=check guess=(re
 ad,tcheck) scf=(maxcycle=1)\\title\\0,1\C,0,-1.02754772,-0.92124867,-1
 .24860163\C,0,-0.33901743,0.39786036,-1.56005401\O,0,-1.22411986,1.472
 23531,-1.42628099\C,0,0.76436832,0.01783159,2.64161099\N,0,0.53376952,
 -0.91074318,1.81912587\C,0,0.88964414,0.61883559,-0.71155894\O,0,1.067
 59967,1.64955509,-0.11211892\H,0,-0.33396297,-1.7577108,-1.35577858\H,
 0,-1.85882673,-1.06679681,-1.93809136\H,0,-1.40737117,-0.91213,-0.2278

 Normal termination of Gaussian 16 at Wed Apr  9 18:09:22 2025.
