 Gaussian 16, Revision C.01,

 ----------------------------------------------------------------------
 #t hf aug-cc-pvdz symm=none int=(grid=ultrafine) guess=(read,tcheck) s
 table=(opt,rrhf)
 ----------------------------------------------------------------------
 -----
 title
 -----
 Symbolic Z-matrix:
 Charge =  0 Multiplicity = 1

 SCF Done:  E(RHF) =  -267.720012887     A.U. after   14 cycles
 Normal termination of Gaussian 16 at Wed Apr  9 03:20:53 2025.
 Gaussian 16:  ES64L-G16RevC.01  3-Jul-2019

 ----------------------------------------------------------------------
 #t hf aug-cc-pvdz iop(5/13=1,5/36=2,99/5=2) pseudo=read geom=check gue
 ss=(read,tcheck) scf=(maxcycle=1)
 ----------------------------------------------------------------------
 -----
 title
 -----
 Structure from the checkpoint file:  "Grambow2020_wb97xd3_006076_reverse_mol2.chk"
 Charge =  0 Multiplicity = 1

                         Standard orientation:
 ---------------------------------------------------------------------
 Center     Atomic      Atomic             Coordinates (Angstroms)
 Number     Number       Type             X           Y           Z
 ---------------------------------------------------------------------
      1          8           0        2.083889   -0.019977   -0.002076
      2          6           0       -1.258454    0.872458   -0.000315
      3          6           0       -1.469351   -0.616704   -0.002160
      4          6           0       -0.050522   -1.193362    0.002402
      5          6           0        0.880369    0.016538    0.000160
      6          6           0        0.024167    1.224298    0.001533
      7          1           0       -2.091001    1.566583   -0.000045
      8          1           0       -2.045476   -0.921605   -0.879418
      9          1           0       -2.051971   -0.923190    0.870367
     10          1           0        0.164074   -1.799245    0.883648
     11          1           0        0.168150   -1.809142   -0.870768
     12          1           0        0.427848    2.227046    0.003104
 ---------------------------------------------------------------------

 SCF Done:  E(RHF) =  -268.954502992     A.U. after    2 cycles

 The electronic state is 1-A.
 Alpha  occ. eigenvalues --  -21.04042 -11.49277 -11.47089 -11.43523 -11.39604
 Alpha  occ. eigenvalues --  -11.37363  -1.69893  -1.32433  -1.06644  -0.99469
 Alpha  occ. eigenvalues --   -0.82400  -0.75582  -0.66168  -0.65501  -0.54553
 Alpha  occ. eigenvalues --   -0.53298  -0.52694  -0.48714  -0.47291  -0.45983
 Alpha  occ. eigenvalues --   -0.33740  -0.27007
 Alpha virt. eigenvalues --    0.03101   0.04895   0.05425   0.05645   0.06607
 Alpha virt. eigenvalues --    0.06748   0.08956   0.10738   0.11017   0.13157
 Alpha virt. eigenvalues --    0.13481   0.13735   0.14466   0.15140   0.15489

 Mulliken charges:
               1
     1  O   -3.535706
     2  C    0.462089
     3  C   -3.573696
     4  C   -3.726846
     5  C    4.016253
     6  C   -1.677499
     7  H    1.370808
     8  H    1.266630
     9  H    1.263600
    10  H    1.347891
    11  H    1.344806
    12  H    1.441671
 Sum of Mulliken charges =  -0.00000

 Dipole moment (field-independent basis, Debye):
    X=             -2.4683    Y=              0.0001    Z=              0.0019  Tot=              2.4683

 Test job not archived.
 1\1\GINC-SE335\SP\RHF\Aug-CC-pVDZ\C5H6O1\OHZDE\09-Apr-2025\0\\#t hf au
 g-cc-pvdz iop(5/13=1,5/36=2,99/5=2) pseudo=read geom=check guess=(read
 ,tcheck) scf=(maxcycle=1)\\title\\0,1\O,0,1.35787588,-0.93552407,-1.67
 748699\C,0,-0.20756896,-0.32991416,1.34746271\C,0,-0.80156626,0.832834
 39,0.60095901\C,0,-0.20469122,0.71649482,-0.80468546\C,0,0.70140778,-0
 .51132715,-0.76156902\C,0,0.61438447,-1.0684651,0.60729691\H,0,-0.4457
 303,-0.52193829,2.38734245\H,0,-0.54476116,1.77521562,1.09130102\H,0,-
 1.89293172,0.7728017,0.60202323\H,0,-0.95749893,0.56965883,-1.58022413

 Normal termination of Gaussian 16 at Wed Apr  9 03:20:57 2025.
