 Gaussian 16, Revision C.01,

 ----------------------------------------------------------------------
 #t hf aug-cc-pvdz symm=none int=(grid=ultrafine) guess=(read,tcheck) s
 table=(opt,rrhf)
 ----------------------------------------------------------------------
 -----
 title
 -----
 Symbolic Z-matrix:
 Charge =  0 Multiplicity = 1

 SCF Done:  E(RHF) =  -306.601537520     A.U. after   15 cycles
 Normal termination of Gaussian 16 at Wed Apr  9 18:38:36 2025.
 Gaussian 16:  ES64L-G16RevC.01  3-Jul-2019

 ----------------------------------------------------------------------
 #t hf aug-cc-pvdz iop(5/13=1,5/36=2,99/5=2) pseudo=read geom=check gue
 ss=(read,tcheck) scf=(maxcycle=1)
 ----------------------------------------------------------------------
 -----
 title
 -----
 Structure from the checkpoint file:  "Grambow2020_wb97xd3_007355_reverse_mol2.chk"
 Charge =  0 Multiplicity = 1

                         Standard orientation:
 ---------------------------------------------------------------------
 Center     Atomic      Atomic             Coordinates (Angstroms)
 Number     Number       Type             X           Y           Z
 ---------------------------------------------------------------------
      1          6           0       -1.120816   -0.609429   -0.892196
      2          6           0       -1.839056   -0.714476    0.397172
      3          6           0       -0.732436    0.314890    0.332645
      4          6           0        0.592161   -0.010213    1.007221
      5          6           0        1.747823    0.323103    0.092365
      6          8           0        2.308931   -0.512594   -0.565183
      7          6           0       -0.886729    1.528549   -0.370362
      8          1           0       -0.317222   -1.295336   -1.129285
      9          1           0       -1.625683   -0.190809   -1.752047
     10          1           0       -2.854348   -0.341017    0.428358
     11          1           0       -1.647271   -1.584474    1.013097
     12          1           0        0.660552    0.576624    1.926405
     13          1           0        0.653956   -1.069089    1.264243
     14          1           0        2.038818    1.385786    0.031514
     15          1           0       -1.945929    1.624524   -0.661888
 ---------------------------------------------------------------------

 SCF Done:  E(RHF) =  -308.026478265     A.U. after    2 cycles

 The electronic state is 1-A.
 Alpha  occ. eigenvalues --  -21.05917 -11.49095 -11.46742 -11.45245 -11.41490
 Alpha  occ. eigenvalues --  -11.41007 -11.38511  -1.70937  -1.38979  -1.11666
 Alpha  occ. eigenvalues --   -0.98781  -0.89839  -0.83798  -0.76856  -0.67152
 Alpha  occ. eigenvalues --   -0.66055  -0.63213  -0.56544  -0.54074  -0.51377
 Alpha  occ. eigenvalues --   -0.50345  -0.47034  -0.42555  -0.40343  -0.33204
 Alpha  occ. eigenvalues --   -0.28217
 Alpha virt. eigenvalues --    0.03728   0.04698   0.05171   0.05266   0.05786
 Alpha virt. eigenvalues --    0.06573   0.06951   0.07644   0.09817   0.09938
 Alpha virt. eigenvalues --    0.11491   0.11915   0.12947   0.13258   0.13902

 Mulliken charges:
               1
     1  C   -2.222895
     2  C   -2.707027
     3  C    2.730373
     4  C   -3.967572
     5  C    1.601847
     6  O   -2.834543
     7  C   -3.160933
     8  H    1.378795
     9  H    1.310786
    10  H    1.144824
    11  H    1.348817
    12  H    1.343373
    13  H    1.322501
    14  H    1.633272
    15  H    1.078380
 Sum of Mulliken charges =  -0.00000

 Dipole moment (field-independent basis, Debye):
    X=             -2.4079    Y=             -2.2273    Z=              1.1279  Tot=              3.4686

 Test job not archived.
 1\1\GINC-SE232\SP\RHF\Aug-CC-pVDZ\C6H8O1\OHZDE\09-Apr-2025\0\\#t hf au
 g-cc-pvdz iop(5/13=1,5/36=2,99/5=2) pseudo=read geom=check guess=(read
 ,tcheck) scf=(maxcycle=1)\\title\\0,1\C,0,-1.06071448,0.61150265,-0.65
 255096\C,0,-1.63059823,-0.23921796,0.41556906\C,0,-0.1727762,0.1347922
 ,0.56800304\C,0,0.87718902,-0.91813101,0.24515913\C,0,1.96941536,-0.32
 931615,-0.61736945\O,0,1.99733352,-0.47841206,-1.81009331\C,0,0.225020
 36,1.43346682,0.95035767\H,0,-0.71442305,0.16993621,-1.57858798\H,0,-1
 .36725935,1.64550658,-0.73219417\H,0,-2.32988082,0.22698293,1.09742121

 Normal termination of Gaussian 16 at Wed Apr  9 18:38:41 2025.
