 Gaussian 16, Revision C.01,

 ----------------------------------------------------------------------
 #t hf aug-cc-pvdz symm=none int=(grid=ultrafine) guess=(read,tcheck) s
 table=(opt,rrhf)
 ----------------------------------------------------------------------
 -----
 title
 -----
 Symbolic Z-matrix:
 Charge =  0 Multiplicity = 1

 SCF Done:  E(RHF) =  -286.857771974     A.U. after   14 cycles
 Normal termination of Gaussian 16 at Wed Apr  9 18:42:39 2025.
 Gaussian 16:  ES64L-G16RevC.01  3-Jul-2019

 ----------------------------------------------------------------------
 #t hf aug-cc-pvdz iop(5/13=1,5/36=2,99/5=2) pseudo=read geom=check gue
 ss=(read,tcheck) scf=(maxcycle=1)
 ----------------------------------------------------------------------
 -----
 title
 -----
 Structure from the checkpoint file:  "Grambow2020_wb97xd3_007561_reverse_mol2.chk"
 Charge =  0 Multiplicity = 1

                         Standard orientation:
 ---------------------------------------------------------------------
 Center     Atomic      Atomic             Coordinates (Angstroms)
 Number     Number       Type             X           Y           Z
 ---------------------------------------------------------------------
      1          6           0       -1.309338   -0.946805   -1.060280
      2          6           0       -1.199746   -0.017232    0.118590
      3          6           0        2.373265   -0.993589    0.275485
      4          6           0        1.698503    0.087947    0.019728
      5          6           0        1.012455    1.162539   -0.237024
      6          6           0       -0.488405    1.291667   -0.120346
      7          7           0       -1.668127   -0.240863    1.273181
      8          1           0       -0.331853   -1.112905   -1.516162
      9          1           0       -1.951583   -0.499952   -1.823948
     10          1           0       -1.732155   -1.908456   -0.770015
     11          1           0        2.599205   -1.711960   -0.504609
     12          1           0        2.731649   -1.204890    1.276269
     13          1           0        1.554352    2.056593   -0.532969
     14          1           0       -0.727027    1.961193    0.708174
     15          1           0       -0.869395    1.754406   -1.037115
     16          1           0       -2.116711   -1.155147    1.311186
 ---------------------------------------------------------------------

 SCF Done:  E(RHF) =  -288.260280728     A.U. after    2 cycles

 The electronic state is 1-A.
 Alpha  occ. eigenvalues --  -15.72499 -11.46769 -11.43809 -11.42482 -11.40474
 Alpha  occ. eigenvalues --  -11.38941 -11.37400  -1.37150  -1.21736  -1.09756
 Alpha  occ. eigenvalues --   -1.05556  -0.95088  -0.78236  -0.69926  -0.64686
 Alpha  occ. eigenvalues --   -0.63348  -0.60656  -0.59797  -0.57887  -0.54305
 Alpha  occ. eigenvalues --   -0.53166  -0.47837  -0.39508  -0.37066  -0.35236
 Alpha  occ. eigenvalues --   -0.34672
 Alpha virt. eigenvalues --    0.03112   0.05113   0.05365   0.05509   0.06099
 Alpha virt. eigenvalues --    0.06432   0.06998   0.07184   0.07543   0.10389
 Alpha virt. eigenvalues --    0.11244   0.11995   0.12484   0.13166   0.13968

 Mulliken charges:
               1
     1  C   -4.775498
     2  C    3.714512
     3  C   -4.758765
     4  C    2.820201
     5  C   -0.753090
     6  C   -3.673093
     7  N   -3.660435
     8  H    1.478692
     9  H    1.185294
    10  H    1.377206
    11  H    1.248592
    12  H    1.255959
    13  H    1.227510
    14  H    1.316871
    15  H    1.327480
    16  H    0.668564
 Sum of Mulliken charges =  -0.00000

 Dipole moment (field-independent basis, Debye):
    X=              0.1724    Y=             -0.5710    Z=             -1.7146  Tot=              1.8153

 Test job not archived.
 1\1\GINC-SE454\SP\RHF\Aug-CC-pVDZ\C6H9N1\OHZDE\09-Apr-2025\0\\#t hf au
 g-cc-pvdz iop(5/13=1,5/36=2,99/5=2) pseudo=read geom=check guess=(read
 ,tcheck) scf=(maxcycle=1)\\title\\0,1\C,0,-0.90247911,1.47395747,0.667
 89294\C,0,-0.98314491,-0.00667054,0.92689725\C,0,1.19207297,-0.4216955
 2,-2.04639775\C,0,1.28979779,-0.62857013,-0.76651946\C,0,1.37644573,-0
 .82845869,0.51561468\C,0,0.24890393,-0.65656365,1.50655963\N,0,-1.9980
 4145,-0.73278585,0.7142611\H,0,-0.01905396,1.71703877,0.07513065\H,0,-
 0.81399878,2.01011544,1.61660315\H,0,-1.78866945,1.83491151,0.14618586

 Normal termination of Gaussian 16 at Wed Apr  9 18:42:44 2025.
