 Gaussian 16, Revision C.01,

 ----------------------------------------------------------------------
 #t hf aug-cc-pvdz symm=none int=(grid=ultrafine) guess=(read,tcheck) s
 table=(opt,rrhf)
 ----------------------------------------------------------------------
 -----
 title
 -----
 Symbolic Z-matrix:
 Charge =  0 Multiplicity = 1

 SCF Done:  E(RHF) =  -359.608133350     A.U. after   16 cycles
 Normal termination of Gaussian 16 at Wed Apr  9 18:34:28 2025.
 Gaussian 16:  ES64L-G16RevC.01  3-Jul-2019

 ----------------------------------------------------------------------
 #t hf aug-cc-pvdz iop(5/13=1,5/36=2,99/5=2) pseudo=read geom=check gue
 ss=(read,tcheck) scf=(maxcycle=1)
 ----------------------------------------------------------------------
 -----
 title
 -----
 Structure from the checkpoint file:  "Grambow2020_wb97xd3_007282_forward_mol1.chk"
 Charge =  0 Multiplicity = 1

                         Standard orientation:
 ---------------------------------------------------------------------
 Center     Atomic      Atomic             Coordinates (Angstroms)
 Number     Number       Type             X           Y           Z
 ---------------------------------------------------------------------
      1          8           0       -1.989473   -0.326194   -0.527596
      2          6           0       -1.086821   -0.611127    0.473463
      3          6           0       -0.177202   -1.611354    0.264517
      4          7           0        1.737891   -0.854453   -0.392616
      5          6           0        1.931821    0.361215    0.063140
      6          6           0        0.108959    1.118082    0.374410
      7          8           0       -0.418864    2.030580   -0.079861
      8          1           0       -2.260031    0.594433   -0.464370
      9          1           0       -1.401595   -0.365648    1.483820
     10          1           0        0.306485   -2.070649    1.111317
     11          1           0       -0.220227   -2.185620   -0.649641
     12          1           0        1.538732   -0.824288   -1.390127
     13          1           0        2.148844    1.194002   -0.606793
     14          1           0        2.328714    0.462949    1.070582
 ---------------------------------------------------------------------

 SCF Done:  E(RHF) =  -361.261074246     A.U. after    2 cycles

 The electronic state is 1-A.
 Alpha  occ. eigenvalues --  -21.14190 -21.08622 -15.72982 -11.49788 -11.46093
 Alpha  occ. eigenvalues --  -11.42497 -11.39270  -1.78748  -1.73317  -1.32990
 Alpha  occ. eigenvalues --   -1.10992  -0.92483  -0.83074  -0.74371  -0.69745
 Alpha  occ. eigenvalues --   -0.66473  -0.60435  -0.58748  -0.56602  -0.54907
 Alpha  occ. eigenvalues --   -0.52650  -0.50267  -0.44513  -0.40870  -0.37241
 Alpha  occ. eigenvalues --   -0.34538  -0.25956
 Alpha virt. eigenvalues --    0.03820   0.05270   0.05831   0.06070   0.06232
 Alpha virt. eigenvalues --    0.06665   0.07199   0.08955   0.11674   0.12475
 Alpha virt. eigenvalues --    0.12583   0.13025   0.13411   0.13774   0.14392

 Mulliken charges:
               1
     1  O   -3.123265
     2  C    0.789342
     3  C   -2.729394
     4  N   -1.992271
     5  C   -1.665300
     6  C    2.605739
     7  O   -2.318169
     8  H    0.826725
     9  H    1.509563
    10  H    1.327564
    11  H    1.343001
    12  H    0.651112
    13  H    1.339593
    14  H    1.435759
 Sum of Mulliken charges =   0.00000

 Dipole moment (field-independent basis, Debye):
    X=             -0.5796    Y=              1.8302    Z=             -0.2305  Tot=              1.9336

 Test job not archived.
 1\1\GINC-SE112\SP\RHF\Aug-CC-pVDZ\C4H7N1O2\OHZDE\09-Apr-2025\0\\#t hf
 aug-cc-pvdz iop(5/13=1,5/36=2,99/5=2) pseudo=read geom=check guess=(re
 ad,tcheck) scf=(maxcycle=1)\\title\\0,1\O,0,2.24490846,-0.01024886,-0.
 39180688\C,0,1.18622761,0.29939089,0.43366448\C,0,0.38800035,1.3588201
 1,0.09905559\N,0,-1.40666655,0.73952067,-0.93435752\C,0,-1.74876483,-0
 .47502036,-0.57237908\C,0,-0.06123479,-1.35021057,0.04312882\O,0,0.492
 65072,-2.27931806,-0.34103551\H,0,2.44836683,-0.94709081,-0.31641066\H
 ,0,1.29074355,0.00551271,1.47427773\H,0,-0.22130169,1.82149342,0.85843

 Normal termination of Gaussian 16 at Wed Apr  9 18:34:32 2025.
