 Gaussian 16, Revision C.01,

 ----------------------------------------------------------------------
 #t hf aug-cc-pvdz symm=none int=(grid=ultrafine) guess=(read,tcheck) s
 table=(opt,rrhf)
 ----------------------------------------------------------------------
 -----
 title
 -----
 Symbolic Z-matrix:
 Charge =  0 Multiplicity = 1

 SCF Done:  E(RHF) =  -304.667809688     A.U. after   12 cycles
 Normal termination of Gaussian 16 at Wed Apr  9 17:40:31 2025.
 Gaussian 16:  ES64L-G16RevC.01  3-Jul-2019

 ----------------------------------------------------------------------
 #t hf aug-cc-pvdz iop(5/13=1,5/36=2,99/5=2) pseudo=read geom=check gue
 ss=(read,tcheck) scf=(maxcycle=1)
 ----------------------------------------------------------------------
 -----
 title
 -----
 Structure from the checkpoint file:  "Grambow2020_wb97xd3_006103_forward_mol2.chk"
 Charge =  0 Multiplicity = 1

                         Standard orientation:
 ---------------------------------------------------------------------
 Center     Atomic      Atomic             Coordinates (Angstroms)
 Number     Number       Type             X           Y           Z
 ---------------------------------------------------------------------
      1          6           0       -0.664063    1.162000    0.108761
      2          8           0       -1.345385    0.000228   -0.332499
      3          6           0       -0.664687   -1.161765    0.108724
      4          6           0        0.752574   -0.727011    0.368890
      5          8           0        1.316959   -0.000591   -0.712417
      6          6           0        0.753283    0.727203    0.368083
      7          1           0       -0.748784    1.917555   -0.674649
      8          1           0       -1.101400    1.557333    1.035854
      9          1           0       -1.102753   -1.557127    1.035484
     10          1           0       -0.747892   -1.917414   -0.674800
     11          1           0        1.432330   -1.334729    0.955739
     12          1           0        1.433275    1.334718    0.954950
 ---------------------------------------------------------------------

 SCF Done:  E(RHF) =  -306.017138890     A.U. after    2 cycles

 The electronic state is 1-A.
 Alpha  occ. eigenvalues --  -21.06397 -21.04468 -11.54093 -11.44924 -11.43768
 Alpha  occ. eigenvalues --  -11.39669  -1.83877  -1.72156  -1.09105  -1.07595
 Alpha  occ. eigenvalues --   -0.85696  -0.84661  -0.75245  -0.65491  -0.61406
 Alpha  occ. eigenvalues --   -0.58138  -0.51833  -0.51110  -0.43797  -0.41420
 Alpha  occ. eigenvalues --   -0.36992  -0.30409  -0.29833
 Alpha virt. eigenvalues --    0.03710   0.04434   0.05491   0.05657   0.06507
 Alpha virt. eigenvalues --    0.06517   0.10328   0.10901   0.11693   0.12349
 Alpha virt. eigenvalues --    0.13620   0.14618   0.14694   0.14964   0.15487

 Mulliken charges:
               1
     1  C   -1.113699
     2  O   -2.907331
     3  C   -1.114767
     4  C   -0.236080
     5  O   -2.867798
     6  C   -0.238968
     7  H    1.353072
     8  H    1.401129
     9  H    1.400589
    10  H    1.352892
    11  H    1.485241
    12  H    1.485719
 Sum of Mulliken charges =   0.00000

 Dipole moment (field-independent basis, Debye):
    X=              0.5211    Y=             -0.0000    Z=              0.7055  Tot=              0.8771

 Test job not archived.
 1\1\GINC-SE029\SP\RHF\Aug-CC-pVDZ\C4H6O2\OHZDE\09-Apr-2025\0\\#t hf au
 g-cc-pvdz iop(5/13=1,5/36=2,99/5=2) pseudo=read geom=check guess=(read
 ,tcheck) scf=(maxcycle=1)\\title\\0,1\C,0,-1.28975074,-0.25513956,-0.0
 2252954\O,0,-0.84824234,1.0383037,-0.39762846\C,0,0.55700365,1.0401469
 7,-0.58075454\C,0,1.07071974,-0.13074102,0.21324965\O,0,0.57739763,-0.
 15725049,1.54417852\C,0,-0.08498114,-0.94097948,0.56340404\H,0,-2.1089
 4724,-0.13588041,0.68913496\H,0,-1.64972861,-0.82488849,-0.89020182\H,
 0,0.82504907,0.91161903,-1.63845418\H,0,0.93986844,2.00078355,-0.23085

 Normal termination of Gaussian 16 at Wed Apr  9 17:40:35 2025.
