 Gaussian 16, Revision C.01,

 ----------------------------------------------------------------------
 #t hf aug-cc-pvdz symm=none int=(grid=ultrafine) guess=(read,tcheck) s
 table=(opt,rrhf)
 ----------------------------------------------------------------------
 -----
 title
 -----
 Symbolic Z-matrix:
 Charge =  0 Multiplicity = 1

 SCF Done:  E(RHF) =  -343.560637037     A.U. after   16 cycles
 Normal termination of Gaussian 16 at Wed Apr  9 18:31:31 2025.
 Gaussian 16:  ES64L-G16RevC.01  3-Jul-2019

 ----------------------------------------------------------------------
 #t hf aug-cc-pvdz iop(5/13=1,5/36=2,99/5=2) pseudo=read geom=check gue
 ss=(read,tcheck) scf=(maxcycle=1)
 ----------------------------------------------------------------------
 -----
 title
 -----
 Structure from the checkpoint file:  "Grambow2020_wb97xd3_007218_reverse_mol1.chk"
 Charge =  0 Multiplicity = 1

                         Standard orientation:
 ---------------------------------------------------------------------
 Center     Atomic      Atomic             Coordinates (Angstroms)
 Number     Number       Type             X           Y           Z
 ---------------------------------------------------------------------
      1          8           0        2.287190   -0.068374   -0.509544
      2          6           0        1.596004   -0.932038    0.058250
      3          6           0       -0.207641    0.080092    1.018352
      4          6           0       -0.210230    1.367511    0.482265
      5          6           0       -1.099242    0.997771   -0.705085
      6          6           0       -1.168362   -0.379622   -0.005699
      7          8           0       -1.816947   -1.367022   -0.197634
      8          1           0        1.710818    1.210842   -0.396458
      9          1           0        1.864353   -1.276219    1.063551
     10          1           0        0.935796   -1.584897   -0.523365
     11          1           0        0.003363   -0.267599    2.019899
     12          1           0       -0.162641    2.314846    1.004297
     13          1           0        1.109911    1.762905   -0.161430
     14          1           0       -0.622687    1.016549   -1.686426
     15          1           0       -2.064033    1.504459   -0.751146
 ---------------------------------------------------------------------

 SCF Done:  E(RHF) =  -345.166655613     A.U. after    2 cycles

 The electronic state is 1-A.
 Alpha  occ. eigenvalues --  -21.07143 -21.04659 -11.54638 -11.49038 -11.48158
 Alpha  occ. eigenvalues --  -11.42376 -11.40176  -1.72876  -1.70283  -1.34129
 Alpha  occ. eigenvalues --   -0.99397  -0.94110  -0.89743  -0.75132  -0.71428
 Alpha  occ. eigenvalues --   -0.67116  -0.64954  -0.59748  -0.58662  -0.53522
 Alpha  occ. eigenvalues --   -0.49962  -0.47282  -0.46051  -0.40788  -0.32685
 Alpha  occ. eigenvalues --   -0.31480  -0.27805
 Alpha virt. eigenvalues --    0.03392   0.04062   0.04957   0.05864   0.06329
 Alpha virt. eigenvalues --    0.06927   0.07335   0.08436   0.10405   0.11180
 Alpha virt. eigenvalues --    0.11374   0.12046   0.13204   0.13543   0.13800

 Mulliken charges:
               1
     1  O   -2.765687
     2  C   -0.371715
     3  C   -2.193106
     4  C   -0.837669
     5  C   -3.524553
     6  C    4.235039
     7  O   -3.355642
     8  H    1.282259
     9  H    1.353356
    10  H    1.378267
    11  H    1.253500
    12  H    1.262104
    13  H   -0.389138
    14  H    1.385191
    15  H    1.287794
 Sum of Mulliken charges =  -0.00000

 Dipole moment (field-independent basis, Debye):
    X=              0.6500    Y=              1.6131    Z=              0.7975  Tot=              1.9133

 Test job not archived.
 1\1\GINC-SE028\SP\RHF\Aug-CC-pVDZ\C5H8O2\OHZDE\09-Apr-2025\0\\#t hf au
 g-cc-pvdz iop(5/13=1,5/36=2,99/5=2) pseudo=read geom=check guess=(read
 ,tcheck) scf=(maxcycle=1)\\title\\0,1\O,0,2.07664924,0.16832093,-0.957
 54607\C,0,1.69865265,-0.82985226,-0.31972839\C,0,-0.15580096,-0.276413
 99,0.88610895\C,0,-0.54386403,0.96301046,0.37809371\C,0,-1.46318943,0.
 36910085,-0.68912685\C,0,-1.10055144,-0.97269102,-0.0114699\O,0,-1.507
 03948,-2.09165806,-0.13451288\H,0,1.22459917,1.26883098,-0.74713455\H,
 0,2.17265145,-1.0828117,0.63548854\H,0,1.14794536,-1.63315222,-0.82153

 Normal termination of Gaussian 16 at Wed Apr  9 18:31:36 2025.
