 Gaussian 16, Revision C.01,

 ----------------------------------------------------------------------
 #t hf aug-cc-pvdz symm=none int=(grid=ultrafine) guess=(read,tcheck) s
 table=(opt,rrhf)
 ----------------------------------------------------------------------
 -----
 title
 -----
 Symbolic Z-matrix:
 Charge =  0 Multiplicity = 1

 SCF Done:  E(RHF) =  -338.746456728     A.U. after   14 cycles
 Normal termination of Gaussian 16 at Wed Apr  9 19:13:54 2025.
 Gaussian 16:  ES64L-G16RevC.01  3-Jul-2019

 ----------------------------------------------------------------------
 #t hf aug-cc-pvdz iop(5/13=1,5/36=2,99/5=2) pseudo=read geom=check gue
 ss=(read,tcheck) scf=(maxcycle=1)
 ----------------------------------------------------------------------
 -----
 title
 -----
 Structure from the checkpoint file:  "Grambow2020_wb97xd3_008463_forward_mol2.chk"
 Charge =  0 Multiplicity = 1

                         Standard orientation:
 ---------------------------------------------------------------------
 Center     Atomic      Atomic             Coordinates (Angstroms)
 Number     Number       Type             X           Y           Z
 ---------------------------------------------------------------------
      1          7           0       -1.580970   -1.378618   -0.002789
      2          6           0       -0.410629   -0.597579   -0.000678
      3          6           0       -0.190179    0.755445    0.000739
      4          8           0       -1.199806    1.674750    0.004607
      5          6           0        1.208765    0.979470    0.001288
      6          6           0        1.805054   -0.258088   -0.000569
      7          7           0        0.826659   -1.196894   -0.001185
      8          1           0       -2.159170   -1.185012   -0.808342
      9          1           0       -2.137751   -1.224991    0.826334
     10          1           0       -0.818893    2.552499   -0.033515
     11          1           0        1.718459    1.931016    0.006924
     12          1           0        2.848508   -0.526219    0.001513
     13          1           0        0.949411   -2.192197   -0.006631
 ---------------------------------------------------------------------

 SCF Done:  E(RHF) =  -340.288986702     A.U. after    2 cycles

 The electronic state is 1-A.
 Alpha  occ. eigenvalues --  -21.08990 -15.77478 -15.74632 -11.46934 -11.42179
 Alpha  occ. eigenvalues --  -11.40420 -11.35530  -1.74104  -1.50101  -1.30260
 Alpha  occ. eigenvalues --   -1.11311  -1.00469  -0.82293  -0.77055  -0.72319
 Alpha  occ. eigenvalues --   -0.66160  -0.58973  -0.55971  -0.55885  -0.54706
 Alpha  occ. eigenvalues --   -0.54099  -0.44141  -0.41730  -0.36304  -0.29981
 Alpha  occ. eigenvalues --   -0.24085
 Alpha virt. eigenvalues --    0.03629   0.05122   0.05624   0.05999   0.06618
 Alpha virt. eigenvalues --    0.06951   0.10785   0.11485   0.12329   0.13356
 Alpha virt. eigenvalues --    0.14319   0.14398   0.14674   0.14871   0.15758

 Mulliken charges:
               1
     1  N   -3.239447
     2  C    1.456362
     3  C    6.664904
     4  O   -4.297748
     5  C   -2.779649
     6  C    0.327170
     7  N   -3.424925
     8  H    0.373520
     9  H    0.370135
    10  H    1.021222
    11  H    1.393068
    12  H    1.310101
    13  H    0.825288
 Sum of Mulliken charges =  -0.00000

 Dipole moment (field-independent basis, Debye):
    X=              0.1525    Y=             -0.4820    Z=              0.0018  Tot=              0.5055

 Test job not archived.
 1\1\GINC-SE115\SP\RHF\Aug-CC-pVDZ\C4H6N2O1\OHZDE\09-Apr-2025\0\\#t hf
 aug-cc-pvdz iop(5/13=1,5/36=2,99/5=2) pseudo=read geom=check guess=(re
 ad,tcheck) scf=(maxcycle=1)\\title\\0,1\N,0,1.92183953,0.88296371,-0.0
 4077926\C,0,0.59603136,0.41205992,-0.02640054\C,0,0.05032904,-0.839940
 33,0.09182892\O,0,0.8029552,-1.9700507,0.23635159\C,0,-1.36025889,-0.7
 1846624,0.03967555\C,0,-1.63430989,0.61915969,-0.1112134\N,0,-0.455824
 78,1.28874109,-0.14923593\H,0,2.45724689,0.47209427,-0.79260336\H,0,2.
 4003661,0.68745672,0.8274606\H,0,0.21950984,-2.72895978,0.26166113\H,0

 Normal termination of Gaussian 16 at Wed Apr  9 19:13:58 2025.
