 Gaussian 16, Revision C.01,

 ----------------------------------------------------------------------
 #t hf aug-cc-pvdz symm=none int=(grid=ultrafine) guess=(read,tcheck) s
 table=(opt,rrhf)
 ----------------------------------------------------------------------
 -----
 title
 -----
 Symbolic Z-matrix:
 Charge =  0 Multiplicity = 1

 SCF Done:  E(RHF) =  -343.726756357     A.U. after   13 cycles
 Normal termination of Gaussian 16 at Wed Apr  9 18:26:44 2025.
 Gaussian 16:  ES64L-G16RevC.01  3-Jul-2019

 ----------------------------------------------------------------------
 #t hf aug-cc-pvdz iop(5/13=1,5/36=2,99/5=2) pseudo=read geom=check gue
 ss=(read,tcheck) scf=(maxcycle=1)
 ----------------------------------------------------------------------
 -----
 title
 -----
 Structure from the checkpoint file:  "Grambow2020_wb97xd3_007142_forward_mol2.chk"
 Charge =  0 Multiplicity = 1

                         Standard orientation:
 ---------------------------------------------------------------------
 Center     Atomic      Atomic             Coordinates (Angstroms)
 Number     Number       Type             X           Y           Z
 ---------------------------------------------------------------------
      1          8           0       -0.407195    1.354929   -0.660107
      2          6           0       -0.604438    0.054657   -0.195013
      3          6           0        0.499684   -0.900173   -0.571598
      4          6           0        1.843892   -0.506626   -0.024989
      5          8           0        2.069289    0.523886    0.553947
      6          6           0       -2.017315   -0.410055   -0.195528
      7          6           0       -1.318729   -0.122894    1.110849
      8          1           0        0.359138    1.699127   -0.187410
      9          1           0        0.283816   -1.919720   -0.236317
     10          1           0        0.602150   -0.957178   -1.662937
     11          1           0        2.662167   -1.235221   -0.197207
     12          1           0       -2.225468   -1.439838   -0.457268
     13          1           0       -2.752790    0.307249   -0.533038
     14          1           0       -1.599978    0.780635    1.634120
     15          1           0       -1.044357   -0.955031    1.747018
 ---------------------------------------------------------------------

 SCF Done:  E(RHF) =  -345.283429947     A.U. after    2 cycles

 The electronic state is 1-A.
 Alpha  occ. eigenvalues --  -21.07407 -21.06357 -11.49901 -11.46213 -11.42611
 Alpha  occ. eigenvalues --  -11.41181 -11.36726  -1.74251  -1.70942  -1.28769
 Alpha  occ. eigenvalues --   -1.12335  -0.87711  -0.86421  -0.78050  -0.67904
 Alpha  occ. eigenvalues --   -0.67323  -0.63751  -0.59191  -0.55531  -0.52402
 Alpha  occ. eigenvalues --   -0.51111  -0.45963  -0.43894  -0.41436  -0.38106
 Alpha  occ. eigenvalues --   -0.30878  -0.29549
 Alpha virt. eigenvalues --    0.03636   0.04714   0.05063   0.05438   0.05867
 Alpha virt. eigenvalues --    0.06755   0.07103   0.07871   0.10035   0.11568
 Alpha virt. eigenvalues --    0.12309   0.12687   0.13684   0.14366   0.14513

 Mulliken charges:
               1
     1  O   -3.722551
     2  C    5.568583
     3  C   -4.283049
     4  C    1.371174
     5  O   -2.753576
     6  C   -3.377457
     7  C   -2.887302
     8  H    0.732676
     9  H    1.490755
    10  H    1.377553
    11  H    1.447799
    12  H    1.301502
    13  H    1.178804
    14  H    1.199823
    15  H    1.355267
 Sum of Mulliken charges =  -0.00000

 Dipole moment (field-independent basis, Debye):
    X=             -0.1041    Y=             -1.2385    Z=             -0.0179  Tot=              1.2430

 Test job not archived.
 1\1\GINC-SE162\SP\RHF\Aug-CC-pVDZ\C5H8O2\OHZDE\09-Apr-2025\0\\#t hf au
 g-cc-pvdz iop(5/13=1,5/36=2,99/5=2) pseudo=read geom=check guess=(read
 ,tcheck) scf=(maxcycle=1)\\title\\0,1\O,0,0.04481114,-0.74043307,-1.50
 511823\C,0,-0.30177713,-0.27601849,-0.23621229\C,0,0.80033994,-0.41191
 543,0.7833309\C,0,2.04213888,0.3580385,0.42884062\O,0,2.21298686,0.933
 60475,-0.61397204\C,0,-1.71370393,-0.51960596,0.16291977\C,0,-1.249193
 75,0.88221652,-0.14728755\H,0,0.72990242,-0.14723428,-1.83366968\H,0,0
 .47379661,-0.08785888,1.77673178\H,0,1.09567798,-1.46352136,0.89136004

 Normal termination of Gaussian 16 at Wed Apr  9 18:26:49 2025.
