 Gaussian 16, Revision C.01,

 ----------------------------------------------------------------------
 #t hf aug-cc-pvdz symm=none int=(grid=ultrafine) guess=(read,tcheck) s
 table=(opt,rrhf)
 ----------------------------------------------------------------------
 -----
 title
 -----
 Symbolic Z-matrix:
 Charge =  0 Multiplicity = 1

 SCF Done:  E(RHF) =  -270.741000089     A.U. after   15 cycles
 Normal termination of Gaussian 16 at Wed Apr  9 03:53:52 2025.
 Gaussian 16:  ES64L-G16RevC.01  3-Jul-2019

 ----------------------------------------------------------------------
 #t hf aug-cc-pvdz iop(5/13=1,5/36=2,99/5=2) pseudo=read geom=check gue
 ss=(read,tcheck) scf=(maxcycle=1)
 ----------------------------------------------------------------------
 -----
 title
 -----
 Structure from the checkpoint file:  "Grambow2020_wb97xd3_008382_reverse_mol2.chk"
 Charge =  0 Multiplicity = 1

                         Standard orientation:
 ---------------------------------------------------------------------
 Center     Atomic      Atomic             Coordinates (Angstroms)
 Number     Number       Type             X           Y           Z
 ---------------------------------------------------------------------
      1          6           0        2.116655   -0.797192    0.323100
      2          6           0       -1.116662   -0.726798    0.701292
      3          6           0       -1.890365    0.482080    0.685028
      4          6           0       -0.728452    0.459259   -0.461357
      5          6           0       -1.044715   -1.117201   -0.678138
      6          6           0        0.593720    1.129284   -0.332012
      7          6           0        1.781434    0.618973   -0.023779
      8          1           0        2.394378   -1.361903   -0.572395
      9          1           0        2.973891   -0.830558    0.996849
     10          1           0        1.271865   -1.290886    0.804408
     11          1           0       -1.782016    1.164868    1.522491
     12          1           0       -2.846834    0.577691    0.159053
     13          1           0       -1.285331    0.885208   -1.291432
     14          1           0       -0.241210   -1.781885   -0.981969
     15          1           0       -1.918486   -1.164361   -1.337507
     16          1           0        0.551542    2.192248   -0.556640
     17          1           0        2.612513    1.319154   -0.027663
 ---------------------------------------------------------------------

 SCF Done:  E(RHF) =  -272.102080150     A.U. after    2 cycles

 The electronic state is 1-A.
 Alpha  occ. eigenvalues --  -11.47901 -11.43972 -11.42784 -11.41459 -11.38771
 Alpha  occ. eigenvalues --  -11.37344 -11.36057  -1.39381  -1.18546  -1.02007
 Alpha  occ. eigenvalues --   -0.98563  -0.88536  -0.78682  -0.74535  -0.66384
 Alpha  occ. eigenvalues --   -0.62579  -0.58183  -0.55760  -0.53282  -0.51756
 Alpha  occ. eigenvalues --   -0.49874  -0.47708  -0.44901  -0.43215  -0.32779
 Alpha  occ. eigenvalues --   -0.29247
 Alpha virt. eigenvalues --    0.03967   0.05044   0.05312   0.05334   0.05589
 Alpha virt. eigenvalues --    0.06041   0.06869   0.07184   0.08206   0.08648
 Alpha virt. eigenvalues --    0.10353   0.11205   0.12577   0.12738   0.13780

 Mulliken charges:
               1
     1  C   -4.753260
     2  C   -0.256941
     3  C   -2.934590
     4  C   -0.476671
     5  C   -2.674964
     6  C   -1.334248
     7  C   -0.462702
     8  H    1.174052
     9  H    1.034713
    10  H    1.559320
    11  H    1.556313
    12  H    1.214290
    13  H    1.012000
    14  H    1.659341
    15  H    1.062288
    16  H    1.254794
    17  H    1.366265
 Sum of Mulliken charges =  -0.00000

 Dipole moment (field-independent basis, Debye):
    X=             -0.7789    Y=              0.8545    Z=             -1.6862  Tot=              2.0446

 Test job not archived.
 1\1\GINC-SE247\SP\RHF\Aug-CC-pVDZ\C7H10\OHZDE\09-Apr-2025\0\\#t hf aug
 -cc-pvdz iop(5/13=1,5/36=2,99/5=2) pseudo=read geom=check guess=(read,
 tcheck) scf=(maxcycle=1)\\title\\0,1\C,0,1.85937604,1.20729478,-0.2614
 0082\C,0,0.15062163,-1.51820369,0.2427208\C,0,-1.07002615,-1.5602801,0
 .99671928\C,0,-0.9791085,-0.2613079,0.01225646\C,0,-0.27219098,-1.2136
 6562,-1.09477811\C,0,-0.57735377,1.10168336,0.45344781\C,0,0.58864536,
 1.72769705,0.3324404\H,0,1.91531932,1.44311533,-1.32873282\H,0,2.72125
 435,1.67893199,0.21254794\H,0,1.93539635,0.12703341,-0.13366427\H,0,-1

 Normal termination of Gaussian 16 at Wed Apr  9 03:53:58 2025.
