 Gaussian 16, Revision C.01,

 ----------------------------------------------------------------------
 #t hf aug-cc-pvdz symm=none int=(grid=ultrafine) guess=(read,tcheck) s
 table=(opt,rrhf)
 ----------------------------------------------------------------------
 -----
 title
 -----
 Symbolic Z-matrix:
 Charge =  0 Multiplicity = 1

 SCF Done:  E(RHF) =  -360.785618826     A.U. after   16 cycles
 Normal termination of Gaussian 16 at Wed Apr  9 18:09:50 2025.
 Gaussian 16:  ES64L-G16RevC.01  3-Jul-2019

 ----------------------------------------------------------------------
 #t hf aug-cc-pvdz iop(5/13=1,5/36=2,99/5=2) pseudo=read geom=check gue
 ss=(read,tcheck) scf=(maxcycle=1)
 ----------------------------------------------------------------------
 -----
 title
 -----
 Structure from the checkpoint file:  "Grambow2020_wb97xd3_006620_forward_mol1.chk"
 Charge =  0 Multiplicity = 1

                         Standard orientation:
 ---------------------------------------------------------------------
 Center     Atomic      Atomic             Coordinates (Angstroms)
 Number     Number       Type             X           Y           Z
 ---------------------------------------------------------------------
      1          6           0       -2.609659   -0.095175    0.094975
      2          6           0       -1.161847    0.043225   -0.335649
      3          8           0       -0.771924    1.368497   -0.073614
      4          6           0       -0.274456   -0.965949    0.395784
      5          7           0        1.050760   -1.118319   -0.206173
      6          6           0        2.301969   -0.097382   -0.107432
      7          8           0        2.082296    1.023016    0.206470
      8          1           0       -3.011543   -1.073886   -0.173570
      9          1           0       -3.209903    0.672946   -0.391854
     10          1           0       -2.699437    0.040993    1.174833
     11          1           0       -1.091296   -0.165560   -1.415904
     12          1           0        0.193223    1.434053   -0.063397
     13          1           0       -0.133334   -0.620923    1.423638
     14          1           0       -0.757788   -1.944961    0.431672
     15          1           0        1.079842   -1.605669   -1.097264
     16          1           0        2.255897   -1.349177    0.206135
 ---------------------------------------------------------------------

 SCF Done:  E(RHF) =  -362.434233060     A.U. after    2 cycles

 The electronic state is 1-A.
 Alpha  occ. eigenvalues --  -21.08603 -21.04899 -15.77867 -11.48407 -11.47253
 Alpha  occ. eigenvalues --  -11.42388 -11.36875  -1.74279  -1.70826  -1.40179
 Alpha  occ. eigenvalues --   -1.15311  -1.02470  -0.85710  -0.82097  -0.68190
 Alpha  occ. eigenvalues --   -0.66236  -0.64919  -0.61654  -0.55662  -0.54583
 Alpha  occ. eigenvalues --   -0.53342  -0.50073  -0.47856  -0.46254  -0.41997
 Alpha  occ. eigenvalues --   -0.35601  -0.31097  -0.27417
 Alpha virt. eigenvalues --    0.03508   0.04747   0.04955   0.05244   0.06056
 Alpha virt. eigenvalues --    0.06187   0.07101   0.08483   0.08775   0.10515
 Alpha virt. eigenvalues --    0.11022   0.12019   0.12649   0.13615   0.14322

 Mulliken charges:
               1
     1  C   -3.669748
     2  C    1.224088
     3  O   -3.386060
     4  C   -2.426345
     5  N   -2.416352
     6  C    1.098586
     7  O   -2.038803
     8  H    1.209921
     9  H    1.149268
    10  H    1.164049
    11  H    1.788284
    12  H    1.217774
    13  H    1.442611
    14  H    1.426130
    15  H    0.587568
    16  H    1.629029
 Sum of Mulliken charges =  -0.00000

 Dipole moment (field-independent basis, Debye):
    X=             -1.7914    Y=             -2.0541    Z=             -0.1734  Tot=              2.7310

 Test job not archived.
 1\1\GINC-SE173\SP\RHF\Aug-CC-pVDZ\C4H9N1O2\OHZDE\09-Apr-2025\0\\#t hf
 aug-cc-pvdz iop(5/13=1,5/36=2,99/5=2) pseudo=read geom=check guess=(re
 ad,tcheck) scf=(maxcycle=1)\\title\\0,1\C,0,-2.0300821,-0.79725878,-0.
 26032521\C,0,-0.62406591,-0.29853018,-0.53443892\O,0,-0.73943171,0.943
 22565,-1.18388696\C,0,0.1805295,-0.18960222,0.76234529\N,0,1.62012321,
 -0.04417868,0.54282605\C,0,2.41475021,1.27841118,0.05609133\O,0,1.7949
 1762,2.13529596,-0.47648533\H,0,-2.01909314,-1.80752587,0.15288334\H,0
 ,-2.60089917,-0.80712618,-1.18842908\H,0,-2.53884389,-0.13262353,0.441

 Normal termination of Gaussian 16 at Wed Apr  9 18:09:56 2025.
