 Gaussian 16, Revision C.01,

 ----------------------------------------------------------------------
 #t hf aug-cc-pvdz symm=none int=(grid=ultrafine) guess=(read,tcheck) s
 table=(opt,rrhf)
 ----------------------------------------------------------------------
 -----
 title
 -----
 Symbolic Z-matrix:
 Charge =  0 Multiplicity = 1

 SCF Done:  E(RHF) =  -308.995097191     A.U. after   13 cycles

 1\1\GINC-SE035\Stability\RHF\Aug-CC-pVDZ\C6H12O1\OHZDE\09-Apr-2025\0\\
 #t hf aug-cc-pvdz symm=none int=(grid=ultrafine) guess=(read,tcheck) s
 table=(opt,rrhf)\\title\\0,1\C,0,-1.43542809,-0.85724028,-0.6845129\C,
 0,-0.93649505,-0.25711899,0.59468897\C,0,-1.50646467,0.79005363,1.1783
 442\C,0,0.23597214,-0.91855176,1.25085378\O,0,0.97237837,-1.86799945,0
 .49532861\C,0,1.62654397,-0.66203567,0.86010141\C,0,2.0130648,0.285515
 56,-0.23514699\H,0,-2.31140711,-0.32305253,-1.05106393\H,0,-0.66382162
 ,-0.8433986,-1.4567396\H,0,-1.69653678,-1.90738709,-0.53477371\H,0,-0.

 Normal termination of Gaussian 16 at Wed Apr  9 18:50:09 2025.
 Gaussian 16:  ES64L-G16RevC.01  3-Jul-2019

 ----------------------------------------------------------------------
 #t hf aug-cc-pvdz iop(5/13=1,5/36=2,99/5=2) pseudo=read geom=check gue
 ss=(read,tcheck) scf=(maxcycle=1)
 ----------------------------------------------------------------------
 -----
 title
 -----
 Structure from the checkpoint file:  "Grambow2020_wb97xd3_007703_reverse_mol2.chk"
 Charge =  0 Multiplicity = 1

                         Standard orientation:
 ---------------------------------------------------------------------
 Center     Atomic      Atomic             Coordinates (Angstroms)
 Number     Number       Type             X           Y           Z
 ---------------------------------------------------------------------
      1          6           0        1.454214   -0.341046    1.239738
      2          6           0        1.029617   -0.301984   -0.196795
      3          6           0        1.809818    0.142270   -1.174555
      4          6           0       -0.329100   -0.839466   -0.525015
      5          8           0       -1.227984   -1.074802    0.547919
      6          6           0       -1.560410   -0.054880   -0.381916
      7          6           0       -1.582443    1.361457    0.108313
      8          1           0        2.469691    0.035826    1.357329
      9          1           0        0.783249    0.248069    1.867951
     10          1           0        1.408237   -1.363540    1.621578
     11          1           0        1.791199    3.297400    0.795546
     12          1           0        1.478785    0.142303   -2.207479
     13          1           0        2.808343    0.513543   -0.977359
     14          1           0        1.657110    2.698231    0.371753
     15          1           0       -0.330708   -1.626075   -1.277852
     16          1           0       -2.388393   -0.326899   -1.035463
     17          1           0       -0.719901    1.585703    0.734173
     18          1           0       -2.488618    1.546606    0.687856
     19          1           0       -1.575300    2.049144   -0.740009
 ---------------------------------------------------------------------

 SCF Done:  E(RHF) =  -310.506358765     A.U. after    2 cycles

 The electronic state is 1-A.
 Alpha  occ. eigenvalues --  -21.05577 -11.52841 -11.43034 -11.41770 -11.38971
 Alpha  occ. eigenvalues --  -11.38332 -11.36679  -1.79062  -1.23023  -1.11420
 Alpha  occ. eigenvalues --   -1.00659  -0.94981  -0.86185  -0.74945  -0.69640
 Alpha  occ. eigenvalues --   -0.63683  -0.61399  -0.58930  -0.57522  -0.56544
 Alpha  occ. eigenvalues --   -0.54054  -0.53670  -0.49821  -0.45500  -0.42799
 Alpha  occ. eigenvalues --   -0.38740  -0.32561  -0.30256
 Alpha virt. eigenvalues --    0.03921   0.05022   0.05125   0.05297   0.05523
 Alpha virt. eigenvalues --    0.05825   0.06296   0.06451   0.07843   0.08764
 Alpha virt. eigenvalues --    0.09374   0.10801   0.11885   0.12138   0.13223

 Mulliken charges:
               1
     1  C   -5.388077
     2  C    3.455933
     3  C   -4.817262
     4  C    0.330060
     5  O   -3.005208
     6  C    0.082639
     7  C   -4.367793
     8  H    1.393221
     9  H    1.208391
    10  H    1.170072
    11  H    0.240984
    12  H    1.614479
    13  H    1.564440
    14  H   -0.357927
    15  H    1.399847
    16  H    1.515380
    17  H    1.578036
    18  H    1.126776
    19  H    1.256009
 Sum of Mulliken charges =   0.00000

 Dipole moment (field-independent basis, Debye):
    X=             -0.1713    Y=              0.2352    Z=             -0.0018  Tot=              0.2910

 Test job not archived.
 1\1\GINC-SE035\SP\RHF\Aug-CC-pVDZ\C6H12O1\OHZDE\09-Apr-2025\0\\#t hf a
 ug-cc-pvdz iop(5/13=1,5/36=2,99/5=2) pseudo=read geom=check guess=(rea
 d,tcheck) scf=(maxcycle=1)\\title\\0,1\C,0,-1.43542809,-0.85724028,-0.
 6845129\C,0,-0.93649505,-0.25711899,0.59468897\C,0,-1.50646467,0.79005
 363,1.1783442\C,0,0.23597214,-0.91855176,1.25085378\O,0,0.97237837,-1.
 86799945,0.49532861\C,0,1.62654397,-0.66203567,0.86010141\C,0,2.013064
 8,0.28551556,-0.23514699\H,0,-2.31140711,-0.32305253,-1.05106393\H,0,-
 0.66382162,-0.8433986,-1.4567396\H,0,-1.69653678,-1.90738709,-0.534773

 Normal termination of Gaussian 16 at Wed Apr  9 18:50:16 2025.
