 Gaussian 16, Revision C.01,

 ----------------------------------------------------------------------
 #t hf aug-cc-pvdz symm=none int=(grid=ultrafine) guess=(read,tcheck) s
 table=(opt,rrhf)
 ----------------------------------------------------------------------
 -----
 title
 -----
 Symbolic Z-matrix:
 Charge =  0 Multiplicity = 1

 SCF Done:  E(RHF) =  -299.637874281     A.U. after   15 cycles
 Normal termination of Gaussian 16 at Wed Apr  9 17:34:10 2025.
 Gaussian 16:  ES64L-G16RevC.01  3-Jul-2019

 ----------------------------------------------------------------------
 #t hf aug-cc-pvdz iop(5/13=1,5/36=2,99/5=2) pseudo=read geom=check gue
 ss=(read,tcheck) scf=(maxcycle=1)
 ----------------------------------------------------------------------
 -----
 title
 -----
 Structure from the checkpoint file:  "Grambow2020_b97d3_007182_reverse_mol2.chk"
 Charge =  0 Multiplicity = 1

                         Standard orientation:
 ---------------------------------------------------------------------
 Center     Atomic      Atomic             Coordinates (Angstroms)
 Number     Number       Type             X           Y           Z
 ---------------------------------------------------------------------
      1          6           0       -2.090256   -0.005903   -0.000461
      2          6           0       -0.597324   -0.080629    0.000574
      3          7           0        0.094557   -1.172353    0.000682
      4          8           0        1.521750   -0.614046   -0.000361
      5          6           0        1.542625    0.702622   -0.000690
      6          7           0        0.223214    1.052617    0.000486
      7          1           0       -2.514772   -1.014933   -0.004964
      8          1           0       -2.453979    0.525453    0.890442
      9          1           0       -2.451009    0.531789   -0.888883
     10          1           0       -0.108906    2.011673    0.001585
 ---------------------------------------------------------------------

 SCF Done:  E(RHF) =  -300.962939307     A.U. after    2 cycles

 The electronic state is 1-A.
 Alpha  occ. eigenvalues --  -21.12033 -15.81085 -15.79341 -11.49965 -11.42957
 Alpha  occ. eigenvalues --  -11.41894  -1.85197  -1.43639  -1.28427  -1.10260
 Alpha  occ. eigenvalues --   -0.85765  -0.83151  -0.70502  -0.65806  -0.59545
 Alpha  occ. eigenvalues --   -0.58028  -0.55777  -0.47125  -0.43730  -0.40783
 Alpha  occ. eigenvalues --   -0.38028  -0.35564
 Alpha virt. eigenvalues --    0.02228   0.04762   0.05177   0.05879   0.08504
 Alpha virt. eigenvalues --    0.10511   0.11328   0.11587   0.12172   0.13001
 Alpha virt. eigenvalues --    0.13809   0.13929   0.14853   0.16008   0.17762

 Mulliken charges:
               1
     1  C   -3.652354
     2  C    3.866079
     3  N   -1.766792
     4  O   -1.667730
     5  C    0.756939
     6  N   -2.000483
     7  H    1.236906
     8  H    1.179109
     9  H    1.177490
    10  H    0.870835
 Sum of Mulliken charges =  -0.00000

 Dipole moment (field-independent basis, Debye):
    X=             -4.2803    Y=              1.5137    Z=              0.0022  Tot=              4.5400

 Test job not archived.
 1\1\GINC-SE041\SP\RHF\Aug-CC-pVDZ\C3H4N2O1\OHZDE\09-Apr-2025\0\\#t hf
 aug-cc-pvdz iop(5/13=1,5/36=2,99/5=2) pseudo=read geom=check guess=(re
 ad,tcheck) scf=(maxcycle=1)\\title\\0,1\C,0,-1.42308286,0.13060503,0.1
 2378212\C,0,0.00383195,-0.12724409,-0.23934107\N,0,0.40386168,-0.71835
 851,-1.31689363\O,0,1.92367176,-0.68190867,-1.12340624\C,0,2.26932251,
 -0.09690909,0.00457981\N,0,1.07835518,0.25589928,0.57067756\H,0,-2.083
 30567,-0.25233681,-0.66097161\H,0,-1.6788883,-0.36363966,1.07174224\H,
 0,-1.6045724,1.20843853,0.24162429\H,0,0.99380015,0.73284298,1.4625675

 Normal termination of Gaussian 16 at Wed Apr  9 17:34:13 2025.
