 Gaussian 16, Revision C.01,

 ----------------------------------------------------------------------
 #t hf aug-cc-pvdz symm=none int=(grid=ultrafine) guess=(read,tcheck) s
 table=(opt,rrhf)
 ----------------------------------------------------------------------
 -----
 title
 -----
 Symbolic Z-matrix:
 Charge =  0 Multiplicity = 1

 SCF Done:  E(RHF) =  -323.883456477     A.U. after   13 cycles
 Normal termination of Gaussian 16 at Wed Apr  9 19:06:02 2025.
 Gaussian 16:  ES64L-G16RevC.01  3-Jul-2019

 ----------------------------------------------------------------------
 #t hf aug-cc-pvdz iop(5/13=1,5/36=2,99/5=2) pseudo=read geom=check gue
 ss=(read,tcheck) scf=(maxcycle=1)
 ----------------------------------------------------------------------
 -----
 title
 -----
 Structure from the checkpoint file:  "Grambow2020_wb97xd3_008086_forward_mol2.chk"
 Charge =  0 Multiplicity = 1

                         Standard orientation:
 ---------------------------------------------------------------------
 Center     Atomic      Atomic             Coordinates (Angstroms)
 Number     Number       Type             X           Y           Z
 ---------------------------------------------------------------------
      1          6           0        1.445460    1.335617   -0.150075
      2          6           0        1.332154   -0.150427   -0.005659
      3          7           0        2.324178   -0.859390    0.310860
      4          8           0        0.121187   -0.732314   -0.248136
      5          6           0       -1.006047    0.064806   -0.486258
      6          6           0       -1.762204    0.613110    0.680669
      7          6           0       -2.303996   -0.549244   -0.108494
      8          1           0        1.204828    1.647647   -1.168331
      9          1           0        0.761405    1.851878    0.524393
     10          1           0        2.467950    1.621358    0.077935
     11          1           0        2.055317   -1.840523    0.356028
     12          1           0       -0.958126    0.648292   -1.399124
     13          1           0       -1.364000    0.396882    1.663560
     14          1           0       -2.231814    1.582603    0.577966
     15          1           0       -2.253310   -1.525295    0.354703
     16          1           0       -3.153202   -0.391774   -0.759158
 ---------------------------------------------------------------------

 SCF Done:  E(RHF) =  -325.404408103     A.U. after    2 cycles

 The electronic state is 1-A.
 Alpha  occ. eigenvalues --  -21.08098 -15.71150 -11.48243 -11.45593 -11.43210
 Alpha  occ. eigenvalues --  -11.38590 -11.37755  -1.81259  -1.33257  -1.26182
 Alpha  occ. eigenvalues --   -1.08657  -0.88474  -0.87482  -0.77493  -0.71134
 Alpha  occ. eigenvalues --   -0.65231  -0.63597  -0.60687  -0.56311  -0.53196
 Alpha  occ. eigenvalues --   -0.52411  -0.49371  -0.45124  -0.43407  -0.39994
 Alpha  occ. eigenvalues --   -0.35427  -0.29874
 Alpha virt. eigenvalues --    0.03714   0.04965   0.05074   0.05451   0.05922
 Alpha virt. eigenvalues --    0.06096   0.06819   0.07225   0.08516   0.10086
 Alpha virt. eigenvalues --    0.11606   0.12580   0.13413   0.14030   0.14403

 Mulliken charges:
               1
     1  C   -3.955558
     2  C    4.542121
     3  N   -3.538767
     4  O   -4.194769
     5  C    1.805780
     6  C   -2.737232
     7  C   -3.246849
     8  H    1.253619
     9  H    1.353804
    10  H    1.092405
    11  H    0.764463
    12  H    1.661145
    13  H    1.382128
    14  H    1.234096
    15  H    1.315614
    16  H    1.267999
 Sum of Mulliken charges =   0.00000

 Dipole moment (field-independent basis, Debye):
    X=             -2.9513    Y=              0.9660    Z=             -0.5818  Tot=              3.1594

 Test job not archived.
 1\1\GINC-SE219\SP\RHF\Aug-CC-pVDZ\C5H9N1O1\OHZDE\09-Apr-2025\0\\#t hf
 aug-cc-pvdz iop(5/13=1,5/36=2,99/5=2) pseudo=read geom=check guess=(re
 ad,tcheck) scf=(maxcycle=1)\\title\\0,1\C,0,1.82857662,-0.79486259,-0.
 00964846\C,0,1.44390442,0.65127157,-0.06200728\N,0,2.26246502,1.538369
 ,-0.42247993\O,0,0.17788905,0.99675021,0.31439344\C,0,-0.76510186,0.00
 180587,0.60355195\C,0,-1.51949829,-0.62731093,-0.52304779\C,0,-2.18006
 847,0.3874605,0.37208965\H,0,1.74268246,-1.18438569,1.00672067\H,0,1.1
 853459,-1.39873088,-0.65071147\H,0,2.85938573,-0.88357297,-0.33932189\

 Normal termination of Gaussian 16 at Wed Apr  9 19:06:07 2025.
