 Gaussian 16, Revision C.01,

 ----------------------------------------------------------------------
 #t hf aug-cc-pvdz symm=none int=(grid=ultrafine) guess=(read,tcheck) s
 table=(opt,rrhf)
 ----------------------------------------------------------------------
 -----
 title
 -----
 Symbolic Z-matrix:
 Charge =  0 Multiplicity = 1

 SCF Done:  E(RHF) =  -344.713066624     A.U. after   17 cycles

 1\1\GINC-SE098\Stability\RHF\Aug-CC-pVDZ\C5H10O2\OHZDE\09-Apr-2025\0\\
 #t hf aug-cc-pvdz symm=none int=(grid=ultrafine) guess=(read,tcheck) s
 table=(opt,rrhf)\\title\\0,1\C,0,2.38009695,-0.22066011,0.30371238\O,0
 ,1.24898642,-0.05708839,1.12804863\C,0,0.01974413,-0.17269223,0.517590
 3\C,0,-1.36914325,0.91964133,-1.18587293\C,0,-1.05623733,0.24843623,1.
 47767612\C,0,-0.21870368,-1.19838591,-0.40369867\O,0,-1.10683011,-1.09
 867634,-1.28512259\H,0,2.58229959,-1.27566669,0.08938843\H,0,3.2318146
 9,0.19080055,0.84417066\H,0,2.2546384,0.31422347,-0.64345618\H,0,-0.66

 Normal termination of Gaussian 16 at Wed Apr  9 19:12:14 2025.
 Gaussian 16:  ES64L-G16RevC.01  3-Jul-2019

 ----------------------------------------------------------------------
 #t hf aug-cc-pvdz iop(5/13=1,5/36=2,99/5=2) pseudo=read geom=check gue
 ss=(read,tcheck) scf=(maxcycle=1)
 ----------------------------------------------------------------------
 -----
 title
 -----
 Structure from the checkpoint file:  "Grambow2020_wb97xd3_008392_forward_mol1.chk"
 Charge =  0 Multiplicity = 1

                         Standard orientation:
 ---------------------------------------------------------------------
 Center     Atomic      Atomic             Coordinates (Angstroms)
 Number     Number       Type             X           Y           Z
 ---------------------------------------------------------------------
      1          6           0       -2.251895   -0.679016    0.454090
      2          8           0       -1.570960    0.475011    0.017917
      3          6           0       -0.208944    0.359728   -0.151446
      4          6           0        1.839177   -0.063995    1.132940
      5          6           0        0.380911    1.719721   -0.395045
      6          6           0        0.332760   -0.767072   -0.779582
      7          8           0        1.515819   -1.131755   -0.572227
      8          1           0       -2.410581   -1.394048   -0.360408
      9          1           0       -3.224441   -0.355913    0.823653
     10          1           0       -1.701624   -1.177266    1.259024
     11          1           0        1.552458   -0.928811    1.713382
     12          1           0        1.510912    0.888165    1.531107
     13          1           0        2.863011   -0.063162    0.786047
     14          1           0        0.417479    2.323178    0.518281
     15          1           0        1.390769    1.646486   -0.796919
     16          1           0       -0.249891    2.252548   -1.112878
     17          1           0       -0.259024   -1.353424   -1.492552
 ---------------------------------------------------------------------

 SCF Done:  E(RHF) =  -346.321533800     A.U. after    2 cycles

 The electronic state is 1-A.
 Alpha  occ. eigenvalues --  -21.05000 -21.03960 -11.46672 -11.45909 -11.41621
 Alpha  occ. eigenvalues --  -11.40142 -11.36925  -1.77150  -1.69335  -1.13956
 Alpha  occ. eigenvalues --   -1.02674  -0.97440  -0.95226  -0.75245  -0.65008
 Alpha  occ. eigenvalues --   -0.63742  -0.62499  -0.61510  -0.60122  -0.55340
 Alpha  occ. eigenvalues --   -0.53378  -0.49851  -0.47947  -0.44252  -0.40490
 Alpha  occ. eigenvalues --   -0.36335  -0.30747  -0.19279
 Alpha virt. eigenvalues --    0.03092   0.05006   0.05088   0.05250   0.06036
 Alpha virt. eigenvalues --    0.06451   0.06489   0.07175   0.07581   0.08911
 Alpha virt. eigenvalues --    0.10291   0.11037   0.12455   0.13027   0.13775

 Mulliken charges:
               1
     1  C   -3.342366
     2  O   -3.907074
     3  C    3.815737
     4  C   -4.096436
     5  C   -4.214798
     6  C    1.097566
     7  O   -2.728839
     8  H    1.437047
     9  H    1.299331
    10  H    1.344348
    11  H    1.366546
    12  H    1.414889
    13  H    1.292809
    14  H    1.253500
    15  H    1.304540
    16  H    1.135856
    17  H    1.527344
 Sum of Mulliken charges =  -0.00000

 Dipole moment (field-independent basis, Debye):
    X=              0.6238    Y=             -0.4850    Z=              0.5045  Tot=              0.9375

 Test job not archived.
 1\1\GINC-SE098\SP\RHF\Aug-CC-pVDZ\C5H10O2\OHZDE\09-Apr-2025\0\\#t hf a
 ug-cc-pvdz iop(5/13=1,5/36=2,99/5=2) pseudo=read geom=check guess=(rea
 d,tcheck) scf=(maxcycle=1)\\title\\0,1\C,0,2.38009695,-0.22066011,0.30
 371238\O,0,1.24898642,-0.05708839,1.12804863\C,0,0.01974413,-0.1726922
 3,0.5175903\C,0,-1.36914325,0.91964133,-1.18587293\C,0,-1.05623733,0.2
 4843623,1.47767612\C,0,-0.21870368,-1.19838591,-0.40369867\O,0,-1.1068
 3011,-1.09867634,-1.28512259\H,0,2.58229959,-1.27566669,0.08938843\H,0
 ,3.23181469,0.19080055,0.84417066\H,0,2.2546384,0.31422347,-0.64345618

 Normal termination of Gaussian 16 at Wed Apr  9 19:12:20 2025.
