 Gaussian 16, Revision C.01,

 ----------------------------------------------------------------------
 #t hf aug-cc-pvdz symm=none int=(grid=ultrafine) guess=(read,tcheck) s
 table=(opt,rrhf)
 ----------------------------------------------------------------------
 -----
 title
 -----
 Symbolic Z-matrix:
 Charge =  0 Multiplicity = 1

 SCF Done:  E(RHF) =  -308.856093536     A.U. after   16 cycles

 1\1\GINC-SE037\Stability\RHF\Aug-CC-pVDZ\C6H12O1\OHZDE\09-Apr-2025\0\\
 #t hf aug-cc-pvdz symm=none int=(grid=ultrafine) guess=(read,tcheck) s
 table=(opt,rrhf)\\title\\0,1\C,0,2.18187888,-0.77315215,-0.38061016\C,
 0,0.75970275,-0.3600313,0.08965814\O,0,0.77204533,-0.29502897,1.506159
 01\C,0,0.45056433,0.92608919,-0.64434371\C,0,-1.6799867,1.39910633,0.5
 8989346\C,0,-2.23180641,0.1893789,0.35572356\C,0,-0.21406155,-1.302197
 04,-0.39794943\H,0,2.87286995,0.0335027,-0.13099533\H,0,2.22853314,-0.
 95906608,-1.45425436\H,0,2.4844862,-1.66952307,0.15726491\H,0,0.689010

 Normal termination of Gaussian 16 at Wed Apr  9 19:21:33 2025.
 Gaussian 16:  ES64L-G16RevC.01  3-Jul-2019

 ----------------------------------------------------------------------
 #t hf aug-cc-pvdz iop(5/13=1,5/36=2,99/5=2) pseudo=read geom=check gue
 ss=(read,tcheck) scf=(maxcycle=1)
 ----------------------------------------------------------------------
 -----
 title
 -----
 Structure from the checkpoint file:  "Grambow2020_wb97xd3_008675_forward_mol1.chk"
 Charge =  0 Multiplicity = 1

                         Standard orientation:
 ---------------------------------------------------------------------
 Center     Atomic      Atomic             Coordinates (Angstroms)
 Number     Number       Type             X           Y           Z
 ---------------------------------------------------------------------
      1          6           0       -2.326438   -0.053576   -0.218123
      2          6           0       -0.799639    0.030980    0.057811
      3          8           0       -0.585092   -0.299948    1.419908
      4          6           0       -0.154188   -0.873820   -0.968425
      5          6           0        2.155981   -0.715342   -0.006999
      6          6           0        2.192942    0.634164    0.008794
      7          6           0       -0.313353    1.348742   -0.259497
      8          1           0       -2.635298   -1.095253   -0.118213
      9          1           0       -2.590112    0.299205   -1.215858
     10          1           0       -2.852812    0.538565    0.527975
     11          1           0       -0.140004   -1.150344    1.421324
     12          1           0       -0.830428   -1.572846   -1.467572
     13          1           0        0.574131   -0.445720   -1.632760
     14          1           0        2.031674   -1.278755    0.909083
     15          1           0        2.462046   -1.286581   -0.872308
     16          1           0        2.506820    1.202849   -0.858015
     17          1           0        2.109206    1.171589    0.942907
     18          1           0       -0.698123    1.841970   -1.142211
     19          1           0        0.211804    1.948017    0.465015
 ---------------------------------------------------------------------

 SCF Done:  E(RHF) =  -310.374063892     A.U. after    2 cycles

 The electronic state is 1-A.
 Alpha  occ. eigenvalues --  -21.05639 -11.47085 -11.43719 -11.41627 -11.39630
 Alpha  occ. eigenvalues --  -11.37110 -11.36667  -1.71622  -1.22234  -1.12732
 Alpha  occ. eigenvalues --   -1.00114  -0.96067  -0.82646  -0.78693  -0.65575
 Alpha  occ. eigenvalues --   -0.65006  -0.62660  -0.60304  -0.56550  -0.55273
 Alpha  occ. eigenvalues --   -0.52449  -0.49533  -0.49039  -0.47450  -0.40133
 Alpha  occ. eigenvalues --   -0.34702  -0.31480  -0.24290
 Alpha virt. eigenvalues --    0.03442   0.04122   0.04888   0.05232   0.05501
 Alpha virt. eigenvalues --    0.05684   0.06394   0.06658   0.07305   0.07544
 Alpha virt. eigenvalues --    0.08358   0.09057   0.09668   0.11861   0.13337

 Mulliken charges:
               1
     1  C   -4.431810
     2  C    4.758543
     3  O   -3.761005
     4  C   -2.882336
     5  C   -3.060979
     6  C   -2.889801
     7  C   -3.388105
     8  H    1.276682
     9  H    1.245944
    10  H    1.183810
    11  H    0.798985
    12  H    1.126568
    13  H    1.824276
    14  H    1.408421
    15  H    1.295533
    16  H    1.318682
    17  H    1.446237
    18  H    1.309993
    19  H    1.420361
 Sum of Mulliken charges =  -0.00000

 Dipole moment (field-independent basis, Debye):
    X=             -0.2881    Y=              0.6360    Z=             -0.2366  Tot=              0.7372

 Test job not archived.
 1\1\GINC-SE037\SP\RHF\Aug-CC-pVDZ\C6H12O1\OHZDE\09-Apr-2025\0\\#t hf a
 ug-cc-pvdz iop(5/13=1,5/36=2,99/5=2) pseudo=read geom=check guess=(rea
 d,tcheck) scf=(maxcycle=1)\\title\\0,1\C,0,2.18187888,-0.77315215,-0.3
 8061016\C,0,0.75970275,-0.3600313,0.08965814\O,0,0.77204533,-0.2950289
 7,1.50615901\C,0,0.45056433,0.92608919,-0.64434371\C,0,-1.6799867,1.39
 910633,0.58989346\C,0,-2.23180641,0.1893789,0.35572356\C,0,-0.21406155
 ,-1.30219704,-0.39794943\H,0,2.87286995,0.0335027,-0.13099533\H,0,2.22
 853314,-0.95906608,-1.45425436\H,0,2.4844862,-1.66952307,0.15726491\H,

 Normal termination of Gaussian 16 at Wed Apr  9 19:21:40 2025.
