 Gaussian 16, Revision C.01,

 ----------------------------------------------------------------------
 #t hf aug-cc-pvdz symm=none int=(grid=ultrafine) guess=(read,tcheck) s
 table=(opt,rrhf)
 ----------------------------------------------------------------------
 -----
 title
 -----
 Symbolic Z-matrix:
 Charge =  0 Multiplicity = 1

 SCF Done:  E(RHF) =  -346.041849011     A.U. after   13 cycles

 1\1\GINC-SE028\Stability\RHF\Aug-CC-pVDZ\C5H12O2\OHZDE\09-Apr-2025\0\\
 #t hf aug-cc-pvdz symm=none int=(grid=ultrafine) guess=(read,tcheck) s
 table=(opt,rrhf)\\title\\0,1\C,0,2.23849167,0.446878,1.20124171\C,0,0.
 82454984,0.50293313,0.6424013\C,0,0.4699744,-0.74000547,-0.17663575\O,
 0,0.56958571,-1.92581798,0.59010156\C,0,-0.90154693,-0.61919936,-0.788
 01409\C,0,-1.14999383,-0.41721622,-2.074656\O,0,-1.86088469,-0.7236437
 8,0.17597185\H,0,2.37150312,-0.43147472,1.83332797\H,0,2.97636712,0.39
 194261,0.39696347\H,0,2.45970304,1.33354361,1.79746519\H,0,0.09754881,

 Normal termination of Gaussian 16 at Wed Apr  9 19:06:11 2025.
 Gaussian 16:  ES64L-G16RevC.01  3-Jul-2019

 ----------------------------------------------------------------------
 #t hf aug-cc-pvdz iop(5/13=1,5/36=2,99/5=2) pseudo=read geom=check gue
 ss=(read,tcheck) scf=(maxcycle=1)
 ----------------------------------------------------------------------
 -----
 title
 -----
 Structure from the checkpoint file:  "Grambow2020_wb97xd3_008078_reverse_mol2.chk"
 Charge =  0 Multiplicity = 1

                         Standard orientation:
 ---------------------------------------------------------------------
 Center     Atomic      Atomic             Coordinates (Angstroms)
 Number     Number       Type             X           Y           Z
 ---------------------------------------------------------------------
      1          6           0       -2.647697    0.508824    0.190591
      2          6           0       -1.165459    0.765837   -0.036551
      3          6           0       -0.297241   -0.430006    0.360437
      4          8           0       -0.635756   -1.595514   -0.368232
      5          6           0        1.168271   -0.116989    0.206345
      6          6           0        2.016050    0.085267    1.205512
      7          8           0        1.501364   -0.046402   -1.114477
      8          1           0       -2.981716   -0.361815   -0.374341
      9          1           0       -2.855715    0.319189    1.246578
     10          1           0       -3.246213    1.367092   -0.118842
     11          1           0       -0.976255    1.001514   -1.088671
     12          1           0       -0.835789    1.634199    0.541720
     13          1           0       -0.481008   -0.674957    1.408896
     14          1           0       -0.293344   -1.489517   -1.260232
     15          1           0        1.441165    2.667400   -1.007539
     16          1           0        3.054767    0.345405    1.036499
     17          1           0        1.678242    3.367864   -1.102350
     18          1           0        1.679894   -0.006287    2.227850
     19          1           0        2.447560    0.087641   -1.205901
 ---------------------------------------------------------------------

 SCF Done:  E(RHF) =  -347.672249145     A.U. after    2 cycles

 The electronic state is 1-A.
 Alpha  occ. eigenvalues --  -21.11013 -21.06266 -11.48531 -11.44297 -11.40172
 Alpha  occ. eigenvalues --  -11.37637 -11.35424  -1.78187  -1.70194  -1.20354
 Alpha  occ. eigenvalues --   -1.11193  -0.98231  -0.86117  -0.80034  -0.66565
 Alpha  occ. eigenvalues --   -0.64909  -0.61727  -0.61238  -0.59713  -0.56223
 Alpha  occ. eigenvalues --   -0.53034  -0.52296  -0.49471  -0.47396  -0.44667
 Alpha  occ. eigenvalues --   -0.44065  -0.38719  -0.31039  -0.29416
 Alpha virt. eigenvalues --    0.03708   0.05016   0.05074   0.05331   0.05662
 Alpha virt. eigenvalues --    0.05838   0.06608   0.06944   0.08196   0.08365
 Alpha virt. eigenvalues --    0.09091   0.11032   0.12274   0.12997   0.14113

 Mulliken charges:
               1
     1  C   -3.990237
     2  C   -2.967962
     3  C    0.853490
     4  O   -3.118351
     5  C    5.697862
     6  C   -5.190385
     7  O   -4.016679
     8  H    1.279684
     9  H    1.213273
    10  H    1.095114
    11  H    1.459281
    12  H    1.551853
    13  H    1.727863
    14  H    0.695204
    15  H   -0.570919
    16  H    1.567903
    17  H    0.412306
    18  H    1.401268
    19  H    0.899430
 Sum of Mulliken charges =   0.00000

 Dipole moment (field-independent basis, Debye):
    X=              0.4819    Y=              0.4589    Z=             -0.7227  Tot=              0.9824

 Test job not archived.
 1\1\GINC-SE028\SP\RHF\Aug-CC-pVDZ\C5H12O2\OHZDE\09-Apr-2025\0\\#t hf a
 ug-cc-pvdz iop(5/13=1,5/36=2,99/5=2) pseudo=read geom=check guess=(rea
 d,tcheck) scf=(maxcycle=1)\\title\\0,1\C,0,2.23849167,0.446878,1.20124
 171\C,0,0.82454984,0.50293313,0.6424013\C,0,0.4699744,-0.74000547,-0.1
 7663575\O,0,0.56958571,-1.92581798,0.59010156\C,0,-0.90154693,-0.61919
 936,-0.78801409\C,0,-1.14999383,-0.41721622,-2.074656\O,0,-1.86088469,
 -0.72364378,0.17597185\H,0,2.37150312,-0.43147472,1.83332797\H,0,2.976
 36712,0.39194261,0.39696347\H,0,2.45970304,1.33354361,1.79746519\H,0,0

 Normal termination of Gaussian 16 at Wed Apr  9 19:06:18 2025.
