 Gaussian 16, Revision C.01,

 ----------------------------------------------------------------------
 #t hf aug-cc-pvdz symm=none int=(grid=ultrafine) guess=(read,tcheck) s
 table=(opt,rrhf)
 ----------------------------------------------------------------------
 -----
 title
 -----
 Symbolic Z-matrix:
 Charge =  0 Multiplicity = 1

 SCF Done:  E(RHF) =  -232.847969376     A.U. after   17 cycles
 Normal termination of Gaussian 16 at Wed Apr  9 03:15:10 2025.
 Gaussian 16:  ES64L-G16RevC.01  3-Jul-2019

 ----------------------------------------------------------------------
 #t hf aug-cc-pvdz iop(5/13=1,5/36=2,99/5=2) pseudo=read geom=check gue
 ss=(read,tcheck) scf=(maxcycle=1)
 ----------------------------------------------------------------------
 -----
 title
 -----
 Structure from the checkpoint file:  "Grambow2020_b97d3_006950_forward_mol1.chk"
 Charge =  0 Multiplicity = 1

                         Standard orientation:
 ---------------------------------------------------------------------
 Center     Atomic      Atomic             Coordinates (Angstroms)
 Number     Number       Type             X           Y           Z
 ---------------------------------------------------------------------
      1          6           0       -2.185185    0.052815   -0.103906
      2          6           0       -0.693464   -0.007244   -0.220644
      3          6           0        0.101956   -1.182022    0.344888
      4          6           0        1.426739   -0.690044   -0.263699
      5          6           0        1.580181    0.673644    0.108246
      6          6           0        0.183133    1.186296    0.125291
      7          1           0       -2.590137    0.992386   -0.505885
      8          1           0       -2.525153   -0.044792    0.947646
      9          1           0       -2.646233   -0.778944   -0.657831
     10          1           0        0.697655   -0.451893   -1.308772
     11          1           0        0.104063   -1.238003    1.457566
     12          1           0       -0.193796   -2.156266   -0.062542
     13          1           0        2.275348   -1.362721   -0.420582
     14          1           0        2.454281    1.292687   -0.081340
     15          1           0       -0.107927    1.447264    1.164527
     16          1           0        0.051731    2.099608   -0.473841
 ---------------------------------------------------------------------

 SCF Done:  E(RHF) =  -234.057013050     A.U. after    2 cycles

 The electronic state is 1-A.
 Alpha  occ. eigenvalues --  -11.47230 -11.43110 -11.40208 -11.40113 -11.38357
 Alpha  occ. eigenvalues --  -11.35084  -1.36761  -1.09205  -1.03806  -0.94554
 Alpha  occ. eigenvalues --   -0.79025  -0.75529  -0.67038  -0.65451  -0.57505
 Alpha  occ. eigenvalues --   -0.54537  -0.54368  -0.49949  -0.47517  -0.45812
 Alpha  occ. eigenvalues --   -0.43055  -0.40719  -0.22525
 Alpha virt. eigenvalues --    0.04246   0.05184   0.05211   0.05578   0.05788
 Alpha virt. eigenvalues --    0.06087   0.06401   0.06625   0.07604   0.07685
 Alpha virt. eigenvalues --    0.08642   0.11928   0.13252   0.13464   0.13873

 Mulliken charges:
               1
     1  C   -4.512496
     2  C    2.025863
     3  C   -3.527621
     4  C   -2.349865
     5  C   -0.845135
     6  C   -3.894651
     7  H    1.252287
     8  H    1.161623
     9  H    1.253468
    10  H    1.248446
    11  H    1.282803
    12  H    1.272006
    13  H    1.401833
    14  H    1.404164
    15  H    1.519269
    16  H    1.308008
 Sum of Mulliken charges =  -0.00000

 Dipole moment (field-independent basis, Debye):
    X=              0.1171    Y=              0.4989    Z=              0.3581  Tot=              0.6252

 Test job not archived.
 1\1\GINC-SE435\SP\RHF\Aug-CC-pVDZ\C6H10\OHZDE\09-Apr-2025\0\\#t hf aug
 -cc-pvdz iop(5/13=1,5/36=2,99/5=2) pseudo=read geom=check guess=(read,
 tcheck) scf=(maxcycle=1)\\title\\0,1\C,0,2.03892208,-0.17544974,0.0175
 7292\C,0,0.54975206,-0.14887628,0.17292026\C,0,-0.36564625,-0.87487352
 ,-0.8107438\C,0,-1.62879248,-0.58924742,0.02012897\C,0,-1.64464786,0.8
 0539182,0.29628187\C,0,-0.20266075,1.14647489,0.43477794\H,0,2.5406895
 4,0.44799175,0.77117456\H,0,2.3595978,0.17436585,-0.98525505\H,0,2.416
 45532,-1.2038189,0.12315327\H,0,-0.87172161,-0.9054416,1.02378278\H,0,

 Normal termination of Gaussian 16 at Wed Apr  9 03:15:15 2025.
