 Gaussian 16, Revision C.01,

 ----------------------------------------------------------------------
 #t hf aug-cc-pvdz symm=none int=(grid=ultrafine) guess=(read,tcheck) s
 table=(opt,rrhf)
 ----------------------------------------------------------------------
 -----
 title
 -----
 Symbolic Z-matrix:
 Charge =  0 Multiplicity = 1

 SCF Done:  E(RHF) =  -288.035280504     A.U. after   14 cycles

 1\1\GINC-SE029\Stability\RHF\Aug-CC-pVDZ\C6H11N1\OHZDE\09-Apr-2025\0\\
 #t hf aug-cc-pvdz symm=none int=(grid=ultrafine) guess=(read,tcheck) s
 table=(opt,rrhf)\\title\\0,1\C,0,-2.46369537,-0.19683772,0.66153407\C,
 0,-1.27329633,-0.66738532,0.99011411\C,0,0.04691678,0.04396052,0.82242
 46\C,0,0.98729809,-0.73012717,-0.12208651\C,0,2.37481161,-0.11771268,-
 0.23706164\C,0,-0.13037582,1.42215569,0.35699186\N,0,-0.26484517,2.495
 23694,-0.02606053\H,0,-3.35453355,-0.79474205,0.80561918\H,0,-1.128198
 39,1.15266866,-2.50134792\H,0,-2.59279976,0.79420798,0.24046044\H,0,-1

 Normal termination of Gaussian 16 at Wed Apr  9 18:04:05 2025.
 Gaussian 16:  ES64L-G16RevC.01  3-Jul-2019

 ----------------------------------------------------------------------
 #t hf aug-cc-pvdz iop(5/13=1,5/36=2,99/5=2) pseudo=read geom=check gue
 ss=(read,tcheck) scf=(maxcycle=1)
 ----------------------------------------------------------------------
 -----
 title
 -----
 Structure from the checkpoint file:  "Grambow2020_wb97xd3_006569_reverse_mol2.chk"
 Charge =  0 Multiplicity = 1

                         Standard orientation:
 ---------------------------------------------------------------------
 Center     Atomic      Atomic             Coordinates (Angstroms)
 Number     Number       Type             X           Y           Z
 ---------------------------------------------------------------------
      1          6           0        2.414765   -0.513073    0.173565
      2          6           0        1.293235   -1.078711   -0.237110
      3          6           0       -0.007555   -0.373596   -0.533510
      4          6           0       -1.139714   -0.871068    0.386472
      5          6           0       -2.500008   -0.276897    0.054768
      6          6           0        0.127494    1.082775   -0.442813
      7          7           0        0.225169    2.222419   -0.353452
      8          1           0        3.294111   -1.110700    0.377122
      9          1           0        0.546811    1.639580    2.515653
     10          1           0        2.496859    0.558304    0.320381
     11          1           0        1.247702   -2.155726   -0.373315
     12          1           0        0.593595    1.273954    3.163911
     13          1           0       -0.291146   -0.593381   -1.569738
     14          1           0       -1.171814   -1.960174    0.298232
     15          1           0       -0.864488   -0.646740    1.419773
     16          1           0       -2.791591   -0.503905   -0.973491
     17          1           0       -3.266968   -0.683030    0.715129
     18          1           0       -2.498565    0.808306    0.172282
 ---------------------------------------------------------------------

 SCF Done:  E(RHF) =  -289.472977851     A.U. after    2 cycles

 The electronic state is 1-A.
 Alpha  occ. eigenvalues --  -15.75516 -11.49188 -11.44499 -11.43579 -11.41900
 Alpha  occ. eigenvalues --  -11.39305 -11.37438  -1.35390  -1.25305  -1.14396
 Alpha  occ. eigenvalues --   -1.03177  -0.88986  -0.83551  -0.71145  -0.66222
 Alpha  occ. eigenvalues --   -0.62139  -0.60869  -0.59918  -0.58370  -0.54164
 Alpha  occ. eigenvalues --   -0.50998  -0.50237  -0.48501  -0.48010  -0.43226
 Alpha  occ. eigenvalues --   -0.42167  -0.36218
 Alpha virt. eigenvalues --    0.03573   0.04638   0.04881   0.05328   0.05804
 Alpha virt. eigenvalues --    0.06099   0.07053   0.07428   0.08075   0.08690
 Alpha virt. eigenvalues --    0.09937   0.10554   0.11876   0.12187   0.12817

 Mulliken charges:
               1
     1  C   -3.076647
     2  C   -0.219695
     3  C   -2.214693
     4  C   -3.045879
     5  C   -3.910856
     6  C    2.217492
     7  N   -2.456200
     8  H    1.379962
     9  H   -0.236752
    10  H    1.570085
    11  H    1.288389
    12  H    0.123514
    13  H    1.654323
    14  H    1.494324
    15  H    1.692072
    16  H    1.233726
    17  H    1.081387
    18  H    1.425448
 Sum of Mulliken charges =  -0.00000

 Dipole moment (field-independent basis, Debye):
    X=             -0.5190    Y=             -3.3811    Z=             -0.0057  Tot=              3.4207

 Test job not archived.
 1\1\GINC-SE029\SP\RHF\Aug-CC-pVDZ\C6H11N1\OHZDE\09-Apr-2025\0\\#t hf a
 ug-cc-pvdz iop(5/13=1,5/36=2,99/5=2) pseudo=read geom=check guess=(rea
 d,tcheck) scf=(maxcycle=1)\\title\\0,1\C,0,-2.46369537,-0.19683772,0.6
 6153407\C,0,-1.27329633,-0.66738532,0.99011411\C,0,0.04691678,0.043960
 52,0.8224246\C,0,0.98729809,-0.73012717,-0.12208651\C,0,2.37481161,-0.
 11771268,-0.23706164\C,0,-0.13037582,1.42215569,0.35699186\N,0,-0.2648
 4517,2.49523694,-0.02606053\H,0,-3.35453355,-0.79474205,0.80561918\H,0
 ,-1.12819839,1.15266866,-2.50134792\H,0,-2.59279976,0.79420798,0.24046

 Normal termination of Gaussian 16 at Wed Apr  9 18:04:12 2025.
