 Gaussian 16, Revision C.01,

 ----------------------------------------------------------------------
 #t hf aug-cc-pvdz symm=none int=(grid=ultrafine) guess=(read,tcheck) s
 table=(opt,rrhf)
 ----------------------------------------------------------------------
 -----
 title
 -----
 Symbolic Z-matrix:
 Charge =  0 Multiplicity = 1

 SCF Done:  E(RHF) =  -306.579093846     A.U. after   16 cycles
 Normal termination of Gaussian 16 at Wed Apr  9 03:27:25 2025.
 Gaussian 16:  ES64L-G16RevC.01  3-Jul-2019

 ----------------------------------------------------------------------
 #t hf aug-cc-pvdz iop(5/13=1,5/36=2,99/5=2) pseudo=read geom=check gue
 ss=(read,tcheck) scf=(maxcycle=1)
 ----------------------------------------------------------------------
 -----
 title
 -----
 Structure from the checkpoint file:  "Grambow2020_wb97xd3_006668_reverse_mol1.chk"
 Charge =  0 Multiplicity = 1

                         Standard orientation:
 ---------------------------------------------------------------------
 Center     Atomic      Atomic             Coordinates (Angstroms)
 Number     Number       Type             X           Y           Z
 ---------------------------------------------------------------------
      1          6           0       -2.463143   -0.003535   -0.265188
      2          6           0       -1.000749    0.254516   -0.421026
      3          6           0       -0.096050    0.085490    0.800626
      4          8           0        0.562640   -1.169933    0.609776
      5          6           0        1.140794   -0.812486   -0.577199
      6          6           0        1.607910    0.514832   -0.545727
      7          6           0        0.906503    1.122649    0.465057
      8          1           0       -2.954401    0.766150    0.344735
      9          1           0       -2.640617   -0.964722    0.225373
     10          1           0       -2.961675   -0.004106   -1.235717
     11          1           0       -0.722341    1.015915   -1.135614
     12          1           0       -0.591134    0.118704    1.769869
     13          1           0        1.520325   -1.615938   -1.195118
     14          1           0        2.311013    0.947112   -1.241605
     15          1           0        0.966122    2.127548    0.850618
 ---------------------------------------------------------------------

 SCF Done:  E(RHF) =  -308.035276621     A.U. after    2 cycles

 The electronic state is 1-A.
 Alpha  occ. eigenvalues --  -21.05660 -11.50891 -11.46209 -11.44108 -11.40944
 Alpha  occ. eigenvalues --  -11.38242 -11.36409  -1.81195  -1.24915  -1.13280
 Alpha  occ. eigenvalues --   -1.03246  -0.88581  -0.79651  -0.78481  -0.74078
 Alpha  occ. eigenvalues --   -0.62813  -0.57590  -0.56478  -0.52838  -0.51598
 Alpha  occ. eigenvalues --   -0.50455  -0.49257  -0.43296  -0.38326  -0.31322
 Alpha  occ. eigenvalues --   -0.22562
 Alpha virt. eigenvalues --    0.03857   0.04598   0.05171   0.05313   0.05860
 Alpha virt. eigenvalues --    0.06236   0.06795   0.07561   0.08608   0.10962
 Alpha virt. eigenvalues --    0.11439   0.12199   0.13135   0.13363   0.14006

 Mulliken charges:
               1
     1  C   -4.276126
     2  C   -0.159318
     3  C   -1.622467
     4  O   -3.070023
     5  C   -0.429098
     6  C   -0.851806
     7  C   -0.591865
     8  H    1.213082
     9  H    1.254892
    10  H    1.206714
    11  H    1.627728
    12  H    1.665472
    13  H    1.400402
    14  H    1.388432
    15  H    1.243980
 Sum of Mulliken charges =  -0.00000

 Dipole moment (field-independent basis, Debye):
    X=             -0.0980    Y=              0.6682    Z=              0.0743  Tot=              0.6795

 Test job not archived.
 1\1\GINC-SE338\SP\RHF\Aug-CC-pVDZ\C6H8O1\OHZDE\09-Apr-2025\0\\#t hf au
 g-cc-pvdz iop(5/13=1,5/36=2,99/5=2) pseudo=read geom=check guess=(read
 ,tcheck) scf=(maxcycle=1)\\title\\0,1\C,0,2.17822547,0.04741004,-0.123
 30119\C,0,0.70475958,-0.07673553,-0.33056793\C,0,-0.20516819,-0.101331
 42,0.89862196\O,0,-0.77918248,1.2071512,0.96763831\C,0,-1.36148323,1.1
 3810125,-0.26811997\C,0,-1.91309451,-0.13409823,-0.50935289\C,0,-1.267
 05497,-0.98005589,0.35672164\H,0,2.61011092,-0.8610849,0.31700262\H,0,
 2.40966497,0.87455039,0.55367869\H,0,2.69002783,0.21314334,-1.07253825

 Normal termination of Gaussian 16 at Wed Apr  9 03:27:30 2025.
