 Gaussian 16, Revision C.01,

 ----------------------------------------------------------------------
 #t hf aug-cc-pvdz symm=none int=(grid=ultrafine) guess=(read,tcheck) s
 table=(opt,rrhf)
 ----------------------------------------------------------------------
 -----
 title
 -----
 Symbolic Z-matrix:
 Charge =  0 Multiplicity = 1

 SCF Done:  E(RHF) =  -231.974766563     A.U. after   14 cycles

 1\1\GINC-SE029\Stability\RHF\Aug-CC-pVDZ\C4H10O1\OHZDE\09-Apr-2025\0\\
 #t hf aug-cc-pvdz symm=none int=(grid=ultrafine) guess=(read,tcheck) s
 table=(opt,rrhf)\\title\\0,1\C,0,1.71695932,-0.76765161,-0.7650594\O,0
 ,1.04197134,-0.31552552,0.42257473\C,0,-0.2235498,0.08156493,0.2928738
 8\C,0,-1.11074278,-0.26007931,-0.79530854\C,0,-0.82417831,0.52563212,1
 .58935388\H,0,2.74662999,-0.96899345,-0.45783308\H,0,1.68757499,0.0386
 6029,-1.51211507\H,0,1.25076112,-1.67922207,-1.16142319\H,0,0.18756704
 ,1.78523357,-0.37402157\H,0,-0.72165949,-0.81900255,-1.64370447\H,0,-0

 Normal termination of Gaussian 16 at Wed Apr  9 03:08:52 2025.
 Gaussian 16:  ES64L-G16RevC.01  3-Jul-2019

 ----------------------------------------------------------------------
 #t hf aug-cc-pvdz iop(5/13=1,5/36=2,99/5=2) pseudo=read geom=check gue
 ss=(read,tcheck) scf=(maxcycle=1)
 ----------------------------------------------------------------------
 -----
 title
 -----
 Structure from the checkpoint file:  "Grambow2020_b97d3_006612_forward_mol1.chk"
 Charge =  0 Multiplicity = 1

                         Standard orientation:
 ---------------------------------------------------------------------
 Center     Atomic      Atomic             Coordinates (Angstroms)
 Number     Number       Type             X           Y           Z
 ---------------------------------------------------------------------
      1          6           0        1.931210   -0.139807   -0.023644
      2          8           0        0.635348   -0.758842   -0.113300
      3          6           0       -0.429673    0.026946    0.042638
      4          6           0       -0.451157    1.463766   -0.109222
      5          6           0       -1.720171   -0.721282   -0.073889
      6          1           0        2.652342   -0.957805   -0.101089
      7          1           0        2.014317    0.356952    0.953811
      8          1           0        2.081597    0.581188   -0.837864
      9          1           0       -0.349951    0.072220    1.915563
     10          1           0        0.482489    1.994579   -0.282712
     11          1           0       -0.498141    1.044734    1.213307
     12          1           0       -1.338968    1.880419   -0.586993
     13          1           0       -2.526549   -0.148624    0.392385
     14          1           0       -1.646168   -1.714313    0.376667
     15          1           0       -1.935003   -0.816355   -1.151970
 ---------------------------------------------------------------------

 SCF Done:  E(RHF) =  -233.140391355     A.U. after    2 cycles

 The electronic state is 1-A.
 Alpha  occ. eigenvalues --  -21.11011 -11.54831 -11.42942 -11.40377 -11.36045
 Alpha  occ. eigenvalues --   -1.82440  -1.21165  -1.04425  -1.00725  -0.77402
 Alpha  occ. eigenvalues --   -0.68651  -0.67216  -0.63794  -0.60959  -0.57596
 Alpha  occ. eigenvalues --   -0.54115  -0.52426  -0.49731  -0.43227  -0.36424
 Alpha  occ. eigenvalues --   -0.27412
 Alpha virt. eigenvalues --    0.03841   0.04934   0.05398   0.05609   0.05851
 Alpha virt. eigenvalues --    0.06423   0.06850   0.07740   0.08228   0.09978
 Alpha virt. eigenvalues --    0.11770   0.13243   0.13914   0.14083   0.15135

 Mulliken charges:
               1
     1  C   -3.154792
     2  O   -3.460224
     3  C    2.887407
     4  C   -2.907701
     5  C   -4.652030
     6  H    1.323422
     7  H    1.392431
     8  H    1.309871
     9  H   -0.542232
    10  H    1.452654
    11  H    1.302019
    12  H    1.433916
    13  H    1.157578
    14  H    1.334428
    15  H    1.123254
 Sum of Mulliken charges =  -0.00000

 Dipole moment (field-independent basis, Debye):
    X=              0.9559    Y=             -0.8357    Z=             -3.0328  Tot=              3.2879

 Test job not archived.
 1\1\GINC-SE029\SP\RHF\Aug-CC-pVDZ\C4H10O1\OHZDE\09-Apr-2025\0\\#t hf a
 ug-cc-pvdz iop(5/13=1,5/36=2,99/5=2) pseudo=read geom=check guess=(rea
 d,tcheck) scf=(maxcycle=1)\\title\\0,1\C,0,1.71695932,-0.76765161,-0.7
 650594\O,0,1.04197134,-0.31552552,0.42257473\C,0,-0.2235498,0.08156493
 ,0.29287388\C,0,-1.11074278,-0.26007931,-0.79530854\C,0,-0.82417831,0.
 52563212,1.58935388\H,0,2.74662999,-0.96899345,-0.45783308\H,0,1.68757
 499,0.03866029,-1.51211507\H,0,1.25076112,-1.67922207,-1.16142319\H,0,
 0.18756704,1.78523357,-0.37402157\H,0,-0.72165949,-0.81900255,-1.64370

 Normal termination of Gaussian 16 at Wed Apr  9 03:08:56 2025.
