 Gaussian 16, Revision C.01,

 ----------------------------------------------------------------------
 #t hf aug-cc-pvdz symm=none int=(grid=ultrafine) guess=(read,tcheck) s
 table=(opt,rrhf)
 ----------------------------------------------------------------------
 -----
 title
 -----
 Symbolic Z-matrix:
 Charge =  0 Multiplicity = 1

 SCF Done:  E(RHF) =  -302.744207720     A.U. after   16 cycles
 Normal termination of Gaussian 16 at Wed Apr  9 18:28:31 2025.
 Gaussian 16:  ES64L-G16RevC.01  3-Jul-2019

 ----------------------------------------------------------------------
 #t hf aug-cc-pvdz iop(5/13=1,5/36=2,99/5=2) pseudo=read geom=check gue
 ss=(read,tcheck) scf=(maxcycle=1)
 ----------------------------------------------------------------------
 -----
 title
 -----
 Structure from the checkpoint file:  "Grambow2020_wb97xd3_007170_reverse_mol2.chk"
 Charge =  0 Multiplicity = 1

                         Standard orientation:
 ---------------------------------------------------------------------
 Center     Atomic      Atomic             Coordinates (Angstroms)
 Number     Number       Type             X           Y           Z
 ---------------------------------------------------------------------
      1          6           0       -1.464710    1.698220   -0.099288
      2          6           0       -1.251880    0.244504   -0.150442
      3          6           0       -1.696292   -1.155613   -0.107394
      4          7           0       -0.330955   -0.632009   -0.145916
      5          6           0        0.941338   -1.033438   -0.100474
      6          6           0        1.942391   -0.050025   -0.093377
      7          7           0        2.741227    0.784852   -0.083801
      8          1           0       -2.072453    2.037189   -0.940751
      9          1           0       -0.502181    2.207864   -0.134574
     10          1           0       -1.977549    1.985806    0.821614
     11          1           0       -0.422491    0.087957    2.899170
     12          1           0       -1.995895   -1.619351    0.833372
     13          1           0       -2.033085   -1.666799   -1.008757
     14          1           0        0.160976   -0.235758    2.564076
     15          1           0        1.145690   -2.088702   -0.120286
 ---------------------------------------------------------------------

 SCF Done:  E(RHF) =  -304.192727027     A.U. after    2 cycles

 The electronic state is 1-A.
 Alpha  occ. eigenvalues --  -15.86987 -15.72352 -11.51363 -11.49272 -11.42986
 Alpha  occ. eigenvalues --  -11.42579 -11.39695  -1.58597  -1.28547  -1.16535
 Alpha  occ. eigenvalues --   -1.11090  -0.93552  -0.82604  -0.71332  -0.69920
 Alpha  occ. eigenvalues --   -0.67724  -0.62207  -0.61979  -0.59745  -0.52818
 Alpha  occ. eigenvalues --   -0.51920  -0.50121  -0.46512  -0.43190  -0.41450
 Alpha  occ. eigenvalues --   -0.24965
 Alpha virt. eigenvalues --    0.02415   0.04192   0.05008   0.05460   0.05576
 Alpha virt. eigenvalues --    0.06930   0.07413   0.08998   0.09456   0.10059
 Alpha virt. eigenvalues --    0.11060   0.11716   0.12242   0.12801   0.13440

 Mulliken charges:
               1
     1  C   -4.743717
     2  C    4.298553
     3  C   -3.040821
     4  N   -3.482620
     5  C   -0.913988
     6  C    2.281541
     7  N   -2.410899
     8  H    1.134443
     9  H    1.366787
    10  H    1.134963
    11  H    0.109750
    12  H    1.464691
    13  H    1.420935
    14  H   -0.305048
    15  H    1.685430
 Sum of Mulliken charges =  -0.00000

 Dipole moment (field-independent basis, Debye):
    X=             -5.7436    Y=             -1.2856    Z=             -0.0645  Tot=              5.8860

 Test job not archived.
 1\1\GINC-SE224\SP\RHF\Aug-CC-pVDZ\C5H8N2\OHZDE\09-Apr-2025\0\\#t hf au
 g-cc-pvdz iop(5/13=1,5/36=2,99/5=2) pseudo=read geom=check guess=(read
 ,tcheck) scf=(maxcycle=1)\\title\\0,1\C,0,-1.66653529,-1.04387695,0.23
 602531\C,0,-0.8144367,0.14169198,0.40794354\C,0,-0.56964932,1.58801864
 ,0.49683365\N,0,0.4049982,0.49791554,0.45775816\C,0,1.72081805,0.27671
 503,0.41740125\C,0,2.16235383,-1.05027194,0.30160381\N,0,2.49188755,-2
 .15323507,0.20095868\H,0,-2.37765581,-1.14054402,1.05899229\H,0,-1.043
 74279,-1.9375067,0.20439916\H,0,-2.23673826,-0.9836202,-0.69403179\H,0

 Normal termination of Gaussian 16 at Wed Apr  9 18:28:35 2025.
