 Gaussian 16, Revision C.01,

 ----------------------------------------------------------------------
 #t hf aug-cc-pvdz symm=none int=(grid=ultrafine) guess=(read,tcheck) s
 table=(opt,rrhf)
 ----------------------------------------------------------------------
 -----
 title
 -----
 Symbolic Z-matrix:
 Charge =  0 Multiplicity = 1

 SCF Done:  E(RHF) =  -191.810501264     A.U. after   15 cycles
 Normal termination of Gaussian 16 at Wed Apr  9 03:21:18 2025.
 Gaussian 16:  ES64L-G16RevC.01  3-Jul-2019

 ----------------------------------------------------------------------
 #t hf aug-cc-pvdz iop(5/13=1,5/36=2,99/5=2) pseudo=read geom=check gue
 ss=(read,tcheck) scf=(maxcycle=1)
 ----------------------------------------------------------------------
 -----
 title
 -----
 Structure from the checkpoint file:  "Grambow2020_wb97xd3_006096_reverse_mol1.chk"
 Charge =  0 Multiplicity = 1

                         Standard orientation:
 ---------------------------------------------------------------------
 Center     Atomic      Atomic             Coordinates (Angstroms)
 Number     Number       Type             X           Y           Z
 ---------------------------------------------------------------------
      1          6           0       -1.492051   -0.042623   -0.151004
      2          6           0       -0.112607   -0.135956    0.429685
      3          6           0        0.976270   -0.834859   -0.279783
      4          8           0        0.814841    0.880561   -0.010477
      5          1           0       -2.010121    0.846068    0.214115
      6          1           0       -2.071785   -0.922149    0.137041
      7          1           0       -1.440638   -0.008599   -1.239658
      8          1           0       -0.082242   -0.152439    1.517869
      9          1           0        1.769565   -1.125119    0.416892
     10          1           0        1.086830    0.398381   -0.955836
 ---------------------------------------------------------------------

 SCF Done:  E(RHF) =  -192.716212359     A.U. after    2 cycles

 The electronic state is 1-A.
 Alpha  occ. eigenvalues --  -21.09864 -11.46562 -11.40177 -11.38123  -1.78750
 Alpha  occ. eigenvalues --   -1.13232  -0.97066  -0.84244  -0.68760  -0.60439
 Alpha  occ. eigenvalues --   -0.57443  -0.53326  -0.50980  -0.40784  -0.37004
 Alpha  occ. eigenvalues --   -0.31975
 Alpha virt. eigenvalues --    0.03952   0.05611   0.05924   0.06068   0.06696
 Alpha virt. eigenvalues --    0.07108   0.09884   0.11532   0.11965   0.13976
 Alpha virt. eigenvalues --    0.14666   0.15051   0.16612   0.17417   0.17743

 Mulliken charges:
               1
     1  C   -3.573577
     2  C    0.755735
     3  C   -2.220651
     4  O   -2.393734
     5  H    1.163832
     6  H    1.219171
     7  H    1.253152
     8  H    1.438683
     9  H    1.203788
    10  H    1.153600
 Sum of Mulliken charges =   0.00000

 Dipole moment (field-independent basis, Debye):
    X=             -0.6452    Y=              1.4108    Z=              1.5441  Tot=              2.1888

 Test job not archived.
 1\1\GINC-SE044\SP\RHF\Aug-CC-pVDZ\C3H6O1\OHZDE\09-Apr-2025\0\\#t hf au
 g-cc-pvdz iop(5/13=1,5/36=2,99/5=2) pseudo=read geom=check guess=(read
 ,tcheck) scf=(maxcycle=1)\\title\\0,1\C,0,-1.22736139,0.23259162,0.071
 76383\C,0,0.10446643,-0.39069088,-0.22239617\C,0,1.32331885,0.42842683
 ,-0.36699595\O,0,0.92818795,-0.66578421,0.93216649\H,0,-1.87904166,-0.
 46821295,0.59680226\H,0,-1.71266622,0.51994518,-0.86340217\H,0,-1.0975
 7109,1.12889995,0.67901565\H,0,0.05340817,-1.30637782,-0.80912245\H,0,
 2.09114435,-0.11434729,-0.92803264\H,0,1.3298746,0.34757457,1.04139713

 Normal termination of Gaussian 16 at Wed Apr  9 03:21:20 2025.
