 Gaussian 16, Revision C.01,

 ----------------------------------------------------------------------
 #t hf aug-cc-pvdz symm=none int=(grid=ultrafine) guess=(read,tcheck) s
 table=(opt,rrhf)
 ----------------------------------------------------------------------
 -----
 title
 -----
 Symbolic Z-matrix:
 Charge =  0 Multiplicity = 1

 SCF Done:  E(RHF) =  -353.575602954     A.U. after   15 cycles
 Normal termination of Gaussian 16 at Wed Apr  9 17:57:44 2025.
 Gaussian 16:  ES64L-G16RevC.01  3-Jul-2019

 ----------------------------------------------------------------------
 #t hf aug-cc-pvdz iop(5/13=1,5/36=2,99/5=2) pseudo=read geom=check gue
 ss=(read,tcheck) scf=(maxcycle=1)
 ----------------------------------------------------------------------
 -----
 title
 -----
 Structure from the checkpoint file:  "Grambow2020_wb97xd3_006534_forward_mol2.chk"
 Charge =  0 Multiplicity = 1

                         Standard orientation:
 ---------------------------------------------------------------------
 Center     Atomic      Atomic             Coordinates (Angstroms)
 Number     Number       Type             X           Y           Z
 ---------------------------------------------------------------------
      1          8           0       -2.212113    0.044000   -0.000532
      2          6           0       -1.010324    0.090115   -0.000155
      3          7           0       -0.261840   -1.090575    0.000582
      4          7           0        1.053226   -1.205200    0.000191
      5          6           0        1.714452   -0.095925   -0.001051
      6          6           0        1.022681    1.157208   -0.000068
      7          7           0       -0.259887    1.264241    0.000526
      8          1           0       -0.778463   -1.956876    0.001169
      9          1           0        2.793655   -0.162730   -0.000186
     10          1           0        1.600358    2.079960    0.001825
 ---------------------------------------------------------------------

 SCF Done:  E(RHF) =  -355.118837265     A.U. after    2 cycles

 The electronic state is 1-A.
 Alpha  occ. eigenvalues --  -21.03669 -15.83946 -15.83079 -15.77157 -11.52316
 Alpha  occ. eigenvalues --  -11.50448 -11.44080  -1.74335  -1.60493  -1.39952
 Alpha  occ. eigenvalues --   -1.24894  -1.00756  -0.94473  -0.78993  -0.72090
 Alpha  occ. eigenvalues --   -0.69431  -0.66014  -0.60684  -0.52770  -0.50064
 Alpha  occ. eigenvalues --   -0.49548  -0.46790  -0.39645  -0.30398  -0.29927
 Alpha virt. eigenvalues --    0.02688   0.04795   0.05485   0.06592   0.09630
 Alpha virt. eigenvalues --    0.10220   0.10609   0.11039   0.11458   0.13250
 Alpha virt. eigenvalues --    0.13742   0.13822   0.14188   0.15296   0.16603

 Mulliken charges:
               1
     1  O   -3.112107
     2  C    5.033326
     3  N   -1.772690
     4  N   -1.824136
     5  C    0.475123
     6  C    0.315973
     7  N   -3.029182
     8  H    0.803358
     9  H    1.508318
    10  H    1.602017
 Sum of Mulliken charges =   0.00000

 Dipole moment (field-independent basis, Debye):
    X=              2.9634    Y=             -1.0190    Z=              0.0016  Tot=              3.1337

 Test job not archived.
 1\1\GINC-SE454\SP\RHF\Aug-CC-pVDZ\C3H3N3O1\OHZDE\09-Apr-2025\0\\#t hf
 aug-cc-pvdz iop(5/13=1,5/36=2,99/5=2) pseudo=read geom=check guess=(re
 ad,tcheck) scf=(maxcycle=1)\\title\\0,1\O,0,2.29031285,-1.1620859,0.22
 931894\C,0,1.19623859,-0.67504571,0.11878647\N,0,1.04187889,0.71434641
 ,0.12329457\N,0,-0.08328361,1.39555514,0.01148795\C,0,-1.15748196,0.69
 018825,-0.11605707\C,0,-1.0855581,-0.73934598,-0.12832188\N,0,0.013850
 38,-1.39944986,-0.01878024\H,0,1.8810342,1.26511442,0.22254247\H,0,-2.
 09284977,1.22472084,-0.20827365\H,0,-2.00414146,-1.31399761,-0.2339975

 Normal termination of Gaussian 16 at Wed Apr  9 17:57:47 2025.
