 Gaussian 16, Revision C.01,

 ----------------------------------------------------------------------
 #t hf aug-cc-pvdz symm=none int=(grid=ultrafine) guess=(read,tcheck) s
 table=(opt,rrhf)
 ----------------------------------------------------------------------
 -----
 title
 -----
 Symbolic Z-matrix:
 Charge =  0 Multiplicity = 1

 SCF Done:  E(RHF) =  -318.784912142     A.U. after   15 cycles
 Normal termination of Gaussian 16 at Wed Apr  9 18:20:41 2025.
 Gaussian 16:  ES64L-G16RevC.01  3-Jul-2019

 ----------------------------------------------------------------------
 #t hf aug-cc-pvdz iop(5/13=1,5/36=2,99/5=2) pseudo=read geom=check gue
 ss=(read,tcheck) scf=(maxcycle=1)
 ----------------------------------------------------------------------
 -----
 title
 -----
 Structure from the checkpoint file:  "Grambow2020_wb97xd3_006914_reverse_mol2.chk"
 Charge =  0 Multiplicity = 1

                         Standard orientation:
 ---------------------------------------------------------------------
 Center     Atomic      Atomic             Coordinates (Angstroms)
 Number     Number       Type             X           Y           Z
 ---------------------------------------------------------------------
      1          7           0        2.375954   -0.551751    0.059067
      2          6           0        0.972584   -0.125966   -0.097319
      3          6           0       -0.017050   -1.032851   -0.065959
      4          6           0       -1.164823   -0.132692   -0.031917
      5          7           0       -2.483659   -0.604672   -0.063438
      6          6           0       -0.768502    1.171260    0.027628
      7          7           0        0.640030    1.217240    0.068926
      8          1           0        2.784981   -0.262921    0.948453
      9          1           0        3.001267   -0.274859   -0.697073
     10          1           0        2.261362   -1.571671    0.052514
     11          1           0       -3.140179   -0.048389    0.460109
     12          1           0       -2.519545   -1.571464    0.219132
     13          1           0       -1.335653    2.090481    0.054547
     14          1           0        1.088230    1.934604   -0.484161
 ---------------------------------------------------------------------

 SCF Done:  E(RHF) =  -320.297754976     A.U. after    2 cycles

 The electronic state is 1-A.
 Alpha  occ. eigenvalues --  -15.90245 -15.74032 -15.70755 -11.39683 -11.39380
 Alpha  occ. eigenvalues --  -11.34256 -11.28933  -1.51989  -1.40084  -1.28665
 Alpha  occ. eigenvalues --   -1.05506  -0.98047  -0.79295  -0.76751  -0.76186
 Alpha  occ. eigenvalues --   -0.71092  -0.66735  -0.61900  -0.54227  -0.52338
 Alpha  occ. eigenvalues --   -0.49769  -0.42859  -0.40259  -0.28495  -0.27500
 Alpha  occ. eigenvalues --   -0.22942
 Alpha virt. eigenvalues --    0.01408   0.04347   0.04648   0.05161   0.06565
 Alpha virt. eigenvalues --    0.07234   0.08958   0.10208   0.11768   0.12266
 Alpha virt. eigenvalues --    0.12739   0.14404   0.14676   0.15066   0.15219

 Mulliken charges:
               1
     1  N   -3.239433
     2  C    5.136656
     3  C   -4.803627
     4  C    4.871439
     5  N   -3.470154
     6  C   -0.381909
     7  N   -3.301506
     8  H    0.574898
     9  H    0.628639
    10  H    0.670320
    11  H    0.601548
    12  H    0.680840
    13  H    1.389757
    14  H    0.642531
 Sum of Mulliken charges =   0.00000

 Dipole moment (field-independent basis, Debye):
    X=              6.9505    Y=              2.2113    Z=              0.7616  Tot=              7.3335

 Test job not archived.
 1\1\GINC-SE029\SP\RHF\Aug-CC-pVDZ\C4H7N3\OHZDE\09-Apr-2025\0\\#t hf au
 g-cc-pvdz iop(5/13=1,5/36=2,99/5=2) pseudo=read geom=check guess=(read
 ,tcheck) scf=(maxcycle=1)\\title\\0,1\N,0,-2.17983291,-0.82071984,-0.0
 1245396\C,0,-0.83944704,-0.22087722,0.12447688\C,0,0.24393676,-1.00523
 635,0.24220254\C,0,1.28668747,0.00795189,0.11993704\N,0,2.64671248,-0.
 30231417,0.25091905\C,0,0.75292309,1.23931717,-0.12448185\N,0,-0.64913
 209,1.1184883,-0.2106545\H,0,-2.57974026,-0.69836474,-0.94349496\H,0,-
 2.86334899,-0.52121278,0.68219259\H,0,-1.95467715,-1.81136063,0.133652

 Normal termination of Gaussian 16 at Wed Apr  9 18:20:45 2025.
