 Gaussian 16, Revision C.01,

 ----------------------------------------------------------------------
 #t hf aug-cc-pvdz symm=none int=(grid=ultrafine) guess=(read,tcheck) s
 table=(opt,rrhf)
 ----------------------------------------------------------------------
 -----
 title
 -----
 Symbolic Z-matrix:
 Charge =  0 Multiplicity = 1

 SCF Done:  E(RHF) =  -344.793750645     A.U. after   15 cycles

 1\1\GINC-SE458\Stability\RHF\Aug-CC-pVDZ\C5H10O2\OHZDE\09-Apr-2025\0\\
 #t hf aug-cc-pvdz symm=none int=(grid=ultrafine) guess=(read,tcheck) s
 table=(opt,rrhf)\\title\\0,1\C,0,2.3954141,0.33744058,-0.4347422\C,0,1
 .24084131,-0.41310012,0.11626021\C,0,0.42688406,0.05406698,1.19520478\
 O,0,-0.72820933,-0.47844063,1.38053062\C,0,-1.36746645,-0.52213233,-0.
 53746588\C,0,-2.57364868,0.34970653,-0.3538188\O,0,-0.37973977,-0.1189
 394,-1.18545094\H,0,2.14751959,0.5565541,-1.47555873\H,0,3.31659964,-0
 .244618,-0.42589945\H,0,2.54332944,1.28431274,0.08441018\H,0,1.1357978

 Normal termination of Gaussian 16 at Wed Apr  9 03:34:37 2025.
 Gaussian 16:  ES64L-G16RevC.01  3-Jul-2019

 ----------------------------------------------------------------------
 #t hf aug-cc-pvdz iop(5/13=1,5/36=2,99/5=2) pseudo=read geom=check gue
 ss=(read,tcheck) scf=(maxcycle=1)
 ----------------------------------------------------------------------
 -----
 title
 -----
 Structure from the checkpoint file:  "Grambow2020_wb97xd3_007114_forward_mol1.chk"
 Charge =  0 Multiplicity = 1

                         Standard orientation:
 ---------------------------------------------------------------------
 Center     Atomic      Atomic             Coordinates (Angstroms)
 Number     Number       Type             X           Y           Z
 ---------------------------------------------------------------------
      1          6           0       -2.505267   -0.626842    0.300181
      2          6           0       -1.363177    0.061300   -0.349468
      3          6           0       -0.618353    1.119580    0.258951
      4          8           0        0.538076    1.420305   -0.214744
      5          6           0        1.277625   -0.446772   -0.452142
      6          6           0        2.450996   -0.303236    0.470518
      7          8           0        0.315621   -1.183859   -0.153304
      8          1           0       -2.208689   -1.672229    0.409591
      9          1           0       -3.411228   -0.597924   -0.304676
     10          1           0       -2.703108   -0.225462    1.294020
     11          1           0       -1.220353   -0.050110   -1.417440
     12          1           0       -0.849949    1.294408    1.321898
     13          1           0       -1.591624    1.610002   -0.306586
     14          1           0        1.474081   -0.217764   -1.509083
     15          1           0        2.111201   -0.273452    1.504975
     16          1           0        3.096834   -1.177177    0.342975
     17          1           0        3.022322    0.593959    0.240467
 ---------------------------------------------------------------------

 SCF Done:  E(RHF) =  -346.403412214     A.U. after    2 cycles

 The electronic state is 1-A.
 Alpha  occ. eigenvalues --  -21.01104 -20.98019 -11.52218 -11.47156 -11.44939
 Alpha  occ. eigenvalues --  -11.41461 -11.36337  -1.71404  -1.63156  -1.23229
 Alpha  occ. eigenvalues --   -1.08679  -1.01343  -0.83084  -0.80797  -0.66208
 Alpha  occ. eigenvalues --   -0.63310  -0.62426  -0.60212  -0.58042  -0.55504
 Alpha  occ. eigenvalues --   -0.54211  -0.52907  -0.47211  -0.45488  -0.36969
 Alpha  occ. eigenvalues --   -0.28627  -0.27597  -0.25460
 Alpha virt. eigenvalues --    0.03295   0.04801   0.04933   0.05292   0.06225
 Alpha virt. eigenvalues --    0.06521   0.06669   0.07104   0.07519   0.08539
 Alpha virt. eigenvalues --    0.10730   0.11267   0.12742   0.13224   0.14559

 Mulliken charges:
               1
     1  C   -3.670947
     2  C   -1.694382
     3  C    0.619632
     4  O   -2.868380
     5  C    1.342918
     6  C   -3.789695
     7  O   -3.007542
     8  H    1.277112
     9  H    1.097490
    10  H    1.290231
    11  H    1.471244
    12  H    1.495158
    13  H    1.025418
    14  H    1.624324
    15  H    1.318831
    16  H    1.121799
    17  H    1.346789
 Sum of Mulliken charges =   0.00000

 Dipole moment (field-independent basis, Debye):
    X=             -2.5569    Y=             -0.8532    Z=             -0.0573  Tot=              2.6961

 Test job not archived.
 1\1\GINC-SE458\SP\RHF\Aug-CC-pVDZ\C5H10O2\OHZDE\09-Apr-2025\0\\#t hf a
 ug-cc-pvdz iop(5/13=1,5/36=2,99/5=2) pseudo=read geom=check guess=(rea
 d,tcheck) scf=(maxcycle=1)\\title\\0,1\C,0,2.3954141,0.33744058,-0.434
 7422\C,0,1.24084131,-0.41310012,0.11626021\C,0,0.42688406,0.05406698,1
 .19520478\O,0,-0.72820933,-0.47844063,1.38053062\C,0,-1.36746645,-0.52
 213233,-0.53746588\C,0,-2.57364868,0.34970653,-0.3538188\O,0,-0.379739
 77,-0.1189394,-1.18545094\H,0,2.14751959,0.5565541,-1.47555873\H,0,3.3
 1659964,-0.244618,-0.42589945\H,0,2.54332944,1.28431274,0.08441018\H,0

 Normal termination of Gaussian 16 at Wed Apr  9 03:34:42 2025.
