 Gaussian 16, Revision C.01,

 ----------------------------------------------------------------------
 #t hf aug-cc-pvdz symm=none int=(grid=ultrafine) guess=(read,tcheck) s
 table=(opt,rrhf)
 ----------------------------------------------------------------------
 -----
 title
 -----
 Symbolic Z-matrix:
 Charge =  0 Multiplicity = 1

 SCF Done:  E(RHF) =  -346.080100882     A.U. after   12 cycles

 1\1\GINC-SE219\Stability\RHF\Aug-CC-pVDZ\C5H12O2\OHZDE\09-Apr-2025\0\\
 #t hf aug-cc-pvdz symm=none int=(grid=ultrafine) guess=(read,tcheck) s
 table=(opt,rrhf)\\title\\0,1\C,0,-1.72398646,-0.47573491,1.38002953\O,
 0,-0.39444696,-0.35095003,0.94027859\C,0,-0.22246391,0.43307924,-0.237
 33955\C,0,-0.45265292,1.91166585,0.03454657\C,0,1.17778316,0.1606937,-
 0.76661018\C,0,1.46338404,-1.31086583,-1.03997445\O,0,1.65542745,-2.06
 639176,0.1341773\H,0,-2.11596879,0.46513586,1.77999431\H,0,-1.73323817
 ,-1.21955507,2.17559918\H,0,-2.38037913,-0.8145417,0.56868457\H,0,-0.9

 Normal termination of Gaussian 16 at Wed Apr  9 19:02:08 2025.
 Gaussian 16:  ES64L-G16RevC.01  3-Jul-2019

 ----------------------------------------------------------------------
 #t hf aug-cc-pvdz iop(5/13=1,5/36=2,99/5=2) pseudo=read geom=check gue
 ss=(read,tcheck) scf=(maxcycle=1)
 ----------------------------------------------------------------------
 -----
 title
 -----
 Structure from the checkpoint file:  "Grambow2020_wb97xd3_008009_forward_mol2.chk"
 Charge =  0 Multiplicity = 1

                         Standard orientation:
 ---------------------------------------------------------------------
 Center     Atomic      Atomic             Coordinates (Angstroms)
 Number     Number       Type             X           Y           Z
 ---------------------------------------------------------------------
      1          6           0       -1.696606    1.563202    0.197967
      2          8           0       -0.643828    0.767019   -0.286159
      3          6           0       -0.570169   -0.539428    0.278497
      4          6           0       -1.699840   -1.429160   -0.216830
      5          6           0        0.798260   -1.108819   -0.065316
      6          6           0        1.964907   -0.244304    0.396561
      7          8           0        2.142362    0.913325   -0.387492
      8          1           0       -2.673789    1.207481   -0.144722
      9          1           0       -1.542472    2.571185   -0.184783
     10          1           0       -1.698001    1.595545    1.294723
     11          1           0       -0.642157   -0.436853    1.373115
     12          1           0       -1.667119   -1.503759   -1.305580
     13          1           0       -2.678938   -1.047386    0.075291
     14          1           0       -1.600770   -2.431995    0.202214
     15          1           0        0.870316   -1.254425   -1.147811
     16          1           0        0.876060   -2.094982    0.401843
     17          1           0        1.828585    0.017589    1.457377
     18          1           0        2.894064   -0.813318    0.322941
     19          1           0        1.266630    1.299227   -0.500677
 ---------------------------------------------------------------------

 SCF Done:  E(RHF) =  -347.706084363     A.U. after    2 cycles

 The electronic state is 1-A.
 Alpha  occ. eigenvalues --  -21.04936 -21.03952 -11.45465 -11.42920 -11.40986
 Alpha  occ. eigenvalues --  -11.39485 -11.35874  -1.77220  -1.68636  -1.20175
 Alpha  occ. eigenvalues --   -1.05913  -0.99721  -0.89129  -0.82166  -0.66957
 Alpha  occ. eigenvalues --   -0.65183  -0.63193  -0.61585  -0.58901  -0.55665
 Alpha  occ. eigenvalues --   -0.53658  -0.52546  -0.51544  -0.48186  -0.43708
 Alpha  occ. eigenvalues --   -0.41404  -0.36442  -0.30090  -0.29378
 Alpha virt. eigenvalues --    0.03939   0.04737   0.04867   0.05302   0.05510
 Alpha virt. eigenvalues --    0.05765   0.06267   0.07098   0.07406   0.08742
 Alpha virt. eigenvalues --    0.08959   0.09936   0.12098   0.13355   0.13798

 Mulliken charges:
               1
     1  C   -2.991952
     2  O   -3.461239
     3  C    1.124604
     4  C   -4.145601
     5  C   -3.176426
     6  C   -1.049415
     7  O   -2.874592
     8  H    1.542972
     9  H    1.250668
    10  H    1.350022
    11  H    2.031921
    12  H    1.286864
    13  H    1.222834
    14  H    1.195109
    15  H    1.500957
    16  H    1.356227
    17  H    1.449197
    18  H    1.224642
    19  H    1.163208
 Sum of Mulliken charges =  -0.00000

 Dipole moment (field-independent basis, Debye):
    X=             -1.5140    Y=             -0.4427    Z=              0.5447  Tot=              1.6688

 Test job not archived.
 1\1\GINC-SE219\SP\RHF\Aug-CC-pVDZ\C5H12O2\OHZDE\09-Apr-2025\0\\#t hf a
 ug-cc-pvdz iop(5/13=1,5/36=2,99/5=2) pseudo=read geom=check guess=(rea
 d,tcheck) scf=(maxcycle=1)\\title\\0,1\C,0,-1.72398646,-0.47573491,1.3
 8002953\O,0,-0.39444696,-0.35095003,0.94027859\C,0,-0.22246391,0.43307
 924,-0.23733955\C,0,-0.45265292,1.91166585,0.03454657\C,0,1.17778316,0
 .1606937,-0.76661018\C,0,1.46338404,-1.31086583,-1.03997445\O,0,1.6554
 2745,-2.06639176,0.1341773\H,0,-2.11596879,0.46513586,1.77999431\H,0,-
 1.73323817,-1.21955507,2.17559918\H,0,-2.38037913,-0.8145417,0.5686845

 Normal termination of Gaussian 16 at Wed Apr  9 19:02:16 2025.
