 Gaussian 16, Revision C.01,

 ----------------------------------------------------------------------
 #t hf aug-cc-pvdz symm=none int=(grid=ultrafine) guess=(read,tcheck) s
 table=(opt,rrhf)
 ----------------------------------------------------------------------
 -----
 title
 -----
 Symbolic Z-matrix:
 Charge =  0 Multiplicity = 1

 SCF Done:  E(RHF) =  -380.742196120     A.U. after   13 cycles
 Normal termination of Gaussian 16 at Wed Apr  9 03:40:58 2025.
 Gaussian 16:  ES64L-G16RevC.01  3-Jul-2019

 ----------------------------------------------------------------------
 #t hf aug-cc-pvdz iop(5/13=1,5/36=2,99/5=2) pseudo=read geom=check gue
 ss=(read,tcheck) scf=(maxcycle=1)
 ----------------------------------------------------------------------
 -----
 title
 -----
 Structure from the checkpoint file:  "Grambow2020_wb97xd3_007512_reverse_mol2.chk"
 Charge =  0 Multiplicity = 1

                         Standard orientation:
 ---------------------------------------------------------------------
 Center     Atomic      Atomic             Coordinates (Angstroms)
 Number     Number       Type             X           Y           Z
 ---------------------------------------------------------------------
      1          8           0        2.041324   -1.046672   -0.572106
      2          6           0        2.029398    0.252176   -0.008861
      3          6           0        0.852701    0.348643    0.947815
      4          6           0       -0.468525    0.315454    0.258246
      5          8           0       -0.670268    1.364522   -0.584643
      6          6           0       -1.389358   -0.624557    0.432188
      7          8           0       -2.609158   -0.493425   -0.210070
      8          1           0        2.673145   -1.066291   -1.291090
      9          1           0        1.931127    1.018064   -0.785996
     10          1           0        2.957152    0.442667    0.545199
     11          1           0        0.937298    1.285936    1.506649
     12          1           0        0.907497   -0.471418    1.666049
     13          1           0       -2.857882   -1.334681   -0.595511
     14          1           0       -1.251421   -1.463449    1.101339
     15          1           0       -1.537400    1.243479   -0.988417
 ---------------------------------------------------------------------

 SCF Done:  E(RHF) =  -382.421281433     A.U. after    2 cycles

 The electronic state is 1-A.
 Alpha  occ. eigenvalues --  -21.09161 -21.08504 -21.06535 -11.46775 -11.43409
 Alpha  occ. eigenvalues --  -11.40731 -11.37321  -1.77358  -1.71098  -1.70119
 Alpha  occ. eigenvalues --   -1.17386  -1.02678  -0.88529  -0.76905  -0.69206
 Alpha  occ. eigenvalues --   -0.66804  -0.63032  -0.60931  -0.54863  -0.52753
 Alpha  occ. eigenvalues --   -0.49456  -0.46102  -0.43733  -0.42698  -0.40199
 Alpha  occ. eigenvalues --   -0.37550  -0.31923  -0.24635
 Alpha virt. eigenvalues --    0.03835   0.05120   0.05278   0.05822   0.06267
 Alpha virt. eigenvalues --    0.06616   0.06982   0.08139   0.11513   0.12324
 Alpha virt. eigenvalues --    0.12740   0.13838   0.14266   0.14836   0.15481

 Mulliken charges:
               1
     1  O   -2.616300
     2  C   -1.035634
     3  C   -3.043928
     4  C    5.281522
     5  O   -4.189871
     6  C   -1.008487
     7  O   -2.974443
     8  H    0.793585
     9  H    1.502526
    10  H    1.250188
    11  H    1.273360
    12  H    1.499009
    13  H    0.766590
    14  H    1.480032
    15  H    1.021852
 Sum of Mulliken charges =   0.00000

 Dipole moment (field-independent basis, Debye):
    X=              0.4389    Y=             -0.2879    Z=             -0.5812  Tot=              0.7831

 Test job not archived.
 1\1\GINC-SE049\SP\RHF\Aug-CC-pVDZ\C4H8O3\OHZDE\09-Apr-2025\0\\#t hf au
 g-cc-pvdz iop(5/13=1,5/36=2,99/5=2) pseudo=read geom=check guess=(read
 ,tcheck) scf=(maxcycle=1)\\title\\0,1\O,0,-1.52264071,1.547464,0.18680
 952\C,0,-1.61784724,0.29008182,-0.45686548\C,0,-0.83680127,-0.72624293
 ,0.35934646\C,0,0.6354059,-0.49354096,0.33291631\O,0,1.18345896,-0.608
 14023,-0.9073306\C,0,1.37585009,-0.21021034,1.39747065\O,0,2.74777022,
 -0.09658581,1.24738703\H,0,-1.86948485,2.22142532,-0.39799451\H,0,-1.2
 0819981,0.33473839,-1.47193979\H,0,-2.66440444,-0.03290623,-0.52315384

 Normal termination of Gaussian 16 at Wed Apr  9 03:41:03 2025.
