 Gaussian 16, Revision C.01,

 ----------------------------------------------------------------------
 #t hf aug-cc-pvdz symm=none int=(grid=ultrafine) guess=(read,tcheck) s
 table=(opt,rrhf)
 ----------------------------------------------------------------------
 -----
 title
 -----
 Symbolic Z-matrix:
 Charge =  0 Multiplicity = 1

 SCF Done:  E(RHF) =  -308.929105463     A.U. after   15 cycles

 1\1\GINC-SE229\Stability\RHF\Aug-CC-pVDZ\C6H12O1\OHZDE\09-Apr-2025\0\\
 #t hf aug-cc-pvdz symm=none int=(grid=ultrafine) guess=(read,tcheck) s
 table=(opt,rrhf)\\title\\0,1\C,0,-1.6728712,-0.98205973,-0.61182025\C,
 0,-0.73167629,0.04652187,0.01340328\C,0,-1.48215651,1.03477078,0.90121
 659\C,0,0.32748631,-0.6695055,0.81820486\O,0,1.24347902,-1.47735107,0.
 14478854\C,0,2.13424992,-0.46533673,0.61771738\C,0,2.41842615,0.529477
 7,-0.47987465\H,0,-2.42612608,-0.48584702,-1.22678306\H,0,-1.12261957,
 -1.68281663,-1.24015238\H,0,-2.19574809,-1.5537988,0.15998907\H,0,-0.2

 Normal termination of Gaussian 16 at Wed Apr  9 18:50:05 2025.
 Gaussian 16:  ES64L-G16RevC.01  3-Jul-2019

 ----------------------------------------------------------------------
 #t hf aug-cc-pvdz iop(5/13=1,5/36=2,99/5=2) pseudo=read geom=check gue
 ss=(read,tcheck) scf=(maxcycle=1)
 ----------------------------------------------------------------------
 -----
 title
 -----
 Structure from the checkpoint file:  "Grambow2020_wb97xd3_007693_forward_mol1.chk"
 Charge =  0 Multiplicity = 1

                         Standard orientation:
 ---------------------------------------------------------------------
 Center     Atomic      Atomic             Coordinates (Angstroms)
 Number     Number       Type             X           Y           Z
 ---------------------------------------------------------------------
      1          6           0        1.838467   -1.047579    0.613639
      2          6           0        0.978365    0.165494    0.262337
      3          6           0        1.816351    1.310293   -0.299164
      4          6           0       -0.075802   -0.242714   -0.739823
      5          8           0       -1.060214   -1.146469   -0.340689
      6          6           0       -1.877880    0.006602   -0.548430
      7          6           0       -2.164076    0.683447    0.768799
      8          1           0        2.585559   -0.781269    1.363793
      9          1           0        1.226263   -1.857945    1.010062
     10          1           0        2.368238   -1.419863   -0.267679
     11          1           0        0.483920    0.504098    1.174697
     12          1           0        2.307488    1.018134   -1.231568
     13          1           0        2.596600    1.599396    0.406435
     14          1           0        1.206277    2.193169   -0.502659
     15          1           0        0.330332   -0.515382   -1.719995
     16          1           0       -0.793664    0.672378   -1.128061
     17          1           0       -1.468811    0.490003    1.589837
     18          1           0       -3.133304    0.261339    1.054318
     19          1           0       -2.319741    1.754440    0.632183
 ---------------------------------------------------------------------

 SCF Done:  E(RHF) =  -310.447286776     A.U. after    2 cycles

 The electronic state is 1-A.
 Alpha  occ. eigenvalues --  -21.06437 -11.50414 -11.44114 -11.42998 -11.39704
 Alpha  occ. eigenvalues --  -11.37738 -11.36619  -1.80002  -1.25666  -1.10403
 Alpha  occ. eigenvalues --   -1.01660  -0.98959  -0.86153  -0.80942  -0.66713
 Alpha  occ. eigenvalues --   -0.64210  -0.59691  -0.58811  -0.57628  -0.54895
 Alpha  occ. eigenvalues --   -0.54037  -0.52552  -0.48519  -0.47174  -0.44606
 Alpha  occ. eigenvalues --   -0.42931  -0.36945  -0.25802
 Alpha virt. eigenvalues --    0.03834   0.04923   0.04972   0.05226   0.05415
 Alpha virt. eigenvalues --    0.05844   0.06175   0.07091   0.07435   0.08463
 Alpha virt. eigenvalues --    0.08974   0.09295   0.11354   0.12172   0.13289

 Mulliken charges:
               1
     1  C   -3.875637
     2  C   -2.112076
     3  C   -3.858731
     4  C   -0.130206
     5  O   -2.959764
     6  C   -0.486240
     7  C   -3.803904
     8  H    1.238593
     9  H    1.297585
    10  H    1.290677
    11  H    1.994917
    12  H    1.296101
    13  H    1.237791
    14  H    1.287261
    15  H    1.304368
    16  H    2.184217
    17  H    1.558987
    18  H    1.228974
    19  H    1.307087
 Sum of Mulliken charges =  -0.00000

 Dipole moment (field-independent basis, Debye):
    X=              2.3574    Y=              0.1877    Z=              1.1929  Tot=              2.6487

 Test job not archived.
 1\1\GINC-SE229\SP\RHF\Aug-CC-pVDZ\C6H12O1\OHZDE\09-Apr-2025\0\\#t hf a
 ug-cc-pvdz iop(5/13=1,5/36=2,99/5=2) pseudo=read geom=check guess=(rea
 d,tcheck) scf=(maxcycle=1)\\title\\0,1\C,0,-1.6728712,-0.98205973,-0.6
 1182025\C,0,-0.73167629,0.04652187,0.01340328\C,0,-1.48215651,1.034770
 78,0.90121659\C,0,0.32748631,-0.6695055,0.81820486\O,0,1.24347902,-1.4
 7735107,0.14478854\C,0,2.13424992,-0.46533673,0.61771738\C,0,2.4184261
 5,0.5294777,-0.47987465\H,0,-2.42612608,-0.48584702,-1.22678306\H,0,-1
 .12261957,-1.68281663,-1.24015238\H,0,-2.19574809,-1.5537988,0.1599890

 Normal termination of Gaussian 16 at Wed Apr  9 18:50:12 2025.
