 Gaussian 16, Revision C.01,

 ----------------------------------------------------------------------
 #t hf aug-cc-pvdz symm=none int=(grid=ultrafine) guess=(read,tcheck) s
 table=(opt,rrhf)
 ----------------------------------------------------------------------
 -----
 title
 -----
 Symbolic Z-matrix:
 Charge =  0 Multiplicity = 1

 SCF Done:  E(RHF) =  -302.859479714     A.U. after   14 cycles
 Normal termination of Gaussian 16 at Wed Apr  9 19:22:12 2025.
 Gaussian 16:  ES64L-G16RevC.01  3-Jul-2019

 ----------------------------------------------------------------------
 #t hf aug-cc-pvdz iop(5/13=1,5/36=2,99/5=2) pseudo=read geom=check gue
 ss=(read,tcheck) scf=(maxcycle=1)
 ----------------------------------------------------------------------
 -----
 title
 -----
 Structure from the checkpoint file:  "Grambow2020_wb97xd3_008836_reverse_mol2.chk"
 Charge =  0 Multiplicity = 1

                         Standard orientation:
 ---------------------------------------------------------------------
 Center     Atomic      Atomic             Coordinates (Angstroms)
 Number     Number       Type             X           Y           Z
 ---------------------------------------------------------------------
      1          6           0       -0.613829    1.640221    0.012320
      2          6           0       -0.610977    0.138376    0.123742
      3          6           0        0.600614   -0.460030    0.806983
      4          6           0        2.765960   -0.014533   -0.538919
      5          7           0        1.799172   -0.219912    0.074552
      6          6           0       -1.875039   -0.615032    0.262979
      7          7           0       -1.170434   -0.575580   -1.016333
      8          1           0       -0.589766    2.106032    1.000313
      9          1           0        0.254122    1.984370   -0.553197
     10          1           0       -1.510029    1.971777   -0.510076
     11          1           0        0.483676   -1.540011    0.919185
     12          1           0        0.722068   -0.031434    1.804210
     13          1           0       -2.815117   -0.076393    0.286613
     14          1           0       -1.868002   -1.536479    0.836568
     15          1           0       -0.678491   -1.443427   -1.193772
 ---------------------------------------------------------------------

 SCF Done:  E(RHF) =  -304.291172167     A.U. after    2 cycles

 The electronic state is 1-A.
 Alpha  occ. eigenvalues --  -15.77591 -15.74274 -11.49776 -11.47220 -11.42584
 Alpha  occ. eigenvalues --  -11.41680 -11.38128  -1.49758  -1.39345  -1.13035
 Alpha  occ. eigenvalues --   -1.05403  -0.94510  -0.83437  -0.74375  -0.69376
 Alpha  occ. eigenvalues --   -0.67498  -0.60312  -0.58261  -0.55793  -0.51870
 Alpha  occ. eigenvalues --   -0.47295  -0.46276  -0.44762  -0.43620  -0.41807
 Alpha  occ. eigenvalues --   -0.35695
 Alpha virt. eigenvalues --    0.03206   0.05017   0.05221   0.05473   0.05777
 Alpha virt. eigenvalues --    0.06458   0.07101   0.07788   0.09482   0.10758
 Alpha virt. eigenvalues --    0.11819   0.12279   0.12634   0.13519   0.13989

 Mulliken charges:
               1
     1  C   -4.551329
     2  C    3.591398
     3  C   -2.231794
     4  C   -0.632562
     5  N   -1.005337
     6  C   -2.793452
     7  N   -2.447219
     8  H    1.230391
     9  H    1.234177
    10  H    1.275219
    11  H    1.402015
    12  H    1.491720
    13  H    1.439221
    14  H    1.365394
    15  H    0.632158
 Sum of Mulliken charges =   0.00000

 Dipole moment (field-independent basis, Debye):
    X=             -3.0355    Y=             -1.0893    Z=              2.7382  Tot=              4.2307

 Test job not archived.
 1\1\GINC-SE035\SP\RHF\Aug-CC-pVDZ\C5H8N2\OHZDE\09-Apr-2025\0\\#t hf au
 g-cc-pvdz iop(5/13=1,5/36=2,99/5=2) pseudo=read geom=check guess=(read
 ,tcheck) scf=(maxcycle=1)\\title\\0,1\C,0,-0.51669335,1.13850988,1.019
 34183\C,0,-0.17711748,-0.09282302,0.22155279\C,0,1.28022941,-0.2356593
 9,-0.16393261\C,0,2.03173836,1.66248272,-1.75482315\N,0,1.70509638,0.8
 052089,-1.03956661\C,0,-0.92595144,-1.35261522,0.41399197\N,0,-1.18104
 05,-0.50676331,-0.74967781\H,0,0.02729479,1.15339791,1.96673032\H,0,-0
 .2611291,2.04035698,0.45992661\H,0,-1.5852841,1.16235306,1.22802004\H,

 Normal termination of Gaussian 16 at Wed Apr  9 19:22:17 2025.
