 Gaussian 16, Revision C.01,

 ----------------------------------------------------------------------
 #t hf aug-cc-pvdz symm=none int=(grid=ultrafine) guess=(read,tcheck) s
 table=(opt,rrhf)
 ----------------------------------------------------------------------
 -----
 title
 -----
 Symbolic Z-matrix:
 Charge =  0 Multiplicity = 1

 SCF Done:  E(RHF) =  -342.550825233     A.U. after   15 cycles
 Normal termination of Gaussian 16 at Wed Apr  9 19:15:57 2025.
 Gaussian 16:  ES64L-G16RevC.01  3-Jul-2019

 ----------------------------------------------------------------------
 #t hf aug-cc-pvdz iop(5/13=1,5/36=2,99/5=2) pseudo=read geom=check gue
 ss=(read,tcheck) scf=(maxcycle=1)
 ----------------------------------------------------------------------
 -----
 title
 -----
 Structure from the checkpoint file:  "Grambow2020_wb97xd3_008511_forward_mol2.chk"
 Charge =  0 Multiplicity = 1

                         Standard orientation:
 ---------------------------------------------------------------------
 Center     Atomic      Atomic             Coordinates (Angstroms)
 Number     Number       Type             X           Y           Z
 ---------------------------------------------------------------------
      1          8           0       -2.150444   -0.587115   -0.024965
      2          6           0       -1.012325   -0.206930   -0.037882
      3          6           0       -0.556723    1.219854    0.260784
      4          8           0        0.791820    1.325188   -0.150818
      5          6           0        1.298183    0.048947   -0.437287
      6          6           0        1.305705   -0.940196    0.663480
      7          6           0        0.205756   -0.979002   -0.391859
      8          1           0       -0.669179    1.429678    1.330444
      9          1           0       -1.168768    1.932205   -0.295151
     10          1           0        2.067898    0.061225   -1.196119
     11          1           0        1.055548   -0.608776    1.663463
     12          1           0        2.021444   -1.749643    0.616879
     13          1           0        0.118470   -1.825312   -1.056670
 ---------------------------------------------------------------------

 SCF Done:  E(RHF) =  -344.067985100     A.U. after    2 cycles

 The electronic state is 1-A.
 Alpha  occ. eigenvalues --  -21.06730 -21.05961 -11.51966 -11.47683 -11.43713
 Alpha  occ. eigenvalues --  -11.42730 -11.39350  -1.80836  -1.70589  -1.30408
 Alpha  occ. eigenvalues --   -1.08554  -0.93757  -0.84984  -0.79173  -0.71001
 Alpha  occ. eigenvalues --   -0.65853  -0.60710  -0.57128  -0.56240  -0.51486
 Alpha  occ. eigenvalues --   -0.50784  -0.46257  -0.42983  -0.37329  -0.30643
 Alpha  occ. eigenvalues --   -0.26794
 Alpha virt. eigenvalues --    0.03369   0.04591   0.05352   0.05669   0.06325
 Alpha virt. eigenvalues --    0.06941   0.09733   0.09954   0.10594   0.11904
 Alpha virt. eigenvalues --    0.13020   0.13752   0.14274   0.14559   0.14980

 Mulliken charges:
               1
     1  O   -3.457064
     2  C    4.149457
     3  C   -1.947163
     4  O   -3.555904
     5  C    1.921595
     6  C   -2.766757
     7  C   -2.057017
     8  H    1.301928
     9  H    1.292796
    10  H    1.375694
    11  H    1.297728
    12  H    1.226362
    13  H    1.218345
 Sum of Mulliken charges =   0.00000

 Dipole moment (field-independent basis, Debye):
    X=              1.6205    Y=             -0.3066    Z=             -0.1208  Tot=              1.6537

 Test job not archived.
 1\1\GINC-SE232\SP\RHF\Aug-CC-pVDZ\C5H6O2\OHZDE\09-Apr-2025\0\\#t hf au
 g-cc-pvdz iop(5/13=1,5/36=2,99/5=2) pseudo=read geom=check guess=(read
 ,tcheck) scf=(maxcycle=1)\\title\\0,1\O,0,1.17938793,2.02856896,0.7460
 7718\C,0,0.71420924,1.02082973,0.28990704\C,0,1.51403356,-0.21943675,-
 0.10317001\O,0,0.65805667,-1.04729225,-0.86542864\C,0,-0.65939873,-0.5
 7502569,-0.77305753\C,0,-1.2687264,-0.52504418,0.57467009\C,0,-0.70283
 051,0.74263713,-0.05610663\H,0,1.87283884,-0.73100772,0.79705227\H,0,2
 .37941663,0.06792179,-0.70287215\H,0,-1.24664835,-0.78831169,-1.655149

 Normal termination of Gaussian 16 at Wed Apr  9 19:16:01 2025.
