 Gaussian 16, Revision C.01,

 ----------------------------------------------------------------------
 #t hf aug-cc-pvdz symm=none int=(grid=ultrafine) guess=(read,tcheck) s
 table=(opt,rrhf)
 ----------------------------------------------------------------------
 -----
 title
 -----
 Symbolic Z-matrix:
 Charge =  0 Multiplicity = 1

 SCF Done:  E(RHF) =  -320.721829167     A.U. after   13 cycles
 Normal termination of Gaussian 16 at Wed Apr  9 17:29:11 2025.
 Gaussian 16:  ES64L-G16RevC.01  3-Jul-2019

 ----------------------------------------------------------------------
 #t hf aug-cc-pvdz iop(5/13=1,5/36=2,99/5=2) pseudo=read geom=check gue
 ss=(read,tcheck) scf=(maxcycle=1)
 ----------------------------------------------------------------------
 -----
 title
 -----
 Structure from the checkpoint file:  "Grambow2020_b97d3_007155_reverse_mol2.chk"
 Charge =  0 Multiplicity = 1

                         Standard orientation:
 ---------------------------------------------------------------------
 Center     Atomic      Atomic             Coordinates (Angstroms)
 Number     Number       Type             X           Y           Z
 ---------------------------------------------------------------------
      1          8           0        1.962327   -0.529402    0.476756
      2          6           0        0.953643   -0.064218   -0.004715
      3          7           0        0.778257    1.225221   -0.419195
      4          6           0       -1.998458    0.425738    0.520767
      5          6           0       -1.443414   -0.521295   -0.252853
      6          8           0       -0.127840   -0.913991   -0.303621
      7          1           0        1.487018    1.889896   -0.137065
      8          1           0       -1.431529    1.019804    1.235053
      9          1           0       -3.072983    0.584728    0.466787
     10          1           0       -0.139172    1.575727   -0.670458
     11          1           0       -2.037660   -1.140914   -0.924222
 ---------------------------------------------------------------------

 SCF Done:  E(RHF) =  -322.118710124     A.U. after    2 cycles

 The electronic state is 1-A.
 Alpha  occ. eigenvalues --  -21.10894 -21.04491 -15.79447 -11.53596 -11.47546
 Alpha  occ. eigenvalues --  -11.40056  -1.84884  -1.67513  -1.35512  -1.13251
 Alpha  occ. eigenvalues --   -0.89965  -0.79509  -0.72482  -0.69444  -0.64304
 Alpha  occ. eigenvalues --   -0.58588  -0.56251  -0.51463  -0.48504  -0.42851
 Alpha  occ. eigenvalues --   -0.34749  -0.31479  -0.30341
 Alpha virt. eigenvalues --    0.03043   0.04592   0.05048   0.05811   0.06462
 Alpha virt. eigenvalues --    0.08967   0.11221   0.11764   0.12925   0.13035
 Alpha virt. eigenvalues --    0.13887   0.14296   0.14421   0.16032   0.16724

 Mulliken charges:
               1
     1  O   -2.854898
     2  C    5.733874
     3  N   -2.683972
     4  C   -3.006646
     5  C    0.545241
     6  O   -3.576223
     7  H    0.639109
     8  H    1.464553
     9  H    1.248794
    10  H    0.819666
    11  H    1.670502
 Sum of Mulliken charges =  -0.00000

 Dipole moment (field-independent basis, Debye):
    X=             -1.8075    Y=              1.8805    Z=             -0.5615  Tot=              2.6681

 Test job not archived.
 1\1\GINC-SE232\SP\RHF\Aug-CC-pVDZ\C3H5N1O2\OHZDE\09-Apr-2025\0\\#t hf
 aug-cc-pvdz iop(5/13=1,5/36=2,99/5=2) pseudo=read geom=check guess=(re
 ad,tcheck) scf=(maxcycle=1)\\title\\0,1\O,0,2.48716431,-0.1891881,-0.7
 657261\C,0,1.45119168,0.04257707,-0.18374673\N,0,1.11616168,-0.3871775
 2,1.06856053\C,0,-1.56579188,-0.27289496,-0.35513467\C,0,-0.83715334,0
 .83303497,-0.57747986\O,0,0.52194408,0.93481343,-0.75073736\H,0,1.7047
 4284,-1.10476814,1.47150998\H,0,-1.13182775,-1.26851557,-0.28483243\H,
 0,-2.64716757,-0.18332709,-0.28164108\H,0,0.17370735,-0.27919787,1.426

 Normal termination of Gaussian 16 at Wed Apr  9 17:29:14 2025.
