 Gaussian 16, Revision C.01,

 ----------------------------------------------------------------------
 #t hf aug-cc-pvdz symm=none int=(grid=ultrafine) guess=(read,tcheck) s
 table=(opt,rrhf)
 ----------------------------------------------------------------------
 -----
 title
 -----
 Symbolic Z-matrix:
 Charge =  0 Multiplicity = 1

 SCF Done:  E(RHF) =  -288.098189684     A.U. after   13 cycles

 1\1\GINC-SE059\Stability\RHF\Aug-CC-pVDZ\C6H11N1\OHZDE\09-Apr-2025\0\\
 #t hf aug-cc-pvdz symm=none int=(grid=ultrafine) guess=(read,tcheck) s
 table=(opt,rrhf)\\title\\0,1\C,0,1.84960347,-0.63294045,0.00719306\C,0
 ,0.57135156,0.07697062,0.44115911\C,0,0.55986227,1.52716973,-0.0307024
 9\C,0,-0.67880227,-0.70985234,-0.01324019\C,0,-1.99617944,-0.16094834,
 0.54110706\C,0,-0.74261088,-0.78619119,-1.47810779\N,0,-0.79309288,-0.
 82900158,-2.62386796\H,0,1.87260556,-1.66689722,0.35902569\H,0,2.72755
 808,-0.12412053,0.40829678\H,0,1.9399415,-0.64646557,-1.08187887\H,0,0

 Normal termination of Gaussian 16 at Wed Apr  9 03:46:06 2025.
 Gaussian 16:  ES64L-G16RevC.01  3-Jul-2019

 ----------------------------------------------------------------------
 #t hf aug-cc-pvdz iop(5/13=1,5/36=2,99/5=2) pseudo=read geom=check gue
 ss=(read,tcheck) scf=(maxcycle=1)
 ----------------------------------------------------------------------
 -----
 title
 -----
 Structure from the checkpoint file:  "Grambow2020_wb97xd3_007877_forward_mol2.chk"
 Charge =  0 Multiplicity = 1

                         Standard orientation:
 ---------------------------------------------------------------------
 Center     Atomic      Atomic             Coordinates (Angstroms)
 Number     Number       Type             X           Y           Z
 ---------------------------------------------------------------------
      1          6           0       -1.718896   -0.871523   -0.740250
      2          6           0       -0.987629    0.362194   -0.221193
      3          6           0       -1.214630    0.547463    1.275473
      4          6           0        0.510537    0.315269   -0.597692
      5          6           0        1.275112    1.601569   -0.273753
      6          6           0        1.170690   -0.834517    0.033122
      7          7           0        1.682586   -1.727137    0.541393
      8          1           0       -1.576054   -0.998717   -1.815796
      9          1           0       -2.790809   -0.790710   -0.553007
     10          1           0       -1.360571   -1.777065   -0.244248
     11          1           0       -1.385480    1.240497   -0.741967
     12          1           0       -2.283447    0.584725    1.491837
     13          1           0       -0.771844    1.472211    1.647790
     14          1           0       -0.788840   -0.285423    1.841122
     15          1           0        0.570176    0.142117   -1.677022
     16          1           0        2.291270    1.555947   -0.665053
     17          1           0        0.768673    2.454401   -0.728758
     18          1           0        1.337727    1.769248    0.801104
 ---------------------------------------------------------------------

 SCF Done:  E(RHF) =  -289.535475061     A.U. after    2 cycles

 The electronic state is 1-A.
 Alpha  occ. eigenvalues --  -15.74940 -11.48093 -11.43957 -11.42476 -11.39838
 Alpha  occ. eigenvalues --  -11.39314 -11.36571  -1.35231  -1.25905  -1.12749
 Alpha  occ. eigenvalues --   -1.01562  -0.95705  -0.84711  -0.70322  -0.65140
 Alpha  occ. eigenvalues --   -0.63159  -0.59538  -0.56989  -0.55066  -0.54842
 Alpha  occ. eigenvalues --   -0.52706  -0.50130  -0.47437  -0.46368  -0.45539
 Alpha  occ. eigenvalues --   -0.41758  -0.40301
 Alpha virt. eigenvalues --    0.03461   0.04768   0.05029   0.05243   0.05411
 Alpha virt. eigenvalues --    0.05616   0.06685   0.07442   0.08040   0.08270
 Alpha virt. eigenvalues --    0.08964   0.10373   0.12182   0.12571   0.13293

 Mulliken charges:
               1
     1  C   -4.221850
     2  C   -0.726301
     3  C   -4.329638
     4  C   -1.216010
     5  C   -4.055758
     6  C    2.133644
     7  N   -2.491758
     8  H    1.216552
     9  H    1.158729
    10  H    1.440152
    11  H    1.633520
    12  H    1.199899
    13  H    1.334176
    14  H    1.369009
    15  H    1.708065
    16  H    1.126968
    17  H    1.201142
    18  H    1.519460
 Sum of Mulliken charges =  -0.00000

 Dipole moment (field-independent basis, Debye):
    X=             -1.8837    Y=              2.8271    Z=             -1.3618  Tot=              3.6599

 Test job not archived.
 1\1\GINC-SE059\SP\RHF\Aug-CC-pVDZ\C6H11N1\OHZDE\09-Apr-2025\0\\#t hf a
 ug-cc-pvdz iop(5/13=1,5/36=2,99/5=2) pseudo=read geom=check guess=(rea
 d,tcheck) scf=(maxcycle=1)\\title\\0,1\C,0,1.84960347,-0.63294045,0.00
 719306\C,0,0.57135156,0.07697062,0.44115911\C,0,0.55986227,1.52716973,
 -0.03070249\C,0,-0.67880227,-0.70985234,-0.01324019\C,0,-1.99617944,-0
 .16094834,0.54110706\C,0,-0.74261088,-0.78619119,-1.47810779\N,0,-0.79
 309288,-0.82900158,-2.62386796\H,0,1.87260556,-1.66689722,0.35902569\H
 ,0,2.72755808,-0.12412053,0.40829678\H,0,1.9399415,-0.64646557,-1.0818

 Normal termination of Gaussian 16 at Wed Apr  9 03:46:13 2025.
