 Gaussian 16, Revision C.01,

 ----------------------------------------------------------------------
 #t hf aug-cc-pvdz symm=none int=(grid=ultrafine) guess=(read,tcheck) s
 table=(opt,rrhf)
 ----------------------------------------------------------------------
 -----
 title
 -----
 Symbolic Z-matrix:
 Charge =  0 Multiplicity = 1

 SCF Done:  E(RHF) =  -320.262685498     A.U. after   17 cycles
 Normal termination of Gaussian 16 at Wed Apr  9 18:46:18 2025.
 Gaussian 16:  ES64L-G16RevC.01  3-Jul-2019

 ----------------------------------------------------------------------
 #t hf aug-cc-pvdz iop(5/13=1,5/36=2,99/5=2) pseudo=read geom=check gue
 ss=(read,tcheck) scf=(maxcycle=1)
 ----------------------------------------------------------------------
 -----
 title
 -----
 Structure from the checkpoint file:  "Grambow2020_wb97xd3_007648_reverse_mol1.chk"
 Charge =  0 Multiplicity = 1

                         Standard orientation:
 ---------------------------------------------------------------------
 Center     Atomic      Atomic             Coordinates (Angstroms)
 Number     Number       Type             X           Y           Z
 ---------------------------------------------------------------------
      1          7           0       -2.814705    0.183796    0.006053
      2          6           0       -1.667621    0.093828    0.006603
      3          6           0       -0.256007   -0.039801    0.009744
      4          6           0        0.406551   -1.346433   -0.009594
      5          8           0        1.605885   -1.480139    0.013010
      6          6           0        1.694191    1.669777   -0.137224
      7          6           0        0.585124    1.025471    0.026760
      8          1           0       -0.276495   -2.213028   -0.051824
      9          1           0        2.298205    2.198285    0.591719
     10          1           0        0.260718    2.152231   -0.064090
 ---------------------------------------------------------------------

 SCF Done:  E(RHF) =  -321.665564909     A.U. after    2 cycles

 The electronic state is 1-A.
 Alpha  occ. eigenvalues --  -21.06733 -15.76418 -11.54361 -11.51194 -11.50597
 Alpha  occ. eigenvalues --  -11.46519 -11.43954  -1.72441  -1.35289  -1.27590
 Alpha  occ. eigenvalues --   -1.12936  -0.89779  -0.81729  -0.76629  -0.66325
 Alpha  occ. eigenvalues --   -0.59866  -0.57549  -0.54956  -0.51045  -0.47375
 Alpha  occ. eigenvalues --   -0.46111  -0.45098  -0.31667  -0.30230
 Alpha virt. eigenvalues --    0.01533   0.04561   0.05000   0.05960   0.07208
 Alpha virt. eigenvalues --    0.07810   0.09577   0.10116   0.10397   0.10748
 Alpha virt. eigenvalues --    0.12233   0.12788   0.13148   0.14636   0.15572

 Mulliken charges:
               1
     1  N   -2.448085
     2  C    1.543992
     3  C    1.418802
     4  C    0.066759
     5  O   -2.874164
     6  C   -3.741024
     7  C    2.049654
     8  H    1.445733
     9  H    1.121562
    10  H    1.416772
 Sum of Mulliken charges =  -0.00000

 Dipole moment (field-independent basis, Debye):
    X=              3.5639    Y=              2.3788    Z=              1.1742  Tot=              4.4429

 Test job not archived.
 1\1\GINC-SE112\SP\RHF\Aug-CC-pVDZ\C5H3N1O1\OHZDE\09-Apr-2025\0\\#t hf
 aug-cc-pvdz iop(5/13=1,5/36=2,99/5=2) pseudo=read geom=check guess=(re
 ad,tcheck) scf=(maxcycle=1)\\title\\0,1\N,0,2.903086,-0.7364414,-0.149
 08759\C,0,1.82051107,-0.35546328,-0.06672407\C,0,0.49412214,0.13315975
 ,0.04490264\C,0,0.19648081,1.49025912,0.51002167\O,0,-0.92621365,1.916
 66635,0.63054367\C,0,-1.82373663,-0.84569672,-0.60077162\C,0,-0.595071
 72,-0.61228642,-0.27221107\H,0,1.08282099,2.10682975,0.74145624\H,0,-2
 .5810074,-1.41633006,-0.07500603\H,0,-0.57099263,-1.68069809,-0.763124

 Normal termination of Gaussian 16 at Wed Apr  9 18:46:22 2025.
