 Gaussian 16, Revision C.01,

 ----------------------------------------------------------------------
 #t hf aug-cc-pvdz symm=none int=(grid=ultrafine) guess=(read,tcheck) s
 table=(opt,rrhf)
 ----------------------------------------------------------------------
 -----
 title
 -----
 Symbolic Z-matrix:
 Charge =  0 Multiplicity = 1

 SCF Done:  E(RHF) =  -306.544621477     A.U. after   15 cycles
 Normal termination of Gaussian 16 at Wed Apr  9 18:38:36 2025.
 Gaussian 16:  ES64L-G16RevC.01  3-Jul-2019

 ----------------------------------------------------------------------
 #t hf aug-cc-pvdz iop(5/13=1,5/36=2,99/5=2) pseudo=read geom=check gue
 ss=(read,tcheck) scf=(maxcycle=1)
 ----------------------------------------------------------------------
 -----
 title
 -----
 Structure from the checkpoint file:  "Grambow2020_wb97xd3_007362_reverse_mol1.chk"
 Charge =  0 Multiplicity = 1

                         Standard orientation:
 ---------------------------------------------------------------------
 Center     Atomic      Atomic             Coordinates (Angstroms)
 Number     Number       Type             X           Y           Z
 ---------------------------------------------------------------------
      1          6           0       -1.691081   -0.351831    0.776664
      2          6           0       -1.840894    0.089765   -0.654579
      3          6           0       -0.495794    0.061890   -0.011191
      4          6           0        0.428695    1.256062    0.171352
      5          6           0        1.731522    0.531817   -0.282849
      6          8           0        1.661271   -0.669156    0.473139
      7          6           0        0.617867   -0.851065   -0.436241
      8          1           0       -2.030994    0.320734    1.553581
      9          1           0       -1.818891   -1.403121    1.002926
     10          1           0       -2.068065   -0.667016   -1.395842
     11          1           0       -2.288331    1.055794   -0.850819
     12          1           0        0.186706    2.108000   -0.462767
     13          1           0        0.561082    1.590139    1.202405
     14          1           0        1.121228   -0.212878   -1.374124
     15          1           0        0.545217   -1.858233   -0.839400
 ---------------------------------------------------------------------

 SCF Done:  E(RHF) =  -307.997857527     A.U. after    2 cycles

 The electronic state is 1-A.
 Alpha  occ. eigenvalues --  -21.07220 -11.53178 -11.45806 -11.45122 -11.43322
 Alpha  occ. eigenvalues --  -11.39926 -11.37794  -1.82977  -1.34388  -1.13520
 Alpha  occ. eigenvalues --   -0.99378  -0.88267  -0.85468  -0.79631  -0.69442
 Alpha  occ. eigenvalues --   -0.67183  -0.61389  -0.56271  -0.54714  -0.52018
 Alpha  occ. eigenvalues --   -0.46492  -0.45432  -0.43218  -0.38849  -0.35001
 Alpha  occ. eigenvalues --   -0.27900
 Alpha virt. eigenvalues --    0.03723   0.04800   0.05152   0.05236   0.05579
 Alpha virt. eigenvalues --    0.06535   0.06781   0.08029   0.09508   0.11131
 Alpha virt. eigenvalues --    0.12155   0.12341   0.13042   0.13404   0.13613

 Mulliken charges:
               1
     1  C   -2.095574
     2  C   -1.844802
     3  C    2.074196
     4  C   -3.986536
     5  C   -0.298245
     6  O   -2.731427
     7  C   -1.195074
     8  H    1.165849
     9  H    1.240121
    10  H    1.212248
    11  H    1.180123
    12  H    1.284154
    13  H    1.429194
    14  H    1.428397
    15  H    1.137377
 Sum of Mulliken charges =   0.00000

 Dipole moment (field-independent basis, Debye):
    X=             -2.5736    Y=             -1.1347    Z=              0.4610  Tot=              2.8502

 Test job not archived.
 1\1\GINC-SE116\SP\RHF\Aug-CC-pVDZ\C6H8O1\OHZDE\09-Apr-2025\0\\#t hf au
 g-cc-pvdz iop(5/13=1,5/36=2,99/5=2) pseudo=read geom=check guess=(read
 ,tcheck) scf=(maxcycle=1)\\title\\0,1\C,0,-1.42054569,0.31620194,-0.75
 772734\C,0,-1.43592092,-0.05613637,0.70070822\C,0,-0.14795673,0.002323
 41,-0.04879162\C,0,0.82041773,-1.15408168,-0.24633718\C,0,2.11510793,-
 0.34528347,0.06640808\O,0,1.92421279,0.80948529,-0.73910766\C,0,0.9463
 2874,0.9887454,0.24087372\H,0,-1.78419636,-0.41184719,-1.47130208\H,0,
 -1.61994813,1.34678576,-1.02395378\H,0,-1.64401965,0.7268389,1.4200416

 Normal termination of Gaussian 16 at Wed Apr  9 18:38:41 2025.
