 Gaussian 16, Revision C.01,

 ----------------------------------------------------------------------
 #t hf aug-cc-pvdz symm=none int=(grid=ultrafine) guess=(read,tcheck) s
 table=(opt,rrhf)
 ----------------------------------------------------------------------
 -----
 title
 -----
 Symbolic Z-matrix:
 Charge =  0 Multiplicity = 1

 SCF Done:  E(RHF) =  -306.952995973     A.U. after   15 cycles

 1\1\GINC-SE229\Stability\RHF\Aug-CC-pVDZ\C4H10O2\OHZDE\09-Apr-2025\0\\
 #t hf aug-cc-pvdz symm=none int=(grid=ultrafine) guess=(read,tcheck) s
 table=(opt,rrhf)\\title\\0,1\C,0,1.32290818,0.81008807,-1.50962747\O,0
 ,0.40677781,-0.2898578,-1.62968091\C,0,0.2782699,-1.05788583,-0.515491
 39\C,0,-0.72289885,-1.94269628,-0.35603788\C,0,-1.77574214,0.89547598,
 0.59494422\O,0,-0.92795089,1.72699907,0.86503261\H,0,2.31094521,0.4654
 5149,-1.16417263\H,0,1.4200177,1.23382137,-2.51465023\H,0,0.92815612,1
 .56638959,-0.81891832\H,0,1.33032581,0.48405168,2.90867889\H,0,1.04347

 Normal termination of Gaussian 16 at Wed Apr  9 16:18:01 2025.
 Gaussian 16:  ES64L-G16RevC.01  3-Jul-2019

 ----------------------------------------------------------------------
 #t hf aug-cc-pvdz iop(5/13=1,5/36=2,99/5=2) pseudo=read geom=check gue
 ss=(read,tcheck) scf=(maxcycle=1)
 ----------------------------------------------------------------------
 -----
 title
 -----
 Structure from the checkpoint file:  "Grambow2020_b97d3_006771_reverse_mol2.chk"
 Charge =  0 Multiplicity = 1

                         Standard orientation:
 ---------------------------------------------------------------------
 Center     Atomic      Atomic             Coordinates (Angstroms)
 Number     Number       Type             X           Y           Z
 ---------------------------------------------------------------------
      1          6           0       -1.247562   -1.627868   -0.038819
      2          8           0       -1.389388   -0.262835   -0.463270
      3          6           0       -0.949001    0.666472    0.425688
      4          6           0       -0.747564    1.953683    0.089288
      5          6           0        1.885793    0.338216   -0.634427
      6          8           0        2.031552   -0.738208   -0.083797
      7          1           0       -1.715560   -1.785985    0.946223
      8          1           0       -1.769617   -2.233076   -0.787306
      9          1           0       -0.187667   -1.910596    0.001033
     10          1           0        1.585185   -0.468439    3.164157
     11          1           0       -0.764830    0.304700    1.442198
     12          1           0       -0.925769    2.308763   -0.924434
     13          1           0       -0.441749    2.669415    0.848020
     14          1           0        1.292391    0.453800   -1.567539
     15          1           0        2.356895    1.270962   -0.249899
     16          1           0        1.783418   -0.584215    2.453695
 ---------------------------------------------------------------------

 SCF Done:  E(RHF) =  -308.363308277     A.U. after    2 cycles

 The electronic state is 1-A.
 Alpha  occ. eigenvalues --  -21.07364 -21.07289 -11.47804 -11.45348 -11.41009
 Alpha  occ. eigenvalues --  -11.37217  -1.77786  -1.70487  -1.11560  -0.97842
 Alpha  occ. eigenvalues --   -0.89854  -0.81366  -0.66441  -0.65133  -0.62390
 Alpha  occ. eigenvalues --   -0.61363  -0.60605  -0.53539  -0.52822  -0.51392
 Alpha  occ. eigenvalues --   -0.46807  -0.43486  -0.39947  -0.30721  -0.27411
 Alpha virt. eigenvalues --    0.03906   0.05096   0.05303   0.05566   0.05840
 Alpha virt. eigenvalues --    0.06340   0.07136   0.07673   0.08982   0.10317
 Alpha virt. eigenvalues --    0.10865   0.12745   0.13080   0.13502   0.14184

 Mulliken charges:
               1
     1  C   -2.937764
     2  O   -3.275220
     3  C    1.002841
     4  C   -3.300270
     5  C   -0.881301
     6  O   -1.996890
     7  H    1.310984
     8  H    1.274787
     9  H    1.395021
    10  H    0.193511
    11  H    1.748561
    12  H    1.436748
    13  H    1.350466
    14  H    1.515446
    15  H    1.447429
    16  H   -0.284349
 Sum of Mulliken charges =  -0.00000

 Dipole moment (field-independent basis, Debye):
    X=             -0.2351    Y=             -0.5839    Z=             -0.2475  Tot=              0.6764

 Test job not archived.
 1\1\GINC-SE229\SP\RHF\Aug-CC-pVDZ\C4H10O2\OHZDE\09-Apr-2025\0\\#t hf a
 ug-cc-pvdz iop(5/13=1,5/36=2,99/5=2) pseudo=read geom=check guess=(rea
 d,tcheck) scf=(maxcycle=1)\\title\\0,1\C,0,1.32290818,0.81008807,-1.50
 962747\O,0,0.40677781,-0.2898578,-1.62968091\C,0,0.2782699,-1.05788583
 ,-0.51549139\C,0,-0.72289885,-1.94269628,-0.35603788\C,0,-1.77574214,0
 .89547598,0.59494422\O,0,-0.92795089,1.72699907,0.86503261\H,0,2.31094
 521,0.46545149,-1.16417263\H,0,1.4200177,1.23382137,-2.51465023\H,0,0.
 92815612,1.56638959,-0.81891832\H,0,1.33032581,0.48405168,2.90867889\H

 Normal termination of Gaussian 16 at Wed Apr  9 16:18:05 2025.
