 Gaussian 16, Revision C.01,

 ----------------------------------------------------------------------
 #t hf aug-cc-pvdz symm=none int=(grid=ultrafine) guess=(read,tcheck) s
 table=(opt,rrhf)
 ----------------------------------------------------------------------
 -----
 title
 -----
 Symbolic Z-matrix:
 Charge =  0 Multiplicity = 1

 SCF Done:  E(RHF) =  -360.787196244     A.U. after   15 cycles
 Normal termination of Gaussian 16 at Wed Apr  9 18:09:14 2025.
 Gaussian 16:  ES64L-G16RevC.01  3-Jul-2019

 ----------------------------------------------------------------------
 #t hf aug-cc-pvdz iop(5/13=1,5/36=2,99/5=2) pseudo=read geom=check gue
 ss=(read,tcheck) scf=(maxcycle=1)
 ----------------------------------------------------------------------
 -----
 title
 -----
 Structure from the checkpoint file:  "Grambow2020_wb97xd3_006618_forward_mol1.chk"
 Charge =  0 Multiplicity = 1

                         Standard orientation:
 ---------------------------------------------------------------------
 Center     Atomic      Atomic             Coordinates (Angstroms)
 Number     Number       Type             X           Y           Z
 ---------------------------------------------------------------------
      1          6           0        1.738401   -0.986340    0.275526
      2          6           0        1.255951    0.205859   -0.427805
      3          8           0       -0.762355   -0.962013   -1.023027
      4          6           0        0.716614    1.373111    0.250904
      5          7           0       -0.637021    1.213847   -0.276840
      6          6           0       -1.322434   -0.059277    0.086685
      7          8           0       -1.074817   -0.481466    1.250016
      8          1           0        2.693411   -0.686656    0.735064
      9          1           0        1.900394   -1.834426   -0.383374
     10          1           0        1.042322   -1.229042    1.081846
     11          1           0        1.411340    0.290830   -1.497564
     12          1           0       -0.941816   -1.852633   -0.702467
     13          1           0        0.700505    1.283929    1.334148
     14          1           0        1.134077    2.323789   -0.077532
     15          1           0       -0.736796    1.457698   -1.254908
     16          1           0       -2.378106    0.097296   -0.225116
 ---------------------------------------------------------------------

 SCF Done:  E(RHF) =  -362.431286334     A.U. after    2 cycles

 The electronic state is 1-A.
 Alpha  occ. eigenvalues --  -21.02694 -20.91993 -15.73518 -11.55936 -11.45305
 Alpha  occ. eigenvalues --  -11.43295 -11.42138  -1.70840  -1.55463  -1.39957
 Alpha  occ. eigenvalues --   -1.20089  -1.03340  -0.88231  -0.81538  -0.72676
 Alpha  occ. eigenvalues --   -0.66613  -0.63732  -0.60131  -0.58969  -0.55286
 Alpha  occ. eigenvalues --   -0.54644  -0.51791  -0.49034  -0.39665  -0.33785
 Alpha  occ. eigenvalues --   -0.30705  -0.22702  -0.20321
 Alpha virt. eigenvalues --    0.02641   0.03737   0.04048   0.04947   0.05230
 Alpha virt. eigenvalues --    0.06063   0.06927   0.07321   0.08073   0.08787
 Alpha virt. eigenvalues --    0.11570   0.12057   0.12806   0.12938   0.14061

 Mulliken charges:
               1
     1  C   -3.987719
     2  C   -0.307630
     3  O   -2.235873
     4  C   -2.867830
     5  N   -2.077505
     6  C    3.897937
     7  O   -3.111402
     8  H    1.062567
     9  H    1.323372
    10  H    1.287475
    11  H    1.340854
    12  H    0.617623
    13  H    1.530649
    14  H    1.333066
    15  H    0.620106
    16  H    1.574309
 Sum of Mulliken charges =   0.00000

 Dipole moment (field-independent basis, Debye):
    X=              5.2474    Y=              1.4379    Z=             -2.7544  Tot=              6.0984

 Test job not archived.
 1\1\GINC-SE340\SP\RHF\Aug-CC-pVDZ\C4H9N1O2\OHZDE\09-Apr-2025\0\\#t hf
 aug-cc-pvdz iop(5/13=1,5/36=2,99/5=2) pseudo=read geom=check guess=(re
 ad,tcheck) scf=(maxcycle=1)\\title\\0,1\C,0,-1.72341582,-0.31388118,-0
 .34086155\C,0,-0.45138259,-0.94740143,0.01879953\O,0,0.70603169,0.5105
 5535,-1.50649582\C,0,0.25607836,-0.67622673,1.25975557\N,0,1.40744053,
 -0.04707157,0.61575459\C,0,1.10805762,1.1765081,-0.18174585\O,0,0.2075
 4147,1.91720914,0.30129705\H,0,-2.47718604,-0.78445455,0.30984563\H,0,
 -1.99531484,-0.46292672,-1.38177324\H,0,-1.67702496,0.74696629,-0.0838

 Normal termination of Gaussian 16 at Wed Apr  9 18:09:19 2025.
