 Gaussian 16, Revision C.01,

 ----------------------------------------------------------------------
 #t hf aug-cc-pvdz symm=none int=(grid=ultrafine) guess=(read,tcheck) s
 table=(opt,rrhf)
 ----------------------------------------------------------------------
 -----
 title
 -----
 Symbolic Z-matrix:
 Charge =  0 Multiplicity = 1

 SCF Done:  E(RHF) =  -268.801016210     A.U. after   14 cycles
 Normal termination of Gaussian 16 at Wed Apr  9 17:04:19 2025.
 Gaussian 16:  ES64L-G16RevC.01  3-Jul-2019

 ----------------------------------------------------------------------
 #t hf aug-cc-pvdz iop(5/13=1,5/36=2,99/5=2) pseudo=read geom=check gue
 ss=(read,tcheck) scf=(maxcycle=1)
 ----------------------------------------------------------------------
 -----
 title
 -----
 Structure from the checkpoint file:  "Grambow2020_b97d3_007034_reverse_mol2.chk"
 Charge =  0 Multiplicity = 1

                         Standard orientation:
 ---------------------------------------------------------------------
 Center     Atomic      Atomic             Coordinates (Angstroms)
 Number     Number       Type             X           Y           Z
 ---------------------------------------------------------------------
      1          6           0       -2.570621   -0.818627    0.050047
      2          6           0       -1.103049   -0.462030   -0.013341
      3          6           0       -0.622751    0.761363   -0.041457
      4          6           0       -0.119710    1.979025   -0.069520
      5          6           0        2.314705   -0.112967    0.201498
      6          8           0        2.099367   -1.241648   -0.194637
      7          1           0       -2.779698   -1.432178    0.939595
      8          1           0       -3.199441    0.078864    0.089225
      9          1           0       -2.860366   -1.412247   -0.830371
     10          1           0        0.051900    2.506950   -1.011143
     11          1           0        0.128456    2.517035    0.849431
     12          1           0        2.738211    0.680889   -0.456887
     13          1           0        2.117360    0.200937    1.252093
     14          1           0       -0.382804   -1.287640   -0.038202
 ---------------------------------------------------------------------

 SCF Done:  E(RHF) =  -270.054002259     A.U. after    2 cycles

 The electronic state is 1-A.
 Alpha  occ. eigenvalues --  -21.07174 -11.47502 -11.43564 -11.42471 -11.40288
 Alpha  occ. eigenvalues --  -11.37798  -1.70180  -1.21782  -1.07367  -0.92634
 Alpha  occ. eigenvalues --   -0.89528  -0.71391  -0.65843  -0.62018  -0.60453
 Alpha  occ. eigenvalues --   -0.56260  -0.54460  -0.52694  -0.51235  -0.44183
 Alpha  occ. eigenvalues --   -0.35577  -0.34226  -0.30319
 Alpha virt. eigenvalues --    0.03063   0.04990   0.05479   0.05616   0.06351
 Alpha virt. eigenvalues --    0.06703   0.06773   0.08098   0.09537   0.10853
 Alpha virt. eigenvalues --    0.11814   0.12163   0.12758   0.13311   0.14360

 Mulliken charges:
               1
     1  C   -4.762639
     2  C   -1.325820
     3  C    2.742242
     4  C   -4.332177
     5  C   -0.873823
     6  O   -2.083198
     7  H    1.194249
     8  H    1.287138
     9  H    1.195869
    10  H    1.297299
    11  H    1.308113
    12  H    1.413946
    13  H    1.427941
    14  H    1.510860
 Sum of Mulliken charges =   0.00000

 Dipole moment (field-independent basis, Debye):
    X=             -0.3370    Y=              0.5367    Z=              0.3062  Tot=              0.7039

 Test job not archived.
 1\1\GINC-SE220\SP\RHF\Aug-CC-pVDZ\C5H8O1\OHZDE\09-Apr-2025\0\\#t hf au
 g-cc-pvdz iop(5/13=1,5/36=2,99/5=2) pseudo=read geom=check guess=(read
 ,tcheck) scf=(maxcycle=1)\\title\\0,1\C,0,2.41469627,0.42047408,-0.194
 08675\C,0,0.92229793,0.38699696,0.04376121\C,0,0.08035359,-0.43033806,
 -0.5489108\C,0,-0.78095679,-1.24063118,-1.13038235\C,0,-2.33742369,0.4
 197218,1.1492881\O,0,-1.84590165,1.48464418,1.46797482\H,0,2.9585654,0
 .24936592,0.74739155\H,0,2.72193603,-0.34316847,-0.9185825\H,0,2.72159
 433,1.40736947,-0.57266734\H,0,-1.27164574,-0.97668928,-2.0707902\H,0,

 Normal termination of Gaussian 16 at Wed Apr  9 17:04:23 2025.
