 Gaussian 16, Revision C.01,

 ----------------------------------------------------------------------
 #t hf aug-cc-pvdz symm=none int=(grid=ultrafine) guess=(read,tcheck) s
 table=(opt,rrhf)
 ----------------------------------------------------------------------
 -----
 title
 -----
 Symbolic Z-matrix:
 Charge =  0 Multiplicity = 1

 SCF Done:  E(RHF) =  -324.962177371     A.U. after   16 cycles
 Normal termination of Gaussian 16 at Wed Apr  9 19:07:13 2025.
 Gaussian 16:  ES64L-G16RevC.01  3-Jul-2019

 ----------------------------------------------------------------------
 #t hf aug-cc-pvdz iop(5/13=1,5/36=2,99/5=2) pseudo=read geom=check gue
 ss=(read,tcheck) scf=(maxcycle=1)
 ----------------------------------------------------------------------
 -----
 title
 -----
 Structure from the checkpoint file:  "Grambow2020_wb97xd3_008113_reverse_mol1.chk"
 Charge =  0 Multiplicity = 1

                         Standard orientation:
 ---------------------------------------------------------------------
 Center     Atomic      Atomic             Coordinates (Angstroms)
 Number     Number       Type             X           Y           Z
 ---------------------------------------------------------------------
      1          6           0       -2.606811    0.414901    0.113338
      2          7           0       -1.183082    0.616393   -0.046845
      3          6           0       -0.345893   -0.456944   -0.125737
      4          8           0       -0.731185   -1.602553    0.078518
      5          6           0        1.033979   -0.315627   -0.596406
      6          6           0        1.604161    1.814599    0.135659
      7          6           0        2.072282   -1.029674    0.188658
      8          1           0       -3.093880    0.123829   -0.822006
      9          1           0       -3.060247    1.333403    0.484726
     10          1           0       -2.770781   -0.379341    0.838618
     11          1           0       -0.880162    1.473793   -0.471240
     12          1           0        1.393723    1.040160   -0.736252
     13          1           0        1.137583    1.583537    1.085879
     14          1           0        1.211921    2.743660   -0.278486
     15          1           0        2.687619    1.845468    0.218056
     16          1           0        3.078632   -0.839066   -0.182792
     17          1           0        2.034816   -0.900452    1.276442
     18          1           0        1.845518   -2.082849   -0.006243
 ---------------------------------------------------------------------

 SCF Done:  E(RHF) =  -326.521343205     A.U. after    2 cycles

 The electronic state is 1-A.
 Alpha  occ. eigenvalues --  -21.01060 -15.75584 -11.50091 -11.42650 -11.41320
 Alpha  occ. eigenvalues --  -11.39401 -11.38071  -1.70071  -1.38662  -1.18581
 Alpha  occ. eigenvalues --   -1.05305  -1.02172  -0.89162  -0.76702  -0.67489
 Alpha  occ. eigenvalues --   -0.63004  -0.61507  -0.59590  -0.58537  -0.57286
 Alpha  occ. eigenvalues --   -0.55451  -0.52767  -0.52474  -0.48232  -0.46673
 Alpha  occ. eigenvalues --   -0.32218  -0.30162  -0.26988
 Alpha virt. eigenvalues --    0.03095   0.04303   0.04845   0.05588   0.05833
 Alpha virt. eigenvalues --    0.06173   0.06456   0.07482   0.07547   0.08353
 Alpha virt. eigenvalues --    0.08784   0.10972   0.12809   0.13041   0.13543

 Mulliken charges:
               1
     1  C   -3.541796
     2  N   -3.036300
     3  C    6.446502
     4  O   -3.405183
     5  C   -2.614042
     6  C   -5.250213
     7  C   -3.895660
     8  H    1.331877
     9  H    1.347830
    10  H    1.461475
    11  H    0.839792
    12  H    2.912536
    13  H    1.541504
    14  H    0.980056
    15  H    1.040667
    16  H    1.267069
    17  H    1.380143
    18  H    1.193741
 Sum of Mulliken charges =  -0.00000

 Dipole moment (field-independent basis, Debye):
    X=              0.3450    Y=              3.0243    Z=              0.9442  Tot=              3.1870

 Test job not archived.
 1\1\GINC-SE117\SP\RHF\Aug-CC-pVDZ\C5H11N1O1\OHZDE\09-Apr-2025\0\\#t hf
  aug-cc-pvdz iop(5/13=1,5/36=2,99/5=2) pseudo=read geom=check guess=(r
 ead,tcheck) scf=(maxcycle=1)\\title\\0,1\C,0,2.79163942,0.03876137,-0.
 01225491\N,0,1.38091982,-0.17893832,-0.24834119\C,0,0.46849232,0.74645
 414,0.16431635\O,0,0.77932568,1.70362948,0.86416474\C,0,-0.91316208,0.
 72541524,-0.32162031\C,0,-1.30791766,-1.543425,-0.63052075\C,0,-1.9718
 8127,0.92676498,0.6995724\H,0,3.22539461,0.75644122,-0.71483681\H,0,3.
 32048009,-0.91030364,-0.09461751\H,0,2.92394065,0.43169552,0.99364576\

 Normal termination of Gaussian 16 at Wed Apr  9 19:07:19 2025.
