 Gaussian 16, Revision C.01,

 ----------------------------------------------------------------------
 #t hf aug-cc-pvdz symm=none int=(grid=ultrafine) guess=(read,tcheck) s
 table=(opt,rrhf)
 ----------------------------------------------------------------------
 -----
 title
 -----
 Symbolic Z-matrix:
 Charge =  0 Multiplicity = 1

 SCF Done:  E(RHF) =  -308.914281860     A.U. after   15 cycles

 1\1\GINC-SE165\Stability\RHF\Aug-CC-pVDZ\C6H12O1\OHZDE\09-Apr-2025\0\\
 #t hf aug-cc-pvdz symm=none int=(grid=ultrafine) guess=(read,tcheck) s
 table=(opt,rrhf)\\title\\0,1\C,0,-0.91260647,-1.62386346,-0.77005669\C
 ,0,-0.72190575,-0.15459442,-0.48899276\C,0,-0.88842488,0.34829703,0.82
 457844\C,0,-0.78678635,1.74673319,1.00259547\O,0,1.02446032,1.70216016
 ,-0.30701717\C,0,0.99326858,0.46438032,-0.65986652\C,0,1.92617389,-0.4
 8606047,0.08834907\H,0,-1.95995274,-1.86958108,-0.96076279\H,0,-0.3427
 3783,-1.91922762,-1.65403917\H,0,-0.57023588,-2.23998241,0.06398786\H,

 Normal termination of Gaussian 16 at Wed Apr  9 03:29:20 2025.
 Gaussian 16:  ES64L-G16RevC.01  3-Jul-2019

 ----------------------------------------------------------------------
 #t hf aug-cc-pvdz iop(5/13=1,5/36=2,99/5=2) pseudo=read geom=check gue
 ss=(read,tcheck) scf=(maxcycle=1)
 ----------------------------------------------------------------------
 -----
 title
 -----
 Structure from the checkpoint file:  "Grambow2020_wb97xd3_006728_reverse_mol1.chk"
 Charge =  0 Multiplicity = 1

                         Standard orientation:
 ---------------------------------------------------------------------
 Center     Atomic      Atomic             Coordinates (Angstroms)
 Number     Number       Type             X           Y           Z
 ---------------------------------------------------------------------
      1          6           0        2.085609   -0.802429   -0.155793
      2          6           0        0.603579   -0.697578   -0.414072
      3          6           0       -0.323846   -1.141019    0.560270
      4          6           0       -1.694622   -1.100771    0.218223
      5          8           0       -1.344991    0.943279   -0.616823
      6          6           0       -0.066279    1.005662   -0.480521
      7          6           0        0.457946    1.777986    0.728685
      8          1           0        2.479006   -1.783365   -0.432712
      9          1           0        2.627674   -0.056911   -0.742125
     10          1           0        2.323003   -0.630832    0.896181
     11          1           0        0.318214   -0.968595   -1.428652
     12          1           0       -0.069325   -1.124585    1.615075
     13          1           0       -1.063646   -2.249383    0.415538
     14          1           0       -2.451824   -1.028015    0.987302
     15          1           0       -1.992584   -1.196696   -0.813593
     16          1           0        0.502915    1.268589   -1.392804
     17          1           0       -0.038410    1.443269    1.642070
     18          1           0        1.540469    1.696383    0.852959
     19          1           0        0.210110    2.832797    0.594587
 ---------------------------------------------------------------------

 SCF Done:  E(RHF) =  -310.453327826     A.U. after    2 cycles

 The electronic state is 1-A.
 Alpha  occ. eigenvalues --  -20.94007 -11.51275 -11.45920 -11.41910 -11.40937
 Alpha  occ. eigenvalues --  -11.37863 -11.34516  -1.61471  -1.29846  -1.13400
 Alpha  occ. eigenvalues --   -1.05149  -0.94010  -0.83929  -0.77770  -0.68926
 Alpha  occ. eigenvalues --   -0.65138  -0.61300  -0.58871  -0.56534  -0.55844
 Alpha  occ. eigenvalues --   -0.53414  -0.51543  -0.47677  -0.47023  -0.41714
 Alpha  occ. eigenvalues --   -0.36364  -0.23537  -0.22083
 Alpha virt. eigenvalues --    0.03499   0.04432   0.04645   0.04986   0.05052
 Alpha virt. eigenvalues --    0.05462   0.06490   0.06774   0.07543   0.08562
 Alpha virt. eigenvalues --    0.09012   0.09680   0.10458   0.11756   0.12604

 Mulliken charges:
               1
     1  C   -4.469404
     2  C   -1.386030
     3  C   -2.175729
     4  C   -3.114170
     5  O   -3.094298
     6  C    2.252303
     7  C   -3.939140
     8  H    1.061059
     9  H    1.258241
    10  H    1.396331
    11  H    1.511675
    12  H    1.533005
    13  H    1.114321
    14  H    1.336781
    15  H    1.469779
    16  H    1.512631
    17  H    1.256463
    18  H    1.409707
    19  H    1.066475
 Sum of Mulliken charges =   0.00000

 Dipole moment (field-independent basis, Debye):
    X=              0.0089    Y=             -2.9431    Z=              1.1980  Tot=              3.1776

 Test job not archived.
 1\1\GINC-SE165\SP\RHF\Aug-CC-pVDZ\C6H12O1\OHZDE\09-Apr-2025\0\\#t hf a
 ug-cc-pvdz iop(5/13=1,5/36=2,99/5=2) pseudo=read geom=check guess=(rea
 d,tcheck) scf=(maxcycle=1)\\title\\0,1\C,0,-0.91260647,-1.62386346,-0.
 77005669\C,0,-0.72190575,-0.15459442,-0.48899276\C,0,-0.88842488,0.348
 29703,0.82457844\C,0,-0.78678635,1.74673319,1.00259547\O,0,1.02446032,
 1.70216016,-0.30701717\C,0,0.99326858,0.46438032,-0.65986652\C,0,1.926
 17389,-0.48606047,0.08834907\H,0,-1.95995274,-1.86958108,-0.96076279\H
 ,0,-0.34273783,-1.91922762,-1.65403917\H,0,-0.57023588,-2.23998241,0.0

 Normal termination of Gaussian 16 at Wed Apr  9 03:29:28 2025.
