 Gaussian 16, Revision C.01,

 ----------------------------------------------------------------------
 #t hf aug-cc-pvdz symm=none int=(grid=ultrafine) guess=(read,tcheck) s
 table=(opt,rrhf)
 ----------------------------------------------------------------------
 -----
 title
 -----
 Symbolic Z-matrix:
 Charge =  0 Multiplicity = 1

 SCF Done:  E(RHF) =  -284.641060883     A.U. after   15 cycles
 Normal termination of Gaussian 16 at Wed Apr  9 03:06:50 2025.
 Gaussian 16:  ES64L-G16RevC.01  3-Jul-2019

 ----------------------------------------------------------------------
 #t hf aug-cc-pvdz iop(5/13=1,5/36=2,99/5=2) pseudo=read geom=check gue
 ss=(read,tcheck) scf=(maxcycle=1)
 ----------------------------------------------------------------------
 -----
 title
 -----
 Structure from the checkpoint file:  "Grambow2020_b97d3_006564_reverse_mol1.chk"
 Charge =  0 Multiplicity = 1

                         Standard orientation:
 ---------------------------------------------------------------------
 Center     Atomic      Atomic             Coordinates (Angstroms)
 Number     Number       Type             X           Y           Z
 ---------------------------------------------------------------------
      1          8           0        1.893410   -0.525323   -0.215962
      2          6           0        0.886569    0.239873    0.437858
      3          6           0        0.069540    1.318113   -0.311399
      4          7           0       -1.257001    0.518594   -0.013678
      5          6           0       -1.245150   -0.919601   -0.447986
      6          6           0       -0.457192   -0.464934    0.750311
      7          1           0        1.552532   -0.736197   -1.106051
      8          1           0        1.382710    0.587851    1.355095
      9          1           0        0.239768    1.468265   -1.384358
     10          1           0       -1.341696    1.589791    0.318040
     11          1           0       -0.760197   -1.088571   -1.410912
     12          1           0       -2.159859   -1.480762   -0.256033
     13          1           0       -0.784128   -0.808660    1.734957
 ---------------------------------------------------------------------

 SCF Done:  E(RHF) =  -285.961864110     A.U. after    2 cycles

 The electronic state is 1-A.
 Alpha  occ. eigenvalues --  -21.06580 -15.77093 -11.52077 -11.46887 -11.42426
 Alpha  occ. eigenvalues --  -11.34510  -1.70860  -1.52974  -1.08510  -1.02256
 Alpha  occ. eigenvalues --   -0.88864  -0.77708  -0.73869  -0.67502  -0.61468
 Alpha  occ. eigenvalues --   -0.56172  -0.52269  -0.49981  -0.47759  -0.42231
 Alpha  occ. eigenvalues --   -0.36411  -0.32124  -0.25215
 Alpha virt. eigenvalues --    0.03485   0.04729   0.05121   0.06023   0.06415
 Alpha virt. eigenvalues --    0.06808   0.07570   0.09494   0.11024   0.12803
 Alpha virt. eigenvalues --    0.12949   0.13729   0.14049   0.15006   0.15260

 Mulliken charges:
               1
     1  O   -2.981161
     2  C    0.421787
     3  C   -1.401882
     4  N   -2.263977
     5  C   -2.207908
     6  C   -0.391502
     7  H    0.666578
     8  H    1.473741
     9  H    1.371875
    10  H    1.111594
    11  H    1.463851
    12  H    1.418368
    13  H    1.318636
 Sum of Mulliken charges =   0.00000

 Dipole moment (field-independent basis, Debye):
    X=             -2.2156    Y=             -2.6727    Z=             -0.0148  Tot=              3.4716

 Test job not archived.
 1\1\GINC-SE459\SP\RHF\Aug-CC-pVDZ\C4H7N1O1\OHZDE\09-Apr-2025\0\\#t hf
 aug-cc-pvdz iop(5/13=1,5/36=2,99/5=2) pseudo=read geom=check guess=(re
 ad,tcheck) scf=(maxcycle=1)\\title\\0,1\O,0,-1.53572522,-1.09314388,0.
 9096069\C,0,-1.15475485,-0.09860182,-0.03510528\C,0,-0.48166949,1.2232
 0252,0.40228786\N,0,0.79563046,0.85227108,-0.44535175\C,0,1.39665392,-
 0.48987393,-0.13780343\C,0,0.10267519,-0.37523048,-0.89674455\H,0,-0.8
 2524066,-1.13283694,1.5778592\H,0,-2.05247416,0.02194248,-0.65811193\H
 ,0,-0.25269974,1.38102439,1.46315045\H,0,0.41049016,1.87469126,-0.7118

 Normal termination of Gaussian 16 at Wed Apr  9 03:06:54 2025.
