 Gaussian 16, Revision C.01,

 ----------------------------------------------------------------------
 #t hf aug-cc-pvdz symm=none int=(grid=ultrafine) guess=(read,tcheck) s
 table=(opt,rrhf)
 ----------------------------------------------------------------------
 -----
 title
 -----
 Symbolic Z-matrix:
 Charge =  0 Multiplicity = 1

 SCF Done:  E(RHF) =  -270.024012445     A.U. after   12 cycles

 1\1\GINC-SE042\Stability\RHF\Aug-CC-pVDZ\C5H10O1\OHZDE\09-Apr-2025\0\\
 #t hf aug-cc-pvdz symm=none int=(grid=ultrafine) guess=(read,tcheck) s
 table=(opt,rrhf)\\title\\0,1\C,0,-1.19267379,-1.18176376,-0.17131596\C
 ,0,-0.25603464,0.01583723,-0.06086755\C,0,-1.01170757,1.33311317,0.086
 30804\C,0,0.9556811,-0.16233653,0.89454805\C,0,1.81161607,-0.04490779,
 -0.38007553\O,0,0.64287219,0.07084618,-1.22810287\H,0,-1.85740935,-1.0
 6477891,-1.03885536\H,0,-1.81324924,-1.27382893,0.73222837\H,0,-0.6177
 4651,-2.10849794,-0.2993416\H,0,-1.66861775,1.49206699,-0.78042367\H,0

 Normal termination of Gaussian 16 at Wed Apr  9 16:12:59 2025.
 Gaussian 16:  ES64L-G16RevC.01  3-Jul-2019

 ----------------------------------------------------------------------
 #t hf aug-cc-pvdz iop(5/13=1,5/36=2,99/5=2) pseudo=read geom=check gue
 ss=(read,tcheck) scf=(maxcycle=1)
 ----------------------------------------------------------------------
 -----
 title
 -----
 Structure from the checkpoint file:  "Grambow2020_b97d3_006762_forward_mol2.chk"
 Charge =  0 Multiplicity = 1

                         Standard orientation:
 ---------------------------------------------------------------------
 Center     Atomic      Atomic             Coordinates (Angstroms)
 Number     Number       Type             X           Y           Z
 ---------------------------------------------------------------------
      1          6           0       -1.266710   -1.243826   -0.004768
      2          6           0       -0.385044   -0.000996    0.037389
      3          6           0       -1.197841    1.289737    0.001503
      4          6           0        0.768339   -0.028081    1.077482
      5          6           0        1.699715   -0.002273   -0.148468
      6          8           0        0.584609   -0.024485   -1.072890
      7          1           0       -1.878006   -1.244522   -0.918278
      8          1           0       -1.940391   -1.271501    0.864352
      9          1           0       -0.650135   -2.152447   -0.001217
     10          1           0       -1.802970    1.331182   -0.915079
     11          1           0       -0.533782    2.164368    0.016638
     12          1           0       -1.873992    1.346960    0.867434
     13          1           0        0.813108   -0.943246    1.679992
     14          1           0        0.819166    0.846623    1.736904
     15          1           0        2.353335   -0.880642   -0.269925
     16          1           0        2.306038    0.911735   -0.256525
 ---------------------------------------------------------------------

 SCF Done:  E(RHF) =  -271.326918545     A.U. after    2 cycles

 The electronic state is 1-A.
 Alpha  occ. eigenvalues --  -21.02099 -11.46543 -11.43575 -11.39104 -11.38643
 Alpha  occ. eigenvalues --  -11.35404  -1.74699  -1.18210  -1.07995  -1.00958
 Alpha  occ. eigenvalues --   -0.89960  -0.74559  -0.66167  -0.64170  -0.60861
 Alpha  occ. eigenvalues --   -0.56611  -0.55892  -0.54472  -0.50261  -0.46534
 Alpha  occ. eigenvalues --   -0.46348  -0.38722  -0.33886  -0.28047
 Alpha virt. eigenvalues --    0.03821   0.05089   0.05565   0.05630   0.05742
 Alpha virt. eigenvalues --    0.05838   0.06419   0.06658   0.08995   0.09609
 Alpha virt. eigenvalues --    0.10208   0.12552   0.12930   0.13886   0.15209

 Mulliken charges:
               1
     1  C   -3.913537
     2  C    3.682750
     3  C   -3.881529
     4  C   -3.416644
     5  C   -2.078372
     6  O   -3.183625
     7  H    1.175629
     8  H    1.177670
     9  H    1.248499
    10  H    1.174752
    11  H    1.260607
    12  H    1.176228
    13  H    1.300657
    14  H    1.297312
    15  H    1.491598
    16  H    1.488005
 Sum of Mulliken charges =   0.00000

 Dipole moment (field-independent basis, Debye):
    X=             -0.0330    Y=             -0.0011    Z=              0.7337  Tot=              0.7344

 Test job not archived.
 1\1\GINC-SE042\SP\RHF\Aug-CC-pVDZ\C5H10O1\OHZDE\09-Apr-2025\0\\#t hf a
 ug-cc-pvdz iop(5/13=1,5/36=2,99/5=2) pseudo=read geom=check guess=(rea
 d,tcheck) scf=(maxcycle=1)\\title\\0,1\C,0,-1.19267379,-1.18176376,-0.
 17131596\C,0,-0.25603464,0.01583723,-0.06086755\C,0,-1.01170757,1.3331
 1317,0.08630804\C,0,0.9556811,-0.16233653,0.89454805\C,0,1.81161607,-0
 .04490779,-0.38007553\O,0,0.64287219,0.07084618,-1.22810287\H,0,-1.857
 40935,-1.06477891,-1.03885536\H,0,-1.81324924,-1.27382893,0.73222837\H
 ,0,-0.61774651,-2.10849794,-0.2993416\H,0,-1.66861775,1.49206699,-0.78

 Normal termination of Gaussian 16 at Wed Apr  9 16:13:04 2025.
