 Gaussian 16, Revision C.01,

 ----------------------------------------------------------------------
 #t hf aug-cc-pvdz symm=none int=(grid=ultrafine) guess=(read,tcheck) s
 table=(opt,rrhf)
 ----------------------------------------------------------------------
 -----
 title
 -----
 Symbolic Z-matrix:
 Charge =  0 Multiplicity = 1

 SCF Done:  E(RHF) =  -306.591330385     A.U. after   15 cycles
 Normal termination of Gaussian 16 at Wed Apr  9 03:59:46 2025.
 Gaussian 16:  ES64L-G16RevC.01  3-Jul-2019

 ----------------------------------------------------------------------
 #t hf aug-cc-pvdz iop(5/13=1,5/36=2,99/5=2) pseudo=read geom=check gue
 ss=(read,tcheck) scf=(maxcycle=1)
 ----------------------------------------------------------------------
 -----
 title
 -----
 Structure from the checkpoint file:  "Grambow2020_wb97xd3_008779_forward_mol1.chk"
 Charge =  0 Multiplicity = 1

                         Standard orientation:
 ---------------------------------------------------------------------
 Center     Atomic      Atomic             Coordinates (Angstroms)
 Number     Number       Type             X           Y           Z
 ---------------------------------------------------------------------
      1          8           0       -2.402994    0.001397    0.163393
      2          6           0       -1.140441   -0.081487    0.257738
      3          6           0       -0.322347   -1.132853   -0.294258
      4          6           0        1.143364   -1.175821   -0.168197
      5          6           0        1.736262    0.103305    0.417503
      6          6           0        1.010714    1.278783   -0.169809
      7          6           0       -0.297310    1.183875   -0.304186
      8          1           0       -0.701039   -0.055529    1.319090
      9          1           0       -0.812342   -1.917980   -0.871519
     10          1           0        1.417739   -2.061613    0.419981
     11          1           0        1.551357   -1.369342   -1.168642
     12          1           0        1.596623    0.106955    1.507214
     13          1           0        2.810064    0.141494    0.236732
     14          1           0        1.550940    2.172248   -0.459374
     15          1           0       -0.970839    1.917777   -0.723377
 ---------------------------------------------------------------------

 SCF Done:  E(RHF) =  -308.034252619     A.U. after    2 cycles

 The electronic state is 1-A.
 Alpha  occ. eigenvalues --  -20.91815 -11.54402 -11.47497 -11.46328 -11.43767
 Alpha  occ. eigenvalues --  -11.42165 -11.38543  -1.60386  -1.34349  -1.13099
 Alpha  occ. eigenvalues --   -1.08841  -0.92150  -0.86087  -0.74973  -0.69187
 Alpha  occ. eigenvalues --   -0.68135  -0.61505  -0.60364  -0.55293  -0.53160
 Alpha  occ. eigenvalues --   -0.51799  -0.46155  -0.40674  -0.36172  -0.21563
 Alpha  occ. eigenvalues --   -0.21011
 Alpha virt. eigenvalues --    0.02185   0.02980   0.04257   0.04341   0.04663
 Alpha virt. eigenvalues --    0.05378   0.05872   0.07525   0.07612   0.10514
 Alpha virt. eigenvalues --    0.11601   0.12320   0.12760   0.12830   0.13876

 Mulliken charges:
               1
     1  O   -3.658327
     2  C    1.707467
     3  C   -0.548149
     4  C   -2.701188
     5  C   -3.576990
     6  C    0.686986
     7  C   -1.642197
     8  H    0.968723
     9  H    1.174942
    10  H    1.366059
    11  H    1.327822
    12  H    1.253845
    13  H    1.166016
    14  H    1.389156
    15  H    1.085834
 Sum of Mulliken charges =  -0.00000

 Dipole moment (field-independent basis, Debye):
    X=              5.9300    Y=             -1.6634    Z=             -0.7485  Tot=              6.2042

 Test job not archived.
 1\1\GINC-SE412\SP\RHF\Aug-CC-pVDZ\C6H8O1\OHZDE\09-Apr-2025\0\\#t hf au
 g-cc-pvdz iop(5/13=1,5/36=2,99/5=2) pseudo=read geom=check guess=(read
 ,tcheck) scf=(maxcycle=1)\\title\\0,1\O,0,0.57433822,-2.76011908,-0.05
 666293\C,0,0.25047926,-1.53982005,-0.18234869\C,0,-0.87637972,-0.89870
 715,0.44892816\C,0,-1.20185189,0.52675411,0.2810732\C,0,-0.1167065,1.3
 1102028,-0.4524941\C,0,1.22354072,0.84080197,0.03303362\C,0,1.38576674
 ,-0.45431485,0.21836326\H,0,0.09284385,-1.15714409,-1.25422761\H,0,-1.
 49824017,-1.49292208,1.11971072\H,0,-2.17532708,0.60622135,-0.22081759

 Normal termination of Gaussian 16 at Wed Apr  9 03:59:50 2025.
