 Gaussian 16, Revision C.01,

 ----------------------------------------------------------------------
 #t hf aug-cc-pvdz symm=none int=(grid=ultrafine) guess=(read,tcheck) s
 table=(opt,rrhf)
 ----------------------------------------------------------------------
 -----
 title
 -----
 Symbolic Z-matrix:
 Charge =  0 Multiplicity = 1

 SCF Done:  E(RHF) =  -305.329128739     A.U. after   19 cycles
 Normal termination of Gaussian 16 at Wed Apr  9 03:53:10 2025.
 Gaussian 16:  ES64L-G16RevC.01  3-Jul-2019

 ----------------------------------------------------------------------
 #t hf aug-cc-pvdz iop(5/13=1,5/36=2,99/5=2) pseudo=read geom=check gue
 ss=(read,tcheck) scf=(maxcycle=1)
 ----------------------------------------------------------------------
 -----
 title
 -----
 Structure from the checkpoint file:  "Grambow2020_wb97xd3_008358_forward_mol1.chk"
 Charge =  0 Multiplicity = 1

                         Standard orientation:
 ---------------------------------------------------------------------
 Center     Atomic      Atomic             Coordinates (Angstroms)
 Number     Number       Type             X           Y           Z
 ---------------------------------------------------------------------
      1          6           0        2.587992    0.181730   -0.212479
      2          6           0        1.319148    0.348654   -0.002005
      3          6           0        0.224219    1.159538    0.063498
      4          6           0       -1.071794    1.214838    0.044988
      5          6           0       -1.797461   -0.121865   -0.116043
      6          8           0       -0.847168   -1.126886   -0.325631
      7          6           0        0.279939   -0.980399    0.431194
      8          1           0        2.988727   -0.812725   -0.391823
      9          1           0       -1.650654    2.113969    0.206917
     10          1           0       -2.376088   -0.310495    0.797060
     11          1           0       -2.470168   -0.132956   -0.973673
     12          1           0        0.941381   -1.809850    0.212508
     13          1           0        0.091896   -0.847834    1.499141
 ---------------------------------------------------------------------

 SCF Done:  E(RHF) =  -306.741535968     A.U. after    2 cycles

 The electronic state is 1-A.
 Alpha  occ. eigenvalues --  -21.09727 -11.49479 -11.47747 -11.47470 -11.44707
 Alpha  occ. eigenvalues --  -11.41934 -11.36399  -1.83037  -1.26714  -1.15573
 Alpha  occ. eigenvalues --   -1.01006  -0.92055  -0.86639  -0.71756  -0.68405
 Alpha  occ. eigenvalues --   -0.66640  -0.63244  -0.57808  -0.56048  -0.50972
 Alpha  occ. eigenvalues --   -0.47107  -0.42447  -0.36135  -0.31454  -0.26411
 Alpha virt. eigenvalues --    0.02753   0.04107   0.04736   0.05036   0.05656
 Alpha virt. eigenvalues --    0.06220   0.06909   0.09600   0.10158   0.10556
 Alpha virt. eigenvalues --    0.11784   0.12440   0.12550   0.13210   0.13753

 Mulliken charges:
               1
     1  C   -4.977558
     2  C    3.918727
     3  C    3.013495
     4  C   -2.192009
     5  C   -2.076005
     6  O   -3.000420
     7  C   -1.854430
     8  H    0.916775
     9  H    1.178962
    10  H    1.181722
    11  H    1.142374
    12  H    1.228414
    13  H    1.519952
 Sum of Mulliken charges =   0.00000

 Dipole moment (field-independent basis, Debye):
    X=             -5.3040    Y=             -2.0895    Z=              0.6293  Tot=              5.7353

 Test job not archived.
 1\1\GINC-SE125\SP\RHF\Aug-CC-pVDZ\C6H6O1\OHZDE\09-Apr-2025\0\\#t hf au
 g-cc-pvdz iop(5/13=1,5/36=2,99/5=2) pseudo=read geom=check guess=(read
 ,tcheck) scf=(maxcycle=1)\\title\\0,1\C,0,2.62929427,-0.77949109,0.410
 18187\C,0,1.46970763,-0.20675837,0.50746524\C,0,0.70642566,0.88270856,
 0.80938716\C,0,-0.44229357,1.4644009,0.65087076\C,0,-1.45469281,0.7219
 1634,-0.22266563\O,0,-0.83739555,-0.41199574,-0.76140317\C,0,-0.003449
 97,-1.04824045,0.1128627\H,0,2.74405978,-1.69231621,-0.16884572\H,0,-0
 .74165628,2.37817286,1.14598533\H,0,-2.3109743,0.44413575,0.4048429\H,

 Normal termination of Gaussian 16 at Wed Apr  9 03:53:15 2025.
