 Gaussian 16, Revision C.01,

 ----------------------------------------------------------------------
 #t hf aug-cc-pvdz symm=none int=(grid=ultrafine) guess=(read,tcheck) s
 table=(opt,rrhf)
 ----------------------------------------------------------------------
 -----
 title
 -----
 Symbolic Z-matrix:
 Charge =  0 Multiplicity = 1

 SCF Done:  E(RHF) =  -355.763658671     A.U. after   16 cycles
 Normal termination of Gaussian 16 at Wed Apr  9 19:27:09 2025.
 Gaussian 16:  ES64L-G16RevC.01  3-Jul-2019

 ----------------------------------------------------------------------
 #t hf aug-cc-pvdz iop(5/13=1,5/36=2,99/5=2) pseudo=read geom=check gue
 ss=(read,tcheck) scf=(maxcycle=1)
 ----------------------------------------------------------------------
 -----
 title
 -----
 Structure from the checkpoint file:  "Grambow2020_wb97xd3_008991_forward_mol1.chk"
 Charge =  0 Multiplicity = 1

                         Standard orientation:
 ---------------------------------------------------------------------
 Center     Atomic      Atomic             Coordinates (Angstroms)
 Number     Number       Type             X           Y           Z
 ---------------------------------------------------------------------
      1          6           0        2.367802   -0.590273    0.503572
      2          7           0        1.719616   -0.405629   -0.637458
      3          6           0        0.546857    0.380233    0.037769
      4          8           0        0.549957    1.600137   -0.037840
      5          7           0       -0.628705   -0.406785   -0.264631
      6          6           0       -1.863056    0.155250   -0.011774
      7          7           0       -2.869574   -0.583620    0.200600
      8          1           0        2.721598    0.291830    1.025095
      9          1           0        2.825988   -1.543774    0.766172
     10          1           0        0.878242   -0.066483    1.226887
     11          1           0        1.473158   -1.212961   -1.189141
     12          1           0       -0.600586   -1.390774   -0.036043
     13          1           0       -1.849481    1.244392   -0.057810
     14          1           0       -3.707555   -0.022348    0.300592
 ---------------------------------------------------------------------

 SCF Done:  E(RHF) =  -357.400129964     A.U. after    2 cycles

 The electronic state is 1-A.
 Alpha  occ. eigenvalues --  -20.98810 -15.78918 -15.75688 -15.71268 -11.54688
 Alpha  occ. eigenvalues --  -11.51734 -11.43346  -1.69752  -1.46756  -1.41515
 Alpha  occ. eigenvalues --   -1.24608  -0.99569  -0.91512  -0.82742  -0.77278
 Alpha  occ. eigenvalues --   -0.67948  -0.66529  -0.63924  -0.61648  -0.55281
 Alpha  occ. eigenvalues --   -0.51855  -0.48329  -0.41936  -0.38845  -0.32208
 Alpha  occ. eigenvalues --   -0.27788  -0.27255
 Alpha virt. eigenvalues --    0.01881   0.04292   0.04552   0.05176   0.05830
 Alpha virt. eigenvalues --    0.06800   0.07602   0.08468   0.09877   0.12264
 Alpha virt. eigenvalues --    0.12341   0.12664   0.13671   0.14097   0.15315

 Mulliken charges:
               1
     1  C   -1.975007
     2  N   -2.207102
     3  C    4.467980
     4  O   -3.292168
     5  N   -2.705879
     6  C    1.355823
     7  N   -2.897591
     8  H    1.318818
     9  H    1.344411
    10  H    1.078511
    11  H    0.681781
    12  H    0.566583
    13  H    1.619768
    14  H    0.644071
 Sum of Mulliken charges =   0.00000

 Dipole moment (field-independent basis, Debye):
    X=              3.7065    Y=             -2.2089    Z=              0.2342  Tot=              4.3211

 Test job not archived.
 1\1\GINC-SE220\SP\RHF\Aug-CC-pVDZ\C3H7N3O1\OHZDE\09-Apr-2025\0\\#t hf
 aug-cc-pvdz iop(5/13=1,5/36=2,99/5=2) pseudo=read geom=check guess=(re
 ad,tcheck) scf=(maxcycle=1)\\title\\0,1\C,0,2.26834068,0.21632451,0.24
 105134\N,0,1.47827552,-0.83856927,0.37956135\C,0,0.41280104,-0.3013132
 6,-0.63285733\O,0,0.41933138,-0.74894054,-1.7701704\N,0,-0.8008044,-0.
 20149906,0.14815968\C,0,-1.98514078,0.01366626,-0.52600209\N,0,-2.9631
 8135,0.56385851,0.06122326\H,0,2.6970742,0.39367402,-0.73874329\H,0,2.
 74651323,0.70233206,1.09146643\H,0,0.89224663,0.91814942,-0.55275872\H

 Normal termination of Gaussian 16 at Wed Apr  9 19:27:14 2025.
