 Gaussian 16, Revision C.01,

 ----------------------------------------------------------------------
 #t hf aug-cc-pvdz symm=none int=(grid=ultrafine) guess=(read,tcheck) s
 table=(opt,rrhf)
 ----------------------------------------------------------------------
 -----
 title
 -----
 Symbolic Z-matrix:
 Charge =  0 Multiplicity = 1

 SCF Done:  E(RHF) =  -337.497029005     A.U. after   16 cycles
 Normal termination of Gaussian 16 at Wed Apr  9 03:58:26 2025.
 Gaussian 16:  ES64L-G16RevC.01  3-Jul-2019

 ----------------------------------------------------------------------
 #t hf aug-cc-pvdz iop(5/13=1,5/36=2,99/5=2) pseudo=read geom=check gue
 ss=(read,tcheck) scf=(maxcycle=1)
 ----------------------------------------------------------------------
 -----
 title
 -----
 Structure from the checkpoint file:  "Grambow2020_wb97xd3_008699_reverse_mol2.chk"
 Charge =  0 Multiplicity = 1

                         Standard orientation:
 ---------------------------------------------------------------------
 Center     Atomic      Atomic             Coordinates (Angstroms)
 Number     Number       Type             X           Y           Z
 ---------------------------------------------------------------------
      1          8           0       -2.655516   -0.128097    0.080103
      2          6           0       -1.582912   -0.647218   -0.044957
      3          6           0       -0.298777    0.160059   -0.091229
      4          6           0        0.970181   -0.583794   -0.271694
      5          7           0        2.074285   -0.345603    0.761140
      6          6           0        2.222233    0.135853   -0.371779
      7          7           0       -0.312277    1.417358    0.034275
      8          1           0       -1.483088   -1.746517   -0.127569
      9          1           0        0.892465   -1.603167   -0.639321
     10          1           0        2.910465    0.747008   -0.936507
     11          1           0       -1.274122    1.735765    0.172623
 ---------------------------------------------------------------------

 SCF Done:  E(RHF) =  -338.978448177     A.U. after    2 cycles

 The electronic state is 1-A.
 Alpha  occ. eigenvalues --  -21.09387 -15.78766 -15.76438 -11.51928 -11.50402
 Alpha  occ. eigenvalues --  -11.46239 -11.43239  -1.74337  -1.49968  -1.35264
 Alpha  occ. eigenvalues --   -1.04971  -0.91455  -0.84965  -0.78421  -0.72317
 Alpha  occ. eigenvalues --   -0.66220  -0.60565  -0.56020  -0.53958  -0.50491
 Alpha  occ. eigenvalues --   -0.43619  -0.42642  -0.41782  -0.35984  -0.31830
 Alpha virt. eigenvalues --    0.03301   0.04590   0.05663   0.06703   0.06970
 Alpha virt. eigenvalues --    0.09436   0.09848   0.10561   0.11430   0.11927
 Alpha virt. eigenvalues --    0.13050   0.13556   0.13859   0.14575   0.15303

 Mulliken charges:
               1
     1  O   -2.776319
     2  C    0.284104
     3  C    2.550536
     4  C   -0.336917
     5  N   -1.666425
     6  C    0.617898
     7  N   -3.481187
     8  H    1.518223
     9  H    1.429262
    10  H    1.041030
    11  H    0.819794
 Sum of Mulliken charges =  -0.00000

 Dipole moment (field-independent basis, Debye):
    X=              0.5260    Y=             -0.7854    Z=             -1.6183  Tot=              1.8741

 Test job not archived.
 1\1\GINC-SE187\SP\RHF\Aug-CC-pVDZ\C4H4N2O1\OHZDE\09-Apr-2025\0\\#t hf
 aug-cc-pvdz iop(5/13=1,5/36=2,99/5=2) pseudo=read geom=check guess=(re
 ad,tcheck) scf=(maxcycle=1)\\title\\0,1\O,0,-2.50441913,-1.24086642,-0
 .06840109\C,0,-1.7856259,-0.28283694,-0.0348961\C,0,-0.27400454,-0.411
 87055,-0.00038151\C,0,0.51761701,0.83932152,0.06280163\N,0,1.59290588,
 1.04223303,-1.00729584\C,0,1.96148592,0.7779858,0.14661769\N,0,0.28640
 287,-1.54376709,-0.03894852\H,0,-2.19772803,0.74449713,-0.03276485\H,0
 ,-0.01159526,1.73920186,0.36356753\H,0,2.86130593,0.59607709,0.7152339

 Normal termination of Gaussian 16 at Wed Apr  9 03:58:31 2025.
