 Gaussian 16, Revision C.01,

 ----------------------------------------------------------------------
 #t hf aug-cc-pvdz symm=none int=(grid=ultrafine) guess=(read,tcheck) s
 table=(opt,rrhf)
 ----------------------------------------------------------------------
 -----
 title
 -----
 Symbolic Z-matrix:
 Charge =  0 Multiplicity = 1

 SCF Done:  E(RHF) =  -302.711759315     A.U. after   17 cycles
 Normal termination of Gaussian 16 at Wed Apr  9 18:23:52 2025.
 Gaussian 16:  ES64L-G16RevC.01  3-Jul-2019

 ----------------------------------------------------------------------
 #t hf aug-cc-pvdz iop(5/13=1,5/36=2,99/5=2) pseudo=read geom=check gue
 ss=(read,tcheck) scf=(maxcycle=1)
 ----------------------------------------------------------------------
 -----
 title
 -----
 Structure from the checkpoint file:  "Grambow2020_wb97xd3_006962_reverse_mol1.chk"
 Charge =  0 Multiplicity = 1

                         Standard orientation:
 ---------------------------------------------------------------------
 Center     Atomic      Atomic             Coordinates (Angstroms)
 Number     Number       Type             X           Y           Z
 ---------------------------------------------------------------------
      1          6           0        0.622498    1.566975    0.522237
      2          6           0        0.821890    0.375639   -0.182418
      3          6           0        2.220495   -0.162031   -0.346023
      4          7           0       -0.025832   -1.646306    0.669545
      5          6           0       -0.357905   -0.760669   -0.311788
      6          6           0       -1.654784   -0.048479   -0.247600
      7          7           0       -2.641743    0.531465   -0.152869
      8          1           0        0.547260    1.253582   -0.936979
      9          1           0        1.440147    2.088572    1.012015
     10          1           0       -0.373975    1.990431    0.597906
     11          1           0        2.649702   -0.417183    0.621207
     12          1           0        2.214031   -1.067393   -0.950195
     13          1           0        2.860492    0.585232   -0.819155
     14          1           0       -0.331184   -1.277788    1.568250
     15          1           0       -0.246616   -1.180184   -1.316238
 ---------------------------------------------------------------------

 SCF Done:  E(RHF) =  -304.158981025     A.U. after    2 cycles

 The electronic state is 1-A.
 Alpha  occ. eigenvalues --  -15.75630 -15.64390 -11.53932 -11.50012 -11.47560
 Alpha  occ. eigenvalues --  -11.42588 -11.41136  -1.39465  -1.28823  -1.22777
 Alpha  occ. eigenvalues --   -1.06556  -0.96365  -0.85455  -0.72636  -0.71196
 Alpha  occ. eigenvalues --   -0.67227  -0.61085  -0.56607  -0.54724  -0.54199
 Alpha  occ. eigenvalues --   -0.51281  -0.50912  -0.43918  -0.43535  -0.33501
 Alpha  occ. eigenvalues --   -0.24615
 Alpha virt. eigenvalues --    0.00675   0.02887   0.03800   0.04625   0.05347
 Alpha virt. eigenvalues --    0.06202   0.06305   0.07804   0.07857   0.10519
 Alpha virt. eigenvalues --    0.10759   0.11700   0.12737   0.13677   0.14034

 Mulliken charges:
               1
     1  C   -2.579317
     2  C   -0.323941
     3  C   -4.189934
     4  N   -2.723897
     5  C   -0.974584
     6  C    2.825313
     7  N   -2.597299
     8  H    1.709822
     9  H    1.616085
    10  H    1.570110
    11  H    1.186743
    12  H    1.309181
    13  H    1.014494
    14  H    0.500839
    15  H    1.656384
 Sum of Mulliken charges =  -0.00000

 Dipole moment (field-independent basis, Debye):
    X=              4.6046    Y=              5.0455    Z=             -0.7558  Tot=              6.8724

 Test job not archived.
 1\1\GINC-SE226\SP\RHF\Aug-CC-pVDZ\C5H8N2\OHZDE\09-Apr-2025\0\\#t hf au
 g-cc-pvdz iop(5/13=1,5/36=2,99/5=2) pseudo=read geom=check guess=(read
 ,tcheck) scf=(maxcycle=1)\\title\\0,1\C,0,-0.67246472,1.38310097,-0.09
 801774\C,0,-0.32159638,0.08197886,0.27554514\C,0,-1.40524351,-0.942469
 82,0.49501541\N,0,0.88435255,-1.28075725,-1.21488153\C,0,1.14739958,-0
 .55668039,-0.09053332\C,0,2.10674382,0.56984158,-0.15246288\N,0,2.8142
 8266,1.4711373,-0.23279738\H,0,-0.16250145,0.82502621,1.19104345\H,0,-
 1.70250494,1.66569999,-0.29714057\H,0,0.09674709,2.14137292,-0.2044902

 Normal termination of Gaussian 16 at Wed Apr  9 18:23:57 2025.
