 Gaussian 16, Revision C.01,

 ----------------------------------------------------------------------
 #t hf aug-cc-pvdz symm=none int=(grid=ultrafine) guess=(read,tcheck) s
 table=(opt,rrhf)
 ----------------------------------------------------------------------
 -----
 title
 -----
 Symbolic Z-matrix:
 Charge =  0 Multiplicity = 1

 SCF Done:  E(RHF) =  -321.420392034     A.U. after   15 cycles
 Normal termination of Gaussian 16 at Wed Apr  9 19:09:43 2025.
 Gaussian 16:  ES64L-G16RevC.01  3-Jul-2019

 ----------------------------------------------------------------------
 #t hf aug-cc-pvdz iop(5/13=1,5/36=2,99/5=2) pseudo=read geom=check gue
 ss=(read,tcheck) scf=(maxcycle=1)
 ----------------------------------------------------------------------
 -----
 title
 -----
 Structure from the checkpoint file:  "Grambow2020_wb97xd3_008192_reverse_mol1.chk"
 Charge =  0 Multiplicity = 1

                         Standard orientation:
 ---------------------------------------------------------------------
 Center     Atomic      Atomic             Coordinates (Angstroms)
 Number     Number       Type             X           Y           Z
 ---------------------------------------------------------------------
      1          8           0       -2.145748   -0.687267   -0.108101
      2          6           0       -0.822910   -1.073122    0.095913
      3          6           0        0.156852    0.048674   -0.325831
      4          6           0       -0.214679    1.303540    0.874654
      5          6           0       -0.239978    1.789794   -0.279652
      6          6           0        1.549305   -0.302895   -0.081491
      7          7           0        2.638143   -0.618153    0.091652
      8          1           0       -2.355000    0.005181    0.526794
      9          1           0       -0.614858   -1.344867    1.133348
     10          1           0       -0.637799   -1.939407   -0.542339
     11          1           0        0.036390    0.146237   -1.413027
     12          1           0       -0.301290    2.362121   -1.183098
 ---------------------------------------------------------------------

 SCF Done:  E(RHF) =  -322.887269723     A.U. after    2 cycles

 The electronic state is 1-A.
 Alpha  occ. eigenvalues --  -21.09664 -15.77414 -11.53239 -11.46654 -11.46164
 Alpha  occ. eigenvalues --  -11.43956 -11.42685  -1.74975  -1.36344  -1.26801
 Alpha  occ. eigenvalues --   -1.08175  -0.92982  -0.81868  -0.74124  -0.69561
 Alpha  occ. eigenvalues --   -0.60996  -0.60138  -0.55040  -0.51932  -0.47513
 Alpha  occ. eigenvalues --   -0.45176  -0.44001  -0.42342  -0.41022  -0.34791
 Alpha virt. eigenvalues --    0.02968   0.04770   0.05210   0.05848   0.06583
 Alpha virt. eigenvalues --    0.08563   0.09030   0.09666   0.10652   0.11239
 Alpha virt. eigenvalues --    0.11896   0.12764   0.13671   0.14274   0.14903

 Mulliken charges:
               1
     1  O   -2.666097
     2  C   -0.273444
     3  C   -2.928336
     4  C   -1.439031
     5  C    0.363918
     6  C    3.231042
     7  N   -2.667453
     8  H    0.769703
     9  H    1.463349
    10  H    1.285499
    11  H    1.635747
    12  H    1.225103
 Sum of Mulliken charges =  -0.00000

 Dipole moment (field-independent basis, Debye):
    X=             -2.8078    Y=              1.0453    Z=             -2.8487  Tot=              4.1342

 Test job not archived.
 1\1\GINC-SE014\SP\RHF\Aug-CC-pVDZ\C5H5N1O1\OHZDE\09-Apr-2025\0\\#t hf
 aug-cc-pvdz iop(5/13=1,5/36=2,99/5=2) pseudo=read geom=check guess=(re
 ad,tcheck) scf=(maxcycle=1)\\title\\0,1\O,0,-1.87033897,0.40828316,0.6
 3530543\C,0,-0.7772174,-0.43292104,0.82990096\C,0,0.28202929,-0.237530
 1,-0.28187476\C,0,0.82982874,1.41929859,0.04785789\C,0,0.53284342,1.29
 604767,-1.16297422\C,0,1.46193162,-1.06860938,-0.08346602\N,0,2.364433
 94,-1.75695147,0.07965468\H,0,-1.5821281,1.31253652,0.79537625\H,0,-0.
 29534536,-0.28593223,1.79922885\H,0,-1.14512771,-1.45901949,0.76788631

 Normal termination of Gaussian 16 at Wed Apr  9 19:09:47 2025.
