 Gaussian 16, Revision C.01,

 ----------------------------------------------------------------------
 #t hf aug-cc-pvdz symm=none int=(grid=ultrafine) guess=(read,tcheck) s
 table=(opt,rrhf)
 ----------------------------------------------------------------------
 -----
 title
 -----
 Symbolic Z-matrix:
 Charge =  0 Multiplicity = 1

 SCF Done:  E(RHF) =  -270.026280732     A.U. after   13 cycles

 1\1\GINC-SE043\Stability\RHF\Aug-CC-pVDZ\C5H10O1\OHZDE\09-Apr-2025\0\\
 #t hf aug-cc-pvdz symm=none int=(grid=ultrafine) guess=(read,tcheck) s
 table=(opt,rrhf)\\title\\0,1\C,0,2.03431159,0.19760209,1.11402128\C,0,
 0.92046653,0.06628855,-1.46165755\C,0,0.16518605,0.27753828,-0.3639619
 \O,0,0.63254729,0.36383689,0.92181564\C,0,-1.33581024,0.43279937,-0.38
 6399\C,0,-2.06612272,-0.7001462,0.35897796\H,0,2.3662394,-0.79510246,0
 .77092849\H,0,2.60331869,0.97209011,0.57572484\H,0,2.2052978,0.2939513
 2,2.19138041\H,0,0.43923105,0.01528718,-2.43528827\H,0,2.00014397,-0.0

 Normal termination of Gaussian 16 at Wed Apr  9 16:11:59 2025.
 Gaussian 16:  ES64L-G16RevC.01  3-Jul-2019

 ----------------------------------------------------------------------
 #t hf aug-cc-pvdz iop(5/13=1,5/36=2,99/5=2) pseudo=read geom=check gue
 ss=(read,tcheck) scf=(maxcycle=1)
 ----------------------------------------------------------------------
 -----
 title
 -----
 Structure from the checkpoint file:  "Grambow2020_b97d3_006747_reverse_mol2.chk"
 Charge =  0 Multiplicity = 1

                         Standard orientation:
 ---------------------------------------------------------------------
 Center     Atomic      Atomic             Coordinates (Angstroms)
 Number     Number       Type             X           Y           Z
 ---------------------------------------------------------------------
      1          6           0       -2.113743   -0.733102    0.096883
      2          6           0       -0.593829    1.624746    0.246648
      3          6           0       -0.059019    0.451039   -0.148827
      4          8           0       -0.733771   -0.737289   -0.256925
      5          6           0        1.392245    0.263919   -0.518175
      6          6           0        2.136952   -0.683228    0.441426
      7          1           0       -2.252078   -0.437480    1.148939
      8          1           0       -2.686455   -0.046930   -0.546958
      9          1           0       -2.466502   -1.759445   -0.049416
     10          1           0        0.039769    2.506945    0.295876
     11          1           0       -1.637685    1.749726    0.522525
     12          1           0        1.879403    1.247863   -0.530958
     13          1           0        1.446619   -0.140299   -1.541675
     14          1           0        1.661823   -1.672044    0.453919
     15          1           0        3.183674   -0.805826    0.130033
     16          1           0        2.125955   -0.284444    1.465382
 ---------------------------------------------------------------------

 SCF Done:  E(RHF) =  -271.327944125     A.U. after    2 cycles

 The electronic state is 1-A.
 Alpha  occ. eigenvalues --  -21.06844 -11.46624 -11.40846 -11.40179 -11.36959
 Alpha  occ. eigenvalues --  -11.35246  -1.77791  -1.19978  -1.05923  -0.99786
 Alpha  occ. eigenvalues --   -0.89806  -0.74173  -0.65473  -0.63029  -0.61722
 Alpha  occ. eigenvalues --   -0.58435  -0.55495  -0.54300  -0.50716  -0.47779
 Alpha  occ. eigenvalues --   -0.44191  -0.41370  -0.39324  -0.27365
 Alpha virt. eigenvalues --    0.03756   0.05237   0.05494   0.05641   0.05872
 Alpha virt. eigenvalues --    0.06358   0.06624   0.07088   0.08123   0.09013
 Alpha virt. eigenvalues --    0.11206   0.11910   0.13326   0.13764   0.14292

 Mulliken charges:
               1
     1  C   -2.938332
     2  C   -4.440343
     3  C    4.858681
     4  O   -4.086613
     5  C   -3.309471
     6  C   -3.851224
     7  H    1.296755
     8  H    1.281609
     9  H    1.428498
    10  H    1.395427
    11  H    1.733917
    12  H    1.429824
    13  H    1.350654
    14  H    1.356002
    15  H    1.143435
    16  H    1.351179
 Sum of Mulliken charges =   0.00000

 Dipole moment (field-independent basis, Debye):
    X=             -0.2148    Y=             -0.8219    Z=             -0.1349  Tot=              0.8602

 Test job not archived.
 1\1\GINC-SE043\SP\RHF\Aug-CC-pVDZ\C5H10O1\OHZDE\09-Apr-2025\0\\#t hf a
 ug-cc-pvdz iop(5/13=1,5/36=2,99/5=2) pseudo=read geom=check guess=(rea
 d,tcheck) scf=(maxcycle=1)\\title\\0,1\C,0,2.03431159,0.19760209,1.114
 02128\C,0,0.92046653,0.06628855,-1.46165755\C,0,0.16518605,0.27753828,
 -0.3639619\O,0,0.63254729,0.36383689,0.92181564\C,0,-1.33581024,0.4327
 9937,-0.386399\C,0,-2.06612272,-0.7001462,0.35897796\H,0,2.3662394,-0.
 79510246,0.77092849\H,0,2.60331869,0.97209011,0.57572484\H,0,2.2052978
 ,0.29395132,2.19138041\H,0,0.43923105,0.01528718,-2.43528827\H,0,2.000

 Normal termination of Gaussian 16 at Wed Apr  9 16:12:05 2025.
