 Gaussian 16, Revision C.01,

 ----------------------------------------------------------------------
 #t hf aug-cc-pvdz symm=none int=(grid=ultrafine) guess=(read,tcheck) s
 table=(opt,rrhf)
 ----------------------------------------------------------------------
 -----
 title
 -----
 Symbolic Z-matrix:
 Charge =  0 Multiplicity = 1

 SCF Done:  E(RHF) =  -322.710903440     A.U. after   14 cycles
 Normal termination of Gaussian 16 at Wed Apr  9 03:33:21 2025.
 Gaussian 16:  ES64L-G16RevC.01  3-Jul-2019

 ----------------------------------------------------------------------
 #t hf aug-cc-pvdz iop(5/13=1,5/36=2,99/5=2) pseudo=read geom=check gue
 ss=(read,tcheck) scf=(maxcycle=1)
 ----------------------------------------------------------------------
 -----
 title
 -----
 Structure from the checkpoint file:  "Grambow2020_wb97xd3_007008_reverse_mol2.chk"
 Charge =  0 Multiplicity = 1

                         Standard orientation:
 ---------------------------------------------------------------------
 Center     Atomic      Atomic             Coordinates (Angstroms)
 Number     Number       Type             X           Y           Z
 ---------------------------------------------------------------------
      1          6           0        2.626654   -0.338121    0.043295
      2          6           0        1.494463    0.639791   -0.012811
      3          6           0       -1.619503   -0.967062    0.031427
      4          6           0       -2.045690    0.288055    0.048062
      5          7           0       -0.924895    1.114427   -0.082063
      6          6           0        0.207427    0.296047   -0.042324
      7          8           0       -0.243282   -1.000812   -0.052864
      8          1           0        3.252322   -0.286029   -0.852749
      9          1           0        2.258598   -1.360651    0.127358
     10          1           0        3.278421   -0.149030    0.900950
     11          1           0        1.716858    1.699564   -0.045883
     12          1           0       -2.128142   -1.913962    0.038017
     13          1           0       -3.047691    0.678419    0.085642
     14          1           0       -0.889954    2.024934    0.338125
 ---------------------------------------------------------------------

 SCF Done:  E(RHF) =  -324.189807787     A.U. after    2 cycles

 The electronic state is 1-A.
 Alpha  occ. eigenvalues --  -21.08981 -15.76550 -11.48243 -11.46290 -11.40728
 Alpha  occ. eigenvalues --  -11.37737 -11.34463  -1.84468  -1.40104  -1.18209
 Alpha  occ. eigenvalues --   -1.06780  -0.92974  -0.84745  -0.80326  -0.71008
 Alpha  occ. eigenvalues --   -0.62665  -0.60516  -0.57020  -0.54636  -0.54040
 Alpha  occ. eigenvalues --   -0.48752  -0.48305  -0.42737  -0.40922  -0.38489
 Alpha  occ. eigenvalues --   -0.20658
 Alpha virt. eigenvalues --    0.03361   0.04587   0.05371   0.05522   0.07004
 Alpha virt. eigenvalues --    0.07093   0.08041   0.10477   0.10770   0.11781
 Alpha virt. eigenvalues --    0.12434   0.12814   0.13865   0.13990   0.14620

 Mulliken charges:
               1
     1  C   -4.231864
     2  C   -1.379501
     3  C    0.967809
     4  C   -0.526961
     5  N   -3.336833
     6  C    4.201458
     7  O   -4.148653
     8  H    1.232661
     9  H    1.324942
    10  H    1.172772
    11  H    1.414721
    12  H    1.416025
    13  H    1.226138
    14  H    0.667287
 Sum of Mulliken charges =   0.00000

 Dipole moment (field-independent basis, Debye):
    X=             -2.1705    Y=              0.5309    Z=              0.4558  Tot=              2.2805

 Test job not archived.
 1\1\GINC-SE125\SP\RHF\Aug-CC-pVDZ\C5H7N1O1\OHZDE\09-Apr-2025\0\\#t hf
 aug-cc-pvdz iop(5/13=1,5/36=2,99/5=2) pseudo=read geom=check guess=(re
 ad,tcheck) scf=(maxcycle=1)\\title\\0,1\C,0,-2.34895432,-0.18844841,-0
 .39068362\C,0,-0.96341807,-0.17549108,-0.95764001\C,0,1.45605941,0.340
 65295,1.52438351\C,0,2.26819546,0.16895411,0.49085357\N,0,1.47330197,0
 .05639836,-0.65434489\C,0,0.1389192,0.03442447,-0.2391137\O,0,0.141655
 67,0.29313397,1.10927588\H,0,-2.96109464,0.62216656,-0.79720108\H,0,-2
 .33087806,-0.07398334,0.6931379\H,0,-2.86638978,-1.12518227,-0.6163332

 Normal termination of Gaussian 16 at Wed Apr  9 03:33:26 2025.
