 Gaussian 16, Revision C.01,

 ----------------------------------------------------------------------
 #t hf aug-cc-pvdz symm=none int=(grid=ultrafine) guess=(read,tcheck) s
 table=(opt,rrhf)
 ----------------------------------------------------------------------
 -----
 title
 -----
 Symbolic Z-matrix:
 Charge =  0 Multiplicity = 1

 SCF Done:  E(RHF) =  -245.802647154     A.U. after   13 cycles
 Normal termination of Gaussian 16 at Wed Apr  9 17:40:25 2025.
 Gaussian 16:  ES64L-G16RevC.01  3-Jul-2019

 ----------------------------------------------------------------------
 #t hf aug-cc-pvdz iop(5/13=1,5/36=2,99/5=2) pseudo=read geom=check gue
 ss=(read,tcheck) scf=(maxcycle=1)
 ----------------------------------------------------------------------
 -----
 title
 -----
 Structure from the checkpoint file:  "Grambow2020_wb97xd3_006107_reverse_mol2.chk"
 Charge =  0 Multiplicity = 1

                         Standard orientation:
 ---------------------------------------------------------------------
 Center     Atomic      Atomic             Coordinates (Angstroms)
 Number     Number       Type             X           Y           Z
 ---------------------------------------------------------------------
      1          6           0       -1.015528    0.599063    0.000335
      2          6           0        0.418758    1.121057   -0.000480
      3          7           0        1.139668   -0.150200   -0.000005
      4          6           0        0.390384   -1.246080    0.000263
      5          8           0       -0.879080   -0.846379   -0.000459
      6          1           0       -1.576377    0.883473    0.889633
      7          1           0       -1.579867    0.883678   -0.886688
      8          1           0        0.654485    1.711573   -0.887260
      9          1           0        0.654453    1.711154    0.886657
     10          1           0        2.140589   -0.211684    0.000660
 ---------------------------------------------------------------------

 SCF Done:  E(RHF) =  -246.909258685     A.U. after    2 cycles

 The electronic state is 1-A.
 Alpha  occ. eigenvalues --  -21.07713 -15.76676 -11.48130 -11.40589 -11.39306
 Alpha  occ. eigenvalues --   -1.81497  -1.38647  -1.12218  -0.89720  -0.81836
 Alpha  occ. eigenvalues --   -0.70314  -0.69450  -0.56290  -0.54852  -0.53222
 Alpha  occ. eigenvalues --   -0.48556  -0.41210  -0.33918  -0.31719
 Alpha virt. eigenvalues --    0.03062   0.05268   0.05315   0.05525   0.06135
 Alpha virt. eigenvalues --    0.09525   0.10939   0.11844   0.12462   0.13314
 Alpha virt. eigenvalues --    0.14168   0.14458   0.15278   0.17890   0.18455

 Mulliken charges:
               1
     1  C   -1.046750
     2  C   -2.396531
     3  N   -1.474131
     4  C    0.851435
     5  O   -2.139483
     6  H    1.355597
     7  H    1.356934
     8  H    1.354097
     9  H    1.353526
    10  H    0.785307
 Sum of Mulliken charges =  -0.00000

 Dipole moment (field-independent basis, Debye):
    X=              0.2590    Y=              3.9461    Z=             -0.0002  Tot=              3.9546

 Test job not archived.
 1\1\GINC-SE114\SP\RHF\Aug-CC-pVDZ\C3H5N1O1\OHZDE\09-Apr-2025\0\\#t hf
 aug-cc-pvdz iop(5/13=1,5/36=2,99/5=2) pseudo=read geom=check guess=(re
 ad,tcheck) scf=(maxcycle=1)\\title\\0,1\C,0,-0.73354075,-0.7610249,-0.
 01267917\C,0,-0.31501914,0.69333652,0.18562957\N,0,1.11523753,0.574008
 92,-0.08992998\C,0,1.55127908,-0.64206724,-0.39555176\O,0,0.49525696,-
 1.45134738,-0.36115172\H,0,-1.13311027,-1.22069033,0.89028462\H,0,-1.4
 4027267,-0.90014748,-0.82966725\H,0,-0.7998847,1.37351403,-0.51645153\
 H,0,-0.49501287,1.05043,1.2009448\H,0,1.74613684,1.35269586,-0.0547535

 Normal termination of Gaussian 16 at Wed Apr  9 17:40:28 2025.
