 Gaussian 16, Revision C.01,

 ----------------------------------------------------------------------
 #t hf aug-cc-pvdz symm=none int=(grid=ultrafine) guess=(read,tcheck) s
 table=(opt,rrhf)
 ----------------------------------------------------------------------
 -----
 title
 -----
 Symbolic Z-matrix:
 Charge =  0 Multiplicity = 1

 SCF Done:  E(RHF) =  -323.720749445     A.U. after   16 cycles
 Normal termination of Gaussian 16 at Wed Apr  9 18:32:36 2025.
 Gaussian 16:  ES64L-G16RevC.01  3-Jul-2019

 ----------------------------------------------------------------------
 #t hf aug-cc-pvdz iop(5/13=1,5/36=2,99/5=2) pseudo=read geom=check gue
 ss=(read,tcheck) scf=(maxcycle=1)
 ----------------------------------------------------------------------
 -----
 title
 -----
 Structure from the checkpoint file:  "Grambow2020_wb97xd3_007248_reverse_mol1.chk"
 Charge =  0 Multiplicity = 1

                         Standard orientation:
 ---------------------------------------------------------------------
 Center     Atomic      Atomic             Coordinates (Angstroms)
 Number     Number       Type             X           Y           Z
 ---------------------------------------------------------------------
      1          6           0        2.072859   -0.195789   -0.046324
      2          6           0        0.603838   -0.297828    0.124091
      3          6           0       -0.078065    1.683577   -0.499079
      4          6           0       -0.338883   -0.992913   -0.857387
      5          8           0       -1.563516   -0.519770   -0.305240
      6          6           0       -1.039713    0.234298    0.709178
      7          7           0        0.024832   -0.300641    1.354573
      8          1           0        2.453095    0.658245    0.510660
      9          1           0        2.366293   -0.126316   -1.093082
     10          1           0        2.504390   -1.098120    0.397206
     11          1           0        0.684548    1.656602   -1.277967
     12          1           0       -1.010053    2.020644   -0.953108
     13          1           0        0.243109    2.354359    0.298004
     14          1           0       -0.268272   -0.661278   -1.891897
     15          1           0       -0.247138   -2.079499   -0.782263
     16          1           0       -1.711884    0.949936    1.169479
 ---------------------------------------------------------------------

 SCF Done:  E(RHF) =  -325.275968894     A.U. after    2 cycles

 The electronic state is 1-A.
 Alpha  occ. eigenvalues --  -21.08450 -15.67401 -11.55358 -11.51452 -11.45354
 Alpha  occ. eigenvalues --  -11.40744 -11.34435  -1.84814  -1.40639  -1.15219
 Alpha  occ. eigenvalues --   -1.03900  -1.00232  -0.85139  -0.79305  -0.70002
 Alpha  occ. eigenvalues --   -0.68380  -0.61215  -0.60539  -0.56798  -0.54403
 Alpha  occ. eigenvalues --   -0.52412  -0.49547  -0.48270  -0.42117  -0.40112
 Alpha  occ. eigenvalues --   -0.31969  -0.26472
 Alpha virt. eigenvalues --    0.03492   0.05040   0.05209   0.05476   0.05809
 Alpha virt. eigenvalues --    0.05980   0.06362   0.07645   0.08073   0.10155
 Alpha virt. eigenvalues --    0.11420   0.11936   0.12053   0.13109   0.13977

 Mulliken charges:
               1
     1  C   -4.808411
     2  C    3.652054
     3  C   -4.216546
     4  C   -1.834469
     5  O   -3.119258
     6  C    2.012314
     7  N   -2.993844
     8  H    1.126171
     9  H    1.340578
    10  H    1.084916
    11  H    1.322895
    12  H    1.092967
    13  H    1.191254
    14  H    1.466291
    15  H    1.280041
    16  H    1.403048
 Sum of Mulliken charges =   0.00000

 Dipole moment (field-independent basis, Debye):
    X=              0.3625    Y=             -0.7448    Z=             -1.8321  Tot=              2.0107

 Test job not archived.
 1\1\GINC-SE105\SP\RHF\Aug-CC-pVDZ\C5H9N1O1\OHZDE\09-Apr-2025\0\\#t hf
 aug-cc-pvdz iop(5/13=1,5/36=2,99/5=2) pseudo=read geom=check guess=(re
 ad,tcheck) scf=(maxcycle=1)\\title\\0,1\C,0,1.13160001,1.15285959,0.85
 621751\C,0,-0.13154749,0.55497617,0.36178104\C,0,0.5751315,-0.81773208
 ,-1.18598375\C,0,-0.90450347,-0.5551045,1.07271445\O,0,-1.80407485,-0.
 86333598,0.01242213\C,0,-1.34016586,0.04078304,-0.90375981\N,0,-1.0000
 4954,1.25743957,-0.41384202\H,0,1.68836119,1.58396201,0.02654772\H,0,1
 .74913266,0.43456192,1.39411725\H,0,0.8511564,1.9709755,1.52642391\H,0

 Normal termination of Gaussian 16 at Wed Apr  9 18:32:42 2025.
