 Gaussian 16, Revision C.01,

 ----------------------------------------------------------------------
 #t hf aug-cc-pvdz symm=none int=(grid=ultrafine) guess=(read,tcheck) s
 table=(opt,rrhf)
 ----------------------------------------------------------------------
 -----
 title
 -----
 Symbolic Z-matrix:
 Charge =  0 Multiplicity = 1

 SCF Done:  E(RHF) =  -307.671839760     A.U. after   17 cycles

 1\1\GINC-SE131\Stability\RHF\Aug-CC-pVDZ\C6H10O1\OHZDE\09-Apr-2025\0\\
 #t hf aug-cc-pvdz symm=none int=(grid=ultrafine) guess=(read,tcheck) s
 table=(opt,rrhf)\\title\\0,1\C,0,2.03501721,0.04427945,-0.21175502\C,0
 ,0.80410054,0.18113893,0.39866637\C,0,0.08946701,-0.89442411,0.8854058
 2\C,0,-1.39836153,-0.79324322,0.68350712\C,0,-1.07076767,-0.16505577,-
 0.63702864\C,0,-0.24110273,1.05357268,-0.2990529\O,0,-0.87960186,2.054
 77939,0.4661494\H,0,2.66251341,-0.81154858,0.01448559\H,0,2.53022906,0
 .90022399,-0.65377468\H,0,1.11078582,-0.54448739,-1.5396127\H,0,0.5645

 Normal termination of Gaussian 16 at Wed Apr  9 18:53:02 2025.
 Gaussian 16:  ES64L-G16RevC.01  3-Jul-2019

 ----------------------------------------------------------------------
 #t hf aug-cc-pvdz iop(5/13=1,5/36=2,99/5=2) pseudo=read geom=check gue
 ss=(read,tcheck) scf=(maxcycle=1)
 ----------------------------------------------------------------------
 -----
 title
 -----
 Structure from the checkpoint file:  "Grambow2020_wb97xd3_007734_reverse_mol1.chk"
 Charge =  0 Multiplicity = 1

                         Standard orientation:
 ---------------------------------------------------------------------
 Center     Atomic      Atomic             Coordinates (Angstroms)
 Number     Number       Type             X           Y           Z
 ---------------------------------------------------------------------
      1          6           0        2.136602   -0.297067   -0.046807
      2          6           0        0.824486   -0.102025   -0.429966
      3          6           0        0.287905    1.151715   -0.641319
      4          6           0       -1.136655    1.302615   -0.180352
      5          6           0       -0.746944    0.425050    0.970194
      6          6           0       -0.259558   -0.859959    0.338660
      7          8           0       -1.208816   -1.590391   -0.410345
      8          1           0        2.888423    0.449728   -0.280128
      9          1           0        2.501333   -1.289503    0.188348
     10          1           0        1.579489    0.240144    1.491077
     11          1           0        0.900408    2.012363   -0.892756
     12          1           0       -1.930825    0.928146   -0.835362
     13          1           0       -1.374871    2.327380    0.100903
     14          1           0        0.785301    0.576385    1.718978
     15          1           0       -1.200363    0.515311    1.950925
     16          1           0        0.163879   -1.552697    1.064021
     17          1           0       -1.277251   -1.206109   -1.285705
 ---------------------------------------------------------------------

 SCF Done:  E(RHF) =  -309.194062039     A.U. after    2 cycles

 The electronic state is 1-A.
 Alpha  occ. eigenvalues --  -21.07221 -11.47987 -11.46877 -11.44132 -11.41300
 Alpha  occ. eigenvalues --  -11.40329 -11.37146  -1.72410  -1.37446  -1.11472
 Alpha  occ. eigenvalues --   -1.01475  -0.93417  -0.82317  -0.77131  -0.69122
 Alpha  occ. eigenvalues --   -0.66282  -0.61782  -0.59949  -0.55367  -0.54584
 Alpha  occ. eigenvalues --   -0.52635  -0.48719  -0.45895  -0.40012  -0.33938
 Alpha  occ. eigenvalues --   -0.31739  -0.26911
 Alpha virt. eigenvalues --    0.04084   0.04670   0.05015   0.05205   0.05653
 Alpha virt. eigenvalues --    0.05978   0.06621   0.07516   0.08380   0.08701
 Alpha virt. eigenvalues --    0.10473   0.11366   0.11979   0.12717   0.13328

 Mulliken charges:
               1
     1  C   -3.317635
     2  C   -0.149576
     3  C   -0.022992
     4  C   -4.110253
     5  C   -0.881720
     6  C    1.389638
     7  O   -3.453134
     8  H    1.262240
     9  H    1.265220
    10  H    0.446577
    11  H    1.454416
    12  H    1.014859
    13  H    1.297885
    14  H    0.049502
    15  H    1.355215
    16  H    1.690095
    17  H    0.709662
 Sum of Mulliken charges =  -0.00000

 Dipole moment (field-independent basis, Debye):
    X=             -0.8228    Y=              1.1717    Z=             -0.3081  Tot=              1.4645

 Test job not archived.
 1\1\GINC-SE131\SP\RHF\Aug-CC-pVDZ\C6H10O1\OHZDE\09-Apr-2025\0\\#t hf a
 ug-cc-pvdz iop(5/13=1,5/36=2,99/5=2) pseudo=read geom=check guess=(rea
 d,tcheck) scf=(maxcycle=1)\\title\\0,1\C,0,2.03501721,0.04427945,-0.21
 175502\C,0,0.80410054,0.18113893,0.39866637\C,0,0.08946701,-0.89442411
 ,0.88540582\C,0,-1.39836153,-0.79324322,0.68350712\C,0,-1.07076767,-0.
 16505577,-0.63702864\C,0,-0.24110273,1.05357268,-0.2990529\O,0,-0.8796
 0186,2.05477939,0.4661494\H,0,2.66251341,-0.81154858,0.01448559\H,0,2.
 53022906,0.90022399,-0.65377468\H,0,1.11078582,-0.54448739,-1.5396127\

 Normal termination of Gaussian 16 at Wed Apr  9 18:53:08 2025.
