 Gaussian 16, Revision C.01,

 ----------------------------------------------------------------------
 #t hf aug-cc-pvdz symm=none int=(grid=ultrafine) guess=(read,tcheck) s
 table=(opt,rrhf)
 ----------------------------------------------------------------------
 -----
 title
 -----
 Symbolic Z-matrix:
 Charge =  0 Multiplicity = 1

 SCF Done:  E(RHF) =  -359.532222713     A.U. after   15 cycles
 Normal termination of Gaussian 16 at Wed Apr  9 03:46:33 2025.
 Gaussian 16:  ES64L-G16RevC.01  3-Jul-2019

 ----------------------------------------------------------------------
 #t hf aug-cc-pvdz iop(5/13=1,5/36=2,99/5=2) pseudo=read geom=check gue
 ss=(read,tcheck) scf=(maxcycle=1)
 ----------------------------------------------------------------------
 -----
 title
 -----
 Structure from the checkpoint file:  "Grambow2020_wb97xd3_007888_forward_mol1.chk"
 Charge =  0 Multiplicity = 1

                         Standard orientation:
 ---------------------------------------------------------------------
 Center     Atomic      Atomic             Coordinates (Angstroms)
 Number     Number       Type             X           Y           Z
 ---------------------------------------------------------------------
      1          6           0        0.506319    1.462963    0.019089
      2          6           0        0.376078   -0.016871   -0.166320
      3          7           0        1.358681   -0.830423   -0.098807
      4          8           0        2.536736   -0.192142    0.199994
      5          6           0       -0.896451   -0.731241   -0.539149
      6          6           0       -2.098228   -0.250151    0.736539
      7          8           0       -1.971818    0.181258   -0.587518
      8          1           0        1.194040    1.877181   -0.720315
      9          1           0       -0.460474    1.950929   -0.086749
     10          1           0        0.930171    1.685853    1.000349
     11          1           0        3.182130   -0.902981    0.187616
     12          1           0       -1.417817   -1.256404    0.686899
     13          1           0       -3.074601   -0.684119    0.943136
     14          1           0       -1.709866    0.441368    1.479953
 ---------------------------------------------------------------------

 SCF Done:  E(RHF) =  -361.144692042     A.U. after    2 cycles

 The electronic state is 1-A.
 Alpha  occ. eigenvalues --  -21.10967 -21.08501 -15.78983 -11.49220 -11.45944
 Alpha  occ. eigenvalues --  -11.42289 -11.37887  -1.83063  -1.80603  -1.29355
 Alpha  occ. eigenvalues --   -1.06676  -1.02121  -0.94132  -0.75395  -0.69160
 Alpha  occ. eigenvalues --   -0.66787  -0.61555  -0.59575  -0.57580  -0.53870
 Alpha  occ. eigenvalues --   -0.51396  -0.50377  -0.45694  -0.40601  -0.36011
 Alpha  occ. eigenvalues --   -0.31551  -0.27050
 Alpha virt. eigenvalues --    0.03463   0.05004   0.05510   0.05806   0.06528
 Alpha virt. eigenvalues --    0.06663   0.07279   0.09825   0.10631   0.11433
 Alpha virt. eigenvalues --    0.12678   0.12940   0.13425   0.14245   0.15273

 Mulliken charges:
               1
     1  C   -4.355331
     2  C    3.511531
     3  N   -0.719823
     4  O   -2.548322
     5  C    0.047923
     6  C   -2.637555
     7  O   -2.494149
     8  H    1.211000
     9  H    1.454487
    10  H    1.297192
    11  H    0.878611
    12  H    1.646004
    13  H    1.139972
    14  H    1.568460
 Sum of Mulliken charges =   0.00000

 Dipole moment (field-independent basis, Debye):
    X=              0.1575    Y=              1.8841    Z=              1.8934  Tot=              2.6757

 Test job not archived.
 1\1\GINC-SE060\SP\RHF\Aug-CC-pVDZ\C4H7N1O2\OHZDE\09-Apr-2025\0\\#t hf
 aug-cc-pvdz iop(5/13=1,5/36=2,99/5=2) pseudo=read geom=check guess=(re
 ad,tcheck) scf=(maxcycle=1)\\title\\0,1\C,0,-0.93711927,-1.03526053,0.
 21872052\C,0,-0.51270391,0.32508933,-0.24015611\N,0,-1.17034034,1.3933
 7906,0.00110164\O,0,-2.28801197,1.15028129,0.76018792\C,0,0.68325252,0
 .60798205,-1.11096848\C,0,2.09456603,-0.11491578,-0.22287703\O,0,1.406
 38078,-0.58051949,-1.34752464\H,0,-1.92147062,-1.27980028,-0.18440078\
 H,0,-0.22533065,-1.79105922,-0.10704899\H,0,-1.03022715,-1.05609217,1.

 Normal termination of Gaussian 16 at Wed Apr  9 03:46:38 2025.
