 Gaussian 16, Revision C.01,

 ----------------------------------------------------------------------
 #t hf aug-cc-pvdz symm=none int=(grid=ultrafine) guess=(read,tcheck) s
 table=(opt,rrhf)
 ----------------------------------------------------------------------
 -----
 title
 -----
 Symbolic Z-matrix:
 Charge =  0 Multiplicity = 1

 SCF Done:  E(RHF) =  -305.683573468     A.U. after   15 cycles
 Normal termination of Gaussian 16 at Wed Apr  9 17:43:46 2025.
 Gaussian 16:  ES64L-G16RevC.01  3-Jul-2019

 ----------------------------------------------------------------------
 #t hf aug-cc-pvdz iop(5/13=1,5/36=2,99/5=2) pseudo=read geom=check gue
 ss=(read,tcheck) scf=(maxcycle=1)
 ----------------------------------------------------------------------
 -----
 title
 -----
 Structure from the checkpoint file:  "Grambow2020_wb97xd3_006137_forward_mol1.chk"
 Charge =  0 Multiplicity = 1

                         Standard orientation:
 ---------------------------------------------------------------------
 Center     Atomic      Atomic             Coordinates (Angstroms)
 Number     Number       Type             X           Y           Z
 ---------------------------------------------------------------------
      1          8           0        2.249740    0.305398    0.138144
      2          6           0        1.219930   -0.538047   -0.341683
      3          6           0       -0.010097   -0.275267    0.497187
      4          6           0       -0.701721    1.061835    0.216791
      5          8           0       -1.707732    0.356729   -0.548485
      6          6           0       -1.264489   -0.865552   -0.169784
      7          1           0        3.032337    0.180773   -0.399955
      8          1           0        1.493635   -1.596275   -0.255775
      9          1           0        0.998085   -0.334302   -1.397892
     10          1           0        0.189312   -0.508235    1.540019
     11          1           0       -1.164548    1.523558    1.093776
     12          1           0       -0.171512    1.802405   -0.383156
     13          1           0       -2.102966   -1.109499    1.334286
     14          1           0       -2.072143   -1.553250    0.536358
 ---------------------------------------------------------------------

 SCF Done:  E(RHF) =  -307.079840750     A.U. after    2 cycles

 The electronic state is 1-A.
 Alpha  occ. eigenvalues --  -21.08052 -21.07940 -11.46642 -11.45548 -11.43646
 Alpha  occ. eigenvalues --  -11.38289  -1.82457  -1.72060  -1.17382  -0.99251
 Alpha  occ. eigenvalues --   -0.94245  -0.79153  -0.72865  -0.67262  -0.62969
 Alpha  occ. eigenvalues --   -0.59792  -0.57153  -0.52646  -0.47944  -0.42534
 Alpha  occ. eigenvalues --   -0.39801  -0.36519  -0.33103  -0.28731
 Alpha virt. eigenvalues --    0.03656   0.05052   0.05356   0.05489   0.06064
 Alpha virt. eigenvalues --    0.06335   0.06693   0.08277   0.10972   0.11374
 Alpha virt. eigenvalues --    0.12445   0.13137   0.13558   0.14974   0.15216

 Mulliken charges:
               1
     1  O   -2.644003
     2  C   -0.810155
     3  C   -2.651990
     4  C   -1.099466
     5  O   -2.545871
     6  C    0.836781
     7  H    0.771004
     8  H    1.356518
     9  H    1.443707
    10  H    1.348818
    11  H    1.467732
    12  H    1.554986
    13  H    0.264891
    14  H    0.707047
 Sum of Mulliken charges =   0.00000

 Dipole moment (field-independent basis, Debye):
    X=              1.3733    Y=              1.1428    Z=             -0.0613  Tot=              1.7876

 Test job not archived.
 1\1\GINC-SE220\SP\RHF\Aug-CC-pVDZ\C4H8O2\OHZDE\09-Apr-2025\0\\#t hf au
 g-cc-pvdz iop(5/13=1,5/36=2,99/5=2) pseudo=read geom=check guess=(read
 ,tcheck) scf=(maxcycle=1)\\title\\0,1\O,0,1.96126307,1.15655158,0.0937
 664\C,0,1.36823513,-0.12693757,0.03794214\C,0,-0.09233601,0.03177231,0
 .39468148\C,0,-0.94739621,0.69294995,-0.6899952\O,0,-1.45852513,-0.611
 75254,-1.05245935\C,0,-0.88979875,-1.22681577,0.0115408\H,0,2.88204413
 ,1.08704339,-0.1609294\H,0,1.83791736,-0.81849684,0.74736808\H,0,1.458
 77497,-0.56409034,-0.96555442\H,0,-0.19232435,0.43097248,1.40075243\H,

 Normal termination of Gaussian 16 at Wed Apr  9 17:43:49 2025.
