 Gaussian 16, Revision C.01,

 ----------------------------------------------------------------------
 #t hf aug-cc-pvdz symm=none int=(grid=ultrafine) guess=(read,tcheck) s
 table=(opt,rrhf)
 ----------------------------------------------------------------------
 -----
 title
 -----
 Symbolic Z-matrix:
 Charge =  0 Multiplicity = 1

 SCF Done:  E(RHF) =  -307.808816288     A.U. after   15 cycles

 1\1\GINC-SE145\Stability\RHF\Aug-CC-pVDZ\C6H10O1\OHZDE\09-Apr-2025\0\\
 #t hf aug-cc-pvdz symm=none int=(grid=ultrafine) guess=(read,tcheck) s
 table=(opt,rrhf)\\title\\0,1\C,0,-2.18395993,0.14487437,0.24209502\C,0
 ,-0.68075385,0.16007593,0.40445433\C,0,-0.0128723,-1.13531444,-0.03348
 137\C,0,1.50510711,-1.00451979,0.09356839\C,0,2.14042493,0.28220845,-0
 .23467378\C,0,1.21689586,1.40645432,-0.28666739\O,0,-0.18462988,1.2352
 6929,-0.37373611\H,0,-2.62574221,-0.65758307,0.83565617\H,0,-2.4456831
 ,-0.01256696,-0.80592982\H,0,-2.61214418,1.09424992,0.56450573\H,0,-0.

 Normal termination of Gaussian 16 at Wed Apr  9 19:29:23 2025.
 Gaussian 16:  ES64L-G16RevC.01  3-Jul-2019

 ----------------------------------------------------------------------
 #t hf aug-cc-pvdz iop(5/13=1,5/36=2,99/5=2) pseudo=read geom=check gue
 ss=(read,tcheck) scf=(maxcycle=1)
 ----------------------------------------------------------------------
 -----
 title
 -----
 Structure from the checkpoint file:  "Grambow2020_wb97xd3_009032_reverse_mol2.chk"
 Charge =  0 Multiplicity = 1

                         Standard orientation:
 ---------------------------------------------------------------------
 Center     Atomic      Atomic             Coordinates (Angstroms)
 Number     Number       Type             X           Y           Z
 ---------------------------------------------------------------------
      1          6           0        2.354118   -0.013487    0.011602
      2          6           0        0.874105    0.022488    0.318992
      3          6           0        0.172421    1.254908   -0.232976
      4          6           0       -1.326302    1.171747    0.057584
      5          6           0       -1.996781   -0.136463   -0.020411
      6          6           0       -1.088069   -1.273728   -0.000196
      7          8           0        0.298885   -1.142753   -0.245892
      8          1           0        2.855841    0.856655    0.438862
      9          1           0        2.512255   -0.011140   -1.068504
     10          1           0        2.807516   -0.915365    0.423489
     11          1           0        0.730209   -0.007611    1.413157
     12          1           0        0.344205    1.296069   -1.312512
     13          1           0        0.601387    2.163466    0.197877
     14          1           0       -1.526982    1.386861    1.125903
     15          1           0       -1.916410    1.937953   -0.452240
     16          1           0       -1.285544   -1.637641    1.035576
     17          1           0       -1.450512   -2.080010   -0.642054
 ---------------------------------------------------------------------

 SCF Done:  E(RHF) =  -309.263155727     A.U. after    2 cycles

 The electronic state is 1-A.
 Alpha  occ. eigenvalues --  -21.04043 -11.45649 -11.43979 -11.41994 -11.40148
 Alpha  occ. eigenvalues --  -11.38300 -11.35868  -1.76593  -1.23820  -1.16739
 Alpha  occ. eigenvalues --   -1.02352  -0.94235  -0.85088  -0.74272  -0.65874
 Alpha  occ. eigenvalues --   -0.62254  -0.60713  -0.60264  -0.57975  -0.52812
 Alpha  occ. eigenvalues --   -0.51110  -0.48475  -0.47447  -0.46254  -0.38490
 Alpha  occ. eigenvalues --   -0.31100  -0.27788
 Alpha virt. eigenvalues --    0.03697   0.04886   0.05295   0.05303   0.05641
 Alpha virt. eigenvalues --    0.05848   0.06578   0.07017   0.07349   0.08606
 Alpha virt. eigenvalues --    0.09082   0.10473   0.12019   0.12995   0.13599

 Mulliken charges:
               1
     1  C   -4.192590
     2  C    0.600006
     3  C   -2.980248
     4  C   -1.707397
     5  C   -0.859958
     6  C   -1.242566
     7  O   -3.513540
     8  H    1.198709
     9  H    1.221574
    10  H    1.178815
    11  H    1.924853
    12  H    1.449428
    13  H    1.358312
    14  H    1.421013
    15  H    1.332615
    16  H    1.332658
    17  H    1.478315
 Sum of Mulliken charges =  -0.00000

 Dipole moment (field-independent basis, Debye):
    X=              1.8870    Y=              0.7396    Z=              0.3007  Tot=              2.0489

 Test job not archived.
 1\1\GINC-SE145\SP\RHF\Aug-CC-pVDZ\C6H10O1\OHZDE\09-Apr-2025\0\\#t hf a
 ug-cc-pvdz iop(5/13=1,5/36=2,99/5=2) pseudo=read geom=check guess=(rea
 d,tcheck) scf=(maxcycle=1)\\title\\0,1\C,0,-2.18395993,0.14487437,0.24
 209502\C,0,-0.68075385,0.16007593,0.40445433\C,0,-0.0128723,-1.1353144
 4,-0.03348137\C,0,1.50510711,-1.00451979,0.09356839\C,0,2.14042493,0.2
 8220845,-0.23467378\C,0,1.21689586,1.40645432,-0.28666739\O,0,-0.18462
 988,1.23526929,-0.37373611\H,0,-2.62574221,-0.65758307,0.83565617\H,0,
 -2.4456831,-0.01256696,-0.80592982\H,0,-2.61214418,1.09424992,0.564505

 Normal termination of Gaussian 16 at Wed Apr  9 19:29:29 2025.
