 Gaussian 16, Revision C.01,

 ----------------------------------------------------------------------
 #t hf aug-cc-pvdz symm=none int=(grid=ultrafine) guess=(read,tcheck) s
 table=(opt,rrhf)
 ----------------------------------------------------------------------
 -----
 title
 -----
 Symbolic Z-matrix:
 Charge =  0 Multiplicity = 1

 SCF Done:  E(RHF) =  -331.527568610     A.U. after   20 cycles
 Normal termination of Gaussian 16 at Wed Apr  9 03:15:46 2025.
 Gaussian 16:  ES64L-G16RevC.01  3-Jul-2019

 ----------------------------------------------------------------------
 #t hf aug-cc-pvdz iop(5/13=1,5/36=2,99/5=2) pseudo=read geom=check gue
 ss=(read,tcheck) scf=(maxcycle=1)
 ----------------------------------------------------------------------
 -----
 title
 -----
 Structure from the checkpoint file:  "Grambow2020_b97d3_006980_reverse_mol1.chk"
 Charge =  0 Multiplicity = 1

                         Standard orientation:
 ---------------------------------------------------------------------
 Center     Atomic      Atomic             Coordinates (Angstroms)
 Number     Number       Type             X           Y           Z
 ---------------------------------------------------------------------
      1          7           0        0.167306    1.685923   -0.019811
      2          6           0       -0.074364    0.310437   -0.211667
      3          7           0        1.079902   -0.512937    0.501733
      4          8           0        1.904077   -0.934395   -0.261195
      5          7           0       -2.272265   -0.758620    0.011336
      6          7           0       -1.272549   -0.180362   -0.053374
      7          1           0        0.874122    2.041634   -0.662250
      8          1           0        0.422692    1.932876    0.942622
 ---------------------------------------------------------------------

 SCF Done:  E(RHF) =  -332.959581329     A.U. after    2 cycles

 The electronic state is 1-A.
 Alpha  occ. eigenvalues --  -21.15452 -15.93775 -15.89200 -15.87340 -15.78140
 Alpha  occ. eigenvalues --  -11.47275  -1.87833  -1.61696  -1.37962  -1.15174
 Alpha  occ. eigenvalues --   -1.00800  -0.74081  -0.70512  -0.68767  -0.64710
 Alpha  occ. eigenvalues --   -0.62696  -0.57577  -0.55165  -0.53390  -0.41839
 Alpha  occ. eigenvalues --   -0.32867  -0.28122
 Alpha virt. eigenvalues --    0.03843   0.06010   0.08750   0.09526   0.10374
 Alpha virt. eigenvalues --    0.10747   0.11726   0.12974   0.13874   0.14104
 Alpha virt. eigenvalues --    0.15698   0.16623   0.18063   0.18862   0.20674

 Mulliken charges:
               1
     1  N   -2.623934
     2  C    3.445416
     3  N    0.569622
     4  O   -1.731024
     5  N   -1.253228
     6  N    0.394111
     7  H    0.674730
     8  H    0.524307
 Sum of Mulliken charges =  -0.00000

 Dipole moment (field-independent basis, Debye):
    X=              1.0173    Y=              0.9587    Z=             -0.0689  Tot=              1.3995

 Test job not archived.
 1\1\GINC-SE174\SP\RHF\Aug-CC-pVDZ\C1H2N4O1\OHZDE\09-Apr-2025\0\\#t hf
 aug-cc-pvdz iop(5/13=1,5/36=2,99/5=2) pseudo=read geom=check guess=(re
 ad,tcheck) scf=(maxcycle=1)\\title\\0,1\N,0,1.1934514,0.14729774,0.221
 99224\C,0,-0.19899706,-0.06838857,0.26372825\N,0,-0.86624315,0.6779976
 3,-0.96789852\O,0,-1.39570844,1.71147491,-0.66699836\N,0,-1.25646638,-
 2.23086166,0.74211345\N,0,-0.67858079,-1.25696364,0.50637658\H,0,1.447
 91315,1.06417302,0.58728207\H,0,1.60581627,0.02209557,-0.70901071\\Ver
 sion=ES64L-G16RevC.01\State=1-A\HF=-332.9595813\RMSD=1.407e-01\Dipole=

 Normal termination of Gaussian 16 at Wed Apr  9 03:15:48 2025.
