 Gaussian 16, Revision C.01,

 ----------------------------------------------------------------------
 #t hf aug-cc-pvdz symm=none int=(grid=ultrafine) guess=(read,tcheck) s
 table=(opt,rrhf)
 ----------------------------------------------------------------------
 -----
 title
 -----
 Symbolic Z-matrix:
 Charge =  0 Multiplicity = 1

 SCF Done:  E(RHF) =  -339.926092003     A.U. after   14 cycles
 Normal termination of Gaussian 16 at Wed Apr  9 03:33:28 2025.
 Gaussian 16:  ES64L-G16RevC.01  3-Jul-2019

 ----------------------------------------------------------------------
 #t hf aug-cc-pvdz iop(5/13=1,5/36=2,99/5=2) pseudo=read geom=check gue
 ss=(read,tcheck) scf=(maxcycle=1)
 ----------------------------------------------------------------------
 -----
 title
 -----
 Structure from the checkpoint file:  "Grambow2020_wb97xd3_007001_forward_mol2.chk"
 Charge =  0 Multiplicity = 1

                         Standard orientation:
 ---------------------------------------------------------------------
 Center     Atomic      Atomic             Coordinates (Angstroms)
 Number     Number       Type             X           Y           Z
 ---------------------------------------------------------------------
      1          6           0        0.070871    1.525227   -0.686176
      2          6           0        0.157488    0.210709    0.091314
      3          8           0       -0.107279    0.416666    1.456242
      4          6           0       -0.821833   -0.852012   -0.459153
      5          7           0       -2.176872   -0.471402   -0.093965
      6          6           0        1.527179   -0.330813   -0.026767
      7          7           0        2.580299   -0.760785   -0.170584
      8          1           0        0.755938    2.252475   -0.253024
      9          1           0       -0.942438    1.922776   -0.607094
     10          1           0        0.323031    1.383508   -1.738491
     11          1           0       -1.072294    0.358057    1.525415
     12          1           0       -0.585690   -1.801215    0.022960
     13          1           0       -0.663530   -0.974369   -1.535598
     14          1           0       -2.763385   -1.275801    0.064417
     15          1           0       -2.619618    0.107879   -0.791978
 ---------------------------------------------------------------------

 SCF Done:  E(RHF) =  -341.493854472     A.U. after    2 cycles

 The electronic state is 1-A.
 Alpha  occ. eigenvalues --  -21.07714 -15.76584 -15.75684 -11.50916 -11.45589
 Alpha  occ. eigenvalues --  -11.43009 -11.39299  -1.74923  -1.37258  -1.30386
 Alpha  occ. eigenvalues --   -1.16286  -1.01521  -0.90096  -0.73587  -0.69455
 Alpha  occ. eigenvalues --   -0.65526  -0.62258  -0.60236  -0.56827  -0.56159
 Alpha  occ. eigenvalues --   -0.50966  -0.49156  -0.45180  -0.43053  -0.41124
 Alpha  occ. eigenvalues --   -0.39128  -0.32811
 Alpha virt. eigenvalues --    0.02965   0.04548   0.04583   0.05229   0.05934
 Alpha virt. eigenvalues --    0.06677   0.07084   0.08412   0.10484   0.11619
 Alpha virt. eigenvalues --    0.12575   0.13088   0.13834   0.14013   0.15335

 Mulliken charges:
               1
     1  C   -3.790733
     2  C    3.728384
     3  O   -3.677529
     4  C   -2.383967
     5  N   -2.241163
     6  C    2.627540
     7  N   -2.633404
     8  H    1.176408
     9  H    1.230627
    10  H    1.274821
    11  H    0.742588
    12  H    1.365668
    13  H    1.396427
    14  H    0.540450
    15  H    0.643883
 Sum of Mulliken charges =  -0.00000

 Dipole moment (field-independent basis, Debye):
    X=             -4.5707    Y=              0.3776    Z=             -1.0627  Tot=              4.7077

 Test job not archived.
 1\1\GINC-SE177\SP\RHF\Aug-CC-pVDZ\C4H8N2O1\OHZDE\09-Apr-2025\0\\#t hf
 aug-cc-pvdz iop(5/13=1,5/36=2,99/5=2) pseudo=read geom=check guess=(re
 ad,tcheck) scf=(maxcycle=1)\\title\\0,1\C,0,0.61602048,1.42760129,-0.2
 0185698\C,0,0.62192263,-0.04160854,0.22398257\O,0,0.56412376,-0.158637
 95,1.62345074\C,0,-0.55486368,-0.82852771,-0.39842551\N,0,-1.78780744,
 -0.41732909,0.25359019\C,0,1.87897431,-0.67112429,-0.23073911\N,0,2.83
 686687,-1.15496272,-0.63442555\H,0,1.44316857,1.95047033,0.27590922\H,
 0,-0.31543192,1.89243633,0.12589075\H,0,0.71008938,1.52943257,-1.28436

 Normal termination of Gaussian 16 at Wed Apr  9 03:33:34 2025.
