 Gaussian 16, Revision C.01,

 ----------------------------------------------------------------------
 #t hf aug-cc-pvdz symm=none int=(grid=ultrafine) guess=(read,tcheck) s
 table=(opt,rrhf)
 ----------------------------------------------------------------------
 -----
 title
 -----
 Symbolic Z-matrix:
 Charge =  0 Multiplicity = 1

 SCF Done:  E(RHF) =  -357.349301276     A.U. after   15 cycles
 Normal termination of Gaussian 16 at Wed Apr  9 19:19:43 2025.
 Gaussian 16:  ES64L-G16RevC.01  3-Jul-2019

 ----------------------------------------------------------------------
 #t hf aug-cc-pvdz iop(5/13=1,5/36=2,99/5=2) pseudo=read geom=check gue
 ss=(read,tcheck) scf=(maxcycle=1)
 ----------------------------------------------------------------------
 -----
 title
 -----
 Structure from the checkpoint file:  "Grambow2020_wb97xd3_008637_reverse_mol2.chk"
 Charge =  0 Multiplicity = 1

                         Standard orientation:
 ---------------------------------------------------------------------
 Center     Atomic      Atomic             Coordinates (Angstroms)
 Number     Number       Type             X           Y           Z
 ---------------------------------------------------------------------
      1          7           0        1.679512   -0.687170    0.553909
      2          6           0        1.251352    0.404504   -0.113168
      3          6           0        0.590396   -0.851395   -0.497719
      4          6           0       -0.822531   -1.076835   -0.119435
      5          6           0       -1.679010   -0.089323    0.036775
      6          8           0       -2.443190    0.760121    0.175414
      7          8           0        1.315099    1.591765   -0.165024
      8          1           0        1.497330   -0.811591    1.541877
      9          1           0        0.948601   -1.437477   -1.336489
     10          1           0       -1.219029   -2.077530   -0.004585
 ---------------------------------------------------------------------

 SCF Done:  E(RHF) =  -358.872060426     A.U. after    2 cycles

 The electronic state is 1-A.
 Alpha  occ. eigenvalues --  -21.16177 -21.07607 -15.78231 -11.56991 -11.54170
 Alpha  occ. eigenvalues --  -11.49636 -11.42997  -1.79837  -1.73565  -1.47690
 Alpha  occ. eigenvalues --   -1.18121  -0.97044  -0.83688  -0.71960  -0.71340
 Alpha  occ. eigenvalues --   -0.62643  -0.61214  -0.59368  -0.57755  -0.52321
 Alpha  occ. eigenvalues --   -0.48244  -0.47688  -0.38348  -0.30819  -0.28813
 Alpha virt. eigenvalues --    0.02715   0.05038   0.05192   0.07881   0.09555
 Alpha virt. eigenvalues --    0.10257   0.10733   0.10921   0.11669   0.12262
 Alpha virt. eigenvalues --    0.12905   0.14003   0.14525   0.14982   0.15707

 Mulliken charges:
               1
     1  N   -2.203955
     2  C    4.462543
     3  C   -1.422249
     4  C   -0.742748
     5  C    1.698586
     6  O   -2.421371
     7  O   -2.864329
     8  H    0.787750
     9  H    1.346701
    10  H    1.359071
 Sum of Mulliken charges =   0.00000

 Dipole moment (field-independent basis, Debye):
    X=             -1.8141    Y=             -1.1795    Z=              0.6615  Tot=              2.2627

 Test job not archived.
 1\1\GINC-SE105\SP\RHF\Aug-CC-pVDZ\C4H3N1O2\OHZDE\09-Apr-2025\0\\#t hf
 aug-cc-pvdz iop(5/13=1,5/36=2,99/5=2) pseudo=read geom=check guess=(re
 ad,tcheck) scf=(maxcycle=1)\\title\\0,1\N,0,1.57313016,-0.49876217,0.3
 3254707\C,0,1.21587313,0.42099809,-0.58749389\C,0,0.24837467,-0.670027
 98,-0.39872262\C,0,-1.04401637,-0.39105254,0.26624626\C,0,-1.6257402,0
 .78880491,0.21457859\O,0,-2.15114111,1.81223764,0.17870033\O,0,1.49563
 487,1.47902406,-1.05510056\H,0,1.61888845,-0.27410632,1.31854352\H,0,0
 .26759127,-1.54989118,-1.03181736\H,0,-1.58772988,-1.17099051,0.783801

 Normal termination of Gaussian 16 at Wed Apr  9 19:19:46 2025.
