 Gaussian 16, Revision C.01,

 ----------------------------------------------------------------------
 #t hf aug-cc-pvdz symm=none int=(grid=ultrafine) guess=(read,tcheck) s
 table=(opt,rrhf)
 ----------------------------------------------------------------------
 -----
 title
 -----
 Symbolic Z-matrix:
 Charge =  0 Multiplicity = 1

 SCF Done:  E(RHF) =  -283.670429670     A.U. after   14 cycles
 Normal termination of Gaussian 16 at Wed Apr  9 17:53:39 2025.
 Gaussian 16:  ES64L-G16RevC.01  3-Jul-2019

 ----------------------------------------------------------------------
 #t hf aug-cc-pvdz iop(5/13=1,5/36=2,99/5=2) pseudo=read geom=check gue
 ss=(read,tcheck) scf=(maxcycle=1)
 ----------------------------------------------------------------------
 -----
 title
 -----
 Structure from the checkpoint file:  "Grambow2020_wb97xd3_006229_reverse_mol2.chk"
 Charge =  0 Multiplicity = 1

                         Standard orientation:
 ---------------------------------------------------------------------
 Center     Atomic      Atomic             Coordinates (Angstroms)
 Number     Number       Type             X           Y           Z
 ---------------------------------------------------------------------
      1          8           0        3.063652    0.153420   -0.545008
      2          6           0        2.099236   -0.002790    0.083094
      3          6           0       -1.966467   -1.290924   -0.184583
      4          6           0       -2.074132    0.005327   -0.120836
      5          6           0       -2.167215    1.298171   -0.051611
      6          7           0        1.167993   -0.120436    0.840362
      7          1           0       -2.207619   -1.913166    0.669700
      8          1           0       -1.658853   -1.779898   -1.101809
      9          1           0       -3.092512    1.803434   -0.301173
     10          1           0       -1.321233    1.901164    0.257502
     11          1           0        0.246529   -0.454544    0.596925
 ---------------------------------------------------------------------

 SCF Done:  E(RHF) =  -284.943768993     A.U. after    2 cycles

 The electronic state is 1-A.
 Alpha  occ. eigenvalues --  -21.12321 -15.77340 -11.57060 -11.44793 -11.43994
 Alpha  occ. eigenvalues --  -11.40552  -1.77213  -1.35442  -1.20666  -1.02561
 Alpha  occ. eigenvalues --   -0.79180  -0.74498  -0.62549  -0.62459  -0.62011
 Alpha  occ. eigenvalues --   -0.60393  -0.59151  -0.57787  -0.39531  -0.37623
 Alpha  occ. eigenvalues --   -0.37175  -0.34403
 Alpha virt. eigenvalues --    0.02648   0.04900   0.05690   0.06186   0.07007
 Alpha virt. eigenvalues --    0.08678   0.10010   0.10293   0.11195   0.11368
 Alpha virt. eigenvalues --    0.12907   0.13169   0.13739   0.14064   0.15263

 Mulliken charges:
               1
     1  O   -2.195743
     2  C    3.696742
     3  C   -3.960002
     4  C    2.779522
     5  C   -3.955459
     6  N   -2.494924
     7  H    1.245550
     8  H    1.254022
     9  H    1.225712
    10  H    1.262397
    11  H    1.142183
 Sum of Mulliken charges =  -0.00000

 Dipole moment (field-independent basis, Debye):
    X=             -1.2550    Y=             -0.2473    Z=             -1.1023  Tot=              1.6886

 Test job not archived.
 1\1\GINC-SE041\SP\RHF\Aug-CC-pVDZ\C4H5N1O1\OHZDE\09-Apr-2025\0\\#t hf
 aug-cc-pvdz iop(5/13=1,5/36=2,99/5=2) pseudo=read geom=check guess=(re
 ad,tcheck) scf=(maxcycle=1)\\title\\0,1\O,0,-0.41877905,3.02922528,2.3
 1081671\C,0,-0.09825676,2.48662119,1.33518428\C,0,-1.03135902,-0.84701
 812,-1.17021974\C,0,0.03493977,-1.24597473,-0.53795194\C,0,1.10103622,
 -1.62905276,0.09576033\N,0,0.32986562,2.01661932,0.31033426\H,0,-0.982
 70515,-0.54499023,-2.21019576\H,0,-1.99763128,-0.83304372,-0.67915062\
 H,0,1.40164693,-2.66989828,0.10029644\H,0,1.71440759,-0.9160862,0.6345

 Normal termination of Gaussian 16 at Wed Apr  9 17:53:42 2025.
