 Gaussian 16, Revision C.01,

 ----------------------------------------------------------------------
 #t hf aug-cc-pvdz symm=none int=(grid=ultrafine) guess=(read,tcheck) s
 table=(opt,rrhf)
 ----------------------------------------------------------------------
 -----
 title
 -----
 Symbolic Z-matrix:
 Charge =  0 Multiplicity = 1

 SCF Done:  E(RHF) =  -301.877967090     A.U. after   14 cycles
 Normal termination of Gaussian 16 at Wed Apr  9 03:15:02 2025.
 Gaussian 16:  ES64L-G16RevC.01  3-Jul-2019

 ----------------------------------------------------------------------
 #t hf aug-cc-pvdz iop(5/13=1,5/36=2,99/5=2) pseudo=read geom=check gue
 ss=(read,tcheck) scf=(maxcycle=1)
 ----------------------------------------------------------------------
 -----
 title
 -----
 Structure from the checkpoint file:  "Grambow2020_b97d3_006946_reverse_mol1.chk"
 Charge =  0 Multiplicity = 1

                         Standard orientation:
 ---------------------------------------------------------------------
 Center     Atomic      Atomic             Coordinates (Angstroms)
 Number     Number       Type             X           Y           Z
 ---------------------------------------------------------------------
      1          6           0        2.411072    0.170935    0.081831
      2          7           0        1.235966   -0.668051   -0.126253
      3          6           0       -0.014201   -0.114198   -0.053002
      4          8           0       -0.194382    1.153987   -0.057336
      5          7           0       -1.146025   -0.829816    0.021003
      6          6           0       -2.088496    0.284504    0.050941
      7          1           0        3.308000   -0.403129   -0.180513
      8          1           0        2.509133    0.533938    1.119021
      9          1           0        2.350183    1.044827   -0.576164
     10          1           0        1.301233   -1.638791    0.160359
     11          1           0       -2.544608   -1.302617    0.009368
     12          1           0       -3.225349   -0.658305    0.067820
     13          1           0       -2.274469    0.820169    0.989802
     14          1           0       -2.348909    0.809633   -0.872878
 ---------------------------------------------------------------------

 SCF Done:  E(RHF) =  -303.309053912     A.U. after    2 cycles

 The electronic state is 1-A.
 Alpha  occ. eigenvalues --  -20.99748 -15.74717 -15.69159 -11.50387 -11.47218
 Alpha  occ. eigenvalues --  -11.38809  -1.71080  -1.37704  -1.33422  -1.03880
 Alpha  occ. eigenvalues --   -0.94352  -0.76743  -0.75425  -0.66913  -0.62327
 Alpha  occ. eigenvalues --   -0.59687  -0.55816  -0.51997  -0.50016  -0.48021
 Alpha  occ. eigenvalues --   -0.39061  -0.32382  -0.29709  -0.28665
 Alpha virt. eigenvalues --    0.03568   0.04968   0.05601   0.06117   0.06130
 Alpha virt. eigenvalues --    0.06480   0.07354   0.08291   0.10695   0.11974
 Alpha virt. eigenvalues --    0.13317   0.13943   0.14565   0.14956   0.15390

 Mulliken charges:
               1
     1  C   -3.425855
     2  N   -2.593706
     3  C    6.058460
     4  O   -2.565839
     5  N   -2.600535
     6  C   -2.818578
     7  H    1.322762
     8  H    1.270299
     9  H    1.342607
    10  H    0.685230
    11  H    0.661128
    12  H   -0.054193
    13  H    1.362176
    14  H    1.356044
 Sum of Mulliken charges =  -0.00000

 Dipole moment (field-independent basis, Debye):
    X=             -0.3131    Y=             -0.0913    Z=              0.4449  Tot=              0.5516

 Test job not archived.
 1\1\GINC-SE273\SP\RHF\Aug-CC-pVDZ\C3H8N2O1\OHZDE\09-Apr-2025\0\\#t hf
 aug-cc-pvdz iop(5/13=1,5/36=2,99/5=2) pseudo=read geom=check guess=(re
 ad,tcheck) scf=(maxcycle=1)\\title\\0,1\C,0,-2.44216581,0.36370522,0.0
 2935021\N,0,-1.1749244,0.33610617,0.75143676\C,0,-0.01120121,0.0987574
 7,0.06992995\O,0,0.04665327,0.146998,-1.20878151\N,0,1.15610727,-0.193
 10681,0.66222875\C,0,1.97167574,-0.30737525,-0.54302966\H,0,-3.2263440
 6,0.73074525,0.70255049\H,0,-2.74104445,-0.62272391,-0.36406872\H,0,-2
 .35818319,1.05267344,-0.81836657\H,0,-1.19380715,0.00844888,1.71113797

 Normal termination of Gaussian 16 at Wed Apr  9 03:15:07 2025.
