 Gaussian 16, Revision C.01,

 ----------------------------------------------------------------------
 #t hf aug-cc-pvdz symm=none int=(grid=ultrafine) guess=(read,tcheck) s
 table=(opt,rrhf)
 ----------------------------------------------------------------------
 -----
 title
 -----
 Symbolic Z-matrix:
 Charge =  0 Multiplicity = 1

 SCF Done:  E(RHF) =  -284.650392142     A.U. after   16 cycles
 Normal termination of Gaussian 16 at Wed Apr  9 03:06:22 2025.
 Gaussian 16:  ES64L-G16RevC.01  3-Jul-2019

 ----------------------------------------------------------------------
 #t hf aug-cc-pvdz iop(5/13=1,5/36=2,99/5=2) pseudo=read geom=check gue
 ss=(read,tcheck) scf=(maxcycle=1)
 ----------------------------------------------------------------------
 -----
 title
 -----
 Structure from the checkpoint file:  "Grambow2020_b97d3_006528_reverse_mol1.chk"
 Charge =  0 Multiplicity = 1

                         Standard orientation:
 ---------------------------------------------------------------------
 Center     Atomic      Atomic             Coordinates (Angstroms)
 Number     Number       Type             X           Y           Z
 ---------------------------------------------------------------------
      1          6           0        0.179012    1.311824    0.069598
      2          6           0       -1.929026    0.290066    0.324121
      3          8           0       -0.726932   -0.223727   -0.628693
      4          6           0        0.033779   -1.193542   -0.045183
      5          7           0        1.235058   -0.907411    0.299092
      6          6           0        1.467015    0.508823   -0.039863
      7          1           0       -0.112188    2.015660   -0.707215
      8          1           0       -0.134509    1.593631    1.069484
      9          1           0       -1.863356   -0.367482    1.210837
     10          1           0       -2.834545    0.037251   -0.252221
     11          1           0       -0.461674   -2.146941    0.164980
     12          1           0        1.864367    0.582914   -1.061816
     13          1           0        2.207272    0.923632    0.659813
 ---------------------------------------------------------------------

 SCF Done:  E(RHF) =  -285.967457468     A.U. after    2 cycles

 The electronic state is 1-A.
 Alpha  occ. eigenvalues --  -21.08788 -15.74082 -11.53731 -11.46293 -11.43376
 Alpha  occ. eigenvalues --  -11.33987  -1.79511  -1.36997  -1.14152  -0.92845
 Alpha  occ. eigenvalues --   -0.90958  -0.81512  -0.70226  -0.67821  -0.59443
 Alpha  occ. eigenvalues --   -0.57018  -0.56235  -0.54679  -0.47093  -0.43644
 Alpha  occ. eigenvalues --   -0.37828  -0.35569  -0.24640
 Alpha virt. eigenvalues --    0.03248   0.04919   0.05241   0.05694   0.06115
 Alpha virt. eigenvalues --    0.06554   0.07604   0.08575   0.10521   0.11040
 Alpha virt. eigenvalues --    0.12456   0.13315   0.13859   0.14341   0.15044

 Mulliken charges:
               1
     1  C   -2.338626
     2  C   -2.641387
     3  O   -2.328904
     4  C    2.452453
     5  N   -2.584283
     6  C   -2.345929
     7  H    1.301691
     8  H    1.508023
     9  H    1.247756
    10  H    1.254264
    11  H    1.670433
    12  H    1.440154
    13  H    1.364355
 Sum of Mulliken charges =  -0.00000

 Dipole moment (field-independent basis, Debye):
    X=              1.8842    Y=              0.9247    Z=             -1.4292  Tot=              2.5393

 Test job not archived.
 1\1\GINC-SE054\SP\RHF\Aug-CC-pVDZ\C4H7N1O1\OHZDE\09-Apr-2025\0\\#t hf
 aug-cc-pvdz iop(5/13=1,5/36=2,99/5=2) pseudo=read geom=check guess=(re
 ad,tcheck) scf=(maxcycle=1)\\title\\0,1\C,0,0.88436041,-0.57915397,0.4
 5151378\C,0,-1.31679733,-1.32748846,0.06746432\O,0,-0.8815972,0.154552
 87,0.54811033\C,0,-0.79201854,1.04113119,-0.48419853\N,0,0.36703876,1.
 46652658,-0.82929517\C,0,1.35756458,0.80806505,0.04231187\H,0,0.956400
 65,-0.91579409,1.4835529\H,0,0.99598299,-1.36774696,-0.28546886\H,0,-1
 .51365951,-1.20775471,-1.01413509\H,0,-2.26988835,-1.49536094,0.596130

 Normal termination of Gaussian 16 at Wed Apr  9 03:06:26 2025.
