 Gaussian 16, Revision C.01,

 ----------------------------------------------------------------------
 #t hf aug-cc-pvdz symm=none int=(grid=ultrafine) guess=(read,tcheck) s
 table=(opt,rrhf)
 ----------------------------------------------------------------------
 -----
 title
 -----
 Symbolic Z-matrix:
 Charge =  0 Multiplicity = 1

 SCF Done:  E(RHF) =  -245.675883684     A.U. after   15 cycles
 Normal termination of Gaussian 16 at Wed Apr  9 17:36:08 2025.
 Gaussian 16:  ES64L-G16RevC.01  3-Jul-2019

 ----------------------------------------------------------------------
 #t hf aug-cc-pvdz iop(5/13=1,5/36=2,99/5=2) pseudo=read geom=check gue
 ss=(read,tcheck) scf=(maxcycle=1)
 ----------------------------------------------------------------------
 -----
 title
 -----
 Structure from the checkpoint file:  "Grambow2020_b97d3_007200_forward_mol1.chk"
 Charge =  0 Multiplicity = 1

                         Standard orientation:
 ---------------------------------------------------------------------
 Center     Atomic      Atomic             Coordinates (Angstroms)
 Number     Number       Type             X           Y           Z
 ---------------------------------------------------------------------
      1          8           0       -1.943392   -0.330445    0.230944
      2          6           0       -1.097727    0.537944   -0.019164
      3          6           0        0.131675    0.138173   -0.713174
      4          6           0        1.666887    0.360856    0.323185
      5          7           0        0.968697   -0.873894   -0.153699
      6          1           0       -1.318692    1.629626    0.042307
      7          1           0        1.199570    1.178453   -0.397867
      8          1           0        2.719112    0.385663    0.019497
      9          1           0        1.465139    0.644677    1.357973
     10          1           0        0.496114   -1.299440    0.661352
 ---------------------------------------------------------------------

 SCF Done:  E(RHF) =  -246.781059744     A.U. after    2 cycles

 The electronic state is 1-A.
 Alpha  occ. eigenvalues --  -21.06709 -15.77290 -11.49604 -11.47308 -11.43402
 Alpha  occ. eigenvalues --   -1.70404  -1.46134  -1.00771  -1.00275  -0.80277
 Alpha  occ. eigenvalues --   -0.71352  -0.64784  -0.58307  -0.54496  -0.52615
 Alpha  occ. eigenvalues --   -0.48869  -0.41439  -0.33235  -0.28092
 Alpha virt. eigenvalues --    0.02855   0.04869   0.05201   0.06219   0.06885
 Alpha virt. eigenvalues --    0.08859   0.09748   0.10767   0.11970   0.12536
 Alpha virt. eigenvalues --    0.14309   0.14632   0.15333   0.16203   0.17353

 Mulliken charges:
               1
     1  O   -2.491031
     2  C    1.733923
     3  C   -0.676143
     4  C   -3.087826
     5  N   -1.789213
     6  H    1.512169
     7  H    1.663316
     8  H    1.177406
     9  H    1.336662
    10  H    0.620737
 Sum of Mulliken charges =  -0.00000

 Dipole moment (field-independent basis, Debye):
    X=              1.7619    Y=              1.0607    Z=              2.3960  Tot=              3.1576

 Test job not archived.
 1\1\GINC-SE362\SP\RHF\Aug-CC-pVDZ\C3H5N1O1\OHZDE\09-Apr-2025\0\\#t hf
 aug-cc-pvdz iop(5/13=1,5/36=2,99/5=2) pseudo=read geom=check guess=(re
 ad,tcheck) scf=(maxcycle=1)\\title\\0,1\O,0,1.75814922,0.15473515,1.65
 42848\C,0,1.40847865,-0.29505304,0.55554652\C,0,0.60019456,0.55679026,
 -0.32418923\C,0,-1.11423151,-0.11435691,-0.62552617\N,0,-0.64340042,1.
 0826444,0.13932719\H,0,1.86406173,-1.20857552,0.10577623\H,0,-0.156482
 39,-0.35480182,-1.28254042\H,0,-1.8430046,0.14876906,-1.39991203\H,0,-
 1.35883019,-0.99092562,-0.02233261\H,0,-0.75217703,0.87232304,1.145639

 Normal termination of Gaussian 16 at Wed Apr  9 17:36:11 2025.
