 Gaussian 16, Revision C.01,

 ----------------------------------------------------------------------
 #t hf aug-cc-pvdz symm=none int=(grid=ultrafine) guess=(read,tcheck) s
 table=(opt,rrhf)
 ----------------------------------------------------------------------
 -----
 title
 -----
 Symbolic Z-matrix:
 Charge =  0 Multiplicity = 1

 SCF Done:  E(RHF) =  -286.605781666     A.U. after   17 cycles
 Normal termination of Gaussian 16 at Wed Apr  9 19:32:27 2025.
 Gaussian 16:  ES64L-G16RevC.01  3-Jul-2019

 ----------------------------------------------------------------------
 #t hf aug-cc-pvdz iop(5/13=1,5/36=2,99/5=2) pseudo=read geom=check gue
 ss=(read,tcheck) scf=(maxcycle=1)
 ----------------------------------------------------------------------
 -----
 title
 -----
 Structure from the checkpoint file:  "Grambow2020_wb97xd3_009349_forward_mol1.chk"
 Charge =  0 Multiplicity = 1

                         Standard orientation:
 ---------------------------------------------------------------------
 Center     Atomic      Atomic             Coordinates (Angstroms)
 Number     Number       Type             X           Y           Z
 ---------------------------------------------------------------------
      1          6           0        2.000044   -0.250901   -0.143112
      2          7           0        0.930918    0.115450    0.664321
      3          6           0        0.358768    1.067547   -0.274802
      4          6           0       -0.991423    0.508208   -0.743399
      5          6           0       -0.783904   -1.024185   -0.698835
      6          6           0       -0.511263   -0.747331    0.789293
      7          6           0       -1.380139    0.405530    0.679388
      8          1           0        2.961136   -0.468314    0.331811
      9          1           0        1.498729    0.930995   -0.947498
     10          1           0        1.827625   -0.821174   -1.059593
     11          1           0        0.454958    2.101930    0.061194
     12          1           0       -1.517448    1.048711   -1.523815
     13          1           0        0.002798   -1.485596   -1.301753
     14          1           0       -1.727828   -1.539973   -0.854662
     15          1           0       -0.450821   -1.468283    1.594619
     16          1           0       -1.718071    1.140341    1.398258
 ---------------------------------------------------------------------

 SCF Done:  E(RHF) =  -288.073310193     A.U. after    2 cycles

 The electronic state is 1-A.
 Alpha  occ. eigenvalues --  -15.71183 -11.47587 -11.46447 -11.43348 -11.41927
 Alpha  occ. eigenvalues --  -11.40861 -11.36012  -1.52475  -1.27037  -1.02408
 Alpha  occ. eigenvalues --   -0.97449  -0.91004  -0.81057  -0.76150  -0.72089
 Alpha  occ. eigenvalues --   -0.67644  -0.65892  -0.55683  -0.53500  -0.50507
 Alpha  occ. eigenvalues --   -0.45337  -0.45222  -0.43976  -0.39392  -0.31904
 Alpha  occ. eigenvalues --   -0.24100
 Alpha virt. eigenvalues --    0.04119   0.04883   0.05298   0.05714   0.05906
 Alpha virt. eigenvalues --    0.06019   0.06489   0.06560   0.08438   0.08692
 Alpha virt. eigenvalues --    0.11161   0.12313   0.12847   0.13351   0.13499

 Mulliken charges:
               1
     1  C   -2.022460
     2  N   -1.683177
     3  C   -1.630639
     4  C   -2.800859
     5  C   -1.839376
     6  C   -2.422505
     7  C   -0.073340
     8  H    1.306507
     9  H    1.544072
    10  H    1.343887
    11  H    1.355124
    12  H    1.524309
    13  H    1.397270
    14  H    1.248285
    15  H    1.453311
    16  H    1.299590
 Sum of Mulliken charges =   0.00000

 Dipole moment (field-independent basis, Debye):
    X=              0.5335    Y=             -0.2724    Z=             -0.7791  Tot=              0.9828

 Test job not archived.
 1\1\GINC-SE138\SP\RHF\Aug-CC-pVDZ\C6H9N1\OHZDE\09-Apr-2025\0\\#t hf au
 g-cc-pvdz iop(5/13=1,5/36=2,99/5=2) pseudo=read geom=check guess=(read
 ,tcheck) scf=(maxcycle=1)\\title\\0,1\C,0,1.92651172,0.17089769,0.2329
 422\N,0,0.93568555,-0.67964016,-0.24038595\C,0,0.11551517,-0.62990422,
 0.95988154\C,0,-1.19472749,0.08445527,0.60153383\C,0,-0.77243452,1.084
 48906,-0.50068204\C,0,-0.34261493,-0.20047554,-1.22843738\C,0,-1.36989
 652,-0.90093849,-0.48671156\H,0,2.96367483,-0.02771218,-0.05230248\H,0
 ,1.16212002,-0.03324344,1.52494153\H,0,1.71286362,1.23136483,0.3899162

 Normal termination of Gaussian 16 at Wed Apr  9 19:32:33 2025.
