 Gaussian 16, Revision C.01,

 ----------------------------------------------------------------------
 #t hf aug-cc-pvdz symm=none int=(grid=ultrafine) guess=(read,tcheck) s
 table=(opt,rrhf)
 ----------------------------------------------------------------------
 -----
 title
 -----
 Symbolic Z-matrix:
 Charge =  0 Multiplicity = 1

 SCF Done:  E(RHF) =  -317.594598161     A.U. after   16 cycles
 Normal termination of Gaussian 16 at Wed Apr  9 19:04:40 2025.
 Gaussian 16:  ES64L-G16RevC.01  3-Jul-2019

 ----------------------------------------------------------------------
 #t hf aug-cc-pvdz iop(5/13=1,5/36=2,99/5=2) pseudo=read geom=check gue
 ss=(read,tcheck) scf=(maxcycle=1)
 ----------------------------------------------------------------------
 -----
 title
 -----
 Structure from the checkpoint file:  "Grambow2020_wb97xd3_008051_forward_mol1.chk"
 Charge =  0 Multiplicity = 1

                         Standard orientation:
 ---------------------------------------------------------------------
 Center     Atomic      Atomic             Coordinates (Angstroms)
 Number     Number       Type             X           Y           Z
 ---------------------------------------------------------------------
      1          7           0        2.869300   -0.027244   -0.162729
      2          6           0        1.753794    0.016798    0.097851
      3          6           0        0.344756    0.064792    0.465014
      4          6           0       -0.514333    1.118384   -0.217668
      5          7           0       -1.812171    0.694157   -0.019310
      6          6           0       -1.784447   -0.591039    0.090985
      7          7           0       -0.439423   -0.998730   -0.208620
      8          1           0        0.218114   -0.006165    1.556238
      9          1           0       -0.290024    2.173280   -0.143620
     10          1           0       -0.279152   -0.249002   -1.187198
     11          1           0       -2.611071   -1.278862    0.015165
     12          1           0       -0.160430   -1.970137   -0.123060
 ---------------------------------------------------------------------

 SCF Done:  E(RHF) =  -319.075174954     A.U. after    2 cycles

 The electronic state is 1-A.
 Alpha  occ. eigenvalues --  -15.85348 -15.78318 -15.75954 -11.52220 -11.45630
 Alpha  occ. eigenvalues --  -11.43174 -11.39421  -1.62287  -1.33458  -1.29790
 Alpha  occ. eigenvalues --   -1.13727  -0.93878  -0.83921  -0.80503  -0.78670
 Alpha  occ. eigenvalues --   -0.64128  -0.59950  -0.58454  -0.54822  -0.52922
 Alpha  occ. eigenvalues --   -0.47508  -0.46133  -0.44493  -0.38265  -0.29820
 Alpha virt. eigenvalues --    0.02807   0.04773   0.04936   0.06346   0.06730
 Alpha virt. eigenvalues --    0.09054   0.09839   0.10641   0.11153   0.11710
 Alpha virt. eigenvalues --    0.12463   0.13362   0.13603   0.14115   0.14655

 Mulliken charges:
               1
     1  N   -2.637750
     2  C    2.825324
     3  C   -1.981233
     4  C   -0.230065
     5  N   -2.687509
     6  C    1.077024
     7  N   -2.250186
     8  H    1.483667
     9  H    1.284866
    10  H    0.835319
    11  H    1.419743
    12  H    0.860800
 Sum of Mulliken charges =  -0.00000

 Dipole moment (field-independent basis, Debye):
    X=             -1.5567    Y=             -3.2334    Z=              0.9011  Tot=              3.7000

 Test job not archived.
 1\1\GINC-SE135\SP\RHF\Aug-CC-pVDZ\C4H5N3\OHZDE\09-Apr-2025\0\\#t hf au
 g-cc-pvdz iop(5/13=1,5/36=2,99/5=2) pseudo=read geom=check guess=(read
 ,tcheck) scf=(maxcycle=1)\\title\\0,1\N,0,2.71403448,-1.41322134,0.484
 93498\C,0,1.77950669,-0.85842193,0.12017372\C,0,0.6134525,-0.13404495,
 -0.36777529\C,0,-0.68889175,-0.91198595,-0.48114264\N,0,-1.66937555,0.
 05582487,-0.55659108\C,0,-1.23013896,1.0979992,0.06438032\N,0,0.005913
 08,0.71245,0.68775348\H,0,0.86852378,0.48058532,-1.2447076\H,0,-0.7743
 8333,-1.79479763,-1.09915361\H,0,-0.38313159,-0.39360373,1.10089135\H,

 Normal termination of Gaussian 16 at Wed Apr  9 19:04:44 2025.
