 Gaussian 16, Revision C.01,

 ----------------------------------------------------------------------
 #t hf aug-cc-pvdz symm=none int=(grid=ultrafine) guess=(read,tcheck) s
 table=(opt,rrhf)
 ----------------------------------------------------------------------
 -----
 title
 -----
 Symbolic Z-matrix:
 Charge =  0 Multiplicity = 1

 SCF Done:  E(RHF) =  -322.696257786     A.U. after   15 cycles
 Normal termination of Gaussian 16 at Wed Apr  9 03:26:45 2025.
 Gaussian 16:  ES64L-G16RevC.01  3-Jul-2019

 ----------------------------------------------------------------------
 #t hf aug-cc-pvdz iop(5/13=1,5/36=2,99/5=2) pseudo=read geom=check gue
 ss=(read,tcheck) scf=(maxcycle=1)
 ----------------------------------------------------------------------
 -----
 title
 -----
 Structure from the checkpoint file:  "Grambow2020_wb97xd3_006638_reverse_mol2.chk"
 Charge =  0 Multiplicity = 1

                         Standard orientation:
 ---------------------------------------------------------------------
 Center     Atomic      Atomic             Coordinates (Angstroms)
 Number     Number       Type             X           Y           Z
 ---------------------------------------------------------------------
      1          8           0       -2.730470   -0.905773   -0.001962
      2          6           0       -2.420796    0.251281    0.002124
      3          6           0       -1.011625    0.759865   -0.000956
      4          6           0        1.275730    0.480646   -0.001967
      5          6           0        2.303372   -0.328213    0.746272
      6          6           0        2.310763   -0.326182   -0.741805
      7          7           0       -0.035112   -0.038616   -0.004404
      8          1           0       -3.192215    1.049336    0.011531
      9          1           0       -0.890138    1.851388    0.001520
     10          1           0        1.386387    1.564145   -0.001076
     11          1           0        1.935448   -1.212165    1.247988
     12          1           0        3.071214    0.221599    1.273565
     13          1           0        1.951086   -1.209546   -1.250618
     14          1           0        3.083092    0.227355   -1.258393
 ---------------------------------------------------------------------

 SCF Done:  E(RHF) =  -324.174612973     A.U. after    2 cycles

 The electronic state is 1-A.
 Alpha  occ. eigenvalues --  -21.06889 -15.76599 -11.49412 -11.43882 -11.42600
 Alpha  occ. eigenvalues --  -11.41747 -11.37310  -1.71490  -1.44148  -1.25937
 Alpha  occ. eigenvalues --   -1.00765  -0.87332  -0.85827  -0.77893  -0.69734
 Alpha  occ. eigenvalues --   -0.68076  -0.61138  -0.56500  -0.54005  -0.52072
 Alpha  occ. eigenvalues --   -0.51380  -0.45387  -0.42223  -0.38939  -0.34160
 Alpha  occ. eigenvalues --   -0.29887
 Alpha virt. eigenvalues --    0.03866   0.04832   0.05335   0.05451   0.06455
 Alpha virt. eigenvalues --    0.06722   0.07186   0.08360   0.09271   0.11741
 Alpha virt. eigenvalues --    0.12285   0.12560   0.13251   0.13858   0.14529

 Mulliken charges:
               1
     1  O   -2.741699
     2  C    1.056498
     3  C    0.093753
     4  C    1.256633
     5  C   -2.595182
     6  C   -2.596032
     7  N   -3.762458
     8  H    1.419113
     9  H    1.708265
    10  H    1.256427
    11  H    1.266712
    12  H    1.185664
    13  H    1.266485
    14  H    1.185820
 Sum of Mulliken charges =  -0.00000

 Dipole moment (field-independent basis, Debye):
    X=              1.6462    Y=              1.6631    Z=              0.0096  Tot=              2.3401

 Test job not archived.
 1\1\GINC-SE054\SP\RHF\Aug-CC-pVDZ\C5H7N1O1\OHZDE\09-Apr-2025\0\\#t hf
 aug-cc-pvdz iop(5/13=1,5/36=2,99/5=2) pseudo=read geom=check guess=(re
 ad,tcheck) scf=(maxcycle=1)\\title\\0,1\O,0,1.98154041,2.28054369,1.56
 679476\C,0,1.91403856,2.17393585,0.37567491\C,0,1.05253156,1.18422641,
 -0.34731302\C,0,-0.46783199,-0.54541297,-0.42978765\C,0,-0.66592546,-1
 .89131019,0.21788689\C,0,-1.78804899,-0.9141929,0.19523467\N,0,0.32435
 648,0.37370092,0.28827475\H,0,2.51321807,2.828065,-0.29153292\H,0,1.09
 883109,1.2113833,-1.44426575\H,0,-0.41658467,-0.51003692,-1.51714164\H

 Normal termination of Gaussian 16 at Wed Apr  9 03:26:50 2025.
