 Gaussian 16, Revision C.01,

 ----------------------------------------------------------------------
 #t hf aug-cc-pvdz symm=none int=(grid=ultrafine) guess=(read,tcheck) s
 table=(opt,rrhf)
 ----------------------------------------------------------------------
 -----
 title
 -----
 Symbolic Z-matrix:
 Charge =  0 Multiplicity = 1

 SCF Done:  E(RHF) =  -306.636544059     A.U. after   14 cycles
 Normal termination of Gaussian 16 at Wed Apr  9 19:14:02 2025.
 Gaussian 16:  ES64L-G16RevC.01  3-Jul-2019

 ----------------------------------------------------------------------
 #t hf aug-cc-pvdz iop(5/13=1,5/36=2,99/5=2) pseudo=read geom=check gue
 ss=(read,tcheck) scf=(maxcycle=1)
 ----------------------------------------------------------------------
 -----
 title
 -----
 Structure from the checkpoint file:  "Grambow2020_wb97xd3_008430_reverse_mol2.chk"
 Charge =  0 Multiplicity = 1

                         Standard orientation:
 ---------------------------------------------------------------------
 Center     Atomic      Atomic             Coordinates (Angstroms)
 Number     Number       Type             X           Y           Z
 ---------------------------------------------------------------------
      1          6           0       -0.965165   -0.134267    1.068473
      2          6           0       -0.777493    0.971763    0.000070
      3          6           0        0.665668    1.423964   -0.000217
      4          8           0        1.505487    0.432842    0.000160
      5          6           0        1.096977   -0.972151   -0.000182
      6          6           0       -0.406296   -1.093747   -0.000116
      7          6           0       -0.965598   -0.134103   -1.068340
      8          1           0       -0.420452   -0.033125    2.009238
      9          1           0       -2.019873   -0.316232    1.272066
     10          1           0       -1.442727    1.830784   -0.000217
     11          1           0       -0.420678   -0.033149   -2.009081
     12          1           0        1.553251   -1.411909    0.888094
     13          1           0        1.553802   -1.411294   -0.888464
     14          1           0       -0.715460   -2.139594    0.000012
     15          1           0       -2.020325   -0.316979   -1.271063
 ---------------------------------------------------------------------

 SCF Done:  E(RHF) =  -308.081407661     A.U. after    2 cycles

 The electronic state is 1-A.
 Alpha  occ. eigenvalues --  -21.10020 -11.46958 -11.46361 -11.42175 -11.41931
 Alpha  occ. eigenvalues --  -11.39818 -11.35682  -1.81269  -1.36004  -1.10365
 Alpha  occ. eigenvalues --   -0.97690  -0.91940  -0.85976  -0.72649  -0.71441
 Alpha  occ. eigenvalues --   -0.65663  -0.62243  -0.55505  -0.53186  -0.52589
 Alpha  occ. eigenvalues --   -0.49755  -0.46444  -0.42936  -0.38974  -0.38113
 Alpha  occ. eigenvalues --   -0.28688
 Alpha virt. eigenvalues --    0.03523   0.04630   0.04872   0.05014   0.05248
 Alpha virt. eigenvalues --    0.05694   0.06837   0.07619   0.10215   0.11383
 Alpha virt. eigenvalues --    0.11791   0.12766   0.12785   0.12840   0.13917

 Mulliken charges:
               1
     1  C   -2.128701
     2  C   -0.650795
     3  C    0.085007
     4  O   -2.699252
     5  C   -1.255089
     6  C   -2.756406
     7  C   -2.129940
     8  H    1.364978
     9  H    1.194010
    10  H    1.686989
    11  H    1.365215
    12  H    1.491902
    13  H    1.492231
    14  H    1.745893
    15  H    1.193958
 Sum of Mulliken charges =  -0.00000

 Dipole moment (field-independent basis, Debye):
    X=             -1.2862    Y=             -3.5067    Z=              0.0005  Tot=              3.7352

 Test job not archived.
 1\1\GINC-SE018\SP\RHF\Aug-CC-pVDZ\C6H8O1\OHZDE\09-Apr-2025\0\\#t hf au
 g-cc-pvdz iop(5/13=1,5/36=2,99/5=2) pseudo=read geom=check guess=(read
 ,tcheck) scf=(maxcycle=1)\\title\\0,1\C,0,0.69593508,1.07341645,0.0790
 0671\C,0,1.2463445,-0.37357497,0.02178964\C,0,0.82953169,-1.114614,1.2
 7252065\O,0,-0.42755725,-0.95517145,1.55874501\C,0,-1.34270262,-0.1448
 1818,0.75455384\C,0,-0.62589733,0.46245927,-0.42528426\C,0,0.21118191,
 -0.64220562,-1.09896952\H,0,0.69596285,1.58189134,1.04515049\H,0,1.166
 87394,1.70840327,-0.67064581\H,0,2.30192001,-0.5346565,-0.17887669\H,0

 Normal termination of Gaussian 16 at Wed Apr  9 19:14:07 2025.
