 Gaussian 16, Revision C.01,

 ----------------------------------------------------------------------
 #t hf aug-cc-pvdz symm=none int=(grid=ultrafine) guess=(read,tcheck) s
 table=(opt,rrhf)
 ----------------------------------------------------------------------
 -----
 title
 -----
 Symbolic Z-matrix:
 Charge =  0 Multiplicity = 1

 SCF Done:  E(RHF) =  -305.837705712     A.U. after   13 cycles
 Normal termination of Gaussian 16 at Wed Apr  9 17:17:23 2025.
 Gaussian 16:  ES64L-G16RevC.01  3-Jul-2019

 ----------------------------------------------------------------------
 #t hf aug-cc-pvdz iop(5/13=1,5/36=2,99/5=2) pseudo=read geom=check gue
 ss=(read,tcheck) scf=(maxcycle=1)
 ----------------------------------------------------------------------
 -----
 title
 -----
 Structure from the checkpoint file:  "Grambow2020_b97d3_007090_reverse_mol2.chk"
 Charge =  0 Multiplicity = 1

                         Standard orientation:
 ---------------------------------------------------------------------
 Center     Atomic      Atomic             Coordinates (Angstroms)
 Number     Number       Type             X           Y           Z
 ---------------------------------------------------------------------
      1          6           0       -0.847238    1.453097    0.289530
      2          6           0       -0.669226    0.054977   -0.291062
      3          6           0       -1.941147   -0.780073   -0.275426
      4          8           0        0.303660   -0.704144    0.565437
      5          6           0        1.614091   -0.618944    0.458912
      6          8           0        1.932471    0.269800   -0.529899
      7          1           0       -1.607876    2.002077   -0.284391
      8          1           0       -1.181922    1.390158    1.333919
      9          1           0        0.092215    2.015834    0.250069
     10          1           0       -0.246662    0.105353   -1.300733
     11          1           0       -1.751618   -1.787931   -0.666369
     12          1           0       -2.709234   -0.302222   -0.899683
     13          1           0       -2.330802   -0.870534    0.747458
     14          1           0        2.907971    0.267676   -0.556292
 ---------------------------------------------------------------------

 SCF Done:  E(RHF) =  -307.223544146     A.U. after    2 cycles

 The electronic state is 1-A.
 Alpha  occ. eigenvalues --  -21.11668 -21.08572 -11.46119 -11.43790 -11.39987
 Alpha  occ. eigenvalues --  -11.36675  -1.84299  -1.68532  -1.19057  -1.01630
 Alpha  occ. eigenvalues --   -0.87463  -0.78365  -0.64730  -0.64472  -0.59434
 Alpha  occ. eigenvalues --   -0.57253  -0.54531  -0.51821  -0.50856  -0.48232
 Alpha  occ. eigenvalues --   -0.46443  -0.41202  -0.34316  -0.31194
 Alpha virt. eigenvalues --    0.03752   0.05087   0.05639   0.05807   0.06044
 Alpha virt. eigenvalues --    0.06389   0.07124   0.07737   0.10906   0.11832
 Alpha virt. eigenvalues --    0.12282   0.13033   0.14145   0.15403   0.15639

 Mulliken charges:
               1
     1  C   -3.496114
     2  C   -0.610623
     3  C   -3.598281
     4  O   -2.087897
     5  C    1.323929
     6  O   -2.151166
     7  H    1.204538
     8  H    1.312647
     9  H    1.319841
    10  H    1.914554
    11  H    1.274247
    12  H    1.168952
    13  H    1.206253
    14  H    1.219120
 Sum of Mulliken charges =  -0.00000

 Dipole moment (field-independent basis, Debye):
    X=             -1.4594    Y=              1.6819    Z=             -1.9004  Tot=              2.9275

 Test job not archived.
 1\1\GINC-SE220\SP\RHF\Aug-CC-pVDZ\C4H8O2\OHZDE\09-Apr-2025\0\\#t hf au
 g-cc-pvdz iop(5/13=1,5/36=2,99/5=2) pseudo=read geom=check guess=(read
 ,tcheck) scf=(maxcycle=1)\\title\\0,1\C,0,0.25289377,1.36053725,0.0610
 1007\C,0,-0.26503296,-0.05352887,-0.17496378\C,0,-1.76094867,-0.203845
 43,0.05950373\O,0,0.37821633,-0.97658571,0.82030438\C,0,1.57224349,-1.
 51404158,0.67443912\O,0,2.12205104,-1.08645589,-0.50193776\H,0,-0.2577
 2485,2.06303759,-0.61359878\H,0,0.05346385,1.66955884,1.09612237\H,0,1
 .33096653,1.41888857,-0.12648876\H,0,0.01162126,-0.4059398,-1.1748651\

 Normal termination of Gaussian 16 at Wed Apr  9 17:17:27 2025.
