 Gaussian 16, Revision C.01,

 ----------------------------------------------------------------------
 #t hf aug-cc-pvdz symm=none int=(grid=ultrafine) guess=(read,tcheck) s
 table=(opt,rrhf)
 ----------------------------------------------------------------------
 -----
 title
 -----
 Symbolic Z-matrix:
 Charge =  0 Multiplicity = 1

 SCF Done:  E(RHF) =  -360.674924800     A.U. after   16 cycles
 Normal termination of Gaussian 16 at Wed Apr  9 18:47:49 2025.
 Gaussian 16:  ES64L-G16RevC.01  3-Jul-2019

 ----------------------------------------------------------------------
 #t hf aug-cc-pvdz iop(5/13=1,5/36=2,99/5=2) pseudo=read geom=check gue
 ss=(read,tcheck) scf=(maxcycle=1)
 ----------------------------------------------------------------------
 -----
 title
 -----
 Structure from the checkpoint file:  "Grambow2020_wb97xd3_007664_reverse_mol1.chk"
 Charge =  0 Multiplicity = 1

                         Standard orientation:
 ---------------------------------------------------------------------
 Center     Atomic      Atomic             Coordinates (Angstroms)
 Number     Number       Type             X           Y           Z
 ---------------------------------------------------------------------
      1          6           0       -1.867690   -0.534205   -0.891836
      2          8           0       -1.877404    0.075394    0.280950
      3          6           0       -0.898181   -0.130890    1.127523
      4          6           0        0.665863    0.472011   -0.196059
      5          7           0        1.735129   -0.199020    0.018558
      6          8           0        1.463930   -1.569220   -0.084819
      7          6           0        0.789634    1.966934   -0.202213
      8          1           0       -1.489548   -1.550639   -0.928704
      9          1           0       -2.666102   -0.218356   -1.546799
     10          1           0       -0.163482    0.030310   -0.879649
     11          1           0       -0.487585   -1.133100    1.199546
     12          1           0       -0.950329    0.498107    2.005869
     13          1           0        2.321055   -1.970447    0.069834
     14          1           0        1.630178    2.284314    0.414088
     15          1           0       -0.124156    2.436687    0.163959
     16          1           0        0.954097    2.323773   -1.221585
 ---------------------------------------------------------------------

 SCF Done:  E(RHF) =  -362.351586460     A.U. after    2 cycles

 The electronic state is 1-A.
 Alpha  occ. eigenvalues --  -21.16789 -21.08126 -15.74581 -11.44093 -11.43011
 Alpha  occ. eigenvalues --  -11.41619 -11.36765  -1.87314  -1.77255  -1.26425
 Alpha  occ. eigenvalues --   -1.04127  -1.03302  -0.89026  -0.79259  -0.70937
 Alpha  occ. eigenvalues --   -0.65400  -0.64914  -0.60094  -0.58505  -0.56750
 Alpha  occ. eigenvalues --   -0.54927  -0.49886  -0.49304  -0.45798  -0.42199
 Alpha  occ. eigenvalues --   -0.35757  -0.31172  -0.23949
 Alpha virt. eigenvalues --    0.04027   0.05276   0.05479   0.05669   0.05945
 Alpha virt. eigenvalues --    0.06435   0.06814   0.07286   0.09256   0.10761
 Alpha virt. eigenvalues --    0.11163   0.12672   0.13531   0.14112   0.14399

 Mulliken charges:
               1
     1  C   -1.814412
     2  O   -2.838051
     3  C   -1.696746
     4  C    0.593837
     5  N   -0.483634
     6  O   -2.748975
     7  C   -4.093129
     8  H    1.239895
     9  H    1.441742
    10  H    2.755719
    11  H    1.581543
    12  H    1.454617
    13  H    0.951521
    14  H    1.251354
    15  H    1.326260
    16  H    1.078459
 Sum of Mulliken charges =   0.00000

 Dipole moment (field-independent basis, Debye):
    X=             -1.4912    Y=             -0.4367    Z=              0.4624  Tot=              1.6211

 Test job not archived.
 1\1\GINC-SE114\SP\RHF\Aug-CC-pVDZ\C4H9N1O2\OHZDE\09-Apr-2025\0\\#t hf
 aug-cc-pvdz iop(5/13=1,5/36=2,99/5=2) pseudo=read geom=check guess=(re
 ad,tcheck) scf=(maxcycle=1)\\title\\0,1\C,0,2.07107479,0.00245008,-0.2
 4266246\O,0,1.56515734,-0.48486689,0.87702625\C,0,0.52223172,0.0918798
 7,1.42272332\C,0,-0.7409264,-0.07323921,-0.29155897\N,0,-1.54271755,0.
 92203646,-0.37048367\O,0,-0.81466319,2.11853877,-0.37268736\C,0,-1.347
 84577,-1.44352152,-0.35579864\H,0,2.07634292,1.08048354,-0.36637516\H,
 0,2.86298551,-0.60432259,-0.65606676\H,0,0.33822867,0.02220265,-0.7117

 Normal termination of Gaussian 16 at Wed Apr  9 18:47:54 2025.
