 Gaussian 16, Revision C.01,

 ----------------------------------------------------------------------
 #t hf aug-cc-pvdz symm=none int=(grid=ultrafine) guess=(read,tcheck) s
 table=(opt,rrhf)
 ----------------------------------------------------------------------
 -----
 title
 -----
 Symbolic Z-matrix:
 Charge =  0 Multiplicity = 1

 SCF Done:  E(RHF) =  -270.808614051     A.U. after   16 cycles
 Normal termination of Gaussian 16 at Wed Apr  9 03:53:51 2025.
 Gaussian 16:  ES64L-G16RevC.01  3-Jul-2019

 ----------------------------------------------------------------------
 #t hf aug-cc-pvdz iop(5/13=1,5/36=2,99/5=2) pseudo=read geom=check gue
 ss=(read,tcheck) scf=(maxcycle=1)
 ----------------------------------------------------------------------
 -----
 title
 -----
 Structure from the checkpoint file:  "Grambow2020_wb97xd3_008384_reverse_mol2.chk"
 Charge =  0 Multiplicity = 1

                         Standard orientation:
 ---------------------------------------------------------------------
 Center     Atomic      Atomic             Coordinates (Angstroms)
 Number     Number       Type             X           Y           Z
 ---------------------------------------------------------------------
      1          6           0       -1.456151   -0.192836   -1.214971
      2          6           0       -0.537242    0.000537   -0.003449
      3          6           0       -1.373129    0.081710    1.280726
      4          6           0        1.841906    0.749369   -0.051542
      5          6           0        0.424121    1.200351   -0.149066
      6          6           0        1.734595   -0.691507    0.048506
      7          6           0        0.455292   -1.114858    0.090309
      8          1           0       -0.879868   -0.266932   -2.139506
      9          1           0       -2.057786   -1.099408   -1.115744
     10          1           0       -2.139514    0.653791   -1.307772
     11          1           0       -1.954803   -0.830250    1.433930
     12          1           0       -2.072514    0.918263    1.221273
     13          1           0       -0.737515    0.231563    2.155715
     14          1           0        0.329467    1.699732   -1.122578
     15          1           0        0.244422    1.998583    0.579088
     16          1           0        2.593353   -1.350302    0.105191
     17          1           0        0.138409   -2.151646    0.187321
 ---------------------------------------------------------------------

 SCF Done:  E(RHF) =  -272.149207719     A.U. after    2 cycles

 The electronic state is 1-A.
 Alpha  occ. eigenvalues --  -11.47241 -11.43936 -11.40405 -11.39952 -11.38498
 Alpha  occ. eigenvalues --  -11.38440 -11.35175  -1.37687  -1.14088  -1.03723
 Alpha  occ. eigenvalues --   -1.01868  -0.91331  -0.78166  -0.73583  -0.66214
 Alpha  occ. eigenvalues --   -0.62248  -0.60080  -0.58023  -0.55515  -0.52653
 Alpha  occ. eigenvalues --   -0.46735  -0.46107  -0.44707  -0.43936  -0.37745
 Alpha  occ. eigenvalues --   -0.29840
 Alpha virt. eigenvalues --    0.03351   0.04153   0.04665   0.05173   0.05490
 Alpha virt. eigenvalues --    0.05781   0.06477   0.07273   0.07462   0.07601
 Alpha virt. eigenvalues --    0.09142   0.10838   0.11693   0.12316   0.12434

 Mulliken charges:
               1
     1  C   -4.103162
     2  C    0.427841
     3  C   -4.053151
     4  C   -2.661003
     5  C   -3.636417
     6  C    0.491813
     7  C    0.035474
     8  H    1.240256
     9  H    1.191561
    10  H    1.236601
    11  H    1.191402
    12  H    1.232304
    13  H    1.258882
    14  H    1.582574
    15  H    1.534740
    16  H    1.525806
    17  H    1.504478
 Sum of Mulliken charges =   0.00000

 Dipole moment (field-independent basis, Debye):
    X=             -3.2957    Y=             -2.0143    Z=              0.0661  Tot=              3.8631

 Test job not archived.
 1\1\GINC-SE292\SP\RHF\Aug-CC-pVDZ\C7H10\OHZDE\09-Apr-2025\0\\#t hf aug
 -cc-pvdz iop(5/13=1,5/36=2,99/5=2) pseudo=read geom=check guess=(read,
 tcheck) scf=(maxcycle=1)\\title\\0,1\C,0,1.68666815,0.06567495,-0.0769
 2568\C,0,0.17527336,-0.11038257,0.10817357\C,0,-0.10197542,-1.06274313
 ,1.27887568\C,0,-1.59748882,0.45037745,-1.55503739\C,0,-0.55322572,-0.
 54626154,-1.18189448\C,0,-1.43038734,1.50211624,-0.57342042\C,0,-0.485
 73612,1.21090222,0.34332278\H,0,1.90646489,0.75154624,-0.89767416\H,0,
 2.15407721,0.45868144,0.82903195\H,0,2.152404,-0.89557626,-0.30377215\

 Normal termination of Gaussian 16 at Wed Apr  9 03:53:57 2025.
