 Gaussian 16, Revision C.01,

 ----------------------------------------------------------------------
 #t hf aug-cc-pvdz symm=none int=(grid=ultrafine) guess=(read,tcheck) s
 table=(opt,rrhf)
 ----------------------------------------------------------------------
 -----
 title
 -----
 Symbolic Z-matrix:
 Charge =  0 Multiplicity = 1

 SCF Done:  E(RHF) =  -333.584753043     A.U. after   16 cycles
 Normal termination of Gaussian 16 at Wed Apr  9 18:25:04 2025.
 Gaussian 16:  ES64L-G16RevC.01  3-Jul-2019

 ----------------------------------------------------------------------
 #t hf aug-cc-pvdz iop(5/13=1,5/36=2,99/5=2) pseudo=read geom=check gue
 ss=(read,tcheck) scf=(maxcycle=1)
 ----------------------------------------------------------------------
 -----
 title
 -----
 Structure from the checkpoint file:  "Grambow2020_wb97xd3_006985_reverse_mol1.chk"
 Charge =  0 Multiplicity = 1

                         Standard orientation:
 ---------------------------------------------------------------------
 Center     Atomic      Atomic             Coordinates (Angstroms)
 Number     Number       Type             X           Y           Z
 ---------------------------------------------------------------------
      1          7           0       -2.079384    0.091114   -0.453284
      2          6           0       -0.826470    0.088860   -0.032956
      3          6           0        0.220266    1.049753    0.325138
      4          7           0        1.460870    0.883997   -0.158101
      5          6           0        1.515158   -0.391770   -0.458433
      6          7           0        0.532539   -1.198337   -0.033355
      7          7           0       -0.292193   -0.570220    1.003862
      8          1           0       -2.338128    0.587661   -1.286853
      9          1           0       -2.711227   -0.604404   -0.088815
     10          1           0       -0.074356    1.918380    0.900149
     11          1           0        2.317159   -0.828570   -1.040820
 ---------------------------------------------------------------------

 SCF Done:  E(RHF) =  -335.101917587     A.U. after    2 cycles

 The electronic state is 1-A.
 Alpha  occ. eigenvalues --  -15.82992 -15.76453 -15.74138 -15.71439 -11.55566
 Alpha  occ. eigenvalues --  -11.47892 -11.42657  -1.65314  -1.41454  -1.32740
 Alpha  occ. eigenvalues --   -1.19105  -0.93074  -0.88388  -0.79451  -0.75612
 Alpha  occ. eigenvalues --   -0.72078  -0.63800  -0.56229  -0.53780  -0.51863
 Alpha  occ. eigenvalues --   -0.48992  -0.41089  -0.37759  -0.34382  -0.27615
 Alpha virt. eigenvalues --    0.02573   0.04862   0.05254   0.06015   0.10326
 Alpha virt. eigenvalues --    0.10526   0.10740   0.11444   0.11537   0.12566
 Alpha virt. eigenvalues --    0.13382   0.13660   0.14980   0.15992   0.16527

 Mulliken charges:
               1
     1  N   -3.446281
     2  C    3.972372
     3  C    0.209642
     4  N   -3.255788
     5  C    1.459370
     6  N   -1.599235
     7  N   -1.504853
     8  H    0.621640
     9  H    0.570550
    10  H    1.414588
    11  H    1.557995
 Sum of Mulliken charges =   0.00000

 Dipole moment (field-independent basis, Debye):
    X=             -4.1068    Y=              0.9027    Z=             -1.5761  Tot=              4.4905

 Test job not archived.
 1\1\GINC-SE114\SP\RHF\Aug-CC-pVDZ\C3H4N4\OHZDE\09-Apr-2025\0\\#t hf au
 g-cc-pvdz iop(5/13=1,5/36=2,99/5=2) pseudo=read geom=check guess=(read
 ,tcheck) scf=(maxcycle=1)\\title\\0,1\N,0,1.7555037,-0.62442959,-0.328
 06967\C,0,0.53892692,-0.11479113,-0.24631792\C,0,-0.13267542,1.0543949
 5,0.32740427\N,0,-1.26683276,0.88731785,1.02444456\C,0,-1.7319359,-0.2
 6346261,0.60004837\N,0,-1.17652908,-0.82549246,-0.48273799\N,0,-0.3393
 9331,0.1179825,-1.23079698\H,0,2.29217129,-0.80224765,0.50181782\H,0,2
 .03602562,-1.06629158,-1.18939093\H,0,0.36837961,2.01023953,0.24221345

 Normal termination of Gaussian 16 at Wed Apr  9 18:25:08 2025.
