 Gaussian 16, Revision C.01,

 ----------------------------------------------------------------------
 #t hf aug-cc-pvdz symm=none int=(grid=ultrafine) guess=(read,tcheck) s
 table=(opt,rrhf)
 ----------------------------------------------------------------------
 -----
 title
 -----
 Symbolic Z-matrix:
 Charge =  0 Multiplicity = 1

 SCF Done:  E(RHF) =  -354.666432034     A.U. after   14 cycles
 Normal termination of Gaussian 16 at Wed Apr  9 18:36:14 2025.
 Gaussian 16:  ES64L-G16RevC.01  3-Jul-2019

 ----------------------------------------------------------------------
 #t hf aug-cc-pvdz iop(5/13=1,5/36=2,99/5=2) pseudo=read geom=check gue
 ss=(read,tcheck) scf=(maxcycle=1)
 ----------------------------------------------------------------------
 -----
 title
 -----
 Structure from the checkpoint file:  "Grambow2020_wb97xd3_007310_reverse_mol2.chk"
 Charge =  0 Multiplicity = 1

                         Standard orientation:
 ---------------------------------------------------------------------
 Center     Atomic      Atomic             Coordinates (Angstroms)
 Number     Number       Type             X           Y           Z
 ---------------------------------------------------------------------
      1          8           0       -2.017136   -0.755449    0.001815
      2          6           0       -1.841573    0.680293    0.011885
      3          6           0       -0.388616    0.370295   -0.006856
      4          7           0       -0.599895   -0.909854   -0.015510
      5          7           0        2.091115   -0.807667    0.007929
      6          6           0        1.878303    0.514273   -0.000206
      7          7           0        0.741203    1.124701   -0.009159
      8          1           0        1.307662   -1.449322    0.007927
      9          1           0       -2.233981    1.139093    0.920122
     10          1           0       -2.256024    1.152927   -0.879193
     11          1           0        3.027105   -1.165989    0.023768
     12          1           0        2.776686    1.127466    0.001086
 ---------------------------------------------------------------------

 SCF Done:  E(RHF) =  -356.238242428     A.U. after    2 cycles

 The electronic state is 1-A.
 Alpha  occ. eigenvalues --  -21.05698 -15.79993 -15.75457 -15.72810 -11.48414
 Alpha  occ. eigenvalues --  -11.47590 -11.42113  -1.84197  -1.48105  -1.31671
 Alpha  occ. eigenvalues --   -1.18143  -1.04358  -0.90704  -0.77685  -0.72626
 Alpha  occ. eigenvalues --   -0.67297  -0.66625  -0.61383  -0.58246  -0.55860
 Alpha  occ. eigenvalues --   -0.46289  -0.42677  -0.37782  -0.37416  -0.36084
 Alpha  occ. eigenvalues --   -0.25450
 Alpha virt. eigenvalues --    0.03027   0.04759   0.05129   0.06667   0.07451
 Alpha virt. eigenvalues --    0.09634   0.09960   0.10577   0.11688   0.12797
 Alpha virt. eigenvalues --    0.13066   0.14198   0.15574   0.16298   0.16608

 Mulliken charges:
               1
     1  O   -2.248419
     2  C   -2.002480
     3  C    3.530159
     4  N   -0.803373
     5  N   -2.642855
     6  C    1.579015
     7  N   -3.428220
     8  H    0.722966
     9  H    1.403366
    10  H    1.398506
    11  H    0.785395
    12  H    1.705941
 Sum of Mulliken charges =  -0.00000

 Dipole moment (field-independent basis, Debye):
    X=              2.5796    Y=             -0.5049    Z=              0.0681  Tot=              2.6294

 Test job not archived.
 1\1\GINC-SE131\SP\RHF\Aug-CC-pVDZ\C3H5N3O1\OHZDE\09-Apr-2025\0\\#t hf
 aug-cc-pvdz iop(5/13=1,5/36=2,99/5=2) pseudo=read geom=check guess=(re
 ad,tcheck) scf=(maxcycle=1)\\title\\0,1\O,0,-2.18661964,0.83802806,-0.
 47920794\C,0,-2.04300525,-0.40852507,0.24034673\C,0,-0.58581709,-0.210
 32985,0.02856134\N,0,-0.76849186,0.90388297,-0.61069977\N,0,1.91188582
 ,0.66088273,-0.70584319\C,0,1.67179311,-0.4580298,-0.01066504\N,0,0.52
 509177,-0.91671664,0.36400872\H,0,1.14419938,1.25324143,-0.9978834\H,0
 ,-2.50599985,-1.24513037,-0.28415536\H,0,-2.40597691,-0.33699896,1.266

 Normal termination of Gaussian 16 at Wed Apr  9 18:36:18 2025.
