 Gaussian 16, Revision C.01,

 ----------------------------------------------------------------------
 #t hf aug-cc-pvdz symm=none int=(grid=ultrafine) guess=(read,tcheck) s
 table=(opt,rrhf)
 ----------------------------------------------------------------------
 -----
 title
 -----
 Symbolic Z-matrix:
 Charge =  0 Multiplicity = 1

 SCF Done:  E(RHF) =  -344.797800321     A.U. after   13 cycles

 1\1\GINC-SE117\Stability\RHF\Aug-CC-pVDZ\C5H10O2\OHZDE\09-Apr-2025\0\\
 #t hf aug-cc-pvdz symm=none int=(grid=ultrafine) guess=(read,tcheck) s
 table=(opt,rrhf)\\title\\0,1\O,0,2.53579109,0.15971969,1.16771639\C,0,
 2.34266432,-0.17941764,0.03574253\C,0,-0.3630131,-1.98527013,0.2512908
 3\C,0,-0.86262262,-0.76571774,0.23492353\C,0,-1.57543373,0.10762414,-0
 .76432379\O,0,-1.61364538,1.18439998,0.18792619\C,0,-0.9584009,0.38833
 025,1.19729532\H,0,0.83160579,2.94287056,-0.88621786\H,0,2.73721659,-1
 .13203584,-0.36522259\H,0,1.76389085,0.44394711,-0.67084075\H,0,0.1213

 Normal termination of Gaussian 16 at Wed Apr  9 18:41:43 2025.
 Gaussian 16:  ES64L-G16RevC.01  3-Jul-2019

 ----------------------------------------------------------------------
 #t hf aug-cc-pvdz iop(5/13=1,5/36=2,99/5=2) pseudo=read geom=check gue
 ss=(read,tcheck) scf=(maxcycle=1)
 ----------------------------------------------------------------------
 -----
 title
 -----
 Structure from the checkpoint file:  "Grambow2020_wb97xd3_007539_reverse_mol2.chk"
 Charge =  0 Multiplicity = 1

                         Standard orientation:
 ---------------------------------------------------------------------
 Center     Atomic      Atomic             Coordinates (Angstroms)
 Number     Number       Type             X           Y           Z
 ---------------------------------------------------------------------
      1          8           0       -2.629727   -0.462590    0.489997
      2          6           0       -2.298417   -0.099410   -0.601796
      3          6           0        0.153021    1.960421    0.011232
      4          6           0        0.765456    0.795540    0.083063
      5          6           0        1.705279    0.001937   -0.786562
      6          8           0        1.700903   -1.071701    0.169978
      7          6           0        0.823642   -0.349446    1.059168
      8          1           0       -0.366786   -3.053795   -1.251720
      9          1           0       -2.717276    0.812580   -1.067367
     10          1           0       -1.559806   -0.659072   -1.205165
     11          1           0       -0.498096    2.302422    0.806919
     12          1           0        0.289647    2.616397   -0.840599
     13          1           0        0.186340   -2.710460   -0.884048
     14          1           0        2.703892    0.429239   -0.920215
     15          1           0        1.311975   -0.311225   -1.759540
     16          1           0       -0.119146   -0.876445    1.235207
     17          1           0        1.305951   -0.129561    2.016098
 ---------------------------------------------------------------------

 SCF Done:  E(RHF) =  -346.382455402     A.U. after    2 cycles

 The electronic state is 1-A.
 Alpha  occ. eigenvalues --  -21.07728 -21.04291 -11.48049 -11.46128 -11.45305
 Alpha  occ. eigenvalues --  -11.41518 -11.38912  -1.77801  -1.71659  -1.18168
 Alpha  occ. eigenvalues --   -1.00822  -0.96363  -0.90017  -0.77175  -0.67831
 Alpha  occ. eigenvalues --   -0.66592  -0.63659  -0.62656  -0.60486  -0.57839
 Alpha  occ. eigenvalues --   -0.53460  -0.50929  -0.45867  -0.43239  -0.37896
 Alpha  occ. eigenvalues --   -0.36751  -0.30950  -0.29683
 Alpha virt. eigenvalues --    0.03413   0.04825   0.05077   0.05616   0.05655
 Alpha virt. eigenvalues --    0.06208   0.06680   0.07734   0.08495   0.10387
 Alpha virt. eigenvalues --    0.10788   0.11617   0.12157   0.12610   0.12996

 Mulliken charges:
               1
     1  O   -2.092849
     2  C   -0.823255
     3  C   -4.048892
     4  C    1.709667
     5  C   -1.747617
     6  O   -2.612702
     7  C   -1.655223
     8  H    0.276675
     9  H    1.369681
    10  H    1.596025
    11  H    1.555995
    12  H    1.497254
    13  H   -0.427052
    14  H    1.280431
    15  H    1.348732
    16  H    1.545731
    17  H    1.227399
 Sum of Mulliken charges =  -0.00000

 Dipole moment (field-independent basis, Debye):
    X=              0.2737    Y=              1.0035    Z=             -0.7215  Tot=              1.2659

 Test job not archived.
 1\1\GINC-SE117\SP\RHF\Aug-CC-pVDZ\C5H10O2\OHZDE\09-Apr-2025\0\\#t hf a
 ug-cc-pvdz iop(5/13=1,5/36=2,99/5=2) pseudo=read geom=check guess=(rea
 d,tcheck) scf=(maxcycle=1)\\title\\0,1\O,0,2.53579109,0.15971969,1.167
 71639\C,0,2.34266432,-0.17941764,0.03574253\C,0,-0.3630131,-1.98527013
 ,0.25129083\C,0,-0.86262262,-0.76571774,0.23492353\C,0,-1.57543373,0.1
 0762414,-0.76432379\O,0,-1.61364538,1.18439998,0.18792619\C,0,-0.95840
 09,0.38833025,1.19729532\H,0,0.83160579,2.94287056,-0.88621786\H,0,2.7
 3721659,-1.13203584,-0.36522259\H,0,1.76389085,0.44394711,-0.67084075\

 Normal termination of Gaussian 16 at Wed Apr  9 18:41:51 2025.
