 Gaussian 16, Revision C.01,

 ----------------------------------------------------------------------
 #t hf aug-cc-pvdz symm=none int=(grid=ultrafine) guess=(read,tcheck) s
 table=(opt,rrhf)
 ----------------------------------------------------------------------
 -----
 title
 -----
 Symbolic Z-matrix:
 Charge =  0 Multiplicity = 1

 SCF Done:  E(RHF) =  -324.966810529     A.U. after   13 cycles
 Normal termination of Gaussian 16 at Wed Apr  9 19:26:23 2025.
 Gaussian 16:  ES64L-G16RevC.01  3-Jul-2019

 ----------------------------------------------------------------------
 #t hf aug-cc-pvdz iop(5/13=1,5/36=2,99/5=2) pseudo=read geom=check gue
 ss=(read,tcheck) scf=(maxcycle=1)
 ----------------------------------------------------------------------
 -----
 title
 -----
 Structure from the checkpoint file:  "Grambow2020_wb97xd3_008957_reverse_mol2.chk"
 Charge =  0 Multiplicity = 1

                         Standard orientation:
 ---------------------------------------------------------------------
 Center     Atomic      Atomic             Coordinates (Angstroms)
 Number     Number       Type             X           Y           Z
 ---------------------------------------------------------------------
      1          6           0        1.687993   -1.485877    0.038744
      2          6           0        1.657366    0.023683    0.181946
      3          7           0        0.633504    0.619199   -0.675197
      4          6           0        0.074772    1.913136   -0.224588
      5          6           0       -0.678018    0.681549   -0.187132
      6          6           0       -1.757606   -0.036090    0.034434
      7          8           0       -1.871885   -1.380580   -0.171534
      8          1           0        2.534011   -1.906531    0.584190
      9          1           0        1.782366   -1.771512   -1.010649
     10          1           0        0.782562   -1.938030    0.450263
     11          1           0        1.491209    0.295010    1.234333
     12          1           0        2.615982    0.450057   -0.122790
     13          1           0        0.449519    2.310038    0.716509
     14          1           0       -0.090392    2.646571   -1.005820
     15          1           0       -0.666543    0.599816    2.864199
     16          1           0       -2.669191    0.407464    0.409938
     17          1           0       -0.492720    0.725382    3.579185
     18          1           0       -1.103293   -1.686429   -0.661134
 ---------------------------------------------------------------------

 SCF Done:  E(RHF) =  -326.526318634     A.U. after    2 cycles

 The electronic state is 1-A.
 Alpha  occ. eigenvalues --  -21.09486 -15.73439 -11.46110 -11.45286 -11.42829
 Alpha  occ. eigenvalues --  -11.40613 -11.36808  -1.74391  -1.49225  -1.16725
 Alpha  occ. eigenvalues --   -1.03303  -0.95412  -0.87264  -0.76308  -0.67933
 Alpha  occ. eigenvalues --   -0.66935  -0.62059  -0.61353  -0.59850  -0.57658
 Alpha  occ. eigenvalues --   -0.52254  -0.50317  -0.48977  -0.46084  -0.43605
 Alpha  occ. eigenvalues --   -0.41698  -0.35927  -0.25921
 Alpha virt. eigenvalues --    0.04193   0.04977   0.05403   0.05478   0.05787
 Alpha virt. eigenvalues --    0.06020   0.06802   0.07270   0.07698   0.09149
 Alpha virt. eigenvalues --    0.10684   0.11207   0.11513   0.12755   0.13309

 Mulliken charges:
               1
     1  C   -3.357890
     2  C   -3.156027
     3  N   -2.389377
     4  C   -3.053050
     5  C    3.894611
     6  C   -0.329401
     7  O   -3.557668
     8  H    1.078867
     9  H    1.287021
    10  H    1.386824
    11  H    1.675237
    12  H    1.455229
    13  H    1.362740
    14  H    1.218620
    15  H   -0.504581
    16  H    1.446526
    17  H    0.395146
    18  H    1.147172
 Sum of Mulliken charges =   0.00000

 Dipole moment (field-independent basis, Debye):
    X=              0.7803    Y=              0.1780    Z=              0.5020  Tot=              0.9447

 Test job not archived.
 1\1\GINC-SE041\SP\RHF\Aug-CC-pVDZ\C5H11N1O1\OHZDE\09-Apr-2025\0\\#t hf
  aug-cc-pvdz iop(5/13=1,5/36=2,99/5=2) pseudo=read geom=check guess=(r
 ead,tcheck) scf=(maxcycle=1)\\title\\0,1\C,0,-1.88049687,-0.69342332,-
 0.68064189\C,0,-1.32597029,0.0387436,0.52627461\N,0,-0.13524914,-0.627
 00701,1.0521887\C,0,0.82952135,0.23203388,1.77383238\C,0,1.10089388,-0
 .32179285,0.46825442\C,0,1.85348966,-0.54276577,-0.58738673\O,0,1.4942
 3899,-1.28359786,-1.67607563\H,0,-2.83488245,-0.26238262,-0.98651739\H
 ,0,-2.04042769,-1.74864443,-0.45118491\H,0,-1.20292704,-0.61384084,-1.

 Normal termination of Gaussian 16 at Wed Apr  9 19:26:29 2025.
