 Gaussian 16, Revision C.01,

 ----------------------------------------------------------------------
 #t hf aug-cc-pvdz symm=none int=(grid=ultrafine) guess=(read,tcheck) s
 table=(opt,rrhf)
 ----------------------------------------------------------------------
 -----
 title
 -----
 Symbolic Z-matrix:
 Charge =  0 Multiplicity = 1

 SCF Done:  E(RHF) =  -344.889327385     A.U. after   13 cycles

 1\1\GINC-SE069\Stability\RHF\Aug-CC-pVDZ\C5H10O2\OHZDE\09-Apr-2025\0\\
 #t hf aug-cc-pvdz symm=none int=(grid=ultrafine) guess=(read,tcheck) s
 table=(opt,rrhf)\\title\\0,1\C,0,2.15460571,0.46188527,-1.73439776\C,0
 ,1.15882317,-0.13393759,-1.09812745\C,0,0.44396349,-0.28066819,2.04260
 415\O,0,-0.75793349,0.1535602,1.44813019\C,0,-0.89175326,-0.16967944,0
 .10514988\C,0,-2.27504638,0.23573323,-0.33479304\O,0,0.05256512,0.5287
 4848,-0.68965577\H,0,3.00567573,-0.12037468,-2.05529199\H,0,1.31109659
 ,0.24383725,1.63091325\H,0,2.13417342,1.52252598,-1.94700999\H,0,1.168

 Normal termination of Gaussian 16 at Wed Apr  9 03:34:31 2025.
 Gaussian 16:  ES64L-G16RevC.01  3-Jul-2019

 ----------------------------------------------------------------------
 #t hf aug-cc-pvdz iop(5/13=1,5/36=2,99/5=2) pseudo=read geom=check gue
 ss=(read,tcheck) scf=(maxcycle=1)
 ----------------------------------------------------------------------
 -----
 title
 -----
 Structure from the checkpoint file:  "Grambow2020_wb97xd3_007111_reverse_mol2.chk"
 Charge =  0 Multiplicity = 1

                         Standard orientation:
 ---------------------------------------------------------------------
 Center     Atomic      Atomic             Coordinates (Angstroms)
 Number     Number       Type             X           Y           Z
 ---------------------------------------------------------------------
      1          6           0        2.818476   -0.035429   -0.170827
      2          6           0        1.603335   -0.070179    0.352291
      3          6           0       -0.908262    1.920644   -0.001620
      4          8           0       -1.450805    0.649106   -0.276117
      5          6           0       -0.748282   -0.413515    0.274597
      6          6           0       -1.530400   -1.674422    0.010376
      7          8           0        0.531860   -0.548753   -0.320552
      8          1           0        3.641754    0.339179    0.419259
      9          1           0        0.062275    2.059308   -0.486744
     10          1           0        3.009197   -0.380201   -1.178467
     11          1           0        1.400820    0.271947    1.365913
     12          1           0       -1.609885    2.655990   -0.390915
     13          1           0       -0.792292    2.076353    1.078994
     14          1           0       -0.602875   -0.243395    1.354422
     15          1           0       -1.629647   -1.817209   -1.065602
     16          1           0       -1.013406   -2.533133    0.437064
     17          1           0       -2.523593   -1.594252    0.450522
 ---------------------------------------------------------------------

 SCF Done:  E(RHF) =  -346.475023765     A.U. after    2 cycles

 The electronic state is 1-A.
 Alpha  occ. eigenvalues --  -21.06902 -21.05192 -11.48238 -11.45005 -11.40679
 Alpha  occ. eigenvalues --  -11.37253 -11.36597  -1.84353  -1.71734  -1.14929
 Alpha  occ. eigenvalues --   -1.07847  -0.98327  -0.86674  -0.82495  -0.67931
 Alpha  occ. eigenvalues --   -0.65482  -0.64412  -0.60096  -0.58504  -0.55714
 Alpha  occ. eigenvalues --   -0.52281  -0.51522  -0.50086  -0.45182  -0.41170
 Alpha  occ. eigenvalues --   -0.39264  -0.32027  -0.26141
 Alpha virt. eigenvalues --    0.04068   0.04894   0.05100   0.05377   0.05667
 Alpha virt. eigenvalues --    0.06028   0.06520   0.06996   0.07735   0.08610
 Alpha virt. eigenvalues --    0.11812   0.12347   0.13300   0.13738   0.14251

 Mulliken charges:
               1
     1  C   -3.475313
     2  C    1.209509
     3  C   -3.082733
     4  O   -3.279048
     5  C    2.140320
     6  C   -3.941401
     7  O   -3.750477
     8  H    1.308731
     9  H    1.437241
    10  H    1.489084
    11  H    1.679300
    12  H    1.261364
    13  H    1.343982
    14  H    1.899917
    15  H    1.304660
    16  H    1.251431
    17  H    1.203433
 Sum of Mulliken charges =   0.00000

 Dipole moment (field-independent basis, Debye):
    X=             -1.0020    Y=              0.2474    Z=              0.6400  Tot=              1.2144

 Test job not archived.
 1\1\GINC-SE069\SP\RHF\Aug-CC-pVDZ\C5H10O2\OHZDE\09-Apr-2025\0\\#t hf a
 ug-cc-pvdz iop(5/13=1,5/36=2,99/5=2) pseudo=read geom=check guess=(rea
 d,tcheck) scf=(maxcycle=1)\\title\\0,1\C,0,2.15460571,0.46188527,-1.73
 439776\C,0,1.15882317,-0.13393759,-1.09812745\C,0,0.44396349,-0.280668
 19,2.04260415\O,0,-0.75793349,0.1535602,1.44813019\C,0,-0.89175326,-0.
 16967944,0.10514988\C,0,-2.27504638,0.23573323,-0.33479304\O,0,0.05256
 512,0.52874848,-0.68965577\H,0,3.00567573,-0.12037468,-2.05529199\H,0,
 1.31109659,0.24383725,1.63091325\H,0,2.13417342,1.52252598,-1.94700999

 Normal termination of Gaussian 16 at Wed Apr  9 03:34:37 2025.
