 Gaussian 16, Revision C.01,

 ----------------------------------------------------------------------
 #t hf aug-cc-pvdz symm=none int=(grid=ultrafine) guess=(read,tcheck) s
 table=(opt,rrhf)
 ----------------------------------------------------------------------
 -----
 title
 -----
 Symbolic Z-matrix:
 Charge =  0 Multiplicity = 1

 SCF Done:  E(RHF) =  -323.756406988     A.U. after   15 cycles
 Normal termination of Gaussian 16 at Wed Apr  9 19:25:19 2025.
 Gaussian 16:  ES64L-G16RevC.01  3-Jul-2019

 ----------------------------------------------------------------------
 #t hf aug-cc-pvdz iop(5/13=1,5/36=2,99/5=2) pseudo=read geom=check gue
 ss=(read,tcheck) scf=(maxcycle=1)
 ----------------------------------------------------------------------
 -----
 title
 -----
 Structure from the checkpoint file:  "Grambow2020_wb97xd3_008931_forward_mol1.chk"
 Charge =  0 Multiplicity = 1

                         Standard orientation:
 ---------------------------------------------------------------------
 Center     Atomic      Atomic             Coordinates (Angstroms)
 Number     Number       Type             X           Y           Z
 ---------------------------------------------------------------------
      1          6           0        2.255846   -0.194584    0.551725
      2          6           0        1.108876   -0.274871   -0.435314
      3          6           0        0.017069   -1.345605   -0.227645
      4          7           0       -1.022115   -0.280713   -0.246805
      5          6           0       -2.418557   -0.196409    0.462953
      6          6           0       -0.011768    0.746304   -0.250964
      7          8           0       -0.101421    1.913321   -0.076355
      8          1           0        1.891819   -0.209585    1.580567
      9          1           0        2.815821    0.729395    0.406610
     10          1           0        2.939551   -1.033867    0.417586
     11          1           0        1.473605   -0.249690   -1.465028
     12          1           0       -0.113307   -2.091372   -1.008111
     13          1           0        0.038194   -1.819676    0.754863
     14          1           0       -1.829830   -0.113166   -0.947093
     15          1           0       -2.698743   -1.245283    0.565257
     16          1           0       -2.259738    0.282657    1.429301
 ---------------------------------------------------------------------

 SCF Done:  E(RHF) =  -325.270412860     A.U. after    2 cycles

 The electronic state is 1-A.
 Alpha  occ. eigenvalues --  -21.08627 -15.79572 -11.54122 -11.50019 -11.43161
 Alpha  occ. eigenvalues --  -11.40281 -11.32832  -1.75334  -1.51759  -1.22013
 Alpha  occ. eigenvalues --   -1.06247  -0.97033  -0.88744  -0.78887  -0.67562
 Alpha  occ. eigenvalues --   -0.66900  -0.65445  -0.62521  -0.57497  -0.54806
 Alpha  occ. eigenvalues --   -0.52946  -0.51152  -0.48600  -0.47089  -0.40842
 Alpha  occ. eigenvalues --   -0.31707  -0.25599
 Alpha virt. eigenvalues --    0.02530   0.04463   0.04630   0.05143   0.05481
 Alpha virt. eigenvalues --    0.05803   0.06946   0.07177   0.08547   0.10303
 Alpha virt. eigenvalues --    0.10968   0.12064   0.12449   0.12642   0.13092

 Mulliken charges:
               1
     1  C   -4.018149
     2  C   -2.539919
     3  C   -2.377518
     4  N   -2.479706
     5  C   -2.836278
     6  C    5.558135
     7  O   -3.377244
     8  H    1.255476
     9  H    1.229994
    10  H    1.232239
    11  H    1.425518
    12  H    1.427648
    13  H    1.676104
    14  H    1.217271
    15  H    1.211727
    16  H    1.394702
 Sum of Mulliken charges =   0.00000

 Dipole moment (field-independent basis, Debye):
    X=              4.5214    Y=             -2.3396    Z=             -0.9811  Tot=              5.1846

 Test job not archived.
 1\1\GINC-SE226\SP\RHF\Aug-CC-pVDZ\C5H9N1O1\OHZDE\09-Apr-2025\0\\#t hf
 aug-cc-pvdz iop(5/13=1,5/36=2,99/5=2) pseudo=read geom=check guess=(re
 ad,tcheck) scf=(maxcycle=1)\\title\\0,1\C,0,2.12818901,-0.44763949,0.1
 8976309\C,0,0.99080134,0.51155019,-0.09753355\C,0,-0.13661285,0.069609
 59,-1.05422905\N,0,-1.14135703,0.36780436,0.00210214\C,0,-2.54259289,-
 0.27327608,0.29615645\C,0,-0.09910214,0.60330304,0.96844878\O,0,-0.153
 8791,0.72052111,2.14476182\H,0,1.75193941,-1.44192991,0.43690291\H,0,2
 .71871128,-0.09206944,1.03428749\H,0,2.78656149,-0.53538948,-0.6755034

 Normal termination of Gaussian 16 at Wed Apr  9 19:25:25 2025.
