 Gaussian 16, Revision C.01,

 ----------------------------------------------------------------------
 #t hf aug-cc-pvdz symm=none int=(grid=ultrafine) guess=(read,tcheck) s
 table=(opt,rrhf)
 ----------------------------------------------------------------------
 -----
 title
 -----
 Symbolic Z-matrix:
 Charge =  0 Multiplicity = 1

 SCF Done:  E(RHF) =  -360.886427467     A.U. after   14 cycles
 Normal termination of Gaussian 16 at Wed Apr  9 03:58:44 2025.
 Gaussian 16:  ES64L-G16RevC.01  3-Jul-2019

 ----------------------------------------------------------------------
 #t hf aug-cc-pvdz iop(5/13=1,5/36=2,99/5=2) pseudo=read geom=check gue
 ss=(read,tcheck) scf=(maxcycle=1)
 ----------------------------------------------------------------------
 -----
 title
 -----
 Structure from the checkpoint file:  "Grambow2020_wb97xd3_008734_reverse_mol2.chk"
 Charge =  0 Multiplicity = 1

                         Standard orientation:
 ---------------------------------------------------------------------
 Center     Atomic      Atomic             Coordinates (Angstroms)
 Number     Number       Type             X           Y           Z
 ---------------------------------------------------------------------
      1          6           0        2.720466   -0.482511   -0.019838
      2          6           0        1.356963    0.093706    0.331389
      3          8           0        1.175696    1.381059   -0.230871
      4          6           0        0.247153   -0.783633   -0.204836
      5          6           0       -1.979603   -0.165804   -0.543720
      6          8           0       -1.002975   -0.378301    0.335112
      7          7           0       -3.052576    0.217422    0.133825
      8          1           0        2.825517   -0.582412   -1.102083
      9          1           0        2.867340   -1.462014    0.439996
     10          1           0        3.515815    0.175327    0.336559
     11          1           0        1.248077    0.144910    1.423630
     12          1           0        1.784999    1.990519    0.188023
     13          1           0        0.199024   -0.717356   -1.293578
     14          1           0        0.422663   -1.821231    0.091842
     15          1           0       -3.057210    0.328758    1.140804
     16          1           0       -3.889831    0.428938   -0.373861
 ---------------------------------------------------------------------

 SCF Done:  E(RHF) =  -362.522045245     A.U. after    2 cycles

 The electronic state is 1-A.
 Alpha  occ. eigenvalues --  -21.06952 -21.06376 -15.77050 -11.46346 -11.41572
 Alpha  occ. eigenvalues --  -11.39682 -11.36849  -1.80486  -1.70867  -1.33715
 Alpha  occ. eigenvalues --   -1.15360  -0.99856  -0.84736  -0.80053  -0.69848
 Alpha  occ. eigenvalues --   -0.69123  -0.63076  -0.59823  -0.58419  -0.53628
 Alpha  occ. eigenvalues --   -0.51856  -0.49294  -0.46944  -0.45439  -0.39957
 Alpha  occ. eigenvalues --   -0.32581  -0.31456  -0.30498
 Alpha virt. eigenvalues --    0.03897   0.04668   0.05409   0.05528   0.05809
 Alpha virt. eigenvalues --    0.05950   0.07190   0.07750   0.09174   0.10726
 Alpha virt. eigenvalues --    0.12267   0.13522   0.13872   0.14669   0.15062

 Mulliken charges:
               1
     1  C   -3.679195
     2  C    0.638312
     3  O   -2.973879
     4  C   -0.935985
     5  C    1.280480
     6  O   -2.760129
     7  N   -2.504352
     8  H    1.152281
     9  H    1.256726
    10  H    1.142453
    11  H    1.768899
    12  H    0.719756
    13  H    1.887517
    14  H    1.480427
    15  H    0.654567
    16  H    0.872124
 Sum of Mulliken charges =  -0.00000

 Dipole moment (field-independent basis, Debye):
    X=              0.1184    Y=              0.4296    Z=              2.5232  Tot=              2.5623

 Test job not archived.
 1\1\GINC-SE334\SP\RHF\Aug-CC-pVDZ\C4H9N1O2\OHZDE\09-Apr-2025\0\\#t hf
 aug-cc-pvdz iop(5/13=1,5/36=2,99/5=2) pseudo=read geom=check guess=(re
 ad,tcheck) scf=(maxcycle=1)\\title\\0,1\C,0,-2.31175786,-0.41190498,-0
 .86379854\C,0,-0.89288526,0.13620424,-0.89383093\O,0,-0.84940284,1.490
 29152,-0.48051649\C,0,0.00485714,-0.64153061,0.04325285\C,0,2.06067436
 ,0.05559978,0.90500899\O,0,1.36406333,-0.2900342,-0.17507189\N,0,3.287
 76584,0.36361144,0.50931281\H,0,-2.7167833,-0.36777618,0.14925434\H,0,
 -2.34449651,-1.44663462,-1.21123201\H,0,-2.96231673,0.1780203,-1.51272

 Normal termination of Gaussian 16 at Wed Apr  9 03:58:49 2025.
