 Gaussian 16, Revision C.01,

 ----------------------------------------------------------------------
 #t hf aug-cc-pvdz symm=none int=(grid=ultrafine) guess=(read,tcheck) s
 table=(opt,rrhf)
 ----------------------------------------------------------------------
 -----
 title
 -----
 Symbolic Z-matrix:
 Charge =  0 Multiplicity = 1

 SCF Done:  E(RHF) =  -283.680539411     A.U. after   16 cycles
 Normal termination of Gaussian 16 at Wed Apr  9 17:53:40 2025.
 Gaussian 16:  ES64L-G16RevC.01  3-Jul-2019

 ----------------------------------------------------------------------
 #t hf aug-cc-pvdz iop(5/13=1,5/36=2,99/5=2) pseudo=read geom=check gue
 ss=(read,tcheck) scf=(maxcycle=1)
 ----------------------------------------------------------------------
 -----
 title
 -----
 Structure from the checkpoint file:  "Grambow2020_wb97xd3_006231_reverse_mol2.chk"
 Charge =  0 Multiplicity = 1

                         Standard orientation:
 ---------------------------------------------------------------------
 Center     Atomic      Atomic             Coordinates (Angstroms)
 Number     Number       Type             X           Y           Z
 ---------------------------------------------------------------------
      1          8           0        2.159671   -0.782765   -0.226602
      2          6           0        1.426977    0.083797    0.006506
      3          6           0        0.598124    1.062515    0.292376
      4          6           0       -0.808500    1.112930   -0.132973
      5          6           0       -1.640365    0.069031   -0.180714
      6          7           0       -1.327341   -1.243805    0.130456
      7          1           0        1.046289    1.891132    0.827968
      8          1           0       -0.542051   -1.368301    0.751639
      9          1           0       -1.187212    2.080043   -0.434882
     10          1           0       -2.651368    0.217919   -0.541778
     11          1           0       -2.109047   -1.821676    0.385510
 ---------------------------------------------------------------------

 SCF Done:  E(RHF) =  -284.962473995     A.U. after    2 cycles

 The electronic state is 1-A.
 Alpha  occ. eigenvalues --  -21.13239 -15.76216 -11.53739 -11.44798 -11.41860
 Alpha  occ. eigenvalues --  -11.37579  -1.76945  -1.37777  -1.18494  -1.02685
 Alpha  occ. eigenvalues --   -0.82975  -0.72908  -0.68765  -0.63164  -0.59303
 Alpha  occ. eigenvalues --   -0.56881  -0.54887  -0.52542  -0.48088  -0.45450
 Alpha  occ. eigenvalues --   -0.34202  -0.24294
 Alpha virt. eigenvalues --    0.03148   0.05171   0.05498   0.05724   0.07586
 Alpha virt. eigenvalues --    0.09600   0.11299   0.11826   0.12694   0.13343
 Alpha virt. eigenvalues --    0.13691   0.14116   0.14873   0.15368   0.15537

 Mulliken charges:
               1
     1  O   -2.451925
     2  C    1.790887
     3  C   -0.726995
     4  C   -0.479091
     5  C   -0.400747
     6  N   -2.918061
     7  H    1.275970
     8  H    0.556318
     9  H    1.230110
    10  H    1.497155
    11  H    0.626379
 Sum of Mulliken charges =   0.00000

 Dipole moment (field-independent basis, Debye):
    X=             -0.5282    Y=             -1.0363    Z=              0.6853  Tot=              1.3500

 Test job not archived.
 1\1\GINC-SE219\SP\RHF\Aug-CC-pVDZ\C4H5N1O1\OHZDE\09-Apr-2025\0\\#t hf
 aug-cc-pvdz iop(5/13=1,5/36=2,99/5=2) pseudo=read geom=check guess=(re
 ad,tcheck) scf=(maxcycle=1)\\title\\0,1\O,0,-1.83680108,1.88301662,-0.
 89761786\C,0,-1.51104064,0.77551339,-0.80052473\C,0,-1.15401562,-0.482
 54954,-0.67239196\C,0,0.22707571,-0.93771976,-0.4545371\C,0,1.13004372
 ,-0.3278921,0.31796566\N,0,0.94342781,0.84806455,1.02553098\H,0,-1.959
 47813,-1.19554608,-0.80347614\H,0,-0.01394359,1.0724785,1.25164388\H,0
 ,0.52575428,-1.83899692,-0.97258167\H,0,2.13168857,-0.73717661,0.38006

 Normal termination of Gaussian 16 at Wed Apr  9 17:53:43 2025.
