 Gaussian 16, Revision C.01,

 ----------------------------------------------------------------------
 #t hf aug-cc-pvdz symm=none int=(grid=ultrafine) guess=(read,tcheck) s
 table=(opt,rrhf)
 ----------------------------------------------------------------------
 -----
 title
 -----
 Symbolic Z-matrix:
 Charge =  0 Multiplicity = 1

 SCF Done:  E(RHF) =  -269.909331641     A.U. after   16 cycles

 1\1\GINC-SE162\Stability\RHF\Aug-CC-pVDZ\C5H10O1\OHZDE\09-Apr-2025\0\\
 #t hf aug-cc-pvdz symm=none int=(grid=ultrafine) guess=(read,tcheck) s
 table=(opt,rrhf)\\title\\0,1\C,0,2.39598802,0.00324299,-0.11250694\C,0
 ,0.99768596,0.43609014,-0.53127424\C,0,-0.09502431,-0.58752781,0.22785
 394\O,0,0.08681348,-0.66519827,1.50351914\C,0,-1.36275967,-0.19356501,
 -0.37099404\C,0,-2.44974836,0.23546836,0.51650103\H,0,3.13018108,0.763
 66562,-0.41879871\H,0,2.42892987,-0.11578984,0.97645711\H,0,2.6723879,
 -0.95393428,-0.57699142\H,0,0.85967792,0.40794173,-1.61968726\H,0,0.76

 Normal termination of Gaussian 16 at Wed Apr  9 16:12:04 2025.
 Gaussian 16:  ES64L-G16RevC.01  3-Jul-2019

 ----------------------------------------------------------------------
 #t hf aug-cc-pvdz iop(5/13=1,5/36=2,99/5=2) pseudo=read geom=check gue
 ss=(read,tcheck) scf=(maxcycle=1)
 ----------------------------------------------------------------------
 -----
 title
 -----
 Structure from the checkpoint file:  "Grambow2020_b97d3_006743_forward_mol1.chk"
 Charge =  0 Multiplicity = 1

                         Standard orientation:
 ---------------------------------------------------------------------
 Center     Atomic      Atomic             Coordinates (Angstroms)
 Number     Number       Type             X           Y           Z
 ---------------------------------------------------------------------
      1          6           0        2.455405   -0.039734   -0.102049
      2          6           0        1.121176   -0.755494   -0.261709
      3          6           0       -0.059082    0.219348    0.427318
      4          8           0       -0.039126    1.430341   -0.019357
      5          6           0       -1.241170   -0.629295    0.368572
      6          6           0       -2.430785   -0.121008   -0.324047
      7          1           0        3.222858   -0.538833   -0.712796
      8          1           0        2.351088    1.001100   -0.428972
      9          1           0        2.787279   -0.045069    0.945883
     10          1           0        1.121079   -1.748803    0.205002
     11          1           0        0.843077   -0.852635   -1.317506
     12          1           0        0.288067    0.081297    1.502268
     13          1           0       -1.222932   -1.617169    0.834227
     14          1           0       -2.100019    0.332689   -1.278878
     15          1           0       -3.230789   -0.852900   -0.475066
     16          1           0       -2.819954    0.754701    0.232183
 ---------------------------------------------------------------------

 SCF Done:  E(RHF) =  -271.208398221     A.U. after    2 cycles

 The electronic state is 1-A.
 Alpha  occ. eigenvalues --  -20.92049 -11.53086 -11.43271 -11.42678 -11.40226
 Alpha  occ. eigenvalues --  -11.35424  -1.59345  -1.23106  -1.13938  -0.99689
 Alpha  occ. eigenvalues --   -0.86904  -0.77960  -0.69349  -0.62362  -0.59738
 Alpha  occ. eigenvalues --   -0.58104  -0.56685  -0.53879  -0.48711  -0.47320
 Alpha  occ. eigenvalues --   -0.45451  -0.39680  -0.22079  -0.20892
 Alpha virt. eigenvalues --    0.02237   0.02926   0.04302   0.05000   0.05650
 Alpha virt. eigenvalues --    0.05972   0.06358   0.06525   0.07809   0.08778
 Alpha virt. eigenvalues --    0.09481   0.10823   0.12161   0.13034   0.13751

 Mulliken charges:
               1
     1  C   -3.633861
     2  C   -2.866134
     3  C    1.615918
     4  O   -3.080645
     5  C   -1.474620
     6  C   -3.837280
     7  H    1.092749
     8  H    1.329447
     9  H    1.245837
    10  H    1.413228
    11  H    1.384529
    12  H    1.470870
    13  H    1.545776
    14  H    1.256575
    15  H    1.305357
    16  H    1.232256
 Sum of Mulliken charges =   0.00000

 Dipole moment (field-independent basis, Debye):
    X=             -2.1795    Y=             -3.5426    Z=              0.2189  Tot=              4.1651

 Test job not archived.
 1\1\GINC-SE162\SP\RHF\Aug-CC-pVDZ\C5H10O1\OHZDE\09-Apr-2025\0\\#t hf a
 ug-cc-pvdz iop(5/13=1,5/36=2,99/5=2) pseudo=read geom=check guess=(rea
 d,tcheck) scf=(maxcycle=1)\\title\\0,1\C,0,2.39598802,0.00324299,-0.11
 250694\C,0,0.99768596,0.43609014,-0.53127424\C,0,-0.09502431,-0.587527
 81,0.22785394\O,0,0.08681348,-0.66519827,1.50351914\C,0,-1.36275967,-0
 .19356501,-0.37099404\C,0,-2.44974836,0.23546836,0.51650103\H,0,3.1301
 8108,0.76366562,-0.41879871\H,0,2.42892987,-0.11578984,0.97645711\H,0,
 2.6723879,-0.95393428,-0.57699142\H,0,0.85967792,0.40794173,-1.6196872

 Normal termination of Gaussian 16 at Wed Apr  9 16:12:08 2025.
