 Gaussian 16, Revision C.01,

 ----------------------------------------------------------------------
 #t hf aug-cc-pvdz symm=none int=(grid=ultrafine) guess=(read,tcheck) s
 table=(opt,rrhf)
 ----------------------------------------------------------------------
 -----
 title
 -----
 Symbolic Z-matrix:
 Charge =  0 Multiplicity = 1

 SCF Done:  E(RHF) =  -375.602970634     A.U. after   15 cycles
 Normal termination of Gaussian 16 at Wed Apr  9 18:56:42 2025.
 Gaussian 16:  ES64L-G16RevC.01  3-Jul-2019

 ----------------------------------------------------------------------
 #t hf aug-cc-pvdz iop(5/13=1,5/36=2,99/5=2) pseudo=read geom=check gue
 ss=(read,tcheck) scf=(maxcycle=1)
 ----------------------------------------------------------------------
 -----
 title
 -----
 Structure from the checkpoint file:  "Grambow2020_wb97xd3_007865_forward_mol1.chk"
 Charge =  0 Multiplicity = 1

                         Standard orientation:
 ---------------------------------------------------------------------
 Center     Atomic      Atomic             Coordinates (Angstroms)
 Number     Number       Type             X           Y           Z
 ---------------------------------------------------------------------
      1          7           0        2.169262   -0.580212   -0.223164
      2          6           0        0.913641   -0.165170   -0.035457
      3          8           0        0.088373   -0.896087    0.677622
      4          6           0        0.540314    1.303139    0.050978
      5          8           0       -0.856299    1.187897    0.126216
      6          6           0       -1.098372   -0.139556   -0.175940
      7          7           0       -2.244566   -0.636801   -0.266025
      8          1           0        2.358965   -1.565554   -0.170590
      9          1           0        2.838456    0.007900   -0.685234
     10          1           0        0.864331    1.889842   -0.812653
     11          1           0        0.925469    1.734830    0.979017
     12          1           0       -0.178533   -0.232031   -1.179514
     13          1           0       -2.271654   -1.640858   -0.174897
 ---------------------------------------------------------------------

 SCF Done:  E(RHF) =  -377.306718644     A.U. after    2 cycles

 The electronic state is 1-A.
 Alpha  occ. eigenvalues --  -21.08430 -21.06490 -15.83250 -15.68402 -11.57948
 Alpha  occ. eigenvalues --  -11.53272 -11.45854  -1.89636  -1.71698  -1.40844
 Alpha  occ. eigenvalues --   -1.28681  -1.07789  -0.91087  -0.84584  -0.75773
 Alpha  occ. eigenvalues --   -0.71887  -0.70854  -0.61394  -0.59619  -0.53803
 Alpha  occ. eigenvalues --   -0.51262  -0.47715  -0.43831  -0.35717  -0.34454
 Alpha  occ. eigenvalues --   -0.31771  -0.27770
 Alpha virt. eigenvalues --    0.02174   0.04099   0.04756   0.05342   0.06393
 Alpha virt. eigenvalues --    0.07037   0.10268   0.10870   0.11953   0.12112
 Alpha virt. eigenvalues --    0.13032   0.13287   0.15022   0.15167   0.16346

 Mulliken charges:
               1
     1  N   -2.872086
     2  C    2.909929
     3  O   -2.765061
     4  C   -0.734706
     5  O   -3.114101
     6  C    4.713182
     7  N   -3.325880
     8  H    0.631393
     9  H    0.662552
    10  H    1.371780
    11  H    1.359676
    12  H    0.657795
    13  H    0.505527
 Sum of Mulliken charges =  -0.00000

 Dipole moment (field-independent basis, Debye):
    X=              6.4575    Y=             -0.2250    Z=              0.0884  Tot=              6.4620

 Test job not archived.
 1\1\GINC-SE116\SP\RHF\Aug-CC-pVDZ\C3H6N2O2\OHZDE\09-Apr-2025\0\\#t hf
 aug-cc-pvdz iop(5/13=1,5/36=2,99/5=2) pseudo=read geom=check guess=(re
 ad,tcheck) scf=(maxcycle=1)\\title\\0,1\N,0,-1.97552433,0.14496125,-0.
 39323121\C,0,-0.69951949,0.09418765,-0.0016817\O,0,-0.06643358,1.20603
 856,0.29290294\C,0,-0.12971966,-1.07147702,0.7852926\O,0,1.2203677,-0.
 69075009,0.82748784\C,0,1.2988398,0.36027174,-0.06762365\N,0,2.3646240
 7,0.95047864,-0.35898127\H,0,-2.30949725,0.98963624,-0.82292524\H,0,-2
 .50157569,-0.6983196,-0.53234154\H,0,-0.27465845,-2.04065374,0.3007780

 Normal termination of Gaussian 16 at Wed Apr  9 18:56:46 2025.
