 Gaussian 16, Revision C.01,

 ----------------------------------------------------------------------
 #t hf aug-cc-pvdz symm=none int=(grid=ultrafine) guess=(read,tcheck) s
 table=(opt,rrhf)
 ----------------------------------------------------------------------
 -----
 title
 -----
 Symbolic Z-matrix:
 Charge =  0 Multiplicity = 1

 SCF Done:  E(RHF) =  -279.767415573     A.U. after   16 cycles
 Normal termination of Gaussian 16 at Wed Apr  9 17:10:06 2025.
 Gaussian 16:  ES64L-G16RevC.01  3-Jul-2019

 ----------------------------------------------------------------------
 #t hf aug-cc-pvdz iop(5/13=1,5/36=2,99/5=2) pseudo=read geom=check gue
 ss=(read,tcheck) scf=(maxcycle=1)
 ----------------------------------------------------------------------
 -----
 title
 -----
 Structure from the checkpoint file:  "Grambow2020_b97d3_007061_reverse_mol2.chk"
 Charge =  0 Multiplicity = 1

                         Standard orientation:
 ---------------------------------------------------------------------
 Center     Atomic      Atomic             Coordinates (Angstroms)
 Number     Number       Type             X           Y           Z
 ---------------------------------------------------------------------
      1          7           0        2.394350    0.612594   -0.232153
      2          6           0        1.517408   -0.235918    0.451181
      3          6           0        0.370746   -0.725313   -0.002894
      4          6           0       -0.904585   -0.977809   -0.253605
      5          7           0       -1.999409   -0.111265    0.082947
      6          7           0       -1.741613    1.118329    0.005784
      7          1           0        2.165879    0.730988   -1.216800
      8          1           0        3.379327    0.387931   -0.104076
      9          1           0        1.839753   -0.482771    1.467355
     10          1           0       -1.251536   -1.937163   -0.647143
     11          1           0       -2.608138    1.597646    0.336519
 ---------------------------------------------------------------------

 SCF Done:  E(RHF) =  -281.046232624     A.U. after    2 cycles

 The electronic state is 1-A.
 Alpha  occ. eigenvalues --  -15.79856 -15.79125 -15.76888 -11.47003 -11.43827
 Alpha  occ. eigenvalues --  -11.39627  -1.51873  -1.36813  -1.15341  -1.02263
 Alpha  occ. eigenvalues --   -0.87910  -0.74794  -0.69152  -0.64660  -0.59596
 Alpha  occ. eigenvalues --   -0.58381  -0.57344  -0.49250  -0.47229  -0.36412
 Alpha  occ. eigenvalues --   -0.33314  -0.29863
 Alpha virt. eigenvalues --    0.03506   0.05123   0.05551   0.06014   0.06655
 Alpha virt. eigenvalues --    0.09784   0.10397   0.11298   0.11991   0.12609
 Alpha virt. eigenvalues --    0.13578   0.15102   0.15802   0.16596   0.17101

 Mulliken charges:
               1
     1  N   -2.843790
     2  C   -0.346393
     3  C    2.036580
     4  C   -0.948135
     5  N   -1.154119
     6  N   -1.279989
     7  H    0.669286
     8  H    0.597429
     9  H    1.316548
    10  H    1.211334
    11  H    0.741249
 Sum of Mulliken charges =   0.00000

 Dipole moment (field-independent basis, Debye):
    X=              1.8859    Y=              0.0907    Z=             -0.0776  Tot=              1.8897

 Test job not archived.
 1\1\GINC-SE232\SP\RHF\Aug-CC-pVDZ\C3H5N3\OHZDE\09-Apr-2025\0\\#t hf au
 g-cc-pvdz iop(5/13=1,5/36=2,99/5=2) pseudo=read geom=check guess=(read
 ,tcheck) scf=(maxcycle=1)\\title\\0,1\N,0,-2.08236231,-0.72205793,0.10
 47498\C,0,-0.90831255,-0.71961508,-0.65521546\C,0,0.33180154,-0.594399
 16,-0.20028282\C,0,1.53589373,-0.1561649,0.13317407\N,0,1.93529312,1.2
 2323953,0.15618022\N,0,1.03163667,2.02810883,0.50245164\H,0,-1.9206183
 4,-0.77015556,1.10837955\H,0,-2.77266264,-1.40886925,-0.19329843\H,0,-
 1.07618955,-0.81603092,-1.73223533\H,0,2.37969462,-0.82686013,0.316951

 Normal termination of Gaussian 16 at Wed Apr  9 17:10:09 2025.
