 Gaussian 16, Revision C.01,

 ----------------------------------------------------------------------
 #t hf aug-cc-pvdz symm=none int=(grid=ultrafine) guess=(read,tcheck) s
 table=(opt,rrhf)
 ----------------------------------------------------------------------
 -----
 title
 -----
 Symbolic Z-matrix:
 Charge =  0 Multiplicity = 1

 SCF Done:  E(RHF) =  -355.965266562     A.U. after   13 cycles
 Normal termination of Gaussian 16 at Wed Apr  9 19:28:08 2025.
 Gaussian 16:  ES64L-G16RevC.01  3-Jul-2019

 ----------------------------------------------------------------------
 #t hf aug-cc-pvdz iop(5/13=1,5/36=2,99/5=2) pseudo=read geom=check gue
 ss=(read,tcheck) scf=(maxcycle=1)
 ----------------------------------------------------------------------
 -----
 title
 -----
 Structure from the checkpoint file:  "Grambow2020_wb97xd3_008992_forward_mol2.chk"
 Charge =  0 Multiplicity = 1

                         Standard orientation:
 ---------------------------------------------------------------------
 Center     Atomic      Atomic             Coordinates (Angstroms)
 Number     Number       Type             X           Y           Z
 ---------------------------------------------------------------------
      1          6           0       -2.854148   -0.170399    0.036886
      2          7           0       -1.502335   -0.675547   -0.053083
      3          6           0       -0.440899    0.177081   -0.020314
      4          8           0       -0.547966    1.384666   -0.021329
      5          7           0        0.793155   -0.461083   -0.007008
      6          6           0        1.986796    0.225273    0.027395
      7          7           0        3.082454   -0.405793    0.001953
      8          1           0       -2.911311    0.772257   -0.502745
      9          1           0       -3.163877    0.007317    1.070475
     10          1           0       -3.536681   -0.883955   -0.423380
     11          1           0       -1.347476   -1.648714    0.137888
     12          1           0        0.865897   -1.462875   -0.079655
     13          1           0        1.850046    1.305252    0.075827
     14          1           0        3.863720    0.238628    0.035387
 ---------------------------------------------------------------------

 SCF Done:  E(RHF) =  -357.568140824     A.U. after    2 cycles

 The electronic state is 1-A.
 Alpha  occ. eigenvalues --  -21.02535 -15.78085 -15.77125 -15.72735 -11.51784
 Alpha  occ. eigenvalues --  -11.45167 -11.40447  -1.73429  -1.46438  -1.39714
 Alpha  occ. eigenvalues --   -1.26521  -1.02931  -0.88124  -0.82850  -0.76462
 Alpha  occ. eigenvalues --   -0.65256  -0.64521  -0.63389  -0.57546  -0.56997
 Alpha  occ. eigenvalues --   -0.54826  -0.49734  -0.47218  -0.40547  -0.34167
 Alpha  occ. eigenvalues --   -0.31565  -0.30597
 Alpha virt. eigenvalues --    0.03146   0.04807   0.05050   0.05768   0.06828
 Alpha virt. eigenvalues --    0.07305   0.08330   0.10297   0.11055   0.12675
 Alpha virt. eigenvalues --    0.13265   0.13529   0.14325   0.14649   0.15273

 Mulliken charges:
               1
     1  C   -3.774161
     2  N   -2.778618
     3  C    6.024074
     4  O   -2.937644
     5  N   -2.250593
     6  C    0.862321
     7  N   -2.881232
     8  H    1.318653
     9  H    1.298289
    10  H    1.310979
    11  H    0.768630
    12  H    0.630294
    13  H    1.785006
    14  H    0.624002
 Sum of Mulliken charges =  -0.00000

 Dipole moment (field-independent basis, Debye):
    X=             -2.0273    Y=             -1.1753    Z=              0.2585  Tot=              2.3575

 Test job not archived.
 1\1\GINC-SE014\SP\RHF\Aug-CC-pVDZ\C3H7N3O1\OHZDE\09-Apr-2025\0\\#t hf
 aug-cc-pvdz iop(5/13=1,5/36=2,99/5=2) pseudo=read geom=check guess=(re
 ad,tcheck) scf=(maxcycle=1)\\title\\0,1\C,0,2.56940005,0.16209949,0.00
 440577\N,0,1.19234761,0.25319483,0.43579255\C,0,0.17593799,-0.0023504,
 -0.43386483\O,0,0.33955229,-0.21241161,-1.61658567\N,0,-1.08398347,0.0
 191141,0.15133393\C,0,-2.23997032,-0.21665724,-0.55940675\N,0,-3.36378
 601,-0.14939518,0.01667694\H,0,2.63963885,0.52520336,-1.01847859\H,0,2
 .94637191,-0.86408233,0.03020906\H,0,3.18980986,0.78728846,0.64556761\

 Normal termination of Gaussian 16 at Wed Apr  9 19:28:12 2025.
