 Gaussian 16, Revision C.01,

 ----------------------------------------------------------------------
 #t hf aug-cc-pvdz symm=none int=(grid=ultrafine) guess=(read,tcheck) s
 table=(opt,rrhf)
 ----------------------------------------------------------------------
 -----
 title
 -----
 Symbolic Z-matrix:
 Charge =  0 Multiplicity = 1

 SCF Done:  E(RHF) =  -304.637419675     A.U. after   13 cycles
 Normal termination of Gaussian 16 at Wed Apr  9 17:56:44 2025.
 Gaussian 16:  ES64L-G16RevC.01  3-Jul-2019

 ----------------------------------------------------------------------
 #t hf aug-cc-pvdz iop(5/13=1,5/36=2,99/5=2) pseudo=read geom=check gue
 ss=(read,tcheck) scf=(maxcycle=1)
 ----------------------------------------------------------------------
 -----
 title
 -----
 Structure from the checkpoint file:  "Grambow2020_wb97xd3_006271_reverse_mol2.chk"
 Charge =  0 Multiplicity = 1

                         Standard orientation:
 ---------------------------------------------------------------------
 Center     Atomic      Atomic             Coordinates (Angstroms)
 Number     Number       Type             X           Y           Z
 ---------------------------------------------------------------------
      1          8           0        1.357097   -1.098671    0.163198
      2          6           0        2.221003   -0.089896    0.084609
      3          8           0        1.933144    1.059842   -0.084501
      4          6           0       -1.394603    0.656348   -0.185992
      5          6           0       -2.571633    0.083358    0.548448
      6          6           0       -1.846025   -0.460053   -0.646104
      7          1           0        3.248419   -0.461757    0.196939
      8          1           0       -0.687629    1.466381   -0.247695
      9          1           0       -2.429073   -0.377135    1.524176
     10          1           0       -3.552067    0.536443    0.414527
     11          1           0        0.454970   -0.745385    0.056608
     12          1           0       -1.808997   -1.246460   -1.379905
 ---------------------------------------------------------------------

 SCF Done:  E(RHF) =  -305.983269546     A.U. after    2 cycles

 The electronic state is 1-A.
 Alpha  occ. eigenvalues --  -21.12655 -21.06377 -11.51350 -11.45836 -11.43608
 Alpha  occ. eigenvalues --  -11.39372  -1.83171  -1.66182  -1.30139  -0.88912
 Alpha  occ. eigenvalues --   -0.86668  -0.80316  -0.69642  -0.66132  -0.61488
 Alpha  occ. eigenvalues --   -0.60162  -0.55181  -0.47865  -0.46447  -0.40756
 Alpha  occ. eigenvalues --   -0.35308  -0.34240  -0.31261
 Alpha virt. eigenvalues --    0.03833   0.04953   0.05263   0.06374   0.06616
 Alpha virt. eigenvalues --    0.08615   0.09530   0.10462   0.10996   0.11082
 Alpha virt. eigenvalues --    0.11950   0.12836   0.15103   0.15269   0.15827

 Mulliken charges:
               1
     1  O   -2.849737
     2  C    2.474950
     3  O   -2.537529
     4  C   -0.769742
     5  C   -2.533986
     6  C   -0.817289
     7  H    1.675477
     8  H    0.827429
     9  H    1.143251
    10  H    1.189296
    11  H    1.451104
    12  H    0.746776
 Sum of Mulliken charges =  -0.00000

 Dipole moment (field-independent basis, Debye):
    X=             -0.4491    Y=             -0.8579    Z=             -0.3252  Tot=              1.0215

 Test job not archived.
 1\1\GINC-SE229\SP\RHF\Aug-CC-pVDZ\C4H6O2\OHZDE\09-Apr-2025\0\\#t hf au
 g-cc-pvdz iop(5/13=1,5/36=2,99/5=2) pseudo=read geom=check guess=(read
 ,tcheck) scf=(maxcycle=1)\\title\\0,1\O,0,1.64474462,1.26521676,-0.065
 13115\C,0,2.64003534,0.38927041,0.04555583\O,0,2.51293701,-0.78919934,
 0.21411819\C,0,-0.83994688,-0.86111302,0.21577211\C,0,-2.06380335,-0.4
 6269095,-0.55659789\C,0,-1.45840384,0.18127822,0.65482799\H,0,3.607344
 21,0.90268013,-0.03933331\H,0,-0.02757101,-1.56260938,0.3036375\H,0,-1
 .9588283,0.01073322,-1.5309037\H,0,-2.97376961,-1.04978714,-0.44819801

 Normal termination of Gaussian 16 at Wed Apr  9 17:56:47 2025.
