 Gaussian 16, Revision C.01,

 ----------------------------------------------------------------------
 #t hf aug-cc-pvdz symm=none int=(grid=ultrafine) guess=(read,tcheck) s
 table=(opt,rrhf)
 ----------------------------------------------------------------------
 -----
 title
 -----
 Symbolic Z-matrix:
 Charge =  0 Multiplicity = 1

 SCF Done:  E(RHF) =  -342.432066046     A.U. after   17 cycles
 Normal termination of Gaussian 16 at Wed Apr  9 03:59:40 2025.
 Gaussian 16:  ES64L-G16RevC.01  3-Jul-2019

 ----------------------------------------------------------------------
 #t hf aug-cc-pvdz iop(5/13=1,5/36=2,99/5=2) pseudo=read geom=check gue
 ss=(read,tcheck) scf=(maxcycle=1)
 ----------------------------------------------------------------------
 -----
 title
 -----
 Structure from the checkpoint file:  "Grambow2020_wb97xd3_008766_reverse_mol2.chk"
 Charge =  0 Multiplicity = 1

                         Standard orientation:
 ---------------------------------------------------------------------
 Center     Atomic      Atomic             Coordinates (Angstroms)
 Number     Number       Type             X           Y           Z
 ---------------------------------------------------------------------
      1          8           0       -2.705588    0.475300    0.161746
      2          6           0       -1.680314    0.289713   -0.415459
      3          6           0       -0.556557   -0.592374    0.127021
      4          8           0        0.515440   -0.794006   -0.793040
      5          6           0        1.392950   -0.316481    0.256369
      6          6           0        2.296757    0.822178   -0.166951
      7          6           0        0.286100   -0.005765    1.215887
      8          1           0       -1.444637    0.735828   -1.401560
      9          1           0       -1.014935   -1.525126    0.490143
     10          1           0        1.982754   -1.145962    0.677355
     11          1           0        2.909055    1.137607    0.677577
     12          1           0        2.943400    0.489866   -0.979089
     13          1           0        1.711936    1.673817   -0.515277
 ---------------------------------------------------------------------

 SCF Done:  E(RHF) =  -343.925111851     A.U. after    2 cycles

 The electronic state is 1-A.
 Alpha  occ. eigenvalues --  -21.08688 -21.06429 -11.51470 -11.48076 -11.46548
 Alpha  occ. eigenvalues --  -11.42521 -11.40110  -1.81471  -1.72898  -1.17361
 Alpha  occ. eigenvalues --   -1.11809  -0.99071  -0.85229  -0.76791  -0.67079
 Alpha  occ. eigenvalues --   -0.62164  -0.60965  -0.58208  -0.55360  -0.53791
 Alpha  occ. eigenvalues --   -0.51712  -0.47400  -0.41327  -0.34081  -0.32018
 Alpha  occ. eigenvalues --   -0.30169
 Alpha virt. eigenvalues --    0.01782   0.04785   0.05336   0.05727   0.05847
 Alpha virt. eigenvalues --    0.05957   0.06670   0.09451   0.10222   0.11006
 Alpha virt. eigenvalues --    0.11545   0.12458   0.13210   0.13651   0.15065

 Mulliken charges:
               1
     1  O   -2.774581
     2  C    1.179654
     3  C    0.313839
     4  O   -2.929675
     5  C    0.693155
     6  C   -3.571014
     7  C   -1.129812
     8  H    1.510499
     9  H    1.494572
    10  H    1.576551
    11  H    1.167155
    12  H    1.229318
    13  H    1.240340
 Sum of Mulliken charges =  -0.00000

 Dipole moment (field-independent basis, Debye):
    X=              1.6207    Y=             -0.8052    Z=             -1.7660  Tot=              2.5286

 Test job not archived.
 1\1\GINC-SE120\SP\RHF\Aug-CC-pVDZ\C5H6O2\OHZDE\09-Apr-2025\0\\#t hf au
 g-cc-pvdz iop(5/13=1,5/36=2,99/5=2) pseudo=read geom=check guess=(read
 ,tcheck) scf=(maxcycle=1)\\title\\0,1\O,0,2.48658652,0.92161323,-1.848
 72263\C,0,1.90056021,0.80740401,-0.81803094\C,0,1.09624282,-0.43578663
 ,-0.44022046\O,0,0.6013478,-0.4194697,0.89812106\C,0,-0.70832873,-0.65
 824179,0.32624013\C,0,-1.76342551,0.33411235,0.76739366\C,0,-0.2407607
 5,-0.59029833,-1.09471043\H,0,1.88510064,1.58952829,-0.03381177\H,0,1.
 71592326,-1.31448174,-0.6766224\H,0,-1.03710121,-1.69044622,0.52523276

 Normal termination of Gaussian 16 at Wed Apr  9 03:59:44 2025.
