 Gaussian 16, Revision C.01,

 ----------------------------------------------------------------------
 #t hf aug-cc-pvdz symm=none int=(grid=ultrafine) guess=(read,tcheck) s
 table=(opt,rrhf)
 ----------------------------------------------------------------------
 -----
 title
 -----
 Symbolic Z-matrix:
 Charge =  0 Multiplicity = 1

 SCF Done:  E(RHF) =  -343.662463799     A.U. after   15 cycles
 Normal termination of Gaussian 16 at Wed Apr  9 03:27:52 2025.
 Gaussian 16:  ES64L-G16RevC.01  3-Jul-2019

 ----------------------------------------------------------------------
 #t hf aug-cc-pvdz iop(5/13=1,5/36=2,99/5=2) pseudo=read geom=check gue
 ss=(read,tcheck) scf=(maxcycle=1)
 ----------------------------------------------------------------------
 -----
 title
 -----
 Structure from the checkpoint file:  "Grambow2020_wb97xd3_006678_reverse_mol1.chk"
 Charge =  0 Multiplicity = 1

                         Standard orientation:
 ---------------------------------------------------------------------
 Center     Atomic      Atomic             Coordinates (Angstroms)
 Number     Number       Type             X           Y           Z
 ---------------------------------------------------------------------
      1          6           0       -1.624724   -1.180849   -0.240851
      2          6           0       -0.809390    0.044988   -0.063486
      3          8           0       -1.399451    1.139146    0.270307
      4          6           0        1.039227   -0.820045    0.919448
      5          6           0        1.543605   -0.817803   -0.476296
      6          6           0        0.580290    0.304072   -0.315009
      7          8           0        0.885874    1.547116   -0.198380
      8          1           0       -2.191342   -1.395684    0.665994
      9          1           0       -2.343472   -0.994079   -1.041166
     10          1           0       -1.020959   -2.044980   -0.507901
     11          1           0       -0.542080    1.774777    0.173526
     12          1           0        1.574015   -0.243248    1.660516
     13          1           0        0.445996   -1.648962    1.278750
     14          1           0        2.551907   -0.463171   -0.646385
     15          1           0        1.260505   -1.656927   -1.101591
 ---------------------------------------------------------------------

 SCF Done:  E(RHF) =  -345.251471247     A.U. after    2 cycles

 The electronic state is 1-A.
 Alpha  occ. eigenvalues --  -21.09483 -20.97570 -11.53411 -11.46055 -11.45479
 Alpha  occ. eigenvalues --  -11.42787 -11.40124  -1.82047  -1.63538  -1.29008
 Alpha  occ. eigenvalues --   -1.13312  -0.94847  -0.89459  -0.75001  -0.72450
 Alpha  occ. eigenvalues --   -0.65302  -0.62922  -0.60302  -0.57770  -0.54875
 Alpha  occ. eigenvalues --   -0.53399  -0.50458  -0.43953  -0.41153  -0.37877
 Alpha  occ. eigenvalues --   -0.27025  -0.23428
 Alpha virt. eigenvalues --    0.03203   0.04767   0.04813   0.05233   0.05284
 Alpha virt. eigenvalues --    0.06887   0.07468   0.08150   0.09314   0.11050
 Alpha virt. eigenvalues --    0.12608   0.12670   0.12830   0.13816   0.14289

 Mulliken charges:
               1
     1  C   -4.084201
     2  C    4.254433
     3  O   -3.835563
     4  C   -2.844248
     5  C   -3.184743
     6  C    4.041656
     7  O   -3.710795
     8  H    1.151806
     9  H    1.108844
    10  H    1.371440
    11  H    0.730715
    12  H    1.197741
    13  H    1.354376
    14  H    1.208069
    15  H    1.240472
 Sum of Mulliken charges =  -0.00000

 Dipole moment (field-independent basis, Debye):
    X=             -1.6381    Y=             -2.9483    Z=             -0.0170  Tot=              3.3729

 Test job not archived.
 1\1\GINC-SE029\SP\RHF\Aug-CC-pVDZ\C5H8O2\OHZDE\09-Apr-2025\0\\#t hf au
 g-cc-pvdz iop(5/13=1,5/36=2,99/5=2) pseudo=read geom=check guess=(read
 ,tcheck) scf=(maxcycle=1)\\title\\0,1\C,0,-1.63005757,-0.76776564,-0.0
 1709734\C,0,-0.71964165,0.29253083,-0.51289693\O,0,-1.2284982,1.341421
 88,-1.05848325\C,0,0.86569705,0.2737754,1.10518023\C,0,1.5601368,-0.61
 608892,0.14164589\C,0,0.71151665,0.34053274,-0.61816506\O,0,1.1308774,
 1.37115946,-1.26166106\H,0,-2.33952923,-0.35509972,0.70118807\H,0,-2.2
 0341341,-1.14345426,-0.86686697\H,0,-1.09215672,-1.59729323,0.43580189

 Normal termination of Gaussian 16 at Wed Apr  9 03:27:57 2025.
