 Gaussian 16, Revision C.01,

 ----------------------------------------------------------------------
 #t hf aug-cc-pvdz symm=none int=(grid=ultrafine) guess=(read,tcheck) s
 table=(opt,rrhf)
 ----------------------------------------------------------------------
 -----
 title
 -----
 Symbolic Z-matrix:
 Charge =  0 Multiplicity = 1

 SCF Done:  E(RHF) =  -320.314930026     A.U. after   15 cycles
 Normal termination of Gaussian 16 at Wed Apr  9 18:47:20 2025.
 Gaussian 16:  ES64L-G16RevC.01  3-Jul-2019

 ----------------------------------------------------------------------
 #t hf aug-cc-pvdz iop(5/13=1,5/36=2,99/5=2) pseudo=read geom=check gue
 ss=(read,tcheck) scf=(maxcycle=1)
 ----------------------------------------------------------------------
 -----
 title
 -----
 Structure from the checkpoint file:  "Grambow2020_wb97xd3_007659_reverse_mol2.chk"
 Charge =  0 Multiplicity = 1

                         Standard orientation:
 ---------------------------------------------------------------------
 Center     Atomic      Atomic             Coordinates (Angstroms)
 Number     Number       Type             X           Y           Z
 ---------------------------------------------------------------------
      1          7           0        0.016019    1.485374    0.098767
      2          6           0        0.055563    2.609487   -0.205005
      3          6           0       -1.238408   -0.550067    0.122784
      4          6           0       -2.249234   -1.123451   -0.154020
      5          8           0        1.885250   -1.392204    0.101214
      6          6           0        1.148328   -0.593732   -0.384021
      7          6           0        0.034179    0.103133    0.428713
      8          1           0       -3.158033   -1.625816   -0.391297
      9          1           0        1.187817   -0.294102   -1.448114
     10          1           0        0.273509   -0.012280    1.487625
 ---------------------------------------------------------------------

 SCF Done:  E(RHF) =  -321.719581428     A.U. after    2 cycles

 The electronic state is 1-A.
 Alpha  occ. eigenvalues --  -21.10330 -15.80027 -11.54413 -11.51684 -11.45772
 Alpha  occ. eigenvalues --  -11.44776 -11.44013  -1.75301  -1.45322  -1.20529
 Alpha  occ. eigenvalues --   -1.07676  -0.89350  -0.81021  -0.76637  -0.68813
 Alpha  occ. eigenvalues --   -0.66249  -0.56985  -0.50151  -0.48520  -0.48238
 Alpha  occ. eigenvalues --   -0.46467  -0.41345  -0.41019  -0.32481
 Alpha virt. eigenvalues --    0.02749   0.04726   0.06203   0.08891   0.09362
 Alpha virt. eigenvalues --    0.09944   0.10141   0.10182   0.10255   0.10977
 Alpha virt. eigenvalues --    0.11589   0.12095   0.13297   0.13585   0.14437

 Mulliken charges:
               1
     1  N   -0.315857
     2  C   -0.522057
     3  C    5.437757
     4  C   -4.561276
     5  O   -2.830531
     6  C    2.305443
     7  C   -3.109047
     8  H    0.758958
     9  H    1.431768
    10  H    1.404841
 Sum of Mulliken charges =  -0.00000

 Dipole moment (field-independent basis, Debye):
    X=             -0.9274    Y=             -2.9065    Z=              0.4556  Tot=              3.0847

 Test job not archived.
 1\1\GINC-SE029\SP\RHF\Aug-CC-pVDZ\C5H3N1O1\OHZDE\09-Apr-2025\0\\#t hf
 aug-cc-pvdz iop(5/13=1,5/36=2,99/5=2) pseudo=read geom=check guess=(re
 ad,tcheck) scf=(maxcycle=1)\\title\\0,1\N,0,1.04947161,-1.05050736,-0.
 74364851\C,0,1.85855519,-1.44432851,-1.48375728\C,0,0.43131906,0.60292
 412,0.86918627\C,0,0.72728809,1.58517533,1.48134909\O,0,-2.31793473,-0
 .44887799,-0.47327927\C,0,-1.2004174,-0.17013625,-0.77248349\C,0,0.011
 86673,-0.56787356,0.09909925\H,0,1.00211157,2.45326733,2.03404649\H,0,
 -0.93642038,0.40146746,-1.68199213\H,0,-0.30921974,-1.36677855,0.77032

 Normal termination of Gaussian 16 at Wed Apr  9 18:47:23 2025.
