 Gaussian 16, Revision C.01,

 ----------------------------------------------------------------------
 #t hf aug-cc-pvdz symm=none int=(grid=ultrafine) guess=(read,tcheck) s
 table=(opt,rrhf)
 ----------------------------------------------------------------------
 -----
 title
 -----
 Symbolic Z-matrix:
 Charge =  0 Multiplicity = 1

 SCF Done:  E(RHF) =  -343.565999481     A.U. after   14 cycles
 Normal termination of Gaussian 16 at Wed Apr  9 03:28:20 2025.
 Gaussian 16:  ES64L-G16RevC.01  3-Jul-2019

 ----------------------------------------------------------------------
 #t hf aug-cc-pvdz iop(5/13=1,5/36=2,99/5=2) pseudo=read geom=check gue
 ss=(read,tcheck) scf=(maxcycle=1)
 ----------------------------------------------------------------------
 -----
 title
 -----
 Structure from the checkpoint file:  "Grambow2020_wb97xd3_006723_forward_mol1.chk"
 Charge =  0 Multiplicity = 1

                         Standard orientation:
 ---------------------------------------------------------------------
 Center     Atomic      Atomic             Coordinates (Angstroms)
 Number     Number       Type             X           Y           Z
 ---------------------------------------------------------------------
      1          8           0        2.525002    0.151750   -0.177793
      2          6           0        1.405364   -0.692553   -0.032779
      3          6           0        0.253062    0.032100    0.612590
      4          8           0       -0.219039    1.155553   -0.185229
      5          6           0       -1.550311    0.717540   -0.061262
      6          6           0       -1.784688   -0.976360   -0.645042
      7          6           0       -1.161170   -0.586070    0.621354
      8          1           0        2.265682    0.891848   -0.732244
      9          1           0        1.098679   -1.111942   -0.997653
     10          1           0        1.710221   -1.519604    0.612645
     11          1           0        0.546368    0.407196    1.596447
     12          1           0       -2.273879    1.385827    0.398722
     13          1           0       -1.035762   -0.988699   -1.448924
     14          1           0       -2.116163    0.404661   -1.048475
     15          1           0       -1.616389   -0.895651    1.554494
 ---------------------------------------------------------------------

 SCF Done:  E(RHF) =  -345.119952113     A.U. after    2 cycles

 The electronic state is 1-A.
 Alpha  occ. eigenvalues --  -21.07492 -21.07086 -11.49839 -11.49187 -11.45011
 Alpha  occ. eigenvalues --  -11.42244 -11.39212  -1.82148  -1.71292  -1.26780
 Alpha  occ. eigenvalues --   -1.10472  -0.94744  -0.87585  -0.80500  -0.71889
 Alpha  occ. eigenvalues --   -0.67227  -0.63019  -0.60210  -0.57479  -0.54935
 Alpha  occ. eigenvalues --   -0.50764  -0.47121  -0.40593  -0.38489  -0.35285
 Alpha  occ. eigenvalues --   -0.32912  -0.29537
 Alpha virt. eigenvalues --    0.03916   0.04884   0.05249   0.05358   0.06112
 Alpha virt. eigenvalues --    0.06326   0.06783   0.08454   0.09930   0.10678
 Alpha virt. eigenvalues --    0.11704   0.13091   0.13909   0.14155   0.14697

 Mulliken charges:
               1
     1  O   -2.682617
     2  C   -1.177679
     3  C    0.437875
     4  O   -3.090914
     5  C    0.239462
     6  C   -2.230441
     7  C   -1.153511
     8  H    0.765964
     9  H    1.336253
    10  H    1.293163
    11  H    1.427868
    12  H    1.482261
    13  H    1.027548
    14  H    1.020574
    15  H    1.304194
 Sum of Mulliken charges =  -0.00000

 Dipole moment (field-independent basis, Debye):
    X=              0.7271    Y=              1.5717    Z=              0.9205  Tot=              1.9611

 Test job not archived.
 1\1\GINC-SE458\SP\RHF\Aug-CC-pVDZ\C5H8O2\OHZDE\09-Apr-2025\0\\#t hf au
 g-cc-pvdz iop(5/13=1,5/36=2,99/5=2) pseudo=read geom=check guess=(read
 ,tcheck) scf=(maxcycle=1)\\title\\0,1\O,0,2.42697691,0.78728412,0.8010
 0674\C,0,1.62278096,0.14375166,-0.16159454\C,0,0.37794374,-0.43210161,
 0.46145934\O,0,-0.47757935,0.58945882,1.04970824\C,0,-1.60390617,0.061
 4166,0.3923888\C,0,-1.38895551,-0.02528638,-1.39962277\C,0,-0.7859267,
 -0.93210731,-0.42039243\H,0,1.90972875,1.49708036,1.18966094\H,0,1.359
 17356,0.8266546,-0.97711851\H,0,2.21766428,-0.67017574,-0.5824979\H,0,

 Normal termination of Gaussian 16 at Wed Apr  9 03:28:25 2025.
