 Gaussian 16, Revision C.01,

 ----------------------------------------------------------------------
 #t hf aug-cc-pvdz symm=none int=(grid=ultrafine) guess=(read,tcheck) s
 table=(opt,rrhf)
 ----------------------------------------------------------------------
 -----
 title
 -----
 Symbolic Z-matrix:
 Charge =  0 Multiplicity = 1

 SCF Done:  E(RHF) =  -308.859855818     A.U. after   16 cycles

 1\1\GINC-SE108\Stability\RHF\Aug-CC-pVDZ\C6H12O1\OHZDE\09-Apr-2025\0\\
 #t hf aug-cc-pvdz symm=none int=(grid=ultrafine) guess=(read,tcheck) s
 table=(opt,rrhf)\\title\\0,1\C,0,-1.60512069,-0.9727384,-0.63399065\C,
 0,-0.81907867,0.16381818,0.0101813\C,0,-1.69139316,1.02766854,0.914783
 05\C,0,0.34287047,-0.37143646,0.81112937\O,0,1.39413694,-1.00938831,0.
 10075957\C,0,1.55736438,0.3987541,1.06523996\C,0,2.41377266,0.12825622
 ,-0.7524182\H,0,-2.41552329,-0.58631398,-1.25517871\H,0,-0.96040856,-1
 .59012752,-1.26218642\H,0,-2.05024993,-1.61983485,0.12739855\H,0,-0.40

 Normal termination of Gaussian 16 at Wed Apr  9 18:50:18 2025.
 Gaussian 16:  ES64L-G16RevC.01  3-Jul-2019

 ----------------------------------------------------------------------
 #t hf aug-cc-pvdz iop(5/13=1,5/36=2,99/5=2) pseudo=read geom=check gue
 ss=(read,tcheck) scf=(maxcycle=1)
 ----------------------------------------------------------------------
 -----
 title
 -----
 Structure from the checkpoint file:  "Grambow2020_wb97xd3_007704_forward_mol1.chk"
 Charge =  0 Multiplicity = 1

                         Standard orientation:
 ---------------------------------------------------------------------
 Center     Atomic      Atomic             Coordinates (Angstroms)
 Number     Number       Type             X           Y           Z
 ---------------------------------------------------------------------
      1          6           0       -1.664048    1.371911   -0.083076
      2          6           0       -1.008291    0.053683    0.312954
      3          6           0       -2.004999   -1.100094    0.342032
      4          6           0        0.118271   -0.292008   -0.630177
      5          8           0        1.262608    0.548967   -0.625478
      6          6           0        1.255436   -1.122261   -0.242494
      7          6           0        2.270651    0.301703    0.783249
      8          1           0       -2.445613    1.649971    0.626705
      9          1           0       -0.932015    2.180905   -0.116384
     10          1           0       -2.125438    1.296560   -1.072030
     11          1           0       -0.575948    0.158943    1.312838
     12          1           0       -2.450151   -1.256950   -0.644921
     13          1           0       -2.818133   -0.897597    1.041461
     14          1           0       -1.518986   -2.029225    0.645970
     15          1           0       -0.196660   -0.376616   -1.672601
     16          1           0        1.742667   -1.548889   -1.127052
     17          1           0        1.672837    0.233576    1.681642
     18          1           0        2.643679    1.315215    0.623764
     19          1           0        3.100775   -0.395242    0.809502
 ---------------------------------------------------------------------

 SCF Done:  E(RHF) =  -310.392094192     A.U. after    2 cycles

 The electronic state is 1-A.
 Alpha  occ. eigenvalues --  -21.06737 -11.46414 -11.45585 -11.40947 -11.38123
 Alpha  occ. eigenvalues --  -11.37692 -11.35237  -1.76421  -1.23615  -1.04024
 Alpha  occ. eigenvalues --   -1.00581  -0.98324  -0.87507  -0.77935  -0.66712
 Alpha  occ. eigenvalues --   -0.61643  -0.60602  -0.59593  -0.57362  -0.55359
 Alpha  occ. eigenvalues --   -0.53128  -0.48760  -0.46737  -0.45655  -0.44518
 Alpha  occ. eigenvalues --   -0.36747  -0.33538  -0.26840
 Alpha virt. eigenvalues --    0.03946   0.04997   0.05250   0.05444   0.05741
 Alpha virt. eigenvalues --    0.05976   0.06273   0.06554   0.07169   0.08550
 Alpha virt. eigenvalues --    0.08914   0.09089   0.11761   0.12197   0.13916

 Mulliken charges:
               1
     1  C   -4.051060
     2  C   -2.214399
     3  C   -4.033200
     4  C    1.668935
     5  O   -2.436759
     6  C   -1.769263
     7  C   -3.273603
     8  H    1.214812
     9  H    1.345810
    10  H    1.291487
    11  H    1.717155
    12  H    1.287105
    13  H    1.252786
    14  H    1.342953
    15  H    1.605286
    16  H    1.113392
    17  H    1.481221
    18  H    1.240042
    19  H    1.217301
 Sum of Mulliken charges =  -0.00000

 Dipole moment (field-independent basis, Debye):
    X=             -0.0669    Y=              1.7720    Z=             -0.3502  Tot=              1.8075

 Test job not archived.
 1\1\GINC-SE108\SP\RHF\Aug-CC-pVDZ\C6H12O1\OHZDE\09-Apr-2025\0\\#t hf a
 ug-cc-pvdz iop(5/13=1,5/36=2,99/5=2) pseudo=read geom=check guess=(rea
 d,tcheck) scf=(maxcycle=1)\\title\\0,1\C,0,-1.60512069,-0.9727384,-0.6
 3399065\C,0,-0.81907867,0.16381818,0.0101813\C,0,-1.69139316,1.0276685
 4,0.91478305\C,0,0.34287047,-0.37143646,0.81112937\O,0,1.39413694,-1.0
 0938831,0.10075957\C,0,1.55736438,0.3987541,1.06523996\C,0,2.41377266,
 0.12825622,-0.7524182\H,0,-2.41552329,-0.58631398,-1.25517871\H,0,-0.9
 6040856,-1.59012752,-1.26218642\H,0,-2.05024993,-1.61983485,0.12739855

 Normal termination of Gaussian 16 at Wed Apr  9 18:50:25 2025.
