 Gaussian 16, Revision C.01,

 ----------------------------------------------------------------------
 #t hf aug-cc-pvdz symm=none int=(grid=ultrafine) guess=(read,tcheck) s
 table=(opt,rrhf)
 ----------------------------------------------------------------------
 -----
 title
 -----
 Symbolic Z-matrix:
 Charge =  0 Multiplicity = 1

 SCF Done:  E(RHF) =  -321.470179795     A.U. after   15 cycles
 Normal termination of Gaussian 16 at Wed Apr  9 03:46:18 2025.
 Gaussian 16:  ES64L-G16RevC.01  3-Jul-2019

 ----------------------------------------------------------------------
 #t hf aug-cc-pvdz iop(5/13=1,5/36=2,99/5=2) pseudo=read geom=check gue
 ss=(read,tcheck) scf=(maxcycle=1)
 ----------------------------------------------------------------------
 -----
 title
 -----
 Structure from the checkpoint file:  "Grambow2020_wb97xd3_007885_reverse_mol1.chk"
 Charge =  0 Multiplicity = 1

                         Standard orientation:
 ---------------------------------------------------------------------
 Center     Atomic      Atomic             Coordinates (Angstroms)
 Number     Number       Type             X           Y           Z
 ---------------------------------------------------------------------
      1          8           0        2.290785    0.178532   -0.007519
      2          6           0        1.197581   -0.164104   -0.003208
      3          6           0       -0.458209   -0.345063   -1.068757
      4          7           0       -0.738853   -1.249595    0.010876
      5          6           0       -0.443092   -0.330336    1.073955
      6          6           0       -0.863295    0.973918    0.685061
      7          6           0       -0.871708    0.964343   -0.691744
      8          1           0       -0.449980   -0.726437   -2.082696
      9          1           0       -1.730139   -1.492755    0.019579
     10          1           0       -0.421556   -0.697282    2.092961
     11          1           0       -0.950302    1.830983    1.336298
     12          1           0       -0.970000    1.811851   -1.353958
 ---------------------------------------------------------------------

 SCF Done:  E(RHF) =  -322.985807755     A.U. after    2 cycles

 The electronic state is 1-A.
 Alpha  occ. eigenvalues --  -21.11408 -15.74182 -11.50179 -11.49599 -11.44721
 Alpha  occ. eigenvalues --  -11.42359 -11.37515  -1.75865  -1.50949  -1.14969
 Alpha  occ. eigenvalues --   -1.03966  -0.87747  -0.78728  -0.76654  -0.72325
 Alpha  occ. eigenvalues --   -0.63407  -0.54684  -0.53753  -0.53016  -0.51812
 Alpha  occ. eigenvalues --   -0.49977  -0.47465  -0.36712  -0.33505  -0.29063
 Alpha virt. eigenvalues --    0.03821   0.04732   0.05623   0.05730   0.05872
 Alpha virt. eigenvalues --    0.09286   0.10247   0.11146   0.11547   0.12459
 Alpha virt. eigenvalues --    0.12878   0.13022   0.13907   0.14039   0.15393

 Mulliken charges:
               1
     1  O   -2.835299
     2  C    3.151958
     3  C   -1.449770
     4  N   -2.136556
     5  C   -1.465598
     6  C   -0.527794
     7  C   -0.534833
     8  H    1.260424
     9  H    0.664491
    10  H    1.263284
    11  H    1.304860
    12  H    1.304835
 Sum of Mulliken charges =  -0.00000

 Dipole moment (field-independent basis, Debye):
    X=             -0.1753    Y=              0.5869    Z=              0.0054  Tot=              0.6126

 Test job not archived.
 1\1\GINC-SE009\SP\RHF\Aug-CC-pVDZ\C5H5N1O1\OHZDE\09-Apr-2025\0\\#t hf
 aug-cc-pvdz iop(5/13=1,5/36=2,99/5=2) pseudo=read geom=check guess=(re
 ad,tcheck) scf=(maxcycle=1)\\title\\0,1\O,0,0.34392629,-1.55896675,2.1
 8748205\C,0,-0.03021987,-1.08050064,1.21609253\C,0,0.32941104,-0.80319
 894,-0.70836872\N,0,-1.07041431,-0.48699259,-0.65313502\C,0,-0.9818575
 7,0.45370344,0.42848312\C,0,0.23629481,1.18184552,0.30681969\C,0,1.078
 88978,0.37337412,-0.42267472\H,0,0.65919049,-1.60895521,-1.35303033\H,
 0,-1.35994047,-0.01393894,-1.51001586\H,0,-1.89591518,0.84133218,0.861

 Normal termination of Gaussian 16 at Wed Apr  9 03:46:22 2025.
