 Gaussian 16, Revision C.01,

 ----------------------------------------------------------------------
 #t hf aug-cc-pvdz symm=none int=(grid=ultrafine) guess=(read,tcheck) s
 table=(opt,rrhf)
 ----------------------------------------------------------------------
 -----
 title
 -----
 Symbolic Z-matrix:
 Charge =  0 Multiplicity = 1

 SCF Done:  E(RHF) =  -380.667779925     A.U. after   14 cycles
 Normal termination of Gaussian 16 at Wed Apr  9 03:40:58 2025.
 Gaussian 16:  ES64L-G16RevC.01  3-Jul-2019

 ----------------------------------------------------------------------
 #t hf aug-cc-pvdz iop(5/13=1,5/36=2,99/5=2) pseudo=read geom=check gue
 ss=(read,tcheck) scf=(maxcycle=1)
 ----------------------------------------------------------------------
 -----
 title
 -----
 Structure from the checkpoint file:  "Grambow2020_wb97xd3_007515_reverse_mol2.chk"
 Charge =  0 Multiplicity = 1

                         Standard orientation:
 ---------------------------------------------------------------------
 Center     Atomic      Atomic             Coordinates (Angstroms)
 Number     Number       Type             X           Y           Z
 ---------------------------------------------------------------------
      1          8           0        2.172756   -0.935979    0.664564
      2          6           0        2.164655   -0.080127   -0.454509
      3          6           0        1.142158    0.999115   -0.222741
      4          6           0       -0.991192    0.728655    0.703710
      5          8           0       -0.175930    0.425088   -0.259858
      6          6           0       -2.271386   -0.001072    0.480599
      7          8           0       -2.430698   -0.794995   -0.668665
      8          1           0        2.715470   -1.701676    0.474391
      9          1           0        1.918162   -0.622580   -1.375721
     10          1           0        3.138246    0.406668   -0.598743
     11          1           0        1.190571    1.741419   -1.021435
     12          1           0        1.268889    1.478522    0.748017
     13          1           0       -2.401574   -0.596592    1.398390
     14          1           0       -3.060541    0.760426    0.513893
     15          1           0       -1.563658   -0.898529   -1.069484
 ---------------------------------------------------------------------

 SCF Done:  E(RHF) =  -382.336259900     A.U. after    2 cycles

 The electronic state is 1-A.
 Alpha  occ. eigenvalues --  -21.11671 -21.08489 -21.06004 -11.47598 -11.43897
 Alpha  occ. eigenvalues --  -11.41179 -11.38844  -1.84227  -1.72643  -1.69453
 Alpha  occ. eigenvalues --   -1.13287  -1.03529  -0.89890  -0.77335  -0.70300
 Alpha  occ. eigenvalues --   -0.66224  -0.62618  -0.61822  -0.57949  -0.55823
 Alpha  occ. eigenvalues --   -0.52954  -0.49444  -0.43262  -0.42285  -0.40426
 Alpha  occ. eigenvalues --   -0.33785  -0.31721  -0.30328
 Alpha virt. eigenvalues --    0.03347   0.04675   0.05268   0.05367   0.06016
 Alpha virt. eigenvalues --    0.06104   0.07089   0.08300   0.10270   0.10787
 Alpha virt. eigenvalues --    0.12081   0.13179   0.13310   0.13752   0.14751

 Mulliken charges:
               1
     1  O   -2.566774
     2  C   -0.905549
     3  C   -1.553961
     4  C   -0.019752
     5  O   -2.601731
     6  C   -0.118253
     7  O   -2.780139
     8  H    0.813157
     9  H    1.513578
    10  H    1.271712
    11  H    1.422098
    12  H    1.843324
    13  H    1.375217
    14  H    1.370651
    15  H    0.936423
 Sum of Mulliken charges =  -0.00000

 Dipole moment (field-independent basis, Debye):
    X=              2.5111    Y=             -0.7138    Z=             -1.9364  Tot=              3.2504

 Test job not archived.
 1\1\GINC-SE284\SP\RHF\Aug-CC-pVDZ\C4H8O3\OHZDE\09-Apr-2025\0\\#t hf au
 g-cc-pvdz iop(5/13=1,5/36=2,99/5=2) pseudo=read geom=check guess=(read
 ,tcheck) scf=(maxcycle=1)\\title\\0,1\O,0,-1.63891362,1.60075737,-0.09
 709\C,0,-1.66207035,0.37342172,-0.78845359\C,0,-1.13481046,-0.69932791
 ,0.12542958\C,0,0.70010512,-0.52838065,1.56990332\O,0,0.27122251,-0.49
 189104,0.34516009\C,0,2.16495681,-0.25396167,1.56088512\O,0,2.83323257
 ,-0.07266382,0.33734888\H,0,-1.83976602,2.31180731,-0.70623934\H,0,-1.
 04865214,0.41048822,-1.69729444\H,0,-2.68264428,0.09255504,-1.08033413

 Normal termination of Gaussian 16 at Wed Apr  9 03:41:03 2025.
