 Gaussian 16, Revision C.01,

 ----------------------------------------------------------------------
 #t hf aug-cc-pvdz symm=none int=(grid=ultrafine) guess=(read,tcheck) s
 table=(opt,rrhf)
 ----------------------------------------------------------------------
 -----
 title
 -----
 Symbolic Z-matrix:
 Charge =  0 Multiplicity = 1

 SCF Done:  E(RHF) =  -374.512312489     A.U. after   14 cycles
 Normal termination of Gaussian 16 at Wed Apr  9 18:37:14 2025.
 Gaussian 16:  ES64L-G16RevC.01  3-Jul-2019

 ----------------------------------------------------------------------
 #t hf aug-cc-pvdz iop(5/13=1,5/36=2,99/5=2) pseudo=read geom=check gue
 ss=(read,tcheck) scf=(maxcycle=1)
 ----------------------------------------------------------------------
 -----
 title
 -----
 Structure from the checkpoint file:  "Grambow2020_wb97xd3_007331_reverse_mol2.chk"
 Charge =  0 Multiplicity = 1

                         Standard orientation:
 ---------------------------------------------------------------------
 Center     Atomic      Atomic             Coordinates (Angstroms)
 Number     Number       Type             X           Y           Z
 ---------------------------------------------------------------------
      1          7           0        2.412146   -0.508908   -0.002380
      2          6           0        1.122608    0.053040    0.001007
      3          6           0        0.691657    1.337993    0.001030
      4          8           0       -0.791593    1.125102    0.000348
      5          6           0       -1.056438   -0.127227   -0.000122
      6          8           0       -2.286535   -0.603495   -0.000352
      7          7           0        0.021836   -0.857445   -0.000040
      8          1           0        2.933570   -0.248109    0.821873
      9          1           0        2.939453   -0.220449   -0.813492
     10          1           0       -2.901115    0.139143   -0.001525
     11          1           0        0.068273   -1.861799   -0.001375
 ---------------------------------------------------------------------

 SCF Done:  E(RHF) =  -376.133137099     A.U. after    2 cycles

 The electronic state is 1-A.
 Alpha  occ. eigenvalues --  -21.18079 -21.12039 -15.82093 -15.74738 -11.55679
 Alpha  occ. eigenvalues --  -11.40453 -11.34612  -1.92561  -1.77716  -1.45818
 Alpha  occ. eigenvalues --   -1.30720  -1.03889  -0.89083  -0.80887  -0.74796
 Alpha  occ. eigenvalues --   -0.68825  -0.64125  -0.63967  -0.57833  -0.52334
 Alpha  occ. eigenvalues --   -0.46703  -0.46367  -0.40401  -0.36249  -0.32147
 Alpha  occ. eigenvalues --   -0.28922
 Alpha virt. eigenvalues --    0.02965   0.04707   0.05450   0.06938   0.09865
 Alpha virt. eigenvalues --    0.10384   0.10519   0.11255   0.12628   0.13706
 Alpha virt. eigenvalues --    0.14605   0.14725   0.16557   0.16591   0.17041

 Mulliken charges:
               1
     1  N   -3.030637
     2  C    3.864926
     3  C   -0.785771
     4  O   -2.561485
     5  C    5.801214
     6  O   -2.974694
     7  N   -2.648097
     8  H    0.489144
     9  H    0.491174
    10  H    0.526785
    11  H    0.827442
 Sum of Mulliken charges =   0.00000

 Dipole moment (field-independent basis, Debye):
    X=             -2.9067    Y=             -4.1685    Z=              0.0123  Tot=              5.0819

 Test job not archived.
 1\1\GINC-SE014\SP\RHF\Aug-CC-pVDZ\C3H4N2O2\OHZDE\09-Apr-2025\0\\#t hf
 aug-cc-pvdz iop(5/13=1,5/36=2,99/5=2) pseudo=read geom=check guess=(re
 ad,tcheck) scf=(maxcycle=1)\\title\\0,1\N,0,-1.93312176,-0.92458755,0.
 05245685\C,0,-0.82857298,-0.06041585,0.16146669\C,0,-0.70134205,1.1924
 0188,0.66254915\O,0,0.75970144,1.42932369,0.4289427\C,0,1.28863714,0.4
 0406385,-0.12562081\O,0,2.56639134,0.33721881,-0.44631545\N,0,0.421895
 83,-0.54626257,-0.32941275\H,0,-2.65784341,-0.53014803,-0.52934175\H,0
 ,-2.33203902,-1.13121215,0.9565221\H,0,2.98859713,1.165396,-0.19119484

 Normal termination of Gaussian 16 at Wed Apr  9 18:37:18 2025.
