 Gaussian 16, Revision C.01,

 ----------------------------------------------------------------------
 #t hf aug-cc-pvdz symm=none int=(grid=ultrafine) guess=(read,tcheck) s
 table=(opt,rrhf)
 ----------------------------------------------------------------------
 -----
 title
 -----
 Symbolic Z-matrix:
 Charge =  0 Multiplicity = 1

 SCF Done:  E(RHF) =  -358.477954705     A.U. after   15 cycles
 Normal termination of Gaussian 16 at Wed Apr  9 18:13:58 2025.
 Gaussian 16:  ES64L-G16RevC.01  3-Jul-2019

 ----------------------------------------------------------------------
 #t hf aug-cc-pvdz iop(5/13=1,5/36=2,99/5=2) pseudo=read geom=check gue
 ss=(read,tcheck) scf=(maxcycle=1)
 ----------------------------------------------------------------------
 -----
 title
 -----
 Structure from the checkpoint file:  "Grambow2020_wb97xd3_006779_reverse_mol2.chk"
 Charge =  0 Multiplicity = 1

                         Standard orientation:
 ---------------------------------------------------------------------
 Center     Atomic      Atomic             Coordinates (Angstroms)
 Number     Number       Type             X           Y           Z
 ---------------------------------------------------------------------
      1          8           0        3.445760   -0.229211    0.191018
      2          6           0        2.452410   -0.501101   -0.257746
      3          6           0        0.085647    0.861142    0.805733
      4          6           0       -0.437857    1.219020   -0.521557
      5          7           0       -0.538927   -0.234180   -0.258378
      6          6           0       -1.777450   -0.854431   -0.029078
      7          8           0       -2.795196   -0.268854    0.177577
      8          1           0        0.213891   -0.819334   -0.602622
      9          1           0       -0.736523    0.963407    1.524931
     10          1           0        0.267280    1.422629   -1.325654
     11          1           0       -1.419332    1.662509   -0.677244
     12          1           0       -1.693839   -1.953216   -0.043637
 ---------------------------------------------------------------------

 SCF Done:  E(RHF) =  -360.040462307     A.U. after    2 cycles

 The electronic state is 1-A.
 Alpha  occ. eigenvalues --  -21.17121 -21.08484 -15.81936 -11.52282 -11.50984
 Alpha  occ. eigenvalues --  -11.44709 -11.37171  -1.80049  -1.75550  -1.49417
 Alpha  occ. eigenvalues --   -1.09184  -0.86079  -0.85663  -0.77735  -0.71939
 Alpha  occ. eigenvalues --   -0.64291  -0.59483  -0.55515  -0.54262  -0.52429
 Alpha  occ. eigenvalues --   -0.52366  -0.50882  -0.47369  -0.40153  -0.33871
 Alpha  occ. eigenvalues --   -0.30467
 Alpha virt. eigenvalues --    0.03483   0.05116   0.05853   0.06788   0.07010
 Alpha virt. eigenvalues --    0.08503   0.09541   0.10381   0.11056   0.11512
 Alpha virt. eigenvalues --    0.12794   0.13078   0.14114   0.14784   0.14974

 Mulliken charges:
               1
     1  O   -1.454120
     2  C    1.221867
     3  C   -1.738475
     4  C   -2.079444
     5  N   -1.987379
     6  C    2.112701
     7  O   -2.713602
     8  H    1.063814
     9  H    1.009385
    10  H    1.511977
    11  H    1.403497
    12  H    1.649779
 Sum of Mulliken charges =  -0.00000

 Dipole moment (field-independent basis, Debye):
    X=              0.2880    Y=             -0.9342    Z=             -1.6914  Tot=              1.9536

 Test job not archived.
 1\1\GINC-SE041\SP\RHF\Aug-CC-pVDZ\C4H5N1O2\OHZDE\09-Apr-2025\0\\#t hf
 aug-cc-pvdz iop(5/13=1,5/36=2,99/5=2) pseudo=read geom=check guess=(re
 ad,tcheck) scf=(maxcycle=1)\\title\\0,1\O,0,3.58351356,-0.03925352,-0.
 85255481\C,0,2.5119335,-0.32208313,-1.03635068\C,0,0.52760896,0.619864
 64,0.90361082\C,0,-0.38535476,1.14546437,-0.12306981\N,0,-0.34769039,-
 0.33434351,-0.11888284\C,0,-1.43496194,-1.09518956,0.33957483\O,0,-2.3
 6395171,-0.6483561,0.93851554\H,0,0.28736816,-0.78201544,-0.7699861\H,
 0,-0.04216852,0.52436681,1.83629574\H,0,0.0358392,1.54469263,-1.044189

 Normal termination of Gaussian 16 at Wed Apr  9 18:14:02 2025.
