 Gaussian 16, Revision C.01,

 ----------------------------------------------------------------------
 #t hf aug-cc-pvdz symm=none int=(grid=ultrafine) guess=(read,tcheck) s
 table=(opt,rrhf)
 ----------------------------------------------------------------------
 -----
 title
 -----
 Symbolic Z-matrix:
 Charge =  0 Multiplicity = 1

 SCF Done:  E(RHF) =  -279.736252931     A.U. after   17 cycles
 Normal termination of Gaussian 16 at Wed Apr  9 17:09:06 2025.
 Gaussian 16:  ES64L-G16RevC.01  3-Jul-2019

 ----------------------------------------------------------------------
 #t hf aug-cc-pvdz iop(5/13=1,5/36=2,99/5=2) pseudo=read geom=check gue
 ss=(read,tcheck) scf=(maxcycle=1)
 ----------------------------------------------------------------------
 -----
 title
 -----
 Structure from the checkpoint file:  "Grambow2020_b97d3_007056_forward_mol1.chk"
 Charge =  0 Multiplicity = 1

                         Standard orientation:
 ---------------------------------------------------------------------
 Center     Atomic      Atomic             Coordinates (Angstroms)
 Number     Number       Type             X           Y           Z
 ---------------------------------------------------------------------
      1          7           0        2.035167    0.010215   -0.204993
      2          6           0        0.664349   -0.113553    0.143959
      3          6           0       -0.196659   -1.303457   -0.002511
      4          6           0       -1.475242   -0.635047   -0.052064
      5          7           0       -1.445367    0.714388   -0.059791
      6          7           0       -0.166925    1.047295    0.003108
      7          1           0        2.401819   -0.922615   -0.393858
      8          1           0        2.593392    0.434086    0.537223
      9          1           0        0.445723   -0.514192    1.229475
     10          1           0       -2.446573   -1.117747   -0.115543
     11          1           0        0.090826    2.029534    0.038136
 ---------------------------------------------------------------------

 SCF Done:  E(RHF) =  -281.021090568     A.U. after    2 cycles

 The electronic state is 1-A.
 Alpha  occ. eigenvalues --  -15.81224 -15.80562 -15.77000 -11.47450 -11.41203
 Alpha  occ. eigenvalues --  -11.37561  -1.61980  -1.35926  -1.17214  -1.11931
 Alpha  occ. eigenvalues --   -0.84593  -0.79116  -0.72329  -0.70313  -0.63018
 Alpha  occ. eigenvalues --   -0.58602  -0.53725  -0.47967  -0.42126  -0.39669
 Alpha  occ. eigenvalues --   -0.33863  -0.33209
 Alpha virt. eigenvalues --    0.03086   0.05075   0.05498   0.06168   0.06372
 Alpha virt. eigenvalues --    0.08912   0.10628   0.11285   0.12455   0.12831
 Alpha virt. eigenvalues --    0.13730   0.14254   0.15876   0.16631   0.17049

 Mulliken charges:
               1
     1  N   -2.953110
     2  C    2.465467
     3  C   -1.746081
     4  C    0.753541
     5  N   -1.769592
     6  N   -1.739675
     7  H    0.557805
     8  H    0.569919
     9  H    1.439461
    10  H    1.566158
    11  H    0.856107
 Sum of Mulliken charges =   0.00000

 Dipole moment (field-independent basis, Debye):
    X=              2.0447    Y=              3.1606    Z=              1.0234  Tot=              3.9010

 Test job not archived.
 1\1\GINC-SE232\SP\RHF\Aug-CC-pVDZ\C3H5N3\OHZDE\09-Apr-2025\0\\#t hf au
 g-cc-pvdz iop(5/13=1,5/36=2,99/5=2) pseudo=read geom=check guess=(read
 ,tcheck) scf=(maxcycle=1)\\title\\0,1\N,0,-1.79327415,-0.17198195,0.38
 018371\C,0,-0.42943056,-0.14029236,-0.01371166\C,0,0.60184736,-1.16685
 35,0.23387299\C,0,1.76836594,-0.3210576,0.14518822\N,0,1.53942876,1.00
 051494,-0.00634021\N,0,0.22456003,1.13618806,-0.05003461\H,0,-2.012527
 4,-1.11694628,0.695218\H,0,-2.42840884,0.07180959,-0.38095684\H,0,-0.1
 8410874,-0.63729504,-1.05268193\H,0,2.80179581,-0.6477741,0.22128471\H

 Normal termination of Gaussian 16 at Wed Apr  9 17:09:10 2025.
