 Gaussian 16, Revision C.01,

 ----------------------------------------------------------------------
 #t hf aug-cc-pvdz symm=none int=(grid=ultrafine) guess=(read,tcheck) s
 table=(opt,rrhf)
 ----------------------------------------------------------------------
 -----
 title
 -----
 Symbolic Z-matrix:
 Charge =  0 Multiplicity = 1

 SCF Done:  E(RHF) =  -360.931557030     A.U. after   12 cycles
 Normal termination of Gaussian 16 at Wed Apr  9 18:09:43 2025.
 Gaussian 16:  ES64L-G16RevC.01  3-Jul-2019

 ----------------------------------------------------------------------
 #t hf aug-cc-pvdz iop(5/13=1,5/36=2,99/5=2) pseudo=read geom=check gue
 ss=(read,tcheck) scf=(maxcycle=1)
 ----------------------------------------------------------------------
 -----
 title
 -----
 Structure from the checkpoint file:  "Grambow2020_wb97xd3_006619_reverse_mol2.chk"
 Charge =  0 Multiplicity = 1

                         Standard orientation:
 ---------------------------------------------------------------------
 Center     Atomic      Atomic             Coordinates (Angstroms)
 Number     Number       Type             X           Y           Z
 ---------------------------------------------------------------------
      1          6           0       -2.111215   -0.590025   -0.325716
      2          6           0       -1.070768    0.229553    0.405951
      3          8           0       -0.036845   -0.607955    0.936936
      4          6           0       -0.317090    1.236782   -0.483198
      5          7           0        1.077118    1.136349   -0.060072
      6          6           0        1.197073   -0.221907    0.369913
      7          8           0        1.476951   -1.008741   -0.753901
      8          1           0       -2.899874    0.057286   -0.716838
      9          1           0       -2.569021   -1.320205    0.342413
     10          1           0       -1.651707   -1.121060   -1.161519
     11          1           0       -1.532730    0.739861    1.258647
     12          1           0        1.262800   -1.915905   -0.523041
     13          1           0       -0.396047    0.952580   -1.534318
     14          1           0       -0.685114    2.255900   -0.375029
     15          1           0        1.254459    1.744693    0.727391
     16          1           0        1.968552   -0.340435    1.136817
 ---------------------------------------------------------------------

 SCF Done:  E(RHF) =  -362.567111382     A.U. after    2 cycles

 The electronic state is 1-A.
 Alpha  occ. eigenvalues --  -21.06838 -21.04054 -15.72499 -11.48200 -11.46625
 Alpha  occ. eigenvalues --  -11.41241 -11.36712  -1.82812  -1.67415  -1.36455
 Alpha  occ. eigenvalues --   -1.15977  -1.00070  -0.86621  -0.83149  -0.75238
 Alpha  occ. eigenvalues --   -0.65724  -0.63535  -0.57917  -0.57213  -0.55796
 Alpha  occ. eigenvalues --   -0.52049  -0.49699  -0.47776  -0.44131  -0.39178
 Alpha  occ. eigenvalues --   -0.34249  -0.33174  -0.28139
 Alpha virt. eigenvalues --    0.03829   0.04953   0.05321   0.05603   0.05660
 Alpha virt. eigenvalues --    0.06369   0.06553   0.06795   0.08687   0.11239
 Alpha virt. eigenvalues --    0.12635   0.13543   0.13731   0.14202   0.15169

 Mulliken charges:
               1
     1  C   -3.450899
     2  C   -0.003580
     3  O   -3.324927
     4  C   -2.257655
     5  N   -2.695007
     6  C    4.039380
     7  O   -3.066190
     8  H    1.169981
     9  H    1.215493
    10  H    1.212758
    11  H    1.471066
    12  H    0.596029
    13  H    1.433901
    14  H    1.317765
    15  H    0.559225
    16  H    1.782661
 Sum of Mulliken charges =   0.00000

 Dipole moment (field-independent basis, Debye):
    X=             -0.8635    Y=              0.5397    Z=              0.8085  Tot=              1.3002

 Test job not archived.
 1\1\GINC-SE112\SP\RHF\Aug-CC-pVDZ\C4H9N1O2\OHZDE\09-Apr-2025\0\\#t hf
 aug-cc-pvdz iop(5/13=1,5/36=2,99/5=2) pseudo=read geom=check guess=(re
 ad,tcheck) scf=(maxcycle=1)\\title\\0,1\C,0,-1.81695504,-0.46348781,-0
 .48622088\C,0,-0.3431753,-0.76296884,-0.31931229\O,0,0.45277626,0.0978
 5438,-1.14260097\C,0,0.19522389,-0.52279963,1.1039132\N,0,1.48807442,0
 .127646,0.90796117\C,0,1.31580478,0.8482365,-0.31482552\O,0,0.73477364
 ,2.08519513,-0.01030521\H,0,-2.414545,-1.13261562,0.13757827\H,0,-2.12
 449184,-0.59867243,-1.52366603\H,0,-2.02701101,0.56624187,-0.19084572\

 Normal termination of Gaussian 16 at Wed Apr  9 18:09:49 2025.
