 Gaussian 16, Revision C.01,

 ----------------------------------------------------------------------
 #t hf aug-cc-pvdz symm=none int=(grid=ultrafine) guess=(read,tcheck) s
 table=(opt,rrhf)
 ----------------------------------------------------------------------
 -----
 title
 -----
 Symbolic Z-matrix:
 Charge =  0 Multiplicity = 1

 SCF Done:  E(RHF) =  -302.725437909     A.U. after   18 cycles
 Normal termination of Gaussian 16 at Wed Apr  9 18:24:29 2025.
 Gaussian 16:  ES64L-G16RevC.01  3-Jul-2019

 ----------------------------------------------------------------------
 #t hf aug-cc-pvdz iop(5/13=1,5/36=2,99/5=2) pseudo=read geom=check gue
 ss=(read,tcheck) scf=(maxcycle=1)
 ----------------------------------------------------------------------
 -----
 title
 -----
 Structure from the checkpoint file:  "Grambow2020_wb97xd3_006966_forward_mol1.chk"
 Charge =  0 Multiplicity = 1

                         Standard orientation:
 ---------------------------------------------------------------------
 Center     Atomic      Atomic             Coordinates (Angstroms)
 Number     Number       Type             X           Y           Z
 ---------------------------------------------------------------------
      1          6           0        1.645681   -1.167518    0.150632
      2          6           0        0.701200    0.022711    0.064466
      3          6           0        1.435555    1.324678   -0.214644
      4          7           0       -0.374750   -0.191638   -0.932013
      5          6           0       -0.322137    0.007344    1.184526
      6          6           0       -1.531310   -0.142930   -0.131538
      7          7           0       -2.673917    0.084977    0.035772
      8          1           0        2.389837   -1.007656    0.931933
      9          1           0        2.176841   -1.294581   -0.797454
     10          1           0        1.096180   -2.079640    0.385308
     11          1           0        2.053366    1.251891   -1.112124
     12          1           0        0.726960    2.142389   -0.350885
     13          1           0        2.087409    1.569343    0.627172
     14          1           0       -0.321721   -1.088110   -1.405972
     15          1           0       -0.442141    0.987286    1.675056
 ---------------------------------------------------------------------

 SCF Done:  E(RHF) =  -304.156740020     A.U. after    2 cycles

 The electronic state is 1-A.
 Alpha  occ. eigenvalues --  -15.79944 -15.76943 -11.48204 -11.45951 -11.42386
 Alpha  occ. eigenvalues --  -11.41179 -11.37878  -1.51603  -1.28568  -1.17066
 Alpha  occ. eigenvalues --   -1.03731  -0.99867  -0.82268  -0.74399  -0.66612
 Alpha  occ. eigenvalues --   -0.65197  -0.62029  -0.56268  -0.55141  -0.54641
 Alpha  occ. eigenvalues --   -0.52054  -0.47525  -0.45604  -0.43143  -0.38527
 Alpha  occ. eigenvalues --   -0.30116
 Alpha virt. eigenvalues --    0.02633   0.03358   0.05164   0.05307   0.05563
 Alpha virt. eigenvalues --    0.05731   0.06867   0.06959   0.08038   0.09926
 Alpha virt. eigenvalues --    0.11240   0.11668   0.12798   0.12939   0.13861

 Mulliken charges:
               1
     1  C   -3.777602
     2  C    2.711197
     3  C   -4.072073
     4  N   -3.048574
     5  C   -2.329083
     6  C    3.979484
     7  N   -2.927163
     8  H    1.187915
     9  H    1.192338
    10  H    1.360247
    11  H    1.181544
    12  H    1.273370
    13  H    1.176845
    14  H    0.752202
    15  H    1.339353
 Sum of Mulliken charges =  -0.00000

 Dipole moment (field-independent basis, Debye):
    X=              3.6974    Y=             -0.3529    Z=             -1.3751  Tot=              3.9606

 Test job not archived.
 1\1\GINC-SE174\SP\RHF\Aug-CC-pVDZ\C5H8N2\OHZDE\09-Apr-2025\0\\#t hf au
 g-cc-pvdz iop(5/13=1,5/36=2,99/5=2) pseudo=read geom=check guess=(read
 ,tcheck) scf=(maxcycle=1)\\title\\0,1\C,0,-0.83508285,1.3982968,0.1160
 3873\C,0,-0.10894616,0.06083653,0.10993313\C,0,-1.04557934,-1.10694246
 ,0.37697271\N,0,0.64777292,-0.15584516,-1.14585708\C,0,1.1902057,0.125
 78934,0.89094088\C,0,1.97243085,-0.24729839,-0.67929333\N,0,3.07757762
 ,-0.64587905,-0.75188882\H,0,-1.33303112,1.55715541,1.07341363\H,0,-1.
 59979283,1.41377818,-0.66634297\H,0,-0.13426102,2.21830398,-0.04342508

 Normal termination of Gaussian 16 at Wed Apr  9 18:24:34 2025.
