 Gaussian 16, Revision C.01,

 ----------------------------------------------------------------------
 #t hf aug-cc-pvdz symm=none int=(grid=ultrafine) guess=(read,tcheck) s
 table=(opt,rrhf)
 ----------------------------------------------------------------------
 -----
 title
 -----
 Symbolic Z-matrix:
 Charge =  0 Multiplicity = 1

 SCF Done:  E(RHF) =  -305.724996340     A.U. after   15 cycles
 Normal termination of Gaussian 16 at Wed Apr  9 03:05:54 2025.
 Gaussian 16:  ES64L-G16RevC.01  3-Jul-2019

 ----------------------------------------------------------------------
 #t hf aug-cc-pvdz iop(5/13=1,5/36=2,99/5=2) pseudo=read geom=check gue
 ss=(read,tcheck) scf=(maxcycle=1)
 ----------------------------------------------------------------------
 -----
 title
 -----
 Structure from the checkpoint file:  "Grambow2020_b97d3_006518_reverse_mol2.chk"
 Charge =  0 Multiplicity = 1

                         Standard orientation:
 ---------------------------------------------------------------------
 Center     Atomic      Atomic             Coordinates (Angstroms)
 Number     Number       Type             X           Y           Z
 ---------------------------------------------------------------------
      1          8           0       -2.270249   -0.310725    0.159298
      2          6           0       -1.161499    0.515317    0.325910
      3          6           0        1.363522    1.127829   -0.056692
      4          6           0        1.822214   -0.265626    0.479014
      5          6           0        0.711477   -1.012703   -0.230786
      6          8           0       -0.113851    0.171806   -0.620051
      7          1           0       -2.656445   -0.115347   -0.715863
      8          1           0       -1.337877    1.580210    0.126170
      9          1           0       -0.803384    0.372824    1.350477
     10          1           0        1.770925    1.196584   -1.091099
     11          1           0        2.828081   -0.592367    0.174328
     12          1           0        1.755198   -0.338673    1.575785
     13          1           0        0.091358   -1.715679    0.343326
     14          1           0        1.010653   -1.465105   -1.181774
 ---------------------------------------------------------------------

 SCF Done:  E(RHF) =  -307.111618102     A.U. after    2 cycles

 The electronic state is 1-A.
 Alpha  occ. eigenvalues --  -21.09349 -21.07709 -11.46704 -11.45552 -11.40367
 Alpha  occ. eigenvalues --  -11.36216  -1.82590  -1.69379  -1.16274  -0.97391
 Alpha  occ. eigenvalues --   -0.92370  -0.78616  -0.70719  -0.65845  -0.64212
 Alpha  occ. eigenvalues --   -0.57955  -0.55162  -0.51713  -0.49944  -0.46086
 Alpha  occ. eigenvalues --   -0.39281  -0.36540  -0.33687  -0.27895
 Alpha virt. eigenvalues --    0.03844   0.05115   0.05597   0.05759   0.05912
 Alpha virt. eigenvalues --    0.06460   0.06540   0.07579   0.10107   0.12368
 Alpha virt. eigenvalues --    0.13067   0.13209   0.14366   0.14969   0.15356

 Mulliken charges:
               1
     1  O   -2.591938
     2  C    0.244083
     3  C   -1.326232
     4  C   -2.741374
     5  C   -1.695122
     6  O   -2.427006
     7  H    0.672097
     8  H    1.524655
     9  H    1.663236
    10  H    1.211384
    11  H    1.244570
    12  H    1.393800
    13  H    1.551099
    14  H    1.276749
 Sum of Mulliken charges =  -0.00000

 Dipole moment (field-independent basis, Debye):
    X=             -1.2824    Y=             -2.4314    Z=             -1.2358  Tot=              3.0139

 Test job not archived.
 1\1\GINC-SE273\SP\RHF\Aug-CC-pVDZ\C4H8O2\OHZDE\09-Apr-2025\0\\#t hf au
 g-cc-pvdz iop(5/13=1,5/36=2,99/5=2) pseudo=read geom=check guess=(read
 ,tcheck) scf=(maxcycle=1)\\title\\0,1\O,0,-2.01617118,1.47821415,0.111
 60894\C,0,-1.50392493,0.18347133,0.08559955\C,0,0.45012132,-1.55242799
 ,0.34180953\C,0,1.34371272,-0.75152691,-0.65776453\C,0,0.93551408,0.59
 482467,-0.09528237\O,0,-0.21001601,0.12590793,0.74354581\H,0,-2.204343
 62,1.70374863,1.04271155\H,0,-2.09430936,-0.56372868,0.63162186\H,0,-1
 .40317435,-0.10314761,-0.96605997\H,0,1.0341758,-1.60001749,1.28907772

 Normal termination of Gaussian 16 at Wed Apr  9 03:05:58 2025.
