 Gaussian 16, Revision C.01,

 ----------------------------------------------------------------------
 #t hf aug-cc-pvdz symm=none int=(grid=ultrafine) guess=(read,tcheck) s
 table=(opt,rrhf)
 ----------------------------------------------------------------------
 -----
 title
 -----
 Symbolic Z-matrix:
 Charge =  0 Multiplicity = 1

 SCF Done:  E(RHF) =  -305.696434080     A.U. after   15 cycles
 Normal termination of Gaussian 16 at Wed Apr  9 17:51:51 2025.
 Gaussian 16:  ES64L-G16RevC.01  3-Jul-2019

 ----------------------------------------------------------------------
 #t hf aug-cc-pvdz iop(5/13=1,5/36=2,99/5=2) pseudo=read geom=check gue
 ss=(read,tcheck) scf=(maxcycle=1)
 ----------------------------------------------------------------------
 -----
 title
 -----
 Structure from the checkpoint file:  "Grambow2020_wb97xd3_006215_reverse_mol2.chk"
 Charge =  0 Multiplicity = 1

                         Standard orientation:
 ---------------------------------------------------------------------
 Center     Atomic      Atomic             Coordinates (Angstroms)
 Number     Number       Type             X           Y           Z
 ---------------------------------------------------------------------
      1          6           0        1.414487   -1.291979   -0.234841
      2          8           0        1.632826   -0.211632    0.440781
      3          6           0        1.003515    0.927829    0.417915
      4          6           0       -0.112772    1.149406   -0.527230
      5          6           0       -1.324070    0.399896   -0.010673
      6          8           0       -1.692420   -0.662518   -0.437440
      7          1           0        0.547830   -1.381156   -0.871576
      8          1           0       -3.968046   -1.045549    1.881098
      9          1           0        2.121008   -2.082169   -0.045372
     10          1           0        1.423365    1.664703    1.081207
     11          1           0        0.135713    0.782930   -1.534510
     12          1           0       -0.334571    2.216928   -0.569336
     13          1           0       -1.822378    0.861811    0.865053
     14          1           0       -3.513130   -1.135210    1.295680
 ---------------------------------------------------------------------

 SCF Done:  E(RHF) =  -307.125457744     A.U. after    2 cycles

 The electronic state is 1-A.
 Alpha  occ. eigenvalues --  -21.20145 -21.06852 -11.49053 -11.44584 -11.42360
 Alpha  occ. eigenvalues --  -11.40221  -1.88757  -1.71870  -1.18071  -1.01578
 Alpha  occ. eigenvalues --   -0.85464  -0.79376  -0.72637  -0.65999  -0.62774
 Alpha  occ. eigenvalues --   -0.60433  -0.59710  -0.57525  -0.52635  -0.50465
 Alpha  occ. eigenvalues --   -0.46403  -0.40100  -0.31270  -0.26315
 Alpha virt. eigenvalues --    0.03446   0.05113   0.05358   0.05683   0.06048
 Alpha virt. eigenvalues --    0.07588   0.07861   0.09130   0.10148   0.10475
 Alpha virt. eigenvalues --    0.12259   0.13298   0.13904   0.14094   0.14616

 Mulliken charges:
               1
     1  C   -1.762942
     2  O   -3.742299
     3  C    1.379038
     4  C   -3.783358
     5  C    1.618917
     6  O   -2.710799
     7  H    1.742617
     8  H    0.227620
     9  H    1.477611
    10  H    1.648091
    11  H    1.269547
    12  H    1.308594
    13  H    1.651263
    14  H   -0.323900
 Sum of Mulliken charges =  -0.00000

 Dipole moment (field-independent basis, Debye):
    X=              0.7648    Y=              0.9334    Z=             -0.0442  Tot=              1.2075

 Test job not archived.
 1\1\GINC-SE174\SP\RHF\Aug-CC-pVDZ\C4H8O2\OHZDE\09-Apr-2025\0\\#t hf au
 g-cc-pvdz iop(5/13=1,5/36=2,99/5=2) pseudo=read geom=check guess=(read
 ,tcheck) scf=(maxcycle=1)\\title\\0,1\C,0,1.35774843,-1.48895748,-0.77
 370198\O,0,0.10686127,-1.62696049,-1.06954126\C,0,-0.9515269,-1.227821
 36,-0.4250015\C,0,-0.82183057,-0.55133836,0.88421167\C,0,-0.34004036,0
 .86400522,0.6382007\O,0,0.79865625,1.22348328,0.78200343\H,0,1.6643387
 7,-0.89011873,0.07002341\H,0,0.24901295,4.18565219,-0.49245911\H,0,2.0
 3122452,-1.95659809,-1.47170868\H,0,-1.87599452,-1.50367211,-0.9029973

 Normal termination of Gaussian 16 at Wed Apr  9 17:51:55 2025.
