 Gaussian 16, Revision C.01,

 ----------------------------------------------------------------------
 #t hf aug-cc-pvdz symm=none int=(grid=ultrafine) guess=(read,tcheck) s
 table=(opt,rrhf)
 ----------------------------------------------------------------------
 -----
 title
 -----
 Symbolic Z-matrix:
 Charge =  0 Multiplicity = 1

 SCF Done:  E(RHF) =  -358.533934340     A.U. after   15 cycles
 Normal termination of Gaussian 16 at Wed Apr  9 03:39:15 2025.
 Gaussian 16:  ES64L-G16RevC.01  3-Jul-2019

 ----------------------------------------------------------------------
 #t hf aug-cc-pvdz iop(5/13=1,5/36=2,99/5=2) pseudo=read geom=check gue
 ss=(read,tcheck) scf=(maxcycle=1)
 ----------------------------------------------------------------------
 -----
 title
 -----
 Structure from the checkpoint file:  "Grambow2020_wb97xd3_007447_forward_mol2.chk"
 Charge =  0 Multiplicity = 1

                         Standard orientation:
 ---------------------------------------------------------------------
 Center     Atomic      Atomic             Coordinates (Angstroms)
 Number     Number       Type             X           Y           Z
 ---------------------------------------------------------------------
      1          8           0       -2.458820   -0.453061   -0.053183
      2          6           0       -1.611478    0.659501    0.035901
      3          6           0       -0.159144    0.297545    0.003330
      4          7           0        0.189560   -0.954828    0.015493
      5          8           0        1.559500   -0.982367    0.005678
      6          6           0        2.009933    0.272262   -0.012699
      7          6           0        0.982507    1.145504   -0.014484
      8          1           0       -1.932548   -1.246754    0.085625
      9          1           0       -1.827888    1.337275   -0.796428
     10          1           0       -1.804638    1.216977    0.962117
     11          1           0        3.081741    0.389747   -0.024105
     12          1           0        1.020071    2.221104   -0.027905
 ---------------------------------------------------------------------

 SCF Done:  E(RHF) =  -360.117946388     A.U. after    2 cycles

 The electronic state is 1-A.
 Alpha  occ. eigenvalues --  -21.13797 -21.06989 -15.77675 -11.49303 -11.47131
 Alpha  occ. eigenvalues --  -11.45293 -11.40110  -1.92367  -1.72105  -1.30193
 Alpha  occ. eigenvalues --   -1.17027  -1.02209  -0.85335  -0.79036  -0.74057
 Alpha  occ. eigenvalues --   -0.66058  -0.59941  -0.59134  -0.58759  -0.54618
 Alpha  occ. eigenvalues --   -0.45730  -0.42856  -0.40419  -0.37561  -0.35314
 Alpha  occ. eigenvalues --   -0.32031
 Alpha virt. eigenvalues --    0.03087   0.04699   0.05180   0.06159   0.07524
 Alpha virt. eigenvalues --    0.08717   0.09933   0.10865   0.12151   0.12507
 Alpha virt. eigenvalues --    0.13258   0.13896   0.14406   0.14779   0.15115

 Mulliken charges:
               1
     1  O   -2.929988
     2  C   -0.268875
     3  C    3.273611
     4  N   -0.882801
     5  O   -3.119195
     6  C    0.644205
     7  C   -2.367666
     8  H    0.852337
     9  H    1.147625
    10  H    1.125518
    11  H    1.405862
    12  H    1.119367
 Sum of Mulliken charges =  -0.00000

 Dipole moment (field-independent basis, Debye):
    X=              1.7789    Y=              1.6850    Z=              0.0752  Tot=              2.4514

 Test job not archived.
 1\1\GINC-SE437\SP\RHF\Aug-CC-pVDZ\C4H5N1O2\OHZDE\09-Apr-2025\0\\#t hf
 aug-cc-pvdz iop(5/13=1,5/36=2,99/5=2) pseudo=read geom=check guess=(re
 ad,tcheck) scf=(maxcycle=1)\\title\\0,1\O,0,-2.38792974,0.6364614,-0.4
 0666861\C,0,-1.52556226,-0.35510158,0.07999805\C,0,-0.08065147,0.02718
 783,-0.00621209\N,0,0.25511225,1.13351667,-0.60075325\O,0,1.62239934,1
 .20836241,-0.55060499\C,0,2.08439138,0.12982807,0.08236365\C,0,1.06739
 81,-0.6710901,0.45973797\H,0,-1.8635761,1.28540657,-0.88635793\H,0,-1.
 77711725,-0.56150318,1.12551259\H,0,-1.66531582,-1.29253342,-0.4746711

 Normal termination of Gaussian 16 at Wed Apr  9 03:39:19 2025.
