 Gaussian 16, Revision C.01,

 ----------------------------------------------------------------------
 #t hf aug-cc-pvdz symm=none int=(grid=ultrafine) guess=(read,tcheck) s
 table=(opt,rrhf)
 ----------------------------------------------------------------------
 -----
 title
 -----
 Symbolic Z-matrix:
 Charge =  0 Multiplicity = 1

 SCF Done:  E(RHF) =  -324.863137765     A.U. after   15 cycles
 Normal termination of Gaussian 16 at Wed Apr  9 04:05:01 2025.
 Gaussian 16:  ES64L-G16RevC.01  3-Jul-2019

 ----------------------------------------------------------------------
 #t hf aug-cc-pvdz iop(5/13=1,5/36=2,99/5=2) pseudo=read geom=check gue
 ss=(read,tcheck) scf=(maxcycle=1)
 ----------------------------------------------------------------------
 -----
 title
 -----
 Structure from the checkpoint file:  "Grambow2020_wb97xd3_009234_forward_mol1.chk"
 Charge =  0 Multiplicity = 1

                         Standard orientation:
 ---------------------------------------------------------------------
 Center     Atomic      Atomic             Coordinates (Angstroms)
 Number     Number       Type             X           Y           Z
 ---------------------------------------------------------------------
      1          6           0        2.770184   -0.417260   -0.062291
      2          8           0        1.778494    0.532250    0.235264
      3          6           0        0.568232    0.230387   -0.346735
      4          6           0       -0.360086   -0.916431    0.113810
      5          7           0       -1.393369   -0.061617   -0.135996
      6          6           0       -2.812242   -0.247898   -0.005251
      7          6           0       -0.652918    1.073834   -0.039160
      8          1           0        3.695822   -0.072665    0.395479
      9          1           0        2.922459   -0.512927   -1.145877
     10          1           0        2.511674   -1.401369    0.346369
     11          1           0        0.658361    0.143662   -1.440109
     12          1           0       -0.392786   -1.974246   -0.118109
     13          1           0       -0.162512   -0.185007    1.701525
     14          1           0       -3.097549   -0.182748    1.047965
     15          1           0       -3.091288   -1.224808   -0.396885
     16          1           0       -3.335311    0.525788   -0.566355
     17          1           0       -0.290586    0.665514    1.645262
     18          1           0       -0.971673    2.056325   -0.361638
 ---------------------------------------------------------------------

 SCF Done:  E(RHF) =  -326.452094964     A.U. after    2 cycles

 The electronic state is 1-A.
 Alpha  occ. eigenvalues --  -21.04273 -15.78438 -11.48793 -11.42641 -11.41724
 Alpha  occ. eigenvalues --  -11.40030 -11.37569  -1.76799  -1.53338  -1.15049
 Alpha  occ. eigenvalues --   -0.99833  -0.96157  -0.89510  -0.76404  -0.72122
 Alpha  occ. eigenvalues --   -0.67203  -0.64113  -0.61660  -0.59490  -0.59222
 Alpha  occ. eigenvalues --   -0.54747  -0.51433  -0.49527  -0.45770  -0.40780
 Alpha  occ. eigenvalues --   -0.35868  -0.28954  -0.26562
 Alpha virt. eigenvalues --    0.03604   0.04944   0.05099   0.05181   0.05959
 Alpha virt. eigenvalues --    0.06237   0.06894   0.07326   0.08119   0.08933
 Alpha virt. eigenvalues --    0.09262   0.10707   0.11830   0.13148   0.14277

 Mulliken charges:
               1
     1  C   -3.147180
     2  O   -3.405587
     3  C    1.768098
     4  C   -0.606724
     5  N   -2.895925
     6  C   -3.469376
     7  C   -1.440522
     8  H    1.237636
     9  H    1.274152
    10  H    1.407816
    11  H    1.834224
    12  H    1.463654
    13  H    0.054919
    14  H    1.505716
    15  H    1.480002
    16  H    1.439641
    17  H    0.149302
    18  H    1.350152
 Sum of Mulliken charges =  -0.00000

 Dipole moment (field-independent basis, Debye):
    X=             -1.9509    Y=             -0.5796    Z=             -1.8285  Tot=              2.7359

 Test job not archived.
 1\1\GINC-SE462\SP\RHF\Aug-CC-pVDZ\C5H11N1O1\OHZDE\09-Apr-2025\0\\#t hf
  aug-cc-pvdz iop(5/13=1,5/36=2,99/5=2) pseudo=read geom=check guess=(r
 ead,tcheck) scf=(maxcycle=1)\\title\\0,1\C,0,2.84779182,0.39835306,-0.
 04920246\O,0,1.67363797,0.91010199,-0.62629358\C,0,0.64034419,0.000864
 46,-0.61323089\C,0,-0.13848706,-0.41743105,0.65464752\N,0,-1.25043871,
 -0.41659868,-0.13550824\C,0,-2.61893905,-0.72366597,0.17740198\C,0,-0.
 74034693,0.41466061,-1.08192775\H,0,3.61658465,1.16276195,-0.14790363\
 H,0,3.18334593,-0.51302453,-0.56232132\H,0,2.70061485,0.17164246,1.013

 Normal termination of Gaussian 16 at Wed Apr  9 04:05:06 2025.
