 Gaussian 16, Revision C.01,

 ----------------------------------------------------------------------
 #t hf aug-cc-pvdz symm=none int=(grid=ultrafine) guess=(read,tcheck) s
 table=(opt,rrhf)
 ----------------------------------------------------------------------
 -----
 title
 -----
 Symbolic Z-matrix:
 Charge =  0 Multiplicity = 1

 SCF Done:  E(RHF) =  -263.614273517     A.U. after   20 cycles
 Normal termination of Gaussian 16 at Wed Apr  9 16:54:02 2025.
 Gaussian 16:  ES64L-G16RevC.01  3-Jul-2019

 ----------------------------------------------------------------------
 #t hf aug-cc-pvdz iop(5/13=1,5/36=2,99/5=2) pseudo=read geom=check gue
 ss=(read,tcheck) scf=(maxcycle=1)
 ----------------------------------------------------------------------
 -----
 title
 -----
 Structure from the checkpoint file:  "Grambow2020_b97d3_006867_forward_mol1.chk"
 Charge =  0 Multiplicity = 1

                         Standard orientation:
 ---------------------------------------------------------------------
 Center     Atomic      Atomic             Coordinates (Angstroms)
 Number     Number       Type             X           Y           Z
 ---------------------------------------------------------------------
      1          6           0        2.278728   -0.232312   -0.317118
      2          6           0        0.885119    0.176406    0.061347
      3          6           0       -0.208506   -0.756162    0.458074
      4          7           0       -1.490540   -0.578690   -0.079357
      5          7           0       -2.041431    0.479003   -0.408210
      6          6           0        0.176260    1.233931    0.308534
      7          1           0        2.711793   -0.874789    0.464929
      8          1           0        2.258040   -0.823125   -1.245817
      9          1           0        2.930219    0.639545   -0.454189
     10          1           0       -0.091143   -1.510274    1.240234
     11          1           0       -1.919408   -1.518186   -0.293420
     12          1           0        0.044697    2.253463    0.636210
 ---------------------------------------------------------------------

 SCF Done:  E(RHF) =  -264.862175178     A.U. after    2 cycles

 The electronic state is 1-A.
 Alpha  occ. eigenvalues --  -15.83636 -15.72421 -11.45696 -11.45237 -11.41723
 Alpha  occ. eigenvalues --  -11.39081  -1.53245  -1.24546  -1.06312  -1.00917
 Alpha  occ. eigenvalues --   -0.84325  -0.76018  -0.69741  -0.61265  -0.58448
 Alpha  occ. eigenvalues --   -0.57360  -0.54744  -0.51575  -0.46677  -0.38264
 Alpha  occ. eigenvalues --   -0.32179  -0.24321
 Alpha virt. eigenvalues --    0.03067   0.05015   0.05336   0.05727   0.06166
 Alpha virt. eigenvalues --    0.06870   0.08354   0.09832   0.10864   0.11947
 Alpha virt. eigenvalues --    0.13655   0.14137   0.14507   0.14987   0.15458

 Mulliken charges:
               1
     1  C   -4.523634
     2  C    3.458665
     3  C   -0.357214
     4  N   -0.853536
     5  N   -1.520670
     6  C   -2.700141
     7  H    1.199009
     8  H    1.213835
     9  H    1.192884
    10  H    1.206401
    11  H    0.783851
    12  H    0.900548
 Sum of Mulliken charges =  -0.00000

 Dipole moment (field-independent basis, Debye):
    X=              2.4810    Y=             -1.0603    Z=              0.9628  Tot=              2.8647

 Test job not archived.
 1\1\GINC-SE125\SP\RHF\Aug-CC-pVDZ\C4H6N2\OHZDE\09-Apr-2025\0\\#t hf au
 g-cc-pvdz iop(5/13=1,5/36=2,99/5=2) pseudo=read geom=check guess=(read
 ,tcheck) scf=(maxcycle=1)\\title\\0,1\C,0,-1.63992894,-0.78952425,0.36
 008081\C,0,-0.45399566,0.12039961,0.22578845\C,0,0.61556147,-0.0047061
 2,-0.80546578\N,0,1.95733676,0.12286294,-0.42166264\N,0,2.4301562,0.82
 212735,0.48266547\C,0,0.02402405,1.23033358,0.69641216\H,0,-2.16926441
 ,-0.86818638,-0.6019658\H,0,-1.30697103,-1.80368606,0.62949777\H,0,-2.
 3437229,-0.42361199,1.11780571\H,0,0.40337219,-0.0791428,-1.8748905\H,

 Normal termination of Gaussian 16 at Wed Apr  9 16:54:10 2025.
