 Gaussian 16, Revision C.01,

 ----------------------------------------------------------------------
 #t hf aug-cc-pvdz symm=none int=(grid=ultrafine) guess=(read,tcheck) s
 table=(opt,rrhf)
 ----------------------------------------------------------------------
 -----
 title
 -----
 Symbolic Z-matrix:
 Charge =  0 Multiplicity = 1

 SCF Done:  E(RHF) =  -323.701824150     A.U. after   16 cycles
 Normal termination of Gaussian 16 at Wed Apr  9 18:16:23 2025.
 Gaussian 16:  ES64L-G16RevC.01  3-Jul-2019

 ----------------------------------------------------------------------
 #t hf aug-cc-pvdz iop(5/13=1,5/36=2,99/5=2) pseudo=read geom=check gue
 ss=(read,tcheck) scf=(maxcycle=1)
 ----------------------------------------------------------------------
 -----
 title
 -----
 Structure from the checkpoint file:  "Grambow2020_wb97xd3_006820_forward_mol1.chk"
 Charge =  0 Multiplicity = 1

                         Standard orientation:
 ---------------------------------------------------------------------
 Center     Atomic      Atomic             Coordinates (Angstroms)
 Number     Number       Type             X           Y           Z
 ---------------------------------------------------------------------
      1          6           0       -1.984589   -1.043595   -0.284451
      2          6           0       -1.311929    0.302606   -0.259910
      3          6           0       -0.862730    0.900605    0.960509
      4          6           0        0.936806    1.465178   -0.514617
      5          6           0        0.269361    0.280188   -0.182475
      6          7           0        0.758635   -0.912280    0.141109
      7          8           0        2.162897   -0.789709    0.090221
      8          1           0       -3.054718   -0.912979   -0.110699
      9          1           0       -1.571903   -1.701323    0.477118
     10          1           0       -1.842176   -1.520655   -1.253206
     11          1           0       -1.642086    0.997913   -1.023097
     12          1           0       -0.869751    1.968166    1.106071
     13          1           0       -0.756714    0.284464    1.841808
     14          1           0        2.012934    1.484937   -0.587454
     15          1           0        0.375551    2.358701   -0.741743
     16          1           0        2.453721   -1.685492    0.267334
 ---------------------------------------------------------------------

 SCF Done:  E(RHF) =  -325.227676862     A.U. after    2 cycles

 The electronic state is 1-A.
 Alpha  occ. eigenvalues --  -21.04418 -15.67519 -11.50102 -11.47310 -11.43257
 Alpha  occ. eigenvalues --  -11.39539 -11.38693  -1.73254  -1.38946  -1.12987
 Alpha  occ. eigenvalues --   -1.06196  -0.99923  -0.86861  -0.74249  -0.69188
 Alpha  occ. eigenvalues --   -0.65078  -0.60687  -0.57942  -0.54284  -0.54039
 Alpha  occ. eigenvalues --   -0.51812  -0.49936  -0.49518  -0.42231  -0.35206
 Alpha  occ. eigenvalues --   -0.30969  -0.18108
 Alpha virt. eigenvalues --    0.03270   0.04445   0.04818   0.05655   0.05853
 Alpha virt. eigenvalues --    0.06346   0.06784   0.07058   0.08252   0.08880
 Alpha virt. eigenvalues --    0.10987   0.12304   0.12703   0.13809   0.14061

 Mulliken charges:
               1
     1  C   -4.279012
     2  C   -0.348067
     3  C   -2.306713
     4  C   -4.725252
     5  C    4.099080
     6  N   -1.349663
     7  O   -2.634506
     8  H    1.071970
     9  H    1.298980
    10  H    1.255918
    11  H    1.270797
    12  H    1.244370
    13  H    1.360844
    14  H    1.691337
    15  H    1.424943
    16  H    0.924973
 Sum of Mulliken charges =  -0.00000

 Dipole moment (field-independent basis, Debye):
    X=             -2.9891    Y=              1.5300    Z=              0.8279  Tot=              3.4585

 Test job not archived.
 1\1\GINC-SE229\SP\RHF\Aug-CC-pVDZ\C5H9N1O1\OHZDE\09-Apr-2025\0\\#t hf
 aug-cc-pvdz iop(5/13=1,5/36=2,99/5=2) pseudo=read geom=check guess=(re
 ad,tcheck) scf=(maxcycle=1)\\title\\0,1\C,0,-1.40984168,-1.43047215,-0
 .35827629\C,0,-0.78343523,-0.10239798,-0.68867547\C,0,-0.87743215,1.01
 841122,0.1966247\C,0,1.38636538,1.21966805,-0.55689228\C,0,0.61786699,
 0.18512601,-0.00995716\N,0,0.90202456,-0.65833929,0.97690449\O,0,2.199
 58489,-0.32584447,1.41888833\H,0,-2.45099653,-1.42771353,-0.68754232\H
 ,0,-1.36878967,-1.62754313,0.71054675\H,0,-0.88267341,-2.235433,-0.868

 Normal termination of Gaussian 16 at Wed Apr  9 18:16:28 2025.
