 Gaussian 16, Revision C.01,

 ----------------------------------------------------------------------
 #t hf aug-cc-pvdz symm=none int=(grid=ultrafine) guess=(read,tcheck) s
 table=(opt,rrhf)
 ----------------------------------------------------------------------
 -----
 title
 -----
 Symbolic Z-matrix:
 Charge =  0 Multiplicity = 1

 SCF Done:  E(RHF) =  -333.550917288     A.U. after   17 cycles
 Normal termination of Gaussian 16 at Wed Apr  9 03:32:37 2025.
 Gaussian 16:  ES64L-G16RevC.01  3-Jul-2019

 ----------------------------------------------------------------------
 #t hf aug-cc-pvdz iop(5/13=1,5/36=2,99/5=2) pseudo=read geom=check gue
 ss=(read,tcheck) scf=(maxcycle=1)
 ----------------------------------------------------------------------
 -----
 title
 -----
 Structure from the checkpoint file:  "Grambow2020_wb97xd3_006992_forward_mol1.chk"
 Charge =  0 Multiplicity = 1

                         Standard orientation:
 ---------------------------------------------------------------------
 Center     Atomic      Atomic             Coordinates (Angstroms)
 Number     Number       Type             X           Y           Z
 ---------------------------------------------------------------------
      1          7           0        2.223125   -0.001719   -0.106690
      2          6           0        0.857496    0.032604   -0.000110
      3          6           0        0.120537    1.206630    0.074738
      4          7           0       -1.187000    1.056091   -0.079581
      5          6           0       -1.820328   -0.163798   -0.081725
      6          7           0       -1.063344   -1.267497    0.068356
      7          7           0        0.238655   -1.159187    0.023038
      8          1           0        2.743759    0.789264    0.227832
      9          1           0        2.630445   -0.902412    0.084697
     10          1           0        0.540151    2.196905    0.207594
     11          1           0       -2.340640    1.069810    0.186598
 ---------------------------------------------------------------------

 SCF Done:  E(RHF) =  -335.062468655     A.U. after    2 cycles

 The electronic state is 1-A.
 Alpha  occ. eigenvalues --  -15.80124 -15.79276 -15.78362 -15.77627 -11.51040
 Alpha  occ. eigenvalues --  -11.44900 -11.39526  -1.61047  -1.41632  -1.38778
 Alpha  occ. eigenvalues --   -1.16959  -1.02018  -0.91488  -0.77066  -0.73274
 Alpha  occ. eigenvalues --   -0.67208  -0.63287  -0.62605  -0.55128  -0.50873
 Alpha  occ. eigenvalues --   -0.48700  -0.44931  -0.34306  -0.32602  -0.31453
 Alpha virt. eigenvalues --    0.02588   0.04513   0.05477   0.06591   0.06859
 Alpha virt. eigenvalues --    0.09892   0.10820   0.11171   0.11457   0.11809
 Alpha virt. eigenvalues --    0.12458   0.13243   0.14098   0.14472   0.16094

 Mulliken charges:
               1
     1  N   -3.329223
     2  C    4.056003
     3  C    0.320029
     4  N   -2.770864
     5  C    0.617043
     6  N   -1.191225
     7  N   -1.948208
     8  H    0.538974
     9  H    0.760284
    10  H    1.559659
    11  H    1.387528
 Sum of Mulliken charges =   0.00000

 Dipole moment (field-independent basis, Debye):
    X=              4.1561    Y=              3.7475    Z=              1.0533  Tot=              5.6944

 Test job not archived.
 1\1\GINC-SE184\SP\RHF\Aug-CC-pVDZ\C3H4N4\OHZDE\09-Apr-2025\0\\#t hf au
 g-cc-pvdz iop(5/13=1,5/36=2,99/5=2) pseudo=read geom=check guess=(read
 ,tcheck) scf=(maxcycle=1)\\title\\0,1\N,0,1.85249518,-0.08959122,-0.69
 252837\C,0,0.54041617,-0.14033093,-0.30092572\C,0,-0.02587147,0.741686
 4,0.60924561\N,0,-1.34877892,0.70222496,0.67623625\C,0,-2.11464902,-0.
 27391547,0.08477133\N,0,-1.48119679,-1.23585024,-0.61316879\N,0,-0.203
 51824,-1.1092635,-0.85913573\H,0,2.51456276,0.34286034,-0.07343936\H,0
 ,2.17575627,-0.91838428,-1.16411192\H,0,0.52629378,1.45381488,1.211206

 Normal termination of Gaussian 16 at Wed Apr  9 03:32:41 2025.
