 Gaussian 16, Revision C.01,

 ----------------------------------------------------------------------
 #t hf aug-cc-pvdz symm=none int=(grid=ultrafine) guess=(read,tcheck) s
 table=(opt,rrhf)
 ----------------------------------------------------------------------
 -----
 title
 -----
 Symbolic Z-matrix:
 Charge =  0 Multiplicity = 1

 SCF Done:  E(RHF) =  -359.759727291     A.U. after   14 cycles
 Normal termination of Gaussian 16 at Wed Apr  9 19:33:48 2025.
 Gaussian 16:  ES64L-G16RevC.01  3-Jul-2019

 ----------------------------------------------------------------------
 #t hf aug-cc-pvdz iop(5/13=1,5/36=2,99/5=2) pseudo=read geom=check gue
 ss=(read,tcheck) scf=(maxcycle=1)
 ----------------------------------------------------------------------
 -----
 title
 -----
 Structure from the checkpoint file:  "Grambow2020_wb97xd3_009385_reverse_mol2.chk"
 Charge =  0 Multiplicity = 1

                         Standard orientation:
 ---------------------------------------------------------------------
 Center     Atomic      Atomic             Coordinates (Angstroms)
 Number     Number       Type             X           Y           Z
 ---------------------------------------------------------------------
      1          6           0        2.831147    0.267610   -0.218786
      2          7           0        1.392184    0.170498   -0.308499
      3          6           0        0.830137   -0.744512    0.329600
      4          8           0       -0.502353   -0.979694    0.316513
      5          6           0       -1.448701   -0.030683   -0.037448
      6          8           0       -2.454823   -0.423171   -0.533564
      7          6           0       -1.171239    1.398605    0.324393
      8          1           0        3.284419   -0.504439    0.415701
      9          1           0        3.257863    0.194274   -1.220233
     10          1           0        3.102402    1.247616    0.177736
     11          1           0        1.332628   -1.499981    0.939235
     12          1           0       -0.592226    1.479369    1.242960
     13          1           0       -2.128415    1.904272    0.426674
     14          1           0       -0.592614    1.862199   -0.472733
 ---------------------------------------------------------------------

 SCF Done:  E(RHF) =  -361.360555730     A.U. after    2 cycles

 The electronic state is 1-A.
 Alpha  occ. eigenvalues --  -21.10956 -21.05904 -15.74006 -11.53008 -11.47631
 Alpha  occ. eigenvalues --  -11.40093 -11.39506  -1.86869  -1.68536  -1.38643
 Alpha  occ. eigenvalues --   -1.11791  -1.02975  -0.88458  -0.75148  -0.68702
 Alpha  occ. eigenvalues --   -0.64785  -0.63120  -0.61348  -0.59648  -0.56846
 Alpha  occ. eigenvalues --   -0.52266  -0.49863  -0.47349  -0.41822  -0.39104
 Alpha  occ. eigenvalues --   -0.32186  -0.30264
 Alpha virt. eigenvalues --    0.03388   0.04699   0.05060   0.05723   0.06414
 Alpha virt. eigenvalues --    0.06531   0.07769   0.09484   0.10524   0.11558
 Alpha virt. eigenvalues --    0.12307   0.12981   0.13733   0.14218   0.14537

 Mulliken charges:
               1
     1  C   -3.027641
     2  N   -2.552002
     3  C    1.933679
     4  O   -3.516444
     5  C    4.795795
     6  O   -3.102038
     7  C   -4.201790
     8  H    1.280861
     9  H    1.340939
    10  H    1.335783
    11  H    1.896006
    12  H    1.361228
    13  H    1.097636
    14  H    1.357987
 Sum of Mulliken charges =  -0.00000

 Dipole moment (field-independent basis, Debye):
    X=              2.0704    Y=              0.3412    Z=              1.1701  Tot=              2.4025

 Test job not archived.
 1\1\GINC-SE224\SP\RHF\Aug-CC-pVDZ\C4H7N1O2\OHZDE\09-Apr-2025\0\\#t hf
 aug-cc-pvdz iop(5/13=1,5/36=2,99/5=2) pseudo=read geom=check guess=(re
 ad,tcheck) scf=(maxcycle=1)\\title\\0,1\C,0,-1.89160673,-1.26072023,0.
 7259955\N,0,-0.87266754,-0.52281894,0.01510912\C,0,-0.85977002,0.71984
 467,0.14132814\O,0,0.01086678,1.54371011,-0.48656395\C,0,1.23185953,1.
 13028701,-0.99621267\O,0,1.65158713,1.71151721,-1.94408364\C,0,1.96878
 042,0.05507958,-0.25347729\H,0,-2.56713141,-0.62384508,1.3109273\H,0,-
 2.48210603,-1.83517272,0.01068097\H,0,-1.4154658,-1.9748253,1.40020905

 Normal termination of Gaussian 16 at Wed Apr  9 19:33:52 2025.
