 Gaussian 16, Revision C.01,

 ----------------------------------------------------------------------
 #t hf aug-cc-pvdz symm=none int=(grid=ultrafine) guess=(read,tcheck) s
 table=(opt,rrhf)
 ----------------------------------------------------------------------
 -----
 title
 -----
 Symbolic Z-matrix:
 Charge =  0 Multiplicity = 1

 SCF Done:  E(RHF) =  -321.877170004     A.U. after   14 cycles
 Normal termination of Gaussian 16 at Wed Apr  9 16:01:47 2025.
 Gaussian 16:  ES64L-G16RevC.01  3-Jul-2019

 ----------------------------------------------------------------------
 #t hf aug-cc-pvdz iop(5/13=1,5/36=2,99/5=2) pseudo=read geom=check gue
 ss=(read,tcheck) scf=(maxcycle=1)
 ----------------------------------------------------------------------
 -----
 title
 -----
 Structure from the checkpoint file:  "Grambow2020_b97d3_006701_reverse_mol2.chk"
 Charge =  0 Multiplicity = 1

                         Standard orientation:
 ---------------------------------------------------------------------
 Center     Atomic      Atomic             Coordinates (Angstroms)
 Number     Number       Type             X           Y           Z
 ---------------------------------------------------------------------
      1          6           0       -0.096086    2.397672   -0.026293
      2          7           0       -0.622392   -1.290349    0.327329
      3          6           0       -1.665211   -0.725276    0.037807
      4          8           0       -2.737631   -0.244771   -0.121284
      5          8           0        2.045339   -0.769249   -0.619760
      6          6           0        2.515930   -0.224738    0.364241
      7          1           0        0.039266    3.480271   -0.135644
      8          1           0        0.251001    2.084304    0.966285
      9          1           0       -1.157793    2.146739   -0.130490
     10          1           0        0.266190   -1.204667   -0.181178
     11          1           0        3.563785    0.144099    0.373396
     12          1           0        1.925826   -0.069283    1.292064
     13          1           0        0.479008    1.877188   -0.801918
 ---------------------------------------------------------------------

 SCF Done:  E(RHF) =  -323.289404562     A.U. after    2 cycles

 The electronic state is 1-A.
 Alpha  occ. eigenvalues --  -21.11548 -21.10971 -15.76603 -11.56044 -11.50990
 Alpha  occ. eigenvalues --  -11.36598  -1.75225  -1.74328  -1.33902  -1.03432
 Alpha  occ. eigenvalues --   -0.93031  -0.78497  -0.69256  -0.61150  -0.57790
 Alpha  occ. eigenvalues --   -0.56535  -0.56143  -0.54504  -0.54374  -0.53843
 Alpha  occ. eigenvalues --   -0.47840  -0.38286  -0.34016  -0.33450
 Alpha virt. eigenvalues --    0.02657   0.04316   0.05454   0.06430   0.06910
 Alpha virt. eigenvalues --    0.07774   0.08314   0.09551   0.10516   0.10993
 Alpha virt. eigenvalues --    0.12835   0.13117   0.14064   0.14429   0.15265

 Mulliken charges:
               1
     1  C   -5.209441
     2  N   -2.547740
     3  C    3.829440
     4  O   -2.230355
     5  O   -2.138100
     6  C   -0.979113
     7  H    1.192505
     8  H    1.353249
     9  H    1.289050
    10  H    1.090209
    11  H    1.418600
    12  H    1.624705
    13  H    1.306992
 Sum of Mulliken charges =   0.00000

 Dipole moment (field-independent basis, Debye):
    X=              1.8371    Y=              1.2954    Z=             -0.1436  Tot=              2.2525

 Test job not archived.
 1\1\GINC-SE129\SP\RHF\Aug-CC-pVDZ\C3H7N1O2\OHZDE\09-Apr-2025\0\\#t hf
 aug-cc-pvdz iop(5/13=1,5/36=2,99/5=2) pseudo=read geom=check guess=(re
 ad,tcheck) scf=(maxcycle=1)\\title\\0,1\C,0,-1.32473056,-0.76817565,-1
 .38139739\N,0,0.18115977,0.6467368,1.73851633\C,0,-0.83211819,0.013711
 36,1.98981253\O,0,-1.86501356,-0.47603219,2.30534\O,0,2.25420853,0.066
 29681,-0.1722071\C,0,1.98804445,0.89127987,-1.02939203\H,0,-1.7795992,
 -1.19203866,-2.28457654\H,0,-1.21691021,0.31713075,-1.50125571\H,0,-1.
 9656996,-0.97130478,-0.5159819\H,0,0.98421671,0.30169908,1.1985665\H,0

 Normal termination of Gaussian 16 at Wed Apr  9 16:01:50 2025.
