 Gaussian 16, Revision C.01,

 ----------------------------------------------------------------------
 #t hf aug-cc-pvdz symm=none int=(grid=ultrafine) guess=(read,tcheck) s
 table=(opt,rrhf)
 ----------------------------------------------------------------------
 -----
 title
 -----
 Symbolic Z-matrix:
 Charge =  0 Multiplicity = 1

 SCF Done:  E(RHF) =  -358.406277610     A.U. after   19 cycles
 Normal termination of Gaussian 16 at Wed Apr  9 18:14:28 2025.
 Gaussian 16:  ES64L-G16RevC.01  3-Jul-2019

 ----------------------------------------------------------------------
 #t hf aug-cc-pvdz iop(5/13=1,5/36=2,99/5=2) pseudo=read geom=check gue
 ss=(read,tcheck) scf=(maxcycle=1)
 ----------------------------------------------------------------------
 -----
 title
 -----
 Structure from the checkpoint file:  "Grambow2020_wb97xd3_006799_forward_mol1.chk"
 Charge =  0 Multiplicity = 1

                         Standard orientation:
 ---------------------------------------------------------------------
 Center     Atomic      Atomic             Coordinates (Angstroms)
 Number     Number       Type             X           Y           Z
 ---------------------------------------------------------------------
      1          8           0        0.876792   -1.409211    0.029505
      2          6           0        1.713856   -0.544484   -0.238962
      3          6           0        1.535558    0.823139   -0.058561
      4          6           0        0.098143    1.271471   -0.042350
      5          7           0       -0.429181    0.278191    0.769319
      6          6           0       -1.507648   -0.457697    0.254503
      7          8           0       -2.265217   -0.019194   -0.571538
      8          1           0        2.617808   -0.834461   -0.798653
      9          1           0        2.353926    1.528561   -0.015973
     10          1           0       -0.377291    1.444836   -1.013015
     11          1           0        0.128613    2.207663    0.532833
     12          1           0       -1.650834   -1.421272    0.758055
 ---------------------------------------------------------------------

 SCF Done:  E(RHF) =  -359.967837324     A.U. after    2 cycles

 The electronic state is 1-A.
 Alpha  occ. eigenvalues --  -21.07692 -21.06733 -15.80081 -11.49232 -11.48774
 Alpha  occ. eigenvalues --  -11.47600 -11.42755  -1.73887  -1.71872  -1.40052
 Alpha  occ. eigenvalues --   -1.15092  -0.98666  -0.83538  -0.78475  -0.71770
 Alpha  occ. eigenvalues --   -0.70320  -0.59066  -0.57098  -0.55218  -0.51297
 Alpha  occ. eigenvalues --   -0.49319  -0.46707  -0.42016  -0.33141  -0.31071
 Alpha  occ. eigenvalues --   -0.25684
 Alpha virt. eigenvalues --    0.02450   0.03155   0.05029   0.05192   0.06130
 Alpha virt. eigenvalues --    0.06787   0.10071   0.10461   0.11006   0.11488
 Alpha virt. eigenvalues --    0.12776   0.12999   0.13813   0.14443   0.15450

 Mulliken charges:
               1
     1  O   -2.597459
     2  C    1.528925
     3  C   -0.889873
     4  C   -3.003038
     5  N   -1.827229
     6  C    2.123725
     7  O   -2.583125
     8  H    1.505083
     9  H    1.406442
    10  H    1.348478
    11  H    1.320070
    12  H    1.668001
 Sum of Mulliken charges =   0.00000

 Dipole moment (field-independent basis, Debye):
    X=              1.1335    Y=              0.4509    Z=             -0.3566  Tot=              1.2710

 Test job not archived.
 1\1\GINC-SE131\SP\RHF\Aug-CC-pVDZ\C4H5N1O2\OHZDE\09-Apr-2025\0\\#t hf
 aug-cc-pvdz iop(5/13=1,5/36=2,99/5=2) pseudo=read geom=check guess=(re
 ad,tcheck) scf=(maxcycle=1)\\title\\0,1\O,0,1.14261461,-1.26265704,-0.
 4565577\C,0,1.59777262,-0.11755412,-0.50209564\C,0,1.00731535,1.000341
 6,0.07790237\C,0,-0.47815066,0.88343837,0.295046\N,0,-0.52130646,-0.40
 490295,0.80670758\C,0,-1.36058894,-1.32064314,0.15349736\O,0,-2.334401
 3,-0.98735687,-0.47032004\H,0,2.45280467,0.08921436,-1.16590156\H,0,1.
 54388666,1.91619669,0.28395953\H,0,-1.12302184,1.1167806,-0.55816861\H

 Normal termination of Gaussian 16 at Wed Apr  9 18:14:32 2025.
