 Gaussian 16, Revision C.01,

 ----------------------------------------------------------------------
 #t hf aug-cc-pvdz symm=none int=(grid=ultrafine) guess=(read,tcheck) s
 table=(opt,rrhf)
 ----------------------------------------------------------------------
 -----
 title
 -----
 Symbolic Z-matrix:
 Charge =  0 Multiplicity = 1

 SCF Done:  E(RHF) =  -302.716359380     A.U. after   18 cycles
 Normal termination of Gaussian 16 at Wed Apr  9 04:05:56 2025.
 Gaussian 16:  ES64L-G16RevC.01  3-Jul-2019

 ----------------------------------------------------------------------
 #t hf aug-cc-pvdz iop(5/13=1,5/36=2,99/5=2) pseudo=read geom=check gue
 ss=(read,tcheck) scf=(maxcycle=1)
 ----------------------------------------------------------------------
 -----
 title
 -----
 Structure from the checkpoint file:  "Grambow2020_wb97xd3_009330_forward_mol1.chk"
 Charge =  0 Multiplicity = 1

                         Standard orientation:
 ---------------------------------------------------------------------
 Center     Atomic      Atomic             Coordinates (Angstroms)
 Number     Number       Type             X           Y           Z
 ---------------------------------------------------------------------
      1          6           0        2.437611   -0.448169    0.021981
      2          7           0        1.043757   -0.096266   -0.094125
      3          6           0       -0.012677   -0.924118   -0.005145
      4          6           0       -1.218445   -0.125442    0.045013
      5          6           0       -2.597901   -0.494818   -0.167590
      6          6           0       -0.614295    1.224342    0.020165
      7          7           0        0.681736    1.200041   -0.048567
      8          1           0        2.748549   -0.499528    1.068105
      9          1           0        3.022962    0.311768   -0.490069
     10          1           0        2.604340   -1.414444   -0.452317
     11          1           0        0.094852   -1.995855    0.036005
     12          1           0       -1.181593   -0.338720    1.179792
     13          1           0       -2.847874   -1.545762   -0.082843
     14          1           0       -3.339311    0.202512    0.201627
     15          1           0       -1.146136    2.162829    0.051999
 ---------------------------------------------------------------------

 SCF Done:  E(RHF) =  -304.164955904     A.U. after    2 cycles

 The electronic state is 1-A.
 Alpha  occ. eigenvalues --  -15.82647 -15.78356 -11.51280 -11.47411 -11.44128
 Alpha  occ. eigenvalues --  -11.41881 -11.30627  -1.65697  -1.28072  -1.22074
 Alpha  occ. eigenvalues --   -1.05717  -0.94089  -0.83281  -0.81890  -0.72205
 Alpha  occ. eigenvalues --   -0.69295  -0.63026  -0.59876  -0.57896  -0.56607
 Alpha  occ. eigenvalues --   -0.52197  -0.49284  -0.47458  -0.41830  -0.37164
 Alpha  occ. eigenvalues --   -0.18495
 Alpha virt. eigenvalues --    0.02496   0.04474   0.04888   0.05365   0.06057
 Alpha virt. eigenvalues --    0.06157   0.07128   0.08014   0.08534   0.10210
 Alpha virt. eigenvalues --    0.10544   0.11847   0.12411   0.13378   0.14007

 Mulliken charges:
               1
     1  C   -3.456782
     2  N   -2.371036
     3  C    0.327036
     4  C    0.353693
     5  C   -3.949028
     6  C    0.382521
     7  N   -2.298206
     8  H    1.464869
     9  H    1.380731
    10  H    1.436794
    11  H    1.487424
    12  H    1.492448
    13  H    1.161753
    14  H    1.116966
    15  H    1.470817
 Sum of Mulliken charges =   0.00000

 Dipole moment (field-independent basis, Debye):
    X=              6.0084    Y=             -0.9112    Z=              1.3996  Tot=              6.2362

 Test job not archived.
 1\1\GINC-SE080\SP\RHF\Aug-CC-pVDZ\C5H8N2\OHZDE\09-Apr-2025\0\\#t hf au
 g-cc-pvdz iop(5/13=1,5/36=2,99/5=2) pseudo=read geom=check guess=(read
 ,tcheck) scf=(maxcycle=1)\\title\\0,1\C,0,-2.43772288,-0.21745013,-0.3
 9928763\N,0,-1.08615202,0.05922476,0.02125012\C,0,-0.01269055,-0.73902
 942,-0.11938675\C,0,1.17024406,0.0166833,0.23252385\C,0,2.50673998,-0.
 42712463,0.55088093\C,0,0.54319,1.32474498,0.52115751\N,0,-0.74699873,
 1.31250198,0.37876669\H,0,-2.58085693,0.01796954,-1.45654247\H,0,-3.11
 050377,0.39227749,0.19898699\H,0,-2.6572702,-1.27094927,-0.2308174\H,0

 Normal termination of Gaussian 16 at Wed Apr  9 04:06:00 2025.
