 Gaussian 16, Revision C.01,

 ----------------------------------------------------------------------
 #t hf aug-cc-pvdz symm=none int=(grid=ultrafine) guess=(read,tcheck) s
 table=(opt,rrhf)
 ----------------------------------------------------------------------
 -----
 title
 -----
 Symbolic Z-matrix:
 Charge =  0 Multiplicity = 1

 SCF Done:  E(RHF) =  -191.964875266     A.U. after   13 cycles
 Normal termination of Gaussian 16 at Wed Apr  9 16:23:36 2025.
 Gaussian 16:  ES64L-G16RevC.01  3-Jul-2019

 ----------------------------------------------------------------------
 #t hf aug-cc-pvdz iop(5/13=1,5/36=2,99/5=2) pseudo=read geom=check gue
 ss=(read,tcheck) scf=(maxcycle=1)
 ----------------------------------------------------------------------
 -----
 title
 -----
 Structure from the checkpoint file:  "Grambow2020_b97d3_006805_reverse_mol2.chk"
 Charge =  0 Multiplicity = 1

                         Standard orientation:
 ---------------------------------------------------------------------
 Center     Atomic      Atomic             Coordinates (Angstroms)
 Number     Number       Type             X           Y           Z
 ---------------------------------------------------------------------
      1          6           0       -1.403877   -0.242860    0.000386
      2          6           0        0.084769   -0.044992   -0.001217
      3          8           0        0.398502    1.294130   -0.000768
      4          6           0        0.995242   -1.038396   -0.000678
      5          1           0       -1.855785    0.241183   -0.877640
      6          1           0       -1.656221   -1.308682   -0.012766
      7          1           0       -1.850650    0.217453    0.893872
      8          1           0        2.069097   -0.844069    0.000864
      9          1           0        1.371786    1.375984    0.008070
     10          1           0        0.676951   -2.077420    0.002802
 ---------------------------------------------------------------------

 SCF Done:  E(RHF) =  -192.857205001     A.U. after    2 cycles

 The electronic state is 1-A.
 Alpha  occ. eigenvalues --  -21.09753 -11.45877 -11.38370 -11.36310  -1.74553
 Alpha  occ. eigenvalues --   -1.15299  -1.00304  -0.78014  -0.64102  -0.61618
 Alpha  occ. eigenvalues --   -0.58389  -0.52690  -0.48315  -0.44981  -0.43472
 Alpha  occ. eigenvalues --   -0.28325
 Alpha virt. eigenvalues --    0.03288   0.05647   0.05816   0.06052   0.07004
 Alpha virt. eigenvalues --    0.07305   0.11205   0.12177   0.13892   0.14440
 Alpha virt. eigenvalues --    0.14959   0.15493   0.17262   0.17718   0.18445

 Mulliken charges:
               1
     1  C   -3.606183
     2  C    3.810727
     3  O   -3.631349
     4  C   -4.118527
     5  H    1.204227
     6  H    1.284288
     7  H    1.206924
     8  H    1.511962
     9  H    0.907336
    10  H    1.430595
 Sum of Mulliken charges =   0.00000

 Dipole moment (field-independent basis, Debye):
    X=             -0.1208    Y=              0.4605    Z=              0.0120  Tot=              0.4763

 Test job not archived.
 1\1\GINC-SE043\SP\RHF\Aug-CC-pVDZ\C3H6O1\OHZDE\09-Apr-2025\0\\#t hf au
 g-cc-pvdz iop(5/13=1,5/36=2,99/5=2) pseudo=read geom=check guess=(read
 ,tcheck) scf=(maxcycle=1)\\title\\0,1\C,0,-1.19828757,-0.10394788,0.47
 838419\C,0,0.16477292,0.22721685,-0.05791751\O,0,0.37622319,1.58619689
 ,-0.0462466\C,0,1.06438785,-0.67773559,-0.49100857\H,0,-1.97628976,0.3
 9457931,-0.11796354\H,0,-1.37386158,-1.18496357,0.45826389\H,0,-1.3000
 761,0.2537405,1.51352153\H,0,2.04564338,-0.38775837,-0.87045582\H,0,1.
 27392439,1.75484388,-0.39229537\H,0,0.83260727,-1.73918401,-0.4686822\

 Normal termination of Gaussian 16 at Wed Apr  9 16:23:38 2025.
