 Gaussian 16, Revision C.01,

 ----------------------------------------------------------------------
 #t hf aug-cc-pvdz symm=none int=(grid=ultrafine) guess=(read,tcheck) s
 table=(opt,rrhf)
 ----------------------------------------------------------------------
 -----
 title
 -----
 Symbolic Z-matrix:
 Charge =  0 Multiplicity = 1

 SCF Done:  E(RHF) =  -345.970438951     A.U. after   16 cycles

 1\1\GINC-SE104\Stability\RHF\Aug-CC-pVDZ\C5H12O2\OHZDE\09-Apr-2025\0\\
 #t hf aug-cc-pvdz symm=none int=(grid=ultrafine) guess=(read,tcheck) s
 table=(opt,rrhf)\\title\\0,1\C,0,2.07993867,0.97937012,0.91004118\C,0,
 1.02075123,-0.02975019,1.33344107\C,0,0.33639486,-0.70547551,0.1528890
 7\O,0,-0.63509252,-1.62546649,0.47701795\C,0,-0.54676523,0.17559932,-0
 .64166706\C,0,-0.94480531,-0.20760672,-2.00453367\O,0,-2.40204932,0.03
 543801,0.57557094\H,0,2.86971135,0.50227745,0.32409092\H,0,1.6566795,1
 .78319084,0.29970794\H,0,2.5484584,1.44876998,1.77590497\H,0,1.4638663

 Normal termination of Gaussian 16 at Wed Apr  9 19:06:21 2025.
 Gaussian 16:  ES64L-G16RevC.01  3-Jul-2019

 ----------------------------------------------------------------------
 #t hf aug-cc-pvdz iop(5/13=1,5/36=2,99/5=2) pseudo=read geom=check gue
 ss=(read,tcheck) scf=(maxcycle=1)
 ----------------------------------------------------------------------
 -----
 title
 -----
 Structure from the checkpoint file:  "Grambow2020_wb97xd3_008083_forward_mol1.chk"
 Charge =  0 Multiplicity = 1

                         Standard orientation:
 ---------------------------------------------------------------------
 Center     Atomic      Atomic             Coordinates (Angstroms)
 Number     Number       Type             X           Y           Z
 ---------------------------------------------------------------------
      1          6           0       -2.592586    0.424759   -0.508370
      2          6           0       -1.626237   -0.605589    0.060857
      3          6           0       -0.373038    0.019726    0.658455
      4          8           0        0.539629   -0.866608    1.184460
      5          6           0        0.550754    0.623763   -0.326091
      6          6           0        1.567552    1.593170    0.108722
      7          8           0        1.685920   -1.190022   -0.930220
      8          1           0       -2.930143    1.120381    0.264198
      9          1           0       -2.134288    1.016352   -1.306971
     10          1           0       -3.476741   -0.053025   -0.932115
     11          1           0       -2.102894   -1.183763    0.855340
     12          1           0       -1.321461   -1.322691   -0.707320
     13          1           0       -0.672771    0.795747    1.390442
     14          1           0        1.282548   -1.327608    0.019931
     15          1           0        0.376891    0.529172   -1.391378
     16          1           0        1.802885    1.474047    1.163789
     17          1           0        2.470801    1.564267   -0.498400
     18          1           0        1.110687    2.581475   -0.044244
     19          1           0        2.631420   -1.076286   -0.808635
 ---------------------------------------------------------------------

 SCF Done:  E(RHF) =  -347.607846096     A.U. after    2 cycles

 The electronic state is 1-A.
 Alpha  occ. eigenvalues --  -21.05033 -20.94676 -11.54688 -11.45499 -11.42366
 Alpha  occ. eigenvalues --  -11.39798 -11.36090  -1.67437  -1.59063  -1.22505
 Alpha  occ. eigenvalues --   -1.15835  -0.98557  -0.89892  -0.81594  -0.67638
 Alpha  occ. eigenvalues --   -0.65581  -0.62132  -0.61224  -0.57219  -0.56744
 Alpha  occ. eigenvalues --   -0.55157  -0.52206  -0.47660  -0.46453  -0.46031
 Alpha  occ. eigenvalues --   -0.38738  -0.34882  -0.24255  -0.21689
 Alpha virt. eigenvalues --    0.03235   0.04310   0.04718   0.04828   0.05425
 Alpha virt. eigenvalues --    0.05701   0.06472   0.07216   0.07652   0.08190
 Alpha virt. eigenvalues --    0.08557   0.08927   0.10549   0.12383   0.13023

 Mulliken charges:
               1
     1  C   -3.555718
     2  C   -3.738541
     3  C    1.050740
     4  O   -3.168884
     5  C   -0.800889
     6  C   -3.980459
     7  O   -2.052970
     8  H    1.245556
     9  H    1.331965
    10  H    1.152638
    11  H    1.261026
    12  H    1.388000
    13  H    1.759595
    14  H    1.524947
    15  H    1.893325
    16  H    1.329792
    17  H    1.218847
    18  H    1.267519
    19  H    0.873510
 Sum of Mulliken charges =  -0.00000

 Dipole moment (field-independent basis, Debye):
    X=              0.6486    Y=              2.7271    Z=             -1.6822  Tot=              3.2692

 Test job not archived.
 1\1\GINC-SE104\SP\RHF\Aug-CC-pVDZ\C5H12O2\OHZDE\09-Apr-2025\0\\#t hf a
 ug-cc-pvdz iop(5/13=1,5/36=2,99/5=2) pseudo=read geom=check guess=(rea
 d,tcheck) scf=(maxcycle=1)\\title\\0,1\C,0,2.07993867,0.97937012,0.910
 04118\C,0,1.02075123,-0.02975019,1.33344107\C,0,0.33639486,-0.70547551
 ,0.15288907\O,0,-0.63509252,-1.62546649,0.47701795\C,0,-0.54676523,0.1
 7559932,-0.64166706\C,0,-0.94480531,-0.20760672,-2.00453367\O,0,-2.402
 04932,0.03543801,0.57557094\H,0,2.86971135,0.50227745,0.32409092\H,0,1
 .6566795,1.78319084,0.29970794\H,0,2.5484584,1.44876998,1.77590497\H,0

 Normal termination of Gaussian 16 at Wed Apr  9 19:06:28 2025.
