 Gaussian 16, Revision C.01,

 ----------------------------------------------------------------------
 #t hf aug-cc-pvdz symm=none int=(grid=ultrafine) guess=(read,tcheck) s
 table=(opt,rrhf)
 ----------------------------------------------------------------------
 -----
 title
 -----
 Symbolic Z-matrix:
 Charge =  0 Multiplicity = 1

 SCF Done:  E(RHF) =  -310.089025013     A.U. after   15 cycles

 1\1\GINC-SE159\Stability\RHF\Aug-CC-pVDZ\C6H14O1\OHZDE\09-Apr-2025\0\\
 #t hf aug-cc-pvdz symm=none int=(grid=ultrafine) guess=(read,tcheck) s
 table=(opt,rrhf)\\title\\0,1\C,0,2.42041821,-1.44730814,-0.49242542\O,
 0,2.02886421,-0.55656457,0.53808084\C,0,1.56203195,0.62494333,0.100928
 23\C,0,-0.66002554,0.41701705,0.04973725\C,0,-1.10145563,1.8259294,0.3
 6725717\C,0,-1.26020484,-0.09368093,-1.2534955\C,0,-0.81311264,-0.5709
 1557,1.17417011\H,0,3.05052775,-0.93148766,-1.21941445\H,0,1.54133824,
 -1.85245248,-1.00340842\H,0,2.9674095,-2.2636194,-0.02249492\H,0,0.565

 Normal termination of Gaussian 16 at Wed Apr  9 19:21:46 2025.
 Gaussian 16:  ES64L-G16RevC.01  3-Jul-2019

 ----------------------------------------------------------------------
 #t hf aug-cc-pvdz iop(5/13=1,5/36=2,99/5=2) pseudo=read geom=check gue
 ss=(read,tcheck) scf=(maxcycle=1)
 ----------------------------------------------------------------------
 -----
 title
 -----
 Structure from the checkpoint file:  "Grambow2020_wb97xd3_008658_forward_mol1.chk"
 Charge =  0 Multiplicity = 1

                         Standard orientation:
 ---------------------------------------------------------------------
 Center     Atomic      Atomic             Coordinates (Angstroms)
 Number     Number       Type             X           Y           Z
 ---------------------------------------------------------------------
      1          6           0       -2.585747    0.532811   -0.165207
      2          8           0       -1.797273   -0.580811    0.217987
      3          6           0       -0.852849   -0.923693   -0.673916
      4          6           0        1.021881    0.073209    0.015261
      5          6           0        2.071282   -0.914860   -0.435505
      6          6           0        1.280014    1.473162   -0.525980
      7          6           0        0.737506    0.076131    1.492731
      8          1           0       -2.929764    0.416696   -1.194669
      9          1           0       -2.007492    1.458462   -0.082632
     10          1           0       -3.432341    0.579085    0.518558
     11          1           0       -0.007223   -0.106715   -0.880193
     12          1           0       -0.396633   -1.858814   -0.344940
     13          1           0        1.948345   -1.885427    0.047394
     14          1           0        3.076316   -0.548561   -0.198463
     15          1           0        2.028754   -1.067640   -1.518012
     16          1           0        0.481752    2.164561   -0.248234
     17          1           0        1.368595    1.475758   -1.615062
     18          1           0        2.216455    1.867235   -0.116064
     19          1           0       -0.184729    0.614708    1.722109
     20          1           0        1.551835    0.571459    2.034268
     21          1           0        0.631788   -0.934880    1.887745
 ---------------------------------------------------------------------

 SCF Done:  E(RHF) =  -311.644763432     A.U. after    2 cycles

 The electronic state is 1-A.
 Alpha  occ. eigenvalues --  -21.06423 -11.43856 -11.40671 -11.40087 -11.39577
 Alpha  occ. eigenvalues --  -11.39108 -11.35993  -1.77438  -1.27155  -1.02176
 Alpha  occ. eigenvalues --   -1.01561  -1.01403  -0.89155  -0.76918  -0.66291
 Alpha  occ. eigenvalues --   -0.64047  -0.61333  -0.60515  -0.59811  -0.55546
 Alpha  occ. eigenvalues --   -0.54387  -0.54008  -0.51750  -0.50353  -0.45190
 Alpha  occ. eigenvalues --   -0.44702  -0.43010  -0.35570  -0.23344
 Alpha virt. eigenvalues --    0.03699   0.05058   0.05209   0.05477   0.05674
 Alpha virt. eigenvalues --    0.05734   0.05899   0.06743   0.06977   0.08242
 Alpha virt. eigenvalues --    0.08678   0.09227   0.09546   0.10294   0.12051

 Mulliken charges:
               1
     1  C   -2.983143
     2  O   -2.742755
     3  C   -2.338792
     4  C    1.110103
     5  C   -4.550174
     6  C   -4.357961
     7  C   -4.928137
     8  H    1.284982
     9  H    1.473973
    10  H    1.230395
    11  H    4.444088
    12  H    1.133149
    13  H    1.406689
    14  H    1.188362
    15  H    1.151879
    16  H    1.309209
    17  H    1.129960
    18  H    1.218187
    19  H    1.454125
    20  H    1.041373
    21  H    1.324486
 Sum of Mulliken charges =   0.00000

 Dipole moment (field-independent basis, Debye):
    X=              1.0725    Y=              0.9711    Z=              1.3900  Tot=              2.0064

 Test job not archived.
 1\1\GINC-SE159\SP\RHF\Aug-CC-pVDZ\C6H14O1\OHZDE\09-Apr-2025\0\\#t hf a
 ug-cc-pvdz iop(5/13=1,5/36=2,99/5=2) pseudo=read geom=check guess=(rea
 d,tcheck) scf=(maxcycle=1)\\title\\0,1\C,0,2.42041821,-1.44730814,-0.4
 9242542\O,0,2.02886421,-0.55656457,0.53808084\C,0,1.56203195,0.6249433
 3,0.10092823\C,0,-0.66002554,0.41701705,0.04973725\C,0,-1.10145563,1.8
 259294,0.36725717\C,0,-1.26020484,-0.09368093,-1.2534955\C,0,-0.813112
 64,-0.57091557,1.17417011\H,0,3.05052775,-0.93148766,-1.21941445\H,0,1
 .54133824,-1.85245248,-1.00340842\H,0,2.9674095,-2.2636194,-0.02249492

 Normal termination of Gaussian 16 at Wed Apr  9 19:21:55 2025.
