 Gaussian 16, Revision C.01,

 ----------------------------------------------------------------------
 #t hf aug-cc-pvdz symm=none int=(grid=ultrafine) guess=(read,tcheck) s
 table=(opt,rrhf)
 ----------------------------------------------------------------------
 -----
 title
 -----
 Symbolic Z-matrix:
 Charge =  0 Multiplicity = 1

 SCF Done:  E(RHF) =  -302.683182363     A.U. after   17 cycles
 Normal termination of Gaussian 16 at Wed Apr  9 19:25:14 2025.
 Gaussian 16:  ES64L-G16RevC.01  3-Jul-2019

 ----------------------------------------------------------------------
 #t hf aug-cc-pvdz iop(5/13=1,5/36=2,99/5=2) pseudo=read geom=check gue
 ss=(read,tcheck) scf=(maxcycle=1)
 ----------------------------------------------------------------------
 -----
 title
 -----
 Structure from the checkpoint file:  "Grambow2020_wb97xd3_008921_reverse_mol1.chk"
 Charge =  0 Multiplicity = 1

                         Standard orientation:
 ---------------------------------------------------------------------
 Center     Atomic      Atomic             Coordinates (Angstroms)
 Number     Number       Type             X           Y           Z
 ---------------------------------------------------------------------
      1          6           0       -0.234098    1.896086   -0.217502
      2          7           0       -0.306858    0.602256    0.011249
      3          6           0       -1.530115   -0.063462    0.060286
      4          6           0       -1.237934   -1.376381   -0.080092
      5          6           0        0.211693   -1.548690   -0.073976
      6          6           0        0.774534   -0.330798    0.067115
      7          7           0        2.087107    0.139917    0.044088
      8          1           0        0.730417    2.373455   -0.090279
      9          1           0       -0.988712    2.376158   -0.816225
     10          1           0       -1.902727    2.093624    0.865699
     11          1           0       -2.178907    1.279156    0.648785
     12          1           0       -1.947353   -2.186411   -0.002926
     13          1           0        0.751866   -2.484718   -0.051339
     14          1           0        2.450442    0.376044    0.956469
     15          1           0        2.718750   -0.483052   -0.432525
 ---------------------------------------------------------------------

 SCF Done:  E(RHF) =  -304.160914123     A.U. after    2 cycles

 The electronic state is 1-A.
 Alpha  occ. eigenvalues --  -15.80341 -15.77343 -11.50087 -11.47715 -11.41261
 Alpha  occ. eigenvalues --  -11.37394 -11.33320  -1.55984  -1.34176  -1.20111
 Alpha  occ. eigenvalues --   -1.00469  -0.97107  -0.82181  -0.76478  -0.70273
 Alpha  occ. eigenvalues --   -0.68976  -0.65112  -0.60919  -0.57718  -0.53935
 Alpha  occ. eigenvalues --   -0.52050  -0.48588  -0.40279  -0.36750  -0.27828
 Alpha  occ. eigenvalues --   -0.27383
 Alpha virt. eigenvalues --    0.03043   0.04182   0.04658   0.04990   0.05967
 Alpha virt. eigenvalues --    0.06220   0.06643   0.08079   0.09058   0.10803
 Alpha virt. eigenvalues --    0.12235   0.12624   0.12839   0.13100   0.14382

 Mulliken charges:
               1
     1  C   -1.916898
     2  N   -2.346076
     3  C   -1.292319
     4  C    0.289126
     5  C   -2.284895
     6  C    3.753430
     7  N   -3.470692
     8  H    1.566777
     9  H    1.528564
    10  H   -0.099092
    11  H    0.199042
    12  H    1.511285
    13  H    1.425959
    14  H    0.519350
    15  H    0.616439
 Sum of Mulliken charges =  -0.00000

 Dipole moment (field-independent basis, Debye):
    X=              4.7892    Y=              0.2730    Z=             -0.5764  Tot=              4.8315

 Test job not archived.
 1\1\GINC-SE016\SP\RHF\Aug-CC-pVDZ\C5H8N2\OHZDE\09-Apr-2025\0\\#t hf au
 g-cc-pvdz iop(5/13=1,5/36=2,99/5=2) pseudo=read geom=check guess=(read
 ,tcheck) scf=(maxcycle=1)\\title\\0,1\C,0,-1.23049626,-1.24819038,0.05
 373594\N,0,-0.16533998,-0.47604469,0.08288712\C,0,1.1108086,-0.9987346
 7,0.2833443\C,0,1.96860241,-0.03582128,-0.1238667\C,0,1.21489642,1.170
 26524,-0.45315321\C,0,-0.09265032,0.91404614,-0.24189741\N,0,-1.269774
 48,1.62712125,-0.46740611\H,0,-2.19988175,-0.76382055,0.0480058\H,0,-1
 .14384319,-2.26556619,-0.28658366\H,0,-0.36687163,-2.34638391,1.483698

 Normal termination of Gaussian 16 at Wed Apr  9 19:25:19 2025.
