 Gaussian 16, Revision C.01,

 ----------------------------------------------------------------------
 #t hf aug-cc-pvdz symm=none int=(grid=ultrafine) guess=(read,tcheck) s
 table=(opt,rrhf)
 ----------------------------------------------------------------------
 -----
 title
 -----
 Symbolic Z-matrix:
 Charge =  0 Multiplicity = 1

 SCF Done:  E(RHF) =  -245.659396452     A.U. after   19 cycles
 Normal termination of Gaussian 16 at Wed Apr  9 17:38:10 2025.
 Gaussian 16:  ES64L-G16RevC.01  3-Jul-2019

 ----------------------------------------------------------------------
 #t hf aug-cc-pvdz iop(5/13=1,5/36=2,99/5=2) pseudo=read geom=check gue
 ss=(read,tcheck) scf=(maxcycle=1)
 ----------------------------------------------------------------------
 -----
 title
 -----
 Structure from the checkpoint file:  "Grambow2020_b97d3_007207_reverse_mol1.chk"
 Charge =  0 Multiplicity = 1

                         Standard orientation:
 ---------------------------------------------------------------------
 Center     Atomic      Atomic             Coordinates (Angstroms)
 Number     Number       Type             X           Y           Z
 ---------------------------------------------------------------------
      1          8           0       -1.339905   -0.800520    0.090512
      2          6           0       -1.159564    0.433822   -0.014132
      3          6           0        0.074125    1.083506   -0.151306
      4          6           0        1.279438    0.256332    0.281355
      5          7           0        1.003260   -0.968287   -0.362093
      6          1           0       -2.018589    1.116639    0.166664
      7          1           0        0.180974    2.104324   -0.514105
      8          1           0        2.125650    0.733000   -0.249801
      9          1           0        1.474620    0.271154    1.368565
     10          1           0        0.769768   -1.684910    0.343730
 ---------------------------------------------------------------------

 SCF Done:  E(RHF) =  -246.753169676     A.U. after    2 cycles

 The electronic state is 1-A.
 Alpha  occ. eigenvalues --  -21.03526 -15.83393 -11.46771 -11.45930 -11.40366
 Alpha  occ. eigenvalues --   -1.67838  -1.36404  -1.09854  -0.93082  -0.77163
 Alpha  occ. eigenvalues --   -0.69423  -0.68918  -0.55753  -0.53146  -0.48353
 Alpha  occ. eigenvalues --   -0.45449  -0.43919  -0.31135  -0.24541
 Alpha virt. eigenvalues --    0.03228   0.03393   0.05212   0.05524   0.06011
 Alpha virt. eigenvalues --    0.07187   0.10672   0.11545   0.12153   0.12874
 Alpha virt. eigenvalues --    0.14110   0.14705   0.15230   0.15781   0.17243

 Mulliken charges:
               1
     1  O   -2.609043
     2  C    1.595433
     3  C   -0.996185
     4  C   -2.658964
     5  N   -1.506652
     6  H    1.483545
     7  H    1.337404
     8  H    1.352664
     9  H    1.290367
    10  H    0.711430
 Sum of Mulliken charges =  -0.00000

 Dipole moment (field-independent basis, Debye):
    X=              1.2784    Y=              0.2212    Z=              1.1396  Tot=              1.7268

 Test job not archived.
 1\1\GINC-SE135\SP\RHF\Aug-CC-pVDZ\C3H5N1O1\OHZDE\09-Apr-2025\0\\#t hf
 aug-cc-pvdz iop(5/13=1,5/36=2,99/5=2) pseudo=read geom=check guess=(re
 ad,tcheck) scf=(maxcycle=1)\\title\\0,1\O,0,1.27106334,0.3458046,1.369
 39658\C,0,1.38625555,-0.16782746,0.2336214\C,0,0.39378959,-0.23051255,
 -0.7532805\C,0,-1.02777616,-0.03569946,-0.2381183\N,0,-0.85788638,1.10
 025874,0.58086049\H,0,2.29296943,-0.77159753,0.0096058\H,0,0.60009174,
 -0.42449613,-1.80443146\H,0,-1.58948366,0.27882103,-1.13865994\H,0,-1.
 48876087,-0.94803421,0.18078372\H,0,-0.96938157,0.83205297,1.57176321\

 Normal termination of Gaussian 16 at Wed Apr  9 17:38:13 2025.
