 Gaussian 16, Revision C.01,

 ----------------------------------------------------------------------
 #t hf aug-cc-pvdz symm=none int=(grid=ultrafine) guess=(read,tcheck) s
 table=(opt,rrhf)
 ----------------------------------------------------------------------
 -----
 title
 -----
 Symbolic Z-matrix:
 Charge =  0 Multiplicity = 1

 SCF Done:  E(RHF) =  -302.825303130     A.U. after   15 cycles
 Normal termination of Gaussian 16 at Wed Apr  9 18:24:23 2025.
 Gaussian 16:  ES64L-G16RevC.01  3-Jul-2019

 ----------------------------------------------------------------------
 #t hf aug-cc-pvdz iop(5/13=1,5/36=2,99/5=2) pseudo=read geom=check gue
 ss=(read,tcheck) scf=(maxcycle=1)
 ----------------------------------------------------------------------
 -----
 title
 -----
 Structure from the checkpoint file:  "Grambow2020_wb97xd3_006965_reverse_mol2.chk"
 Charge =  0 Multiplicity = 1

                         Standard orientation:
 ---------------------------------------------------------------------
 Center     Atomic      Atomic             Coordinates (Angstroms)
 Number     Number       Type             X           Y           Z
 ---------------------------------------------------------------------
      1          6           0       -2.233685   -0.662008   -0.480070
      2          6           0       -1.161340   -0.068215    0.047112
      3          6           0       -1.079306    1.423159    0.203022
      4          7           0       -0.099030   -0.808596    0.565020
      5          6           0        1.264672   -0.438238    0.535987
      6          6           0        1.795852    0.684165   -0.187397
      7          7           0        2.027259   -0.380082   -0.793102
      8          1           0        1.961786    1.747400   -0.305046
      9          1           0       -3.098198   -0.082893   -0.770472
     10          1           0       -2.280594   -1.736011   -0.615431
     11          1           0       -0.698850    1.695151    1.189495
     12          1           0       -0.427176    1.873330   -0.548473
     13          1           0       -2.067506    1.860655    0.074714
     14          1           0       -0.236940   -1.805303    0.503319
     15          1           0        1.832710   -0.864749    1.356547
 ---------------------------------------------------------------------

 SCF Done:  E(RHF) =  -304.269845698     A.U. after    2 cycles

 The electronic state is 1-A.
 Alpha  occ. eigenvalues --  -15.76475 -15.74440 -11.50337 -11.44764 -11.44013
 Alpha  occ. eigenvalues --  -11.38541 -11.35230  -1.50871  -1.37126  -1.14496
 Alpha  occ. eigenvalues --   -1.00797  -0.89875  -0.84171  -0.78216  -0.69230
 Alpha  occ. eigenvalues --   -0.64892  -0.62870  -0.60110  -0.55393  -0.53549
 Alpha  occ. eigenvalues --   -0.50861  -0.47884  -0.44263  -0.41033  -0.37306
 Alpha  occ. eigenvalues --   -0.27020
 Alpha virt. eigenvalues --    0.03534   0.04965   0.05392   0.05665   0.06181
 Alpha virt. eigenvalues --    0.06238   0.07603   0.08464   0.09766   0.10871
 Alpha virt. eigenvalues --    0.11694   0.12519   0.13305   0.13745   0.14158

 Mulliken charges:
               1
     1  C   -4.204729
     2  C    3.232521
     3  C   -4.008427
     4  N   -3.838477
     5  C    0.299276
     6  C    0.298434
     7  N   -1.899020
     8  H    1.066360
     9  H    1.514190
    10  H    1.579582
    11  H    1.289137
    12  H    1.323637
    13  H    1.259025
    14  H    0.516684
    15  H    1.571808
 Sum of Mulliken charges =   0.00000

 Dipole moment (field-independent basis, Debye):
    X=              0.5288    Y=              1.2007    Z=              1.1050  Tot=              1.7153

 Test job not archived.
 1\1\GINC-SE229\SP\RHF\Aug-CC-pVDZ\C5H8N2\OHZDE\09-Apr-2025\0\\#t hf au
 g-cc-pvdz iop(5/13=1,5/36=2,99/5=2) pseudo=read geom=check guess=(read
 ,tcheck) scf=(maxcycle=1)\\title\\0,1\C,0,-1.56420207,0.98222699,-1.09
 984253\C,0,-0.72831452,0.17009833,-0.45009264\C,0,-1.10182836,-0.46886
 617,0.85659943\N,0,0.50026195,-0.2000379,-0.99643924\C,0,1.68918889,-0
 .45148168,-0.27469161\C,0,1.86761345,-0.19765335,1.12850498\N,0,2.4176
 2517,0.6888011,0.44678932\H,0,1.70702575,-0.45087212,2.16866708\H,0,-2
 .55883344,1.16796162,-0.72129039\H,0,-1.28328993,1.46263007,-2.0295231

 Normal termination of Gaussian 16 at Wed Apr  9 18:24:28 2025.
