 Gaussian 16, Revision C.01,

 ----------------------------------------------------------------------
 #t hf aug-cc-pvdz symm=none int=(grid=ultrafine) guess=(read,tcheck) s
 table=(opt,rrhf)
 ----------------------------------------------------------------------
 -----
 title
 -----
 Symbolic Z-matrix:
 Charge =  0 Multiplicity = 1

 SCF Done:  E(RHF) =  -338.611005144     A.U. after   16 cycles
 Normal termination of Gaussian 16 at Wed Apr  9 03:52:35 2025.
 Gaussian 16:  ES64L-G16RevC.01  3-Jul-2019

 ----------------------------------------------------------------------
 #t hf aug-cc-pvdz iop(5/13=1,5/36=2,99/5=2) pseudo=read geom=check gue
 ss=(read,tcheck) scf=(maxcycle=1)
 ----------------------------------------------------------------------
 -----
 title
 -----
 Structure from the checkpoint file:  "Grambow2020_wb97xd3_008303_forward_mol1.chk"
 Charge =  0 Multiplicity = 1

                         Standard orientation:
 ---------------------------------------------------------------------
 Center     Atomic      Atomic             Coordinates (Angstroms)
 Number     Number       Type             X           Y           Z
 ---------------------------------------------------------------------
      1          6           0       -2.260998   -0.673262    0.000886
      2          8           0       -1.289840    1.184878   -0.001411
      3          6           0       -0.136521    0.643212   -0.000572
      4          6           0        1.183631    1.050056    0.000558
      5          7           0        1.930233   -0.124051    0.000225
      6          6           0        1.097379   -1.168751   -0.000748
      7          7           0       -0.147934   -0.725959   -0.000881
      8          1           0       -2.113569   -1.739939   -0.051883
      9          1           0       -2.703139   -0.232155   -0.878425
     10          1           0       -2.632796   -0.309217    0.945530
     11          1           0        1.638711    2.023216    0.001269
     12          1           0        2.932315   -0.181596   -0.000622
     13          1           0        1.420158   -2.196797   -0.000730
 ---------------------------------------------------------------------

 SCF Done:  E(RHF) =  -340.152546171     A.U. after    2 cycles

 The electronic state is 1-A.
 Alpha  occ. eigenvalues --  -20.96705 -15.79632 -15.71289 -11.49345 -11.43939
 Alpha  occ. eigenvalues --  -11.42924 -11.35775  -1.67050  -1.52594  -1.25745
 Alpha  occ. eigenvalues --   -1.05177  -1.03087  -0.84982  -0.76322  -0.72347
 Alpha  occ. eigenvalues --   -0.63049  -0.62552  -0.59486  -0.58989  -0.56113
 Alpha  occ. eigenvalues --   -0.43803  -0.42099  -0.40268  -0.34401  -0.26021
 Alpha  occ. eigenvalues --   -0.19734
 Alpha virt. eigenvalues --    0.02849   0.04060   0.04904   0.06049   0.06842
 Alpha virt. eigenvalues --    0.06964   0.09559   0.10155   0.11185   0.11483
 Alpha virt. eigenvalues --    0.12591   0.13698   0.14207   0.15147   0.15507

 Mulliken charges:
               1
     1  C   -3.696601
     2  O   -3.372064
     3  C    5.621656
     4  C   -1.937716
     5  N   -3.040607
     6  C    1.513205
     7  N   -2.941355
     8  H    1.325775
     9  H    1.364266
    10  H    1.360764
    11  H    1.296931
    12  H    0.856077
    13  H    1.649669
 Sum of Mulliken charges =  -0.00000

 Dipole moment (field-independent basis, Debye):
    X=              1.3171    Y=             -2.9055    Z=              0.0146  Tot=              3.1901

 Test job not archived.
 1\1\GINC-SE229\SP\RHF\Aug-CC-pVDZ\C4H6N2O1\OHZDE\09-Apr-2025\0\\#t hf
 aug-cc-pvdz iop(5/13=1,5/36=2,99/5=2) pseudo=read geom=check guess=(re
 ad,tcheck) scf=(maxcycle=1)\\title\\0,1\C,0,2.08616796,0.73500515,-0.3
 4284072\O,0,1.37537509,-1.20139433,0.03261575\C,0,0.16377553,-0.808517
 98,0.06758575\C,0,-1.08566439,-1.36456348,0.26262078\N,0,-1.98025525,-
 0.30382666,0.16022792\C,0,-1.29748339,0.81877837,-0.08189777\N,0,-0.00
 819187,0.53385299,-0.14032085\H,0,1.7935693,1.75359642,-0.54077413\H,0
 ,2.51126805,0.213003,-1.18548899\H,0,2.57802231,0.57625011,0.60372734\

 Normal termination of Gaussian 16 at Wed Apr  9 03:52:40 2025.
