 Gaussian 16, Revision C.01,

 ----------------------------------------------------------------------
 #t hf aug-cc-pvdz symm=none int=(grid=ultrafine) guess=(read,tcheck) s
 table=(opt,rrhf)
 ----------------------------------------------------------------------
 -----
 title
 -----
 Symbolic Z-matrix:
 Charge =  0 Multiplicity = 1

 SCF Done:  E(RHF) =  -309.045931723     A.U. after   12 cycles

 1\1\GINC-SE363\Stability\RHF\Aug-CC-pVDZ\C6H12O1\OHZDE\09-Apr-2025\0\\
 #t hf aug-cc-pvdz symm=none int=(grid=ultrafine) guess=(read,tcheck) s
 table=(opt,rrhf)\\title\\0,1\C,0,2.84722682,0.23589072,0.05783076\O,0,
 1.51641515,0.44946613,-0.3236718\C,0,0.60872116,-0.3301251,0.41705698\
 C,0,-0.79826652,-0.00101056,0.00282704\C,0,-1.21441268,1.42873298,0.24
 900166\C,0,-1.34328026,-0.70817369,-1.20077591\C,0,-1.8153885,-1.09081
 339,0.17342189\H,0,3.14618983,-0.81037761,-0.09396496\H,0,3.01028236,0
 .49121335,1.11380292\H,0,3.47513994,0.87523127,-0.56145533\H,0,0.81096

 Normal termination of Gaussian 16 at Wed Apr  9 03:46:05 2025.
 Gaussian 16:  ES64L-G16RevC.01  3-Jul-2019

 ----------------------------------------------------------------------
 #t hf aug-cc-pvdz iop(5/13=1,5/36=2,99/5=2) pseudo=read geom=check gue
 ss=(read,tcheck) scf=(maxcycle=1)
 ----------------------------------------------------------------------
 -----
 title
 -----
 Structure from the checkpoint file:  "Grambow2020_wb97xd3_007846_forward_mol2.chk"
 Charge =  0 Multiplicity = 1

                         Standard orientation:
 ---------------------------------------------------------------------
 Center     Atomic      Atomic             Coordinates (Angstroms)
 Number     Number       Type             X           Y           Z
 ---------------------------------------------------------------------
      1          6           0       -2.817626   -0.161226    0.020093
      2          8           0       -1.504681    0.145299    0.400139
      3          6           0       -0.552064   -0.299572   -0.535254
      4          6           0        0.823123    0.121251   -0.097890
      5          6           0        1.030353    1.613267   -0.003609
      6          6           0        1.533417   -0.763493    0.881135
      7          6           0        1.961809   -0.740253   -0.558885
      8          1           0       -2.965604   -1.245596   -0.076569
      9          1           0       -3.080983    0.309252   -0.937062
     10          1           0       -3.482878    0.217546    0.795024
     11          1           0       -0.600590   -1.395210   -0.630585
     12          1           0       -0.777638    0.126559   -1.526354
     13          1           0        0.349173    2.048887    0.728834
     14          1           0        0.846744    2.095091   -0.967908
     15          1           0        2.052755    1.847321    0.299037
     16          1           0        1.013754   -1.640522    1.245604
     17          1           0        2.176043   -0.289759    1.612080
     18          1           0        1.738478   -1.606727   -1.169441
     19          1           0        2.894118   -0.249080   -0.807312
 ---------------------------------------------------------------------

 SCF Done:  E(RHF) =  -310.549579234     A.U. after    2 cycles

 The electronic state is 1-A.
 Alpha  occ. eigenvalues --  -21.03775 -11.43786 -11.42015 -11.40092 -11.39635
 Alpha  occ. eigenvalues --  -11.37107 -11.34983  -1.75505  -1.32995  -1.05535
 Alpha  occ. eigenvalues --   -1.01430  -0.92594  -0.85914  -0.77801  -0.67044
 Alpha  occ. eigenvalues --   -0.65194  -0.61366  -0.59752  -0.57705  -0.54519
 Alpha  occ. eigenvalues --   -0.53508  -0.52633  -0.49934  -0.43873  -0.38922
 Alpha  occ. eigenvalues --   -0.37610  -0.35644  -0.29498
 Alpha virt. eigenvalues --    0.04027   0.05103   0.05215   0.05462   0.05484
 Alpha virt. eigenvalues --    0.06112   0.06538   0.06682   0.07273   0.08425
 Alpha virt. eigenvalues --    0.08719   0.09611   0.11722   0.12672   0.13214

 Mulliken charges:
               1
     1  C   -3.141229
     2  O   -2.979419
     3  C   -2.089930
     4  C    1.510406
     5  C   -4.731615
     6  C   -2.412605
     7  C   -2.413825
     8  H    1.363085
     9  H    1.351003
    10  H    1.324330
    11  H    1.638670
    12  H    1.496272
    13  H    1.288391
    14  H    1.180071
    15  H    1.338279
    16  H    1.297118
    17  H    1.389022
    18  H    1.284527
    19  H    1.307448
 Sum of Mulliken charges =  -0.00000

 Dipole moment (field-independent basis, Debye):
    X=             -0.1248    Y=             -0.1044    Z=             -0.1515  Tot=              0.2224

 Test job not archived.
 1\1\GINC-SE363\SP\RHF\Aug-CC-pVDZ\C6H12O1\OHZDE\09-Apr-2025\0\\#t hf a
 ug-cc-pvdz iop(5/13=1,5/36=2,99/5=2) pseudo=read geom=check guess=(rea
 d,tcheck) scf=(maxcycle=1)\\title\\0,1\C,0,2.84722682,0.23589072,0.057
 83076\O,0,1.51641515,0.44946613,-0.3236718\C,0,0.60872116,-0.3301251,0
 .41705698\C,0,-0.79826652,-0.00101056,0.00282704\C,0,-1.21441268,1.428
 73298,0.24900166\C,0,-1.34328026,-0.70817369,-1.20077591\C,0,-1.815388
 5,-1.09081339,0.17342189\H,0,3.14618983,-0.81037761,-0.09396496\H,0,3.
 01028236,0.49121335,1.11380292\H,0,3.47513994,0.87523127,-0.56145533\H

 Normal termination of Gaussian 16 at Wed Apr  9 03:46:15 2025.
