 Gaussian 16, Revision C.01,

 ----------------------------------------------------------------------
 #t hf aug-cc-pvdz symm=none int=(grid=ultrafine) guess=(read,tcheck) s
 table=(opt,rrhf)
 ----------------------------------------------------------------------
 -----
 title
 -----
 Symbolic Z-matrix:
 Charge =  0 Multiplicity = 1

 SCF Done:  E(RHF) =  -359.614048204     A.U. after   14 cycles
 Normal termination of Gaussian 16 at Wed Apr  9 03:51:47 2025.
 Gaussian 16:  ES64L-G16RevC.01  3-Jul-2019

 ----------------------------------------------------------------------
 #t hf aug-cc-pvdz iop(5/13=1,5/36=2,99/5=2) pseudo=read geom=check gue
 ss=(read,tcheck) scf=(maxcycle=1)
 ----------------------------------------------------------------------
 -----
 title
 -----
 Structure from the checkpoint file:  "Grambow2020_wb97xd3_008283_forward_mol1.chk"
 Charge =  0 Multiplicity = 1

                         Standard orientation:
 ---------------------------------------------------------------------
 Center     Atomic      Atomic             Coordinates (Angstroms)
 Number     Number       Type             X           Y           Z
 ---------------------------------------------------------------------
      1          6           0        1.968359   -0.739862   -0.551893
      2          6           0        1.057281   -0.129626    0.500896
      3          6           0        0.569498    1.235265    0.034782
      4          7           0       -0.729909    1.090255   -0.482505
      5          6           0       -1.168006   -0.144194   -0.058673
      6          8           0       -2.237510   -0.648091   -0.203738
      7          8           0       -0.150966   -0.839601    0.619601
      8          1           0        1.494803   -0.710115   -1.534608
      9          1           0        2.160190   -1.780877   -0.295958
     10          1           0        2.921254   -0.209011   -0.598187
     11          1           0        1.553272   -0.100503    1.472825
     12          1           0        1.244979    1.905097   -0.494321
     13          1           0        0.557562    1.978923    1.192998
     14          1           0       -0.277678    1.856736    0.757203
 ---------------------------------------------------------------------

 SCF Done:  E(RHF) =  -361.231156069     A.U. after    2 cycles

 The electronic state is 1-A.
 Alpha  occ. eigenvalues --  -21.08089 -21.01742 -15.71339 -11.56608 -11.50118
 Alpha  occ. eigenvalues --  -11.48103 -11.40604  -1.85356  -1.65831  -1.41347
 Alpha  occ. eigenvalues --   -1.18332  -1.04057  -0.90263  -0.79858  -0.76396
 Alpha  occ. eigenvalues --   -0.70953  -0.63276  -0.59736  -0.57578  -0.55190
 Alpha  occ. eigenvalues --   -0.53546  -0.47883  -0.44319  -0.38759  -0.33155
 Alpha  occ. eigenvalues --   -0.30273  -0.27908
 Alpha virt. eigenvalues --    0.01741   0.03886   0.04049   0.04301   0.05463
 Alpha virt. eigenvalues --    0.06148   0.07063   0.09839   0.10530   0.11340
 Alpha virt. eigenvalues --    0.12387   0.12719   0.13160   0.13834   0.14135

 Mulliken charges:
               1
     1  C   -3.697110
     2  C    0.736540
     3  C   -2.095229
     4  N   -2.628270
     5  C    5.992830
     6  O   -3.259192
     7  O   -3.323234
     8  H    1.272041
     9  H    1.258867
    10  H    1.185172
    11  H    1.697857
    12  H    1.372970
    13  H    0.272572
    14  H    1.214187
 Sum of Mulliken charges =   0.00000

 Dipole moment (field-independent basis, Debye):
    X=              5.1191    Y=              1.8532    Z=              1.6133  Tot=              5.6783

 Test job not archived.
 1\1\GINC-SE207\SP\RHF\Aug-CC-pVDZ\C4H7N1O2\OHZDE\09-Apr-2025\0\\#t hf
 aug-cc-pvdz iop(5/13=1,5/36=2,99/5=2) pseudo=read geom=check guess=(re
 ad,tcheck) scf=(maxcycle=1)\\title\\0,1\C,0,-1.44640113,-0.94060488,0.
 03727384\C,0,-0.29354429,-0.20066903,-0.62168806\C,0,0.08682133,1.0139
 1665,0.21391176\N,0,1.2156913,0.68680533,0.98574391\C,0,1.72415658,-0.
 46921452,0.43755762\O,0,2.71616327,-1.06097385,0.72831205\O,0,0.894564
 16,-0.95261291,-0.59011912\H,0,-1.22968114,-1.131701,1.08959676\H,0,-1
 .58649006,-1.89800851,-0.46249363\H,0,-2.37221641,-0.36694604,-0.03846

 Normal termination of Gaussian 16 at Wed Apr  9 03:51:52 2025.
