 Gaussian 16, Revision C.01,

 ----------------------------------------------------------------------
 #t hf aug-cc-pvdz symm=none int=(grid=ultrafine) guess=(read,tcheck) s
 table=(opt,rrhf)
 ----------------------------------------------------------------------
 -----
 title
 -----
 Symbolic Z-matrix:
 Charge =  0 Multiplicity = 1

 SCF Done:  E(RHF) =  -322.517655113     A.U. after   15 cycles
 Normal termination of Gaussian 16 at Wed Apr  9 18:25:44 2025.
 Gaussian 16:  ES64L-G16RevC.01  3-Jul-2019

 ----------------------------------------------------------------------
 #t hf aug-cc-pvdz iop(5/13=1,5/36=2,99/5=2) pseudo=read geom=check gue
 ss=(read,tcheck) scf=(maxcycle=1)
 ----------------------------------------------------------------------
 -----
 title
 -----
 Structure from the checkpoint file:  "Grambow2020_wb97xd3_007118_forward_mol1.chk"
 Charge =  0 Multiplicity = 1

                         Standard orientation:
 ---------------------------------------------------------------------
 Center     Atomic      Atomic             Coordinates (Angstroms)
 Number     Number       Type             X           Y           Z
 ---------------------------------------------------------------------
      1          7           0       -2.518452   -0.487245   -0.014452
      2          6           0       -1.371160   -0.329322   -0.124805
      3          8           0       -0.368298    1.650101    0.292440
      4          6           0        0.787748    1.669803   -0.125249
      5          6           0        1.548406   -0.391306   -0.462468
      6          6           0        1.252661   -1.125143    0.800902
      7          6           0        0.505528   -1.223326   -0.480088
      8          1           0       -3.493160   -0.369776    0.152600
      9          1           0        1.634306    1.755356    0.571625
     10          1           0        1.001681    1.914423   -1.177543
     11          1           0        2.387644   -0.157654   -1.092783
     12          1           0        0.793985   -0.562533    1.617352
     13          1           0        1.848051   -1.977439    1.124404
     14          1           0        0.063941   -1.996710   -1.083766
 ---------------------------------------------------------------------

 SCF Done:  E(RHF) =  -324.022875773     A.U. after    2 cycles

 The electronic state is 1-A.
 Alpha  occ. eigenvalues --  -21.02018 -15.79725 -11.45684 -11.44855 -11.43642
 Alpha  occ. eigenvalues --  -11.41187 -11.36412  -1.66864  -1.36684  -1.29025
 Alpha  occ. eigenvalues --   -0.89473  -0.86378  -0.84394  -0.79380  -0.67510
 Alpha  occ. eigenvalues --   -0.63773  -0.63156  -0.52858  -0.50159  -0.49390
 Alpha  occ. eigenvalues --   -0.47518  -0.43734  -0.41051  -0.37503  -0.27037
 Alpha  occ. eigenvalues --   -0.26891
 Alpha virt. eigenvalues --    0.03584   0.04782   0.05259   0.05743   0.06402
 Alpha virt. eigenvalues --    0.06701   0.07811   0.10416   0.11109   0.12169
 Alpha virt. eigenvalues --    0.12884   0.13355   0.13920   0.14662   0.14989

 Mulliken charges:
               1
     1  N   -2.791011
     2  C    2.128912
     3  O   -2.437999
     4  C   -0.580518
     5  C   -1.141050
     6  C   -2.341373
     7  C   -1.146019
     8  H    0.892280
     9  H    1.435483
    10  H    1.341430
    11  H    0.951359
    12  H    1.390778
    13  H    1.203503
    14  H    1.094226
 Sum of Mulliken charges =  -0.00000

 Dipole moment (field-independent basis, Debye):
    X=             -2.8182    Y=             -1.3442    Z=             -0.4967  Tot=              3.1616

 Test job not archived.
 1\1\GINC-SE220\SP\RHF\Aug-CC-pVDZ\C5H7N1O1\OHZDE\09-Apr-2025\0\\#t hf
 aug-cc-pvdz iop(5/13=1,5/36=2,99/5=2) pseudo=read geom=check guess=(re
 ad,tcheck) scf=(maxcycle=1)\\title\\0,1\N,0,2.07516941,-1.86968165,-0.
 08004711\C,0,1.24114285,-1.06307181,-0.16476749\O,0,1.51912305,0.86056
 394,-1.31380846\C,0,0.62715333,1.66957665,-1.06645352\C,0,-1.14160525,
 0.658576,-0.17771404\C,0,-1.43734333,-0.48049126,-1.0926751\C,0,-0.766
 8276,-0.55475686,0.23158994\H,0,2.92106397,-2.38945535,-0.15788326\H,0
 ,-0.07774012,1.98395052,-1.84997543\H,0,0.68995532,2.32350494,-0.18250

 Normal termination of Gaussian 16 at Wed Apr  9 18:25:49 2025.
