 Gaussian 16, Revision C.01,

 ----------------------------------------------------------------------
 #t hf aug-cc-pvdz symm=none int=(grid=ultrafine) guess=(read,tcheck) s
 table=(opt,rrhf)
 ----------------------------------------------------------------------
 -----
 title
 -----
 Symbolic Z-matrix:
 Charge =  0 Multiplicity = 1

 SCF Done:  E(RHF) =  -271.838816029     A.U. after   14 cycles
 Normal termination of Gaussian 16 at Wed Apr  9 03:39:54 2025.
 Gaussian 16:  ES64L-G16RevC.01  3-Jul-2019

 ----------------------------------------------------------------------
 #t hf aug-cc-pvdz iop(5/13=1,5/36=2,99/5=2) pseudo=read geom=check gue
 ss=(read,tcheck) scf=(maxcycle=1)
 ----------------------------------------------------------------------
 -----
 title
 -----
 Structure from the checkpoint file:  "Grambow2020_wb97xd3_007419_forward_mol1.chk"
 Charge =  0 Multiplicity = 1

                         Standard orientation:
 ---------------------------------------------------------------------
 Center     Atomic      Atomic             Coordinates (Angstroms)
 Number     Number       Type             X           Y           Z
 ---------------------------------------------------------------------
      1          6           0       -2.464917   -0.416958   -0.485153
      2          6           0       -1.275369   -0.095151    0.413306
      3          6           0       -0.154740   -1.116156    0.333840
      4          6           0        1.368382    0.074521    0.316361
      5          6           0        2.587610   -0.431203   -0.405162
      6          6           0        0.697611    1.427942   -0.081617
      7          6           0       -0.631835    1.285909    0.043647
      8          1           0       -2.142909   -0.519782   -1.524619
      9          1           0       -2.961759   -1.342793   -0.187373
     10          1           0       -3.202648    0.387147   -0.446714
     11          1           0       -1.618883   -0.021159    1.450767
     12          1           0        0.075747   -1.668690    1.235338
     13          1           0       -0.183472   -1.775205   -0.534971
     14          1           0        1.438762    0.077891    1.396311
     15          1           0        2.424740   -0.450736   -1.483348
     16          1           0        2.870442   -1.429673   -0.068688
     17          1           0        3.416540    0.249602   -0.209781
     18          1           0        0.449027    0.004720   -0.381820
     19          1           0       -1.326037    2.115259   -0.056432
 ---------------------------------------------------------------------

 SCF Done:  E(RHF) =  -273.246977463     A.U. after    2 cycles

 The electronic state is 1-A.
 Alpha  occ. eigenvalues --  -11.49386 -11.47418 -11.41850 -11.40107 -11.38161
 Alpha  occ. eigenvalues --  -11.37440 -11.34271  -1.38538  -1.16373  -1.05985
 Alpha  occ. eigenvalues --   -1.01539  -0.92394  -0.81311  -0.74813  -0.69134
 Alpha  occ. eigenvalues --   -0.63311  -0.62260  -0.58065  -0.56043  -0.54351
 Alpha  occ. eigenvalues --   -0.52778  -0.49367  -0.46851  -0.46317  -0.41833
 Alpha  occ. eigenvalues --   -0.31584  -0.27121
 Alpha virt. eigenvalues --    0.03305   0.04525   0.04729   0.05047   0.05354
 Alpha virt. eigenvalues --    0.05519   0.06183   0.07006   0.07317   0.08228
 Alpha virt. eigenvalues --    0.08276   0.09998   0.11628   0.12471   0.12532

 Mulliken charges:
               1
     1  C   -4.095721
     2  C   -2.599161
     3  C   -3.363632
     4  C   -2.972855
     5  C   -4.531350
     6  C   -2.125917
     7  C    0.220547
     8  H    1.325169
     9  H    1.197274
    10  H    1.228154
    11  H    1.511992
    12  H    1.193619
    13  H    0.981915
    14  H    1.185680
    15  H    1.037802
    16  H    1.199193
    17  H    1.162241
    18  H    6.042270
    19  H    1.402780
 Sum of Mulliken charges =   0.00000

 Dipole moment (field-independent basis, Debye):
    X=             -0.5169    Y=             -4.0120    Z=              1.2971  Tot=              4.2481

 Test job not archived.
 1\1\GINC-SE059\SP\RHF\Aug-CC-pVDZ\C7H12\OHZDE\09-Apr-2025\0\\#t hf aug
 -cc-pvdz iop(5/13=1,5/36=2,99/5=2) pseudo=read geom=check guess=(read,
 tcheck) scf=(maxcycle=1)\\title\\0,1\C,0,-2.43259317,-0.4180963,-0.280
 36638\C,0,-1.23670244,0.46988456,0.04696953\C,0,-0.2210773,-0.18565442
 ,0.9653108\C,0,1.41234153,0.38640826,0.10356642\C,0,2.59085679,-0.5362
 622,0.25406638\C,0,0.88743002,0.80274735,-1.30753263\C,0,-0.45193499,0
 .87866972,-1.24730415\H,0,-2.09999499,-1.36028239,-0.72355349\H,0,-3.0
 2485639,-0.64774614,0.60799205\H,0,-3.08785004,0.07274415,-1.00287845\

 Normal termination of Gaussian 16 at Wed Apr  9 03:40:01 2025.
