 Gaussian 16, Revision C.01,

 ----------------------------------------------------------------------
 #t hf aug-cc-pvdz symm=none int=(grid=ultrafine) guess=(read,tcheck) s
 table=(opt,rrhf)
 ----------------------------------------------------------------------
 -----
 title
 -----
 Symbolic Z-matrix:
 Charge =  0 Multiplicity = 1

 SCF Done:  E(RHF) =  -352.255047602     A.U. after   18 cycles
 Normal termination of Gaussian 16 at Wed Apr  9 19:09:34 2025.
 Gaussian 16:  ES64L-G16RevC.01  3-Jul-2019

 ----------------------------------------------------------------------
 #t hf aug-cc-pvdz iop(5/13=1,5/36=2,99/5=2) pseudo=read geom=check gue
 ss=(read,tcheck) scf=(maxcycle=1)
 ----------------------------------------------------------------------
 -----
 title
 -----
 Structure from the checkpoint file:  "Grambow2020_wb97xd3_008228_forward_mol1.chk"
 Charge =  0 Multiplicity = 1

                         Standard orientation:
 ---------------------------------------------------------------------
 Center     Atomic      Atomic             Coordinates (Angstroms)
 Number     Number       Type             X           Y           Z
 ---------------------------------------------------------------------
      1          7           0        1.946370   -0.523372    0.579252
      2          6           0        1.740531   -0.348284   -0.574079
      3          6           0        0.237971   -0.118651   -0.195055
      4          6           0       -0.772443   -1.157792   -0.068145
      5          8           0       -1.940595   -0.923931    0.112764
      6          7           0       -0.551072    2.159576    0.075100
      7          7           0       -0.158501    1.123887   -0.042897
      8          1           0       -0.369168   -2.180820   -0.158620
 ---------------------------------------------------------------------

 SCF Done:  E(RHF) =  -353.768795541     A.U. after    2 cycles

 The electronic state is 1-A.
 Alpha  occ. eigenvalues --  -21.07586 -15.98544 -15.92835 -15.85149 -11.53915
 Alpha  occ. eigenvalues --  -11.49651 -11.44086  -1.74105  -1.67220  -1.44194
 Alpha  occ. eigenvalues --   -1.21389  -0.96978  -0.79382  -0.74368  -0.70958
 Alpha  occ. eigenvalues --   -0.68549  -0.63909  -0.59806  -0.53889  -0.52834
 Alpha  occ. eigenvalues --   -0.49963  -0.47857  -0.32785  -0.31385
 Alpha virt. eigenvalues --    0.03919   0.06061   0.07769   0.08321   0.08904
 Alpha virt. eigenvalues --    0.09232   0.09587   0.10779   0.11068   0.12031
 Alpha virt. eigenvalues --    0.13439   0.14192   0.14983   0.15307   0.16960

 Mulliken charges:
               1
     1  N   -0.750097
     2  C    0.240522
     3  C    1.334327
     4  C    1.901766
     5  O   -2.935047
     6  N   -1.743217
     7  N    0.411537
     8  H    1.540210
 Sum of Mulliken charges =  -0.00000

 Dipole moment (field-independent basis, Debye):
    X=             -0.5541    Y=              0.7007    Z=              0.4055  Tot=              0.9811

 Test job not archived.
 1\1\GINC-SE117\SP\RHF\Aug-CC-pVDZ\C3H1N3O1\OHZDE\09-Apr-2025\0\\#t hf
 aug-cc-pvdz iop(5/13=1,5/36=2,99/5=2) pseudo=read geom=check guess=(re
 ad,tcheck) scf=(maxcycle=1)\\title\\0,1\N,0,1.8084143,-0.3323342,-0.76
 59172\C,0,1.73134048,-0.45146154,0.41012129\C,0,0.19335961,-0.19372648
 ,0.26090641\C,0,-0.45003926,1.11116565,0.24860387\O,0,-1.64613437,1.25
 728819,0.24687689\N,0,-1.29709533,-2.10636379,0.18183141\N,0,-0.588451
 54,-1.24739802,0.20809864\H,0,0.26063312,1.95516919,0.24650869\\Versio
 n=ES64L-G16RevC.01\State=1-A\HF=-353.7687955\RMSD=2.895e-01\Dipole=-0.

 Normal termination of Gaussian 16 at Wed Apr  9 19:09:36 2025.
