 Gaussian 16, Revision C.01,

 ----------------------------------------------------------------------
 #t hf aug-cc-pvdz symm=none int=(grid=ultrafine) guess=(read,tcheck) s
 table=(opt,rrhf)
 ----------------------------------------------------------------------
 -----
 title
 -----
 Symbolic Z-matrix:
 Charge =  0 Multiplicity = 1

 SCF Done:  E(RHF) =  -338.615622306     A.U. after   16 cycles
 Normal termination of Gaussian 16 at Wed Apr  9 03:27:47 2025.
 Gaussian 16:  ES64L-G16RevC.01  3-Jul-2019

 ----------------------------------------------------------------------
 #t hf aug-cc-pvdz iop(5/13=1,5/36=2,99/5=2) pseudo=read geom=check gue
 ss=(read,tcheck) scf=(maxcycle=1)
 ----------------------------------------------------------------------
 -----
 title
 -----
 Structure from the checkpoint file:  "Grambow2020_wb97xd3_006690_forward_mol1.chk"
 Charge =  0 Multiplicity = 1

                         Standard orientation:
 ---------------------------------------------------------------------
 Center     Atomic      Atomic             Coordinates (Angstroms)
 Number     Number       Type             X           Y           Z
 ---------------------------------------------------------------------
      1          6           0        2.453278   -0.588247   -0.200019
      2          6           0        1.252103   -0.060840    0.113557
      3          6           0        0.610919    1.210881    0.075041
      4          7           0       -0.715705    1.204723   -0.132073
      5          6           0       -1.044841   -0.081406   -0.047429
      6          7           0       -2.320147   -0.487524   -0.044948
      7          8           0       -0.104354   -0.949300    0.137365
      8          1           0        3.036655   -0.115995   -0.976187
      9          1           0        0.983390    0.411435    1.260383
     10          1           0        2.839015   -1.464317    0.297601
     11          1           0        1.167592    2.128277    0.215576
     12          1           0       -2.533098   -1.464688   -0.105794
     13          1           0       -3.036521    0.196971   -0.198254
 ---------------------------------------------------------------------

 SCF Done:  E(RHF) =  -340.160146369     A.U. after    2 cycles

 The electronic state is 1-A.
 Alpha  occ. eigenvalues --  -21.09277 -15.80795 -15.73198 -11.53472 -11.51784
 Alpha  occ. eigenvalues --  -11.47793 -11.32949  -1.84037  -1.42292  -1.37697
 Alpha  occ. eigenvalues --   -1.17053  -0.98178  -0.84362  -0.82579  -0.73067
 Alpha  occ. eigenvalues --   -0.67946  -0.66224  -0.59202  -0.57081  -0.54037
 Alpha  occ. eigenvalues --   -0.52282  -0.45698  -0.40048  -0.38258  -0.35708
 Alpha  occ. eigenvalues --   -0.22605
 Alpha virt. eigenvalues --    0.03045   0.04518   0.05317   0.05883   0.06566
 Alpha virt. eigenvalues --    0.06977   0.09507   0.11028   0.11148   0.11858
 Alpha virt. eigenvalues --    0.12645   0.13247   0.14442   0.15046   0.15690

 Mulliken charges:
               1
     1  C   -4.224920
     2  C    1.360260
     3  C    0.352640
     4  N   -3.244663
     5  C    5.422115
     6  N   -2.912066
     7  O   -2.986821
     8  H    1.166590
     9  H    1.097455
    10  H    1.224525
    11  H    1.393646
    12  H    0.684564
    13  H    0.666675
 Sum of Mulliken charges =   0.00000

 Dipole moment (field-independent basis, Debye):
    X=             -3.9983    Y=             -0.1800    Z=              0.3316  Tot=              4.0160

 Test job not archived.
 1\1\GINC-SE179\SP\RHF\Aug-CC-pVDZ\C4H6N2O1\OHZDE\09-Apr-2025\0\\#t hf
 aug-cc-pvdz iop(5/13=1,5/36=2,99/5=2) pseudo=read geom=check guess=(re
 ad,tcheck) scf=(maxcycle=1)\\title\\0,1\C,0,-2.19844118,0.78710038,-0.
 08240989\C,0,-1.04817539,0.08280526,-0.06955854\C,0,-0.4939718,-1.0527
 7948,-0.7277218\N,0,0.83668187,-1.04853979,-0.90718717\C,0,1.2491968,0
 .0021119,-0.20320948\N,0,2.54822106,0.25532002,-0.00380028\O,0,0.36377
 722,0.73840202,0.38485068\H,0,-2.78381989,0.80138005,-0.98955695\H,0,-
 0.85429507,-0.90909782,0.69790367\H,0,-2.54164399,1.33469599,0.7814591

 Normal termination of Gaussian 16 at Wed Apr  9 03:27:52 2025.
