 Gaussian 16, Revision C.01,

 ----------------------------------------------------------------------
 #t hf aug-cc-pvdz symm=none int=(grid=ultrafine) guess=(read,tcheck) s
 table=(opt,rrhf)
 ----------------------------------------------------------------------
 -----
 title
 -----
 Symbolic Z-matrix:
 Charge =  0 Multiplicity = 1

 SCF Done:  E(RHF) =  -318.916387401     A.U. after   13 cycles
 Normal termination of Gaussian 16 at Wed Apr  9 18:21:15 2025.
 Gaussian 16:  ES64L-G16RevC.01  3-Jul-2019

 ----------------------------------------------------------------------
 #t hf aug-cc-pvdz iop(5/13=1,5/36=2,99/5=2) pseudo=read geom=check gue
 ss=(read,tcheck) scf=(maxcycle=1)
 ----------------------------------------------------------------------
 -----
 title
 -----
 Structure from the checkpoint file:  "Grambow2020_wb97xd3_006919_forward_mol2.chk"
 Charge =  0 Multiplicity = 1

                         Standard orientation:
 ---------------------------------------------------------------------
 Center     Atomic      Atomic             Coordinates (Angstroms)
 Number     Number       Type             X           Y           Z
 ---------------------------------------------------------------------
      1          7           0        2.485201   -0.426419   -0.002618
      2          6           0        1.098906   -0.154169    0.000104
      3          6           0       -0.016801   -0.956857   -0.012840
      4          6           0       -1.152443   -0.103000   -0.011005
      5          7           0       -2.487493   -0.534931   -0.085944
      6          6           0       -0.692464    1.189464    0.004466
      7          7           0        0.682813    1.136256    0.005662
      8          1           0        2.789498   -0.858052    0.858474
      9          1           0        2.747431   -1.027557   -0.770123
     10          1           0       -0.019192   -2.036376   -0.028335
     11          1           0       -3.144953    0.175835    0.193589
     12          1           0       -2.650209   -1.372908    0.450390
     13          1           0       -1.223221    2.126859    0.001537
     14          1           0        1.313812    1.915233   -0.009589
 ---------------------------------------------------------------------

 SCF Done:  E(RHF) =  -320.422699770     A.U. after    2 cycles

 The electronic state is 1-A.
 Alpha  occ. eigenvalues --  -15.76635 -15.75071 -15.73899 -11.45847 -11.42900
 Alpha  occ. eigenvalues --  -11.38580 -11.34019  -1.51728  -1.33033  -1.29274
 Alpha  occ. eigenvalues --   -1.09075  -0.99543  -0.80596  -0.77691  -0.71253
 Alpha  occ. eigenvalues --   -0.66423  -0.64397  -0.56395  -0.54992  -0.54106
 Alpha  occ. eigenvalues --   -0.53993  -0.47931  -0.43044  -0.36738  -0.29544
 Alpha  occ. eigenvalues --   -0.24798
 Alpha virt. eigenvalues --    0.03571   0.05090   0.05587   0.05823   0.06290
 Alpha virt. eigenvalues --    0.06515   0.08598   0.10726   0.12028   0.12927
 Alpha virt. eigenvalues --    0.13425   0.13606   0.14444   0.14743   0.15875

 Mulliken charges:
               1
     1  N   -3.283106
     2  C    3.184882
     3  C   -2.164794
     4  C    4.190841
     5  N   -3.591088
     6  C   -0.664645
     7  N   -3.511299
     8  H    0.377326
     9  H    0.373892
    10  H    1.620308
    11  H    0.705316
    12  H    0.540440
    13  H    1.359743
    14  H    0.862183
 Sum of Mulliken charges =   0.00000

 Dipole moment (field-independent basis, Debye):
    X=              0.6566    Y=              0.2343    Z=              0.9958  Tot=              1.2156

 Test job not archived.
 1\1\GINC-SE219\SP\RHF\Aug-CC-pVDZ\C4H7N3\OHZDE\09-Apr-2025\0\\#t hf au
 g-cc-pvdz iop(5/13=1,5/36=2,99/5=2) pseudo=read geom=check guess=(read
 ,tcheck) scf=(maxcycle=1)\\title\\0,1\N,0,-2.51526254,-0.27649071,-0.0
 3067722\C,0,-1.1213291,-0.04860478,0.00031915\C,0,-0.03626307,-0.87843
 731,0.15291935\C,0,1.12793578,-0.06511929,0.10916931\N,0,2.44250609,-0
 .52644599,0.2925344\C,0,0.71503342,1.23093862,-0.06979047\N,0,-0.65998
 389,1.21984892,-0.12831416\H,0,-2.79795174,-0.79212144,-0.85201384\H,0
 ,-2.83081612,-0.77988273,0.78554499\H,0,-0.07272024,-1.94904047,0.2874

 Normal termination of Gaussian 16 at Wed Apr  9 18:21:20 2025.
