 Gaussian 16, Revision C.01,

 ----------------------------------------------------------------------
 #t hf aug-cc-pvdz symm=none int=(grid=ultrafine) guess=(read,tcheck) s
 table=(opt,rrhf)
 ----------------------------------------------------------------------
 -----
 title
 -----
 Symbolic Z-matrix:
 Charge =  0 Multiplicity = 1

 SCF Done:  E(RHF) =  -262.498310681     A.U. after   17 cycles
 Normal termination of Gaussian 16 at Wed Apr  9 17:00:59 2025.
 Gaussian 16:  ES64L-G16RevC.01  3-Jul-2019

 ----------------------------------------------------------------------
 #t hf aug-cc-pvdz iop(5/13=1,5/36=2,99/5=2) pseudo=read geom=check gue
 ss=(read,tcheck) scf=(maxcycle=1)
 ----------------------------------------------------------------------
 -----
 title
 -----
 Structure from the checkpoint file:  "Grambow2020_b97d3_006900_reverse_mol1.chk"
 Charge =  0 Multiplicity = 1

                         Standard orientation:
 ---------------------------------------------------------------------
 Center     Atomic      Atomic             Coordinates (Angstroms)
 Number     Number       Type             X           Y           Z
 ---------------------------------------------------------------------
      1          6           0       -1.202252   -0.798954   -0.107972
      2          6           0        0.089513   -0.818608    0.554578
      3          7           0        1.214622   -0.747859   -0.296581
      4          7           0        1.282053    0.546189   -0.296547
      5          6           0        0.033097    1.094468    0.241656
      6          6           0       -1.272683    0.572394   -0.166344
      7          1           0       -1.682004   -1.574664   -0.697444
      8          1           0        0.251711   -0.627208    1.619031
      9          1           0        0.148473    2.108236    0.633800
     10          1           0       -2.080948    1.209527   -0.534998
 ---------------------------------------------------------------------

 SCF Done:  E(RHF) =  -263.714110103     A.U. after    2 cycles

 The electronic state is 1-A.
 Alpha  occ. eigenvalues --  -15.80487 -15.78487 -11.53386 -11.46411 -11.43447
 Alpha  occ. eigenvalues --  -11.40258  -1.61318  -1.25611  -1.11362  -0.92546
 Alpha  occ. eigenvalues --   -0.87939  -0.75016  -0.72464  -0.64780  -0.59249
 Alpha  occ. eigenvalues --   -0.55751  -0.50650  -0.44802  -0.40105  -0.34450
 Alpha  occ. eigenvalues --   -0.30425
 Alpha virt. eigenvalues --    0.03648   0.04905   0.05278   0.05729   0.07372
 Alpha virt. eigenvalues --    0.09485   0.10552   0.11486   0.11823   0.12845
 Alpha virt. eigenvalues --    0.12968   0.13799   0.14678   0.15423   0.15914

 Mulliken charges:
               1
     1  C   -0.540336
     2  C   -1.326871
     3  N   -1.069790
     4  N   -1.116440
     5  C   -1.162093
     6  C   -0.104476
     7  H    1.109232
     8  H    1.574476
     9  H    1.280988
    10  H    1.355310
 Sum of Mulliken charges =  -0.00000

 Dipole moment (field-independent basis, Debye):
    X=             -2.1063    Y=             -0.1814    Z=              0.9254  Tot=              2.3077

 Test job not archived.
 1\1\GINC-SE041\SP\RHF\Aug-CC-pVDZ\C4H4N2\OHZDE\09-Apr-2025\0\\#t hf au
 g-cc-pvdz iop(5/13=1,5/36=2,99/5=2) pseudo=read geom=check guess=(read
 ,tcheck) scf=(maxcycle=1)\\title\\0,1\C,0,0.80605933,0.97979152,0.0901
 9822\C,0,0.97792371,-0.40449785,-0.31256881\N,0,0.92460836,-1.3560056,
 0.73008984\N,0,-0.35624117,-1.53873151,0.65838707\C,0,-0.95291434,-0.4
 6439166,-0.14157416\C,0,-0.5668709,0.93576153,0.04451723\H,0,1.4925566
 6,1.62755145,0.62731434\H,0,0.88632134,-0.77588358,-1.33710937\H,0,-1.
 91980461,-0.7407318,-0.57002815\H,0,-1.29163937,1.7371385,0.2107738\\V

 Normal termination of Gaussian 16 at Wed Apr  9 17:01:02 2025.
