 Gaussian 16, Revision C.01,

 ----------------------------------------------------------------------
 #t hf aug-cc-pvdz symm=none int=(grid=ultrafine) guess=(read,tcheck) s
 table=(opt,rrhf)
 ----------------------------------------------------------------------
 -----
 title
 -----
 Symbolic Z-matrix:
 Charge =  0 Multiplicity = 1

 SCF Done:  E(RHF) =  -306.459066221     A.U. after   18 cycles
 Normal termination of Gaussian 16 at Wed Apr  9 19:09:06 2025.
 Gaussian 16:  ES64L-G16RevC.01  3-Jul-2019

 ----------------------------------------------------------------------
 #t hf aug-cc-pvdz iop(5/13=1,5/36=2,99/5=2) pseudo=read geom=check gue
 ss=(read,tcheck) scf=(maxcycle=1)
 ----------------------------------------------------------------------
 -----
 title
 -----
 Structure from the checkpoint file:  "Grambow2020_wb97xd3_008153_reverse_mol1.chk"
 Charge =  0 Multiplicity = 1

                         Standard orientation:
 ---------------------------------------------------------------------
 Center     Atomic      Atomic             Coordinates (Angstroms)
 Number     Number       Type             X           Y           Z
 ---------------------------------------------------------------------
      1          8           0        2.152918   -0.437966   -0.184896
      2          6           0        0.981618    0.130935    0.182106
      3          6           0        0.272456    1.311056   -0.276236
      4          6           0       -1.056054    0.720953    0.439102
      5          6           0       -1.768723   -0.115388   -0.525441
      6          6           0       -0.748040   -1.196322   -0.280817
      7          6           0       -0.107901   -0.468146    0.913483
      8          1           0        2.564589    0.098835   -0.865647
      9          1           0        0.246072    1.549177   -1.350288
     10          1           0        0.469848    2.217830    0.296225
     11          1           0       -1.536663    1.431826    1.107979
     12          1           0       -1.845356   -1.409832    0.126926
     13          1           0       -2.217911    0.174489   -1.467064
     14          1           0       -0.296250   -1.901037   -0.968839
     15          1           0       -0.047810   -0.956086    1.886698
 ---------------------------------------------------------------------

 SCF Done:  E(RHF) =  -307.919422404     A.U. after    2 cycles

 The electronic state is 1-A.
 Alpha  occ. eigenvalues --  -21.11686 -11.53379 -11.48679 -11.43747 -11.40806
 Alpha  occ. eigenvalues --  -11.39445 -11.35501  -1.76438  -1.42646  -1.11388
 Alpha  occ. eigenvalues --   -0.99495  -0.90393  -0.80052  -0.72882  -0.71196
 Alpha  occ. eigenvalues --   -0.66348  -0.64725  -0.59687  -0.50934  -0.49638
 Alpha  occ. eigenvalues --   -0.45113  -0.43253  -0.42255  -0.41417  -0.37402
 Alpha  occ. eigenvalues --   -0.15774
 Alpha virt. eigenvalues --    0.03618   0.04632   0.05092   0.05580   0.06201
 Alpha virt. eigenvalues --    0.06511   0.06875   0.07338   0.09664   0.11155
 Alpha virt. eigenvalues --    0.11902   0.12417   0.13354   0.13781   0.14323

 Mulliken charges:
               1
     1  O   -3.707275
     2  C    4.679312
     3  C   -3.745622
     4  C   -1.161983
     5  C   -1.853712
     6  C   -1.787465
     7  C   -2.339788
     8  H    0.796814
     9  H    1.368207
    10  H    1.406317
    11  H    1.362270
    12  H    1.488894
    13  H    1.144017
    14  H    1.106220
    15  H    1.243793
 Sum of Mulliken charges =  -0.00000

 Dipole moment (field-independent basis, Debye):
    X=              2.2129    Y=              0.5684    Z=             -0.3267  Tot=              2.3080

 Test job not archived.
 1\1\GINC-SE054\SP\RHF\Aug-CC-pVDZ\C6H8O1\OHZDE\09-Apr-2025\0\\#t hf au
 g-cc-pvdz iop(5/13=1,5/36=2,99/5=2) pseudo=read geom=check guess=(read
 ,tcheck) scf=(maxcycle=1)\\title\\0,1\O,0,2.13265814,1.03516315,-0.473
 23825\C,0,1.10323076,0.15736394,-0.47864874\C,0,0.80478442,-1.01704064
 ,0.31971041\C,0,-0.72843335,-0.90516986,-0.19175762\C,0,-1.46589237,-0
 .05171133,0.73854811\C,0,-0.81053455,1.1439117,0.09742095\C,0,-0.20717
 884,0.32636895,-1.05754939\H,0,2.77302008,0.76613954,0.18903995\H,0,1.
 01481391,-1.01048478,1.39990988\H,0,1.13290041,-1.96280155,-0.11248102

 Normal termination of Gaussian 16 at Wed Apr  9 19:09:11 2025.
