 Gaussian 16, Revision C.01,

 ----------------------------------------------------------------------
 #t hf aug-cc-pvdz symm=none int=(grid=ultrafine) guess=(read,tcheck) s
 table=(opt,rrhf)
 ----------------------------------------------------------------------
 -----
 title
 -----
 Symbolic Z-matrix:
 Charge =  0 Multiplicity = 1

 SCF Done:  E(RHF) =  -307.722041900     A.U. after   15 cycles

 1\1\GINC-SE115\Stability\RHF\Aug-CC-pVDZ\C6H10O1\OHZDE\09-Apr-2025\0\\
 #t hf aug-cc-pvdz symm=none int=(grid=ultrafine) guess=(read,tcheck) s
 table=(opt,rrhf)\\title\\0,1\O,0,1.41327337,-0.44505957,1.45409207\C,0
 ,1.33977979,-0.35563166,0.02604381\C,0,0.01643541,-1.42243915,-0.25918
 755\C,0,-1.21829284,-0.71590742,-0.21908255\C,0,-1.2423935,0.52637934,
 0.60840654\C,0,-0.37974477,1.28728537,-0.41006328\C,0,1.02486666,0.934
 02456,-0.50043221\H,0,1.81954197,0.37736399,1.73929364\H,0,2.22000561,
 -0.82903068,-0.41463557\H,0,0.22375074,-1.96076274,0.67063737\H,0,0.14

 Normal termination of Gaussian 16 at Wed Apr  9 19:13:16 2025.
 Gaussian 16:  ES64L-G16RevC.01  3-Jul-2019

 ----------------------------------------------------------------------
 #t hf aug-cc-pvdz iop(5/13=1,5/36=2,99/5=2) pseudo=read geom=check gue
 ss=(read,tcheck) scf=(maxcycle=1)
 ----------------------------------------------------------------------
 -----
 title
 -----
 Structure from the checkpoint file:  "Grambow2020_wb97xd3_008410_forward_mol1.chk"
 Charge =  0 Multiplicity = 1

                         Standard orientation:
 ---------------------------------------------------------------------
 Center     Atomic      Atomic             Coordinates (Angstroms)
 Number     Number       Type             X           Y           Z
 ---------------------------------------------------------------------
      1          8           0       -1.649248    0.099297    0.919026
      2          6           0       -1.162589   -0.106223   -0.412757
      3          6           0       -0.189132    1.305988   -0.582211
      4          6           0        1.138299    1.060221   -0.131793
      5          6           0        1.300107   -0.011075    0.895211
      6          6           0        1.016343   -1.116368   -0.133490
      7          6           0       -0.348157   -1.263495   -0.605068
      8          1           0       -1.856090   -0.777773    1.251802
      9          1           0       -1.986544   -0.001598   -1.122162
     10          1           0       -0.793886    1.836448    0.159564
     11          1           0       -0.264288    1.793178   -1.553809
     12          1           0        2.008572    1.500475   -0.601491
     13          1           0        1.448048   -0.545838   -1.064627
     14          1           0        2.316979   -0.081456    1.277370
     15          1           0        0.585297    0.028045    1.715641
     16          1           0        1.658050   -1.990354   -0.033432
     17          1           0       -0.451386   -1.769790   -1.560420
 ---------------------------------------------------------------------

 SCF Done:  E(RHF) =  -309.224415732     A.U. after    2 cycles

 The electronic state is 1-A.
 Alpha  occ. eigenvalues --  -21.05245 -11.48742 -11.45402 -11.43831 -11.40119
 Alpha  occ. eigenvalues --  -11.38714 -11.34066  -1.70750  -1.33072  -1.09254
 Alpha  occ. eigenvalues --   -1.07226  -0.89657  -0.84372  -0.75818  -0.70318
 Alpha  occ. eigenvalues --   -0.63738  -0.61711  -0.59109  -0.55617  -0.52680
 Alpha  occ. eigenvalues --   -0.49059  -0.46115  -0.45905  -0.45243  -0.38629
 Alpha  occ. eigenvalues --   -0.30738  -0.21250
 Alpha virt. eigenvalues --    0.03832   0.04552   0.04921   0.05324   0.05688
 Alpha virt. eigenvalues --    0.06403   0.06666   0.07020   0.07371   0.08339
 Alpha virt. eigenvalues --    0.08721   0.12272   0.13037   0.13820   0.14247

 Mulliken charges:
               1
     1  O   -2.855020
     2  C    1.422999
     3  C   -3.885652
     4  C   -0.477470
     5  C   -3.692503
     6  C   -2.053006
     7  C   -1.918759
     8  H    0.839417
     9  H    1.601214
    10  H    1.643899
    11  H    1.214650
    12  H    1.333955
    13  H    1.532907
    14  H    1.305798
    15  H    1.346994
    16  H    1.339644
    17  H    1.300932
 Sum of Mulliken charges =  -0.00000

 Dipole moment (field-independent basis, Debye):
    X=              1.7189    Y=              1.4225    Z=             -0.0555  Tot=              2.2319

 Test job not archived.
 1\1\GINC-SE115\SP\RHF\Aug-CC-pVDZ\C6H10O1\OHZDE\09-Apr-2025\0\\#t hf a
 ug-cc-pvdz iop(5/13=1,5/36=2,99/5=2) pseudo=read geom=check guess=(rea
 d,tcheck) scf=(maxcycle=1)\\title\\0,1\O,0,1.41327337,-0.44505957,1.45
 409207\C,0,1.33977979,-0.35563166,0.02604381\C,0,0.01643541,-1.4224391
 5,-0.25918755\C,0,-1.21829284,-0.71590742,-0.21908255\C,0,-1.2423935,0
 .52637934,0.60840654\C,0,-0.37974477,1.28728537,-0.41006328\C,0,1.0248
 6666,0.93402456,-0.50043221\H,0,1.81954197,0.37736399,1.73929364\H,0,2
 .22000561,-0.82903068,-0.41463557\H,0,0.22375074,-1.96076274,0.6706373

 Normal termination of Gaussian 16 at Wed Apr  9 19:13:22 2025.
