 Gaussian 16, Revision C.01,

 ----------------------------------------------------------------------
 #t hf aug-cc-pvdz symm=none int=(grid=ultrafine) guess=(read,tcheck) s
 table=(opt,rrhf)
 ----------------------------------------------------------------------
 -----
 title
 -----
 Symbolic Z-matrix:
 Charge =  0 Multiplicity = 1

 SCF Done:  E(RHF) =  -360.790515016     A.U. after   15 cycles
 Normal termination of Gaussian 16 at Wed Apr  9 03:58:20 2025.
 Gaussian 16:  ES64L-G16RevC.01  3-Jul-2019

 ----------------------------------------------------------------------
 #t hf aug-cc-pvdz iop(5/13=1,5/36=2,99/5=2) pseudo=read geom=check gue
 ss=(read,tcheck) scf=(maxcycle=1)
 ----------------------------------------------------------------------
 -----
 title
 -----
 Structure from the checkpoint file:  "Grambow2020_wb97xd3_008682_forward_mol1.chk"
 Charge =  0 Multiplicity = 1

                         Standard orientation:
 ---------------------------------------------------------------------
 Center     Atomic      Atomic             Coordinates (Angstroms)
 Number     Number       Type             X           Y           Z
 ---------------------------------------------------------------------
      1          6           0        2.370885   -0.144588   -0.798793
      2          7           0        1.979497    0.050781    0.437339
      3          6           0        0.816423   -0.583722    0.873223
      4          6           0       -0.316845    0.180749   -0.188263
      5          8           0       -0.517887    1.371351    0.091500
      6          8           0       -1.390234   -0.703626   -0.299982
      7          6           0       -2.664800   -0.134593   -0.069878
      8          1           0        3.023214    0.578024   -1.267096
      9          1           0        0.409024   -0.023836   -1.114120
     10          1           0        2.257105   -1.128069   -1.230896
     11          1           0        2.127559    0.975819    0.817438
     12          1           0        0.563931   -0.364156    1.905541
     13          1           0        0.798788   -1.643523    0.636097
     14          1           0       -2.886505    0.650297   -0.795742
     15          1           0       -2.736189    0.298550    0.930476
     16          1           0       -3.382414   -0.947451   -0.172956
 ---------------------------------------------------------------------

 SCF Done:  E(RHF) =  -362.453482253     A.U. after    2 cycles

 The electronic state is 1-A.
 Alpha  occ. eigenvalues --  -21.02021 -20.94772 -15.85285 -11.49254 -11.45842
 Alpha  occ. eigenvalues --  -11.40515 -11.37129  -1.76775  -1.58232  -1.49872
 Alpha  occ. eigenvalues --   -1.07838  -0.98849  -0.93079  -0.79023  -0.76194
 Alpha  occ. eigenvalues --   -0.67264  -0.64329  -0.60410  -0.59292  -0.57486
 Alpha  occ. eigenvalues --   -0.54332  -0.51957  -0.48323  -0.43090  -0.35547
 Alpha  occ. eigenvalues --   -0.28176  -0.23615  -0.22456
 Alpha virt. eigenvalues --    0.02658   0.04292   0.04906   0.05840   0.06129
 Alpha virt. eigenvalues --    0.06200   0.07021   0.07695   0.08297   0.09188
 Alpha virt. eigenvalues --    0.11009   0.12174   0.12836   0.13581   0.14101

 Mulliken charges:
               1
     1  C   -2.035987
     2  N   -2.244341
     3  C   -2.784037
     4  C    4.853674
     5  O   -3.089388
     6  O   -3.203597
     7  C   -3.107412
     8  H    1.468917
     9  H    1.293675
    10  H    1.512849
    11  H    0.684457
    12  H    1.386337
    13  H    1.460185
    14  H    1.290712
    15  H    1.250520
    16  H    1.263436
 Sum of Mulliken charges =  -0.00000

 Dipole moment (field-independent basis, Debye):
    X=              4.0613    Y=             -1.1757    Z=              0.3391  Tot=              4.2416

 Test job not archived.
 1\1\GINC-SE054\SP\RHF\Aug-CC-pVDZ\C4H9N1O2\OHZDE\09-Apr-2025\0\\#t hf
 aug-cc-pvdz iop(5/13=1,5/36=2,99/5=2) pseudo=read geom=check guess=(re
 ad,tcheck) scf=(maxcycle=1)\\title\\0,1\C,0,-2.32887143,0.70934127,0.3
 8593631\N,0,-1.87840944,-0.514634,0.52137719\C,0,-0.59292234,-0.695960
 63,1.03125368\C,0,0.30425122,0.08256264,-0.2274943\O,0,0.32111524,-0.5
 6502901,-1.28416766\O,0,1.50023765,0.49833638,0.3586051\C,0,2.6733882,
 0.12235753,-0.33682589\H,0,-3.13041288,0.90333984,-0.31185104\H,0,-0.4
 4816545,1.00921095,-0.19365988\H,0,-2.08414194,1.44015965,1.14284061\H

 Normal termination of Gaussian 16 at Wed Apr  9 03:58:25 2025.
