 Gaussian 16, Revision C.01,

 ----------------------------------------------------------------------
 #t hf aug-cc-pvdz symm=none int=(grid=ultrafine) guess=(read,tcheck) s
 table=(opt,rrhf)
 ----------------------------------------------------------------------
 -----
 title
 -----
 Symbolic Z-matrix:
 Charge =  0 Multiplicity = 1

 SCF Done:  E(RHF) =  -344.759061648     A.U. after   14 cycles

 1\1\GINC-SE016\Stability\RHF\Aug-CC-pVDZ\C5H10O2\OHZDE\09-Apr-2025\0\\
 #t hf aug-cc-pvdz symm=none int=(grid=ultrafine) guess=(read,tcheck) s
 table=(opt,rrhf)\\title\\0,1\C,0,2.14128917,-0.07676947,-0.5580961\C,0
 ,0.831378,0.26517492,0.10994678\O,0,0.05288898,1.06212096,-0.7496466\C
 ,0,-1.21950203,1.22008729,-0.1580705\C,0,-1.68362891,-0.12972563,0.359
 16699\C,0,0.03615733,-1.01313877,0.43220288\O,0,-0.02374757,-1.9884015
 5,-0.44978868\H,0,2.6835077,0.83662909,-0.8009218\H,0,1.94593366,-0.64
 280305,-1.46733303\H,0,2.75923167,-0.68749614,0.10222957\H,0,0.9992966

 Normal termination of Gaussian 16 at Wed Apr  9 03:39:41 2025.
 Gaussian 16:  ES64L-G16RevC.01  3-Jul-2019

 ----------------------------------------------------------------------
 #t hf aug-cc-pvdz iop(5/13=1,5/36=2,99/5=2) pseudo=read geom=check gue
 ss=(read,tcheck) scf=(maxcycle=1)
 ----------------------------------------------------------------------
 -----
 title
 -----
 Structure from the checkpoint file:  "Grambow2020_wb97xd3_007411_forward_mol1.chk"
 Charge =  0 Multiplicity = 1

                         Standard orientation:
 ---------------------------------------------------------------------
 Center     Atomic      Atomic             Coordinates (Angstroms)
 Number     Number       Type             X           Y           Z
 ---------------------------------------------------------------------
      1          6           0       -2.089239   -0.590755   -0.020928
      2          6           0       -0.650992   -0.499981    0.428829
      3          8           0        0.171926   -1.213245   -0.462311
      4          6           0        1.514726   -0.967230   -0.101398
      5          6           0        1.680341    0.518589    0.162905
      6          6           0       -0.180075    0.965659    0.449953
      7          8           0       -0.510456    1.775182   -0.533996
      8          1           0       -2.402819   -1.633777   -0.053078
      9          1           0       -2.187205   -0.145265   -1.009468
     10          1           0       -2.739995   -0.049009    0.667475
     11          1           0       -0.527606   -0.911087    1.444549
     12          1           0        2.134792   -1.324548   -0.922435
     13          1           0        1.770708   -1.540161    0.800050
     14          1           0        2.134868    0.801762    1.107199
     15          1           0        2.235183    1.033714   -0.639554
     16          1           0       -0.124200    1.393443    1.465485
     17          1           0        0.765954    1.321744   -0.405929
 ---------------------------------------------------------------------

 SCF Done:  E(RHF) =  -346.377159315     A.U. after    2 cycles

 The electronic state is 1-A.
 Alpha  occ. eigenvalues --  -21.05496 -20.99002 -11.54869 -11.47289 -11.44204
 Alpha  occ. eigenvalues --  -11.39772 -11.37467  -1.79432  -1.67534  -1.16365
 Alpha  occ. eigenvalues --   -1.15094  -0.97884  -0.89700  -0.80436  -0.71364
 Alpha  occ. eigenvalues --   -0.67926  -0.67511  -0.61965  -0.58043  -0.54087
 Alpha  occ. eigenvalues --   -0.51952  -0.50149  -0.47551  -0.44894  -0.40273
 Alpha  occ. eigenvalues --   -0.32205  -0.26737  -0.25889
 Alpha virt. eigenvalues --    0.03733   0.04508   0.04885   0.04909   0.05256
 Alpha virt. eigenvalues --    0.05973   0.06687   0.07564   0.08081   0.09832
 Alpha virt. eigenvalues --    0.11969   0.12110   0.12705   0.13480   0.14028

 Mulliken charges:
               1
     1  C   -3.740756
     2  C    0.744021
     3  O   -3.485347
     4  C   -1.401841
     5  C   -3.894102
     6  C    1.048756
     7  O   -3.188317
     8  H    1.200896
     9  H    1.276537
    10  H    1.140749
    11  H    1.807193
    12  H    1.400208
    13  H    1.457730
    14  H    1.336845
    15  H    0.857301
    16  H    1.544126
    17  H    1.896001
 Sum of Mulliken charges =  -0.00000

 Dipole moment (field-independent basis, Debye):
    X=              1.0752    Y=             -1.0576    Z=              1.1115  Tot=              1.8735

 Test job not archived.
 1\1\GINC-SE016\SP\RHF\Aug-CC-pVDZ\C5H10O2\OHZDE\09-Apr-2025\0\\#t hf a
 ug-cc-pvdz iop(5/13=1,5/36=2,99/5=2) pseudo=read geom=check guess=(rea
 d,tcheck) scf=(maxcycle=1)\\title\\0,1\C,0,2.14128917,-0.07676947,-0.5
 580961\C,0,0.831378,0.26517492,0.10994678\O,0,0.05288898,1.06212096,-0
 .7496466\C,0,-1.21950203,1.22008729,-0.1580705\C,0,-1.68362891,-0.1297
 2563,0.35916699\C,0,0.03615733,-1.01313877,0.43220288\O,0,-0.02374757,
 -1.98840155,-0.44978868\H,0,2.6835077,0.83662909,-0.8009218\H,0,1.9459
 3366,-0.64280305,-1.46733303\H,0,2.75923167,-0.68749614,0.10222957\H,0

 Normal termination of Gaussian 16 at Wed Apr  9 03:39:47 2025.
