 Gaussian 16, Revision C.01,

 ----------------------------------------------------------------------
 #t hf aug-cc-pvdz symm=none int=(grid=ultrafine) guess=(read,tcheck) s
 table=(opt,rrhf)
 ----------------------------------------------------------------------
 -----
 title
 -----
 Symbolic Z-matrix:
 Charge =  0 Multiplicity = 1

 SCF Done:  E(RHF) =  -262.435244937     A.U. after   21 cycles
 Normal termination of Gaussian 16 at Wed Apr  9 17:02:01 2025.
 Gaussian 16:  ES64L-G16RevC.01  3-Jul-2019

 ----------------------------------------------------------------------
 #t hf aug-cc-pvdz iop(5/13=1,5/36=2,99/5=2) pseudo=read geom=check gue
 ss=(read,tcheck) scf=(maxcycle=1)
 ----------------------------------------------------------------------
 -----
 title
 -----
 Structure from the checkpoint file:  "Grambow2020_b97d3_006911_reverse_mol1.chk"
 Charge =  0 Multiplicity = 1

                         Standard orientation:
 ---------------------------------------------------------------------
 Center     Atomic      Atomic             Coordinates (Angstroms)
 Number     Number       Type             X           Y           Z
 ---------------------------------------------------------------------
      1          6           0        1.143733    0.885741   -0.001580
      2          6           0        1.425387   -0.570497    0.001003
      3          7           0        0.513422   -1.462144   -0.000787
      4          7           0       -1.816481   -0.705227   -0.001179
      5          6           0       -1.116060    0.267211    0.001486
      6          6           0       -0.149270    1.310137    0.000705
      7          1           0        1.957097    1.613930   -0.004018
      8          1           0        2.501420   -0.842242    0.005865
      9          1           0       -2.680484    0.700251    0.002293
     10          1           0       -0.479351    2.344115   -0.000063
 ---------------------------------------------------------------------

 SCF Done:  E(RHF) =  -263.659985549     A.U. after    2 cycles

 The electronic state is 1-A.
 Alpha  occ. eigenvalues --  -15.88667 -15.68607 -11.57763 -11.49917 -11.44314
 Alpha  occ. eigenvalues --  -11.38601  -1.42947  -1.29296  -1.16028  -0.96003
 Alpha  occ. eigenvalues --   -0.79161  -0.74023  -0.65683  -0.60585  -0.58146
 Alpha  occ. eigenvalues --   -0.57737  -0.55209  -0.44063  -0.43066  -0.33847
 Alpha  occ. eigenvalues --   -0.26213
 Alpha virt. eigenvalues --    0.01513   0.03630   0.04674   0.05357   0.06259
 Alpha virt. eigenvalues --    0.07802   0.10623   0.11021   0.12421   0.12601
 Alpha virt. eigenvalues --    0.12694   0.13458   0.13873   0.14210   0.14655

 Mulliken charges:
               1
     1  C   -0.429367
     2  C   -0.029799
     3  N   -2.504964
     4  N   -1.725632
     5  C    0.911571
     6  C   -0.935997
     7  H    1.468688
     8  H    1.434958
     9  H    0.373324
    10  H    1.437218
 Sum of Mulliken charges =  -0.00000

 Dipole moment (field-independent basis, Debye):
    X=             -0.3304    Y=              4.1976    Z=              0.0011  Tot=              4.2106

 Test job not archived.
 1\1\GINC-SE112\SP\RHF\Aug-CC-pVDZ\C4H4N2\OHZDE\09-Apr-2025\0\\#t hf au
 g-cc-pvdz iop(5/13=1,5/36=2,99/5=2) pseudo=read geom=check guess=(read
 ,tcheck) scf=(maxcycle=1)\\title\\0,1\C,0,0.74209634,0.86705131,-0.094
 73128\C,0,1.53806927,-0.3827828,-0.16034323\N,0,1.0234337,-1.54762864,
 -0.08961608\N,0,-1.40702402,-1.70244455,0.17548412\C,0,-1.11740164,-0.
 54042616,0.13005025\C,0,-0.60803634,0.78520292,0.05499172\H,0,1.225315
 76,1.84356774,-0.16359502\H,0,2.63242523,-0.23887333,-0.27606496\H,0,-
 2.72157469,-0.71425944,0.30712815\H,0,-1.29325561,1.62471094,0.1163453

 Normal termination of Gaussian 16 at Wed Apr  9 17:02:04 2025.
