 Gaussian 16, Revision C.01,

 ----------------------------------------------------------------------
 #t hf aug-cc-pvdz symm=none int=(grid=ultrafine) guess=(read,tcheck) s
 table=(opt,rrhf)
 ----------------------------------------------------------------------
 -----
 title
 -----
 Symbolic Z-matrix:
 Charge =  0 Multiplicity = 1

 SCF Done:  E(RHF) =  -306.543510795     A.U. after   15 cycles
 Normal termination of Gaussian 16 at Wed Apr  9 19:10:02 2025.
 Gaussian 16:  ES64L-G16RevC.01  3-Jul-2019

 ----------------------------------------------------------------------
 #t hf aug-cc-pvdz iop(5/13=1,5/36=2,99/5=2) pseudo=read geom=check gue
 ss=(read,tcheck) scf=(maxcycle=1)
 ----------------------------------------------------------------------
 -----
 title
 -----
 Structure from the checkpoint file:  "Grambow2020_wb97xd3_008178_reverse_mol1.chk"
 Charge =  0 Multiplicity = 1

                         Standard orientation:
 ---------------------------------------------------------------------
 Center     Atomic      Atomic             Coordinates (Angstroms)
 Number     Number       Type             X           Y           Z
 ---------------------------------------------------------------------
      1          6           0       -1.540708   -0.458215    0.166710
      2          6           0       -0.572221   -0.087402   -0.963706
      3          8           0       -0.175679    1.235390   -0.586223
      4          6           0        0.311357    0.991843    0.705287
      5          6           0        1.917055   -0.470609   -0.073227
      6          6           0        0.520779   -0.962442   -0.231600
      7          6           0       -0.250055   -0.417425    0.996289
      8          1           0       -2.336309    0.256905    0.376480
      9          1           0       -1.930280   -1.472078    0.082837
     10          1           0       -0.809200   -0.124833   -2.022914
     11          1           0        0.126894    1.833601    1.372938
     12          1           0        2.237262    0.070289   -0.983472
     13          1           0        1.475041    0.831011    0.702049
     14          1           0        0.454176   -2.031592   -0.433558
     15          1           0       -0.129398   -0.820918    1.996897
 ---------------------------------------------------------------------

 SCF Done:  E(RHF) =  -307.981792593     A.U. after    2 cycles

 The electronic state is 1-A.
 Alpha  occ. eigenvalues --  -21.05363 -11.50190 -11.47106 -11.43972 -11.42249
 Alpha  occ. eigenvalues --  -11.40946 -11.36672  -1.81672  -1.32665  -1.09559
 Alpha  occ. eigenvalues --   -1.02821  -0.87849  -0.83219  -0.78269  -0.74388
 Alpha  occ. eigenvalues --   -0.66088  -0.62750  -0.55509  -0.52013  -0.50648
 Alpha  occ. eigenvalues --   -0.46857  -0.45568  -0.41476  -0.37650  -0.31514
 Alpha  occ. eigenvalues --   -0.29605
 Alpha virt. eigenvalues --    0.03813   0.04511   0.04931   0.05207   0.05888
 Alpha virt. eigenvalues --    0.06114   0.06597   0.07725   0.08966   0.10524
 Alpha virt. eigenvalues --    0.11624   0.12463   0.12931   0.13782   0.14188

 Mulliken charges:
               1
     1  C   -2.541315
     2  C    0.478209
     3  O   -3.306161
     4  C   -0.739477
     5  C   -3.088016
     6  C    0.311668
     7  C   -2.781286
     8  H    1.358169
     9  H    1.310026
    10  H    1.599281
    11  H    1.528005
    12  H    1.101637
    13  H    1.537269
    14  H    1.615038
    15  H    1.616953
 Sum of Mulliken charges =   0.00000

 Dipole moment (field-independent basis, Debye):
    X=             -2.2105    Y=              0.0654    Z=             -0.5068  Tot=              2.2688

 Test job not archived.
 1\1\GINC-SE054\SP\RHF\Aug-CC-pVDZ\C6H8O1\OHZDE\09-Apr-2025\0\\#t hf au
 g-cc-pvdz iop(5/13=1,5/36=2,99/5=2) pseudo=read geom=check guess=(read
 ,tcheck) scf=(maxcycle=1)\\title\\0,1\C,0,-1.52941311,-0.12583519,-0.2
 6106525\C,0,-0.57705365,-0.5312443,0.87117394\O,0,0.26668079,-1.484198
 83,0.21580555\C,0,0.73571851,-0.70944545,-0.85390343\C,0,1.69662713,0.
 83692594,0.56331425\C,0,0.20870091,0.81427,0.60944449\C,0,-0.24356582,
 0.48493273,-0.8348312\H,0,-2.02144113,-0.9394451,-0.79429038\H,0,-2.24
 168017,0.64443972,0.0323121\H,0,-0.88875798,-0.90483141,1.84212947\H,0

 Normal termination of Gaussian 16 at Wed Apr  9 19:10:07 2025.
