 Gaussian 16, Revision C.01,

 ----------------------------------------------------------------------
 #t hf aug-cc-pvdz symm=none int=(grid=ultrafine) guess=(read,tcheck) s
 table=(opt,rrhf)
 ----------------------------------------------------------------------
 -----
 title
 -----
 Symbolic Z-matrix:
 Charge =  0 Multiplicity = 1

 SCF Done:  E(RHF) =  -343.637931782     A.U. after   16 cycles
 Normal termination of Gaussian 16 at Wed Apr  9 18:55:53 2025.
 Gaussian 16:  ES64L-G16RevC.01  3-Jul-2019

 ----------------------------------------------------------------------
 #t hf aug-cc-pvdz iop(5/13=1,5/36=2,99/5=2) pseudo=read geom=check gue
 ss=(read,tcheck) scf=(maxcycle=1)
 ----------------------------------------------------------------------
 -----
 title
 -----
 Structure from the checkpoint file:  "Grambow2020_wb97xd3_007805_reverse_mol2.chk"
 Charge =  0 Multiplicity = 1

                         Standard orientation:
 ---------------------------------------------------------------------
 Center     Atomic      Atomic             Coordinates (Angstroms)
 Number     Number       Type             X           Y           Z
 ---------------------------------------------------------------------
      1          6           0       -2.108176   -1.002078    0.307148
      2          6           0       -1.039859    0.066392    0.268880
      3          6           0       -1.469898    1.336491   -0.434880
      4          6           0        1.839747    0.556154    1.018213
      5          6           0        1.267964   -0.135154   -0.049306
      6          8           0        2.351264   -0.485377   -0.526942
      7          8           0        0.089921   -0.510211   -0.447370
      8          1           0       -1.745372   -1.892745    0.819364
      9          1           0       -2.986290   -0.631138    0.837223
     10          1           0       -2.405939   -1.278509   -0.705644
     11          1           0       -0.663833    2.071506   -0.449689
     12          1           0       -1.763670    1.121755   -1.463618
     13          1           0       -2.321730    1.778629    0.083952
     14          1           0        2.116094    1.574921    0.727841
     15          1           0       -0.697401    0.289459    1.284735
 ---------------------------------------------------------------------

 SCF Done:  E(RHF) =  -345.174790404     A.U. after    2 cycles

 The electronic state is 1-A.
 Alpha  occ. eigenvalues --  -21.12336 -21.06321 -11.53587 -11.48631 -11.43178
 Alpha  occ. eigenvalues --  -11.41970 -11.38616  -1.87864  -1.70524  -1.21484
 Alpha  occ. eigenvalues --   -1.04740  -1.03819  -0.89118  -0.77449  -0.67053
 Alpha  occ. eigenvalues --   -0.65887  -0.63478  -0.58126  -0.56735  -0.56059
 Alpha  occ. eigenvalues --   -0.54631  -0.50438  -0.47898  -0.43031  -0.37086
 Alpha  occ. eigenvalues --   -0.33386  -0.30605
 Alpha virt. eigenvalues --    0.02913   0.04738   0.04854   0.05410   0.05503
 Alpha virt. eigenvalues --    0.05815   0.06851   0.07858   0.09169   0.10754
 Alpha virt. eigenvalues --    0.11567   0.11936   0.12716   0.13497   0.14070

 Mulliken charges:
               1
     1  C   -3.741105
     2  C   -0.793143
     3  C   -3.511255
     4  C   -2.680908
     5  C    5.783186
     6  O   -2.747169
     7  O   -3.319413
     8  H    1.320742
     9  H    1.188762
    10  H    1.269694
    11  H    1.334233
    12  H    1.323640
    13  H    1.199743
    14  H    1.300785
    15  H    2.072208
 Sum of Mulliken charges =   0.00000

 Dipole moment (field-independent basis, Debye):
    X=             -3.5657    Y=              0.5793    Z=             -1.5673  Tot=              3.9378

 Test job not archived.
 1\1\GINC-SE115\SP\RHF\Aug-CC-pVDZ\C5H8O2\OHZDE\09-Apr-2025\0\\#t hf au
 g-cc-pvdz iop(5/13=1,5/36=2,99/5=2) pseudo=read geom=check guess=(read
 ,tcheck) scf=(maxcycle=1)\\title\\0,1\C,0,-1.04674008,1.58093685,-0.33
 919563\C,0,-0.36240303,0.2407454,-0.19791143\C,0,-1.1703387,-0.7801427
 8,0.57564623\C,0,2.22952872,-1.16651136,-0.82641585\C,0,1.89171319,-0.
 25697287,0.17511312\O,0,3.02642564,-0.22434024,0.66059801\O,0,0.884767
 81,0.49106606,0.51187252\H,0,-0.42180146,2.27659507,-0.89847376\H,0,-1
 .99237763,1.46154961,-0.86945644\H,0,-1.25215016,2.00847778,0.64357654

 Normal termination of Gaussian 16 at Wed Apr  9 18:55:58 2025.
