 Gaussian 16, Revision C.01,

 ----------------------------------------------------------------------
 #t hf aug-cc-pvdz symm=none int=(grid=ultrafine) guess=(read,tcheck) s
 table=(opt,rrhf)
 ----------------------------------------------------------------------
 -----
 title
 -----
 Symbolic Z-matrix:
 Charge =  0 Multiplicity = 1

 SCF Done:  E(RHF) =  -321.458799731     A.U. after   16 cycles
 Normal termination of Gaussian 16 at Wed Apr  9 03:40:12 2025.
 Gaussian 16:  ES64L-G16RevC.01  3-Jul-2019

 ----------------------------------------------------------------------
 #t hf aug-cc-pvdz iop(5/13=1,5/36=2,99/5=2) pseudo=read geom=check gue
 ss=(read,tcheck) scf=(maxcycle=1)
 ----------------------------------------------------------------------
 -----
 title
 -----
 Structure from the checkpoint file:  "Grambow2020_wb97xd3_007501_reverse_mol2.chk"
 Charge =  0 Multiplicity = 1

                         Standard orientation:
 ---------------------------------------------------------------------
 Center     Atomic      Atomic             Coordinates (Angstroms)
 Number     Number       Type             X           Y           Z
 ---------------------------------------------------------------------
      1          8           0       -0.932197    1.763501   -0.113449
      2          6           0       -0.722443    0.589098    0.115566
      3          6           0       -1.771213   -0.426539    0.036013
      4          6           0       -2.602184   -1.282135   -0.077717
      5          6           0        0.560703    0.091650    0.593289
      6          6           0        2.825198   -0.542126    0.019574
      7          7           0        1.471201   -0.110148   -0.294233
      8          1           0       -3.356076   -2.028350   -0.174238
      9          1           0        2.899273   -0.645526    1.098762
     10          1           0        3.034606   -1.498877   -0.460931
     11          1           0        3.542720    0.200454   -0.332416
     12          1           0        1.298281    0.055637   -1.284307
 ---------------------------------------------------------------------

 SCF Done:  E(RHF) =  -322.905133763     A.U. after    2 cycles

 The electronic state is 1-A.
 Alpha  occ. eigenvalues --  -21.05792 -15.82211 -11.52265 -11.44328 -11.42050
 Alpha  occ. eigenvalues --  -11.41806 -11.40895  -1.71660  -1.45709  -1.15372
 Alpha  occ. eigenvalues --   -1.07405  -0.95506  -0.84080  -0.75573  -0.69547
 Alpha  occ. eigenvalues --   -0.63591  -0.61483  -0.57049  -0.54724  -0.51086
 Alpha  occ. eigenvalues --   -0.44350  -0.39974  -0.38026  -0.33904  -0.28994
 Alpha virt. eigenvalues --    0.03021   0.04105   0.05359   0.05471   0.06447
 Alpha virt. eigenvalues --    0.09403   0.09682   0.10300   0.10741   0.10965
 Alpha virt. eigenvalues --    0.11655   0.12267   0.13656   0.13995   0.14314

 Mulliken charges:
               1
     1  O   -3.293797
     2  C    4.357579
     3  C    3.006298
     4  C   -3.454578
     5  C   -0.726336
     6  C   -3.193194
     7  N   -2.309128
     8  H    0.785096
     9  H    1.398882
    10  H    1.312550
    11  H    1.330502
    12  H    0.786125
 Sum of Mulliken charges =  -0.00000

 Dipole moment (field-independent basis, Debye):
    X=              2.0383    Y=             -1.8702    Z=             -2.4627  Tot=              3.7037

 Test job not archived.
 1\1\GINC-SE435\SP\RHF\Aug-CC-pVDZ\C5H5N1O1\OHZDE\09-Apr-2025\0\\#t hf
 aug-cc-pvdz iop(5/13=1,5/36=2,99/5=2) pseudo=read geom=check guess=(re
 ad,tcheck) scf=(maxcycle=1)\\title\\0,1\O,0,0.95754749,1.57195042,1.69
 832562\C,0,1.02558865,0.63844509,0.92398443\C,0,1.99430642,-0.44514518
 ,1.0826823\C,0,2.74177712,-1.37060879,1.22514631\C,0,0.22753414,0.5576
 3208,-0.29203954\C,0,-1.92754326,0.04381732,-1.26692079\N,0,-0.9784296
 ,0.12484399,-0.16646419\H,0,3.41994943,-2.18045182,1.36205789\H,0,-1.4
 3127731,0.41048007,-2.16140643\H,0,-2.24376755,-0.98981554,-1.41428072

 Normal termination of Gaussian 16 at Wed Apr  9 03:40:16 2025.
