 Gaussian 16, Revision C.01,

 ----------------------------------------------------------------------
 #t hf aug-cc-pvdz symm=none int=(grid=ultrafine) guess=(read,tcheck) s
 table=(opt,rrhf)
 ----------------------------------------------------------------------
 -----
 title
 -----
 Symbolic Z-matrix:
 Charge =  0 Multiplicity = 1

 SCF Done:  E(RHF) =  -302.798285310     A.U. after   16 cycles
 Normal termination of Gaussian 16 at Wed Apr  9 19:24:13 2025.
 Gaussian 16:  ES64L-G16RevC.01  3-Jul-2019

 ----------------------------------------------------------------------
 #t hf aug-cc-pvdz iop(5/13=1,5/36=2,99/5=2) pseudo=read geom=check gue
 ss=(read,tcheck) scf=(maxcycle=1)
 ----------------------------------------------------------------------
 -----
 title
 -----
 Structure from the checkpoint file:  "Grambow2020_wb97xd3_008900_forward_mol1.chk"
 Charge =  0 Multiplicity = 1

                         Standard orientation:
 ---------------------------------------------------------------------
 Center     Atomic      Atomic             Coordinates (Angstroms)
 Number     Number       Type             X           Y           Z
 ---------------------------------------------------------------------
      1          6           0       -1.174697   -1.383064    0.632606
      2          7           0       -0.094525   -0.626655   -0.700225
      3          6           0       -1.278512    0.142505   -0.542198
      4          6           0       -0.974589    1.359112    0.058758
      5          6           0        0.392143    1.320651    0.338174
      6          6           0        0.874578    0.092771   -0.112922
      7          7           0        2.140228   -0.475550    0.075083
      8          1           0       -0.640097   -2.319846    0.512392
      9          1           0       -0.894241   -0.865571    1.543585
     10          1           0       -2.245397   -1.565224    0.571216
     11          1           0       -2.140208   -0.097963   -1.145374
     12          1           0       -1.664273    2.161073    0.271529
     13          1           0        0.973253    2.093343    0.822327
     14          1           0        2.394573   -1.089121   -0.683878
     15          1           0        2.862937    0.206903    0.237697
 ---------------------------------------------------------------------

 SCF Done:  E(RHF) =  -304.275995030     A.U. after    2 cycles

 The electronic state is 1-A.
 Alpha  occ. eigenvalues --  -15.74338 -15.72744 -11.46435 -11.44006 -11.42204
 Alpha  occ. eigenvalues --  -11.39575 -11.34706  -1.50815  -1.30391  -1.12107
 Alpha  occ. eigenvalues --   -1.03808  -0.96876  -0.79626  -0.75273  -0.70435
 Alpha  occ. eigenvalues --   -0.64562  -0.61722  -0.58557  -0.56042  -0.51302
 Alpha  occ. eigenvalues --   -0.49327  -0.49110  -0.43378  -0.37762  -0.33323
 Alpha  occ. eigenvalues --   -0.23754
 Alpha virt. eigenvalues --    0.03729   0.05131   0.05302   0.05683   0.05876
 Alpha virt. eigenvalues --    0.06689   0.06930   0.07616   0.10844   0.12148
 Alpha virt. eigenvalues --    0.12357   0.12598   0.13455   0.13860   0.14908

 Mulliken charges:
               1
     1  C   -3.619487
     2  N   -3.177905
     3  C   -0.551367
     4  C   -0.595441
     5  C   -1.353591
     6  C    3.475860
     7  N   -3.371437
     8  H    1.134685
     9  H    1.615268
    10  H    1.135749
    11  H    1.333423
    12  H    1.321258
    13  H    1.461614
    14  H    0.694410
    15  H    0.496961
 Sum of Mulliken charges =   0.00000

 Dipole moment (field-independent basis, Debye):
    X=             -0.2553    Y=             -0.3839    Z=              0.3242  Tot=              0.5636

 Test job not archived.
 1\1\GINC-SE098\SP\RHF\Aug-CC-pVDZ\C5H8N2\OHZDE\09-Apr-2025\0\\#t hf au
 g-cc-pvdz iop(5/13=1,5/36=2,99/5=2) pseudo=read geom=check guess=(read
 ,tcheck) scf=(maxcycle=1)\\title\\0,1\C,0,-0.85691611,-1.54949684,0.09
 353092\N,0,-0.40246191,0.0823809,0.89715372\C,0,0.73038134,-0.77444828
 ,0.86689416\C,0,1.65508233,-0.30219755,-0.05806926\C,0,1.06784005,0.81
 405505,-0.65525943\C,0,-0.18339629,0.99103245,-0.06618603\N,0,-1.20678
 376,1.87517009,-0.42837666\H,0,-1.90285069,-1.33750017,0.29072757\H,0,
 -0.60381465,-1.42290578,-0.9534901\H,0,-0.61153216,-2.54278983,0.46299

 Normal termination of Gaussian 16 at Wed Apr  9 19:24:18 2025.
