 Gaussian 16, Revision C.01,

 ----------------------------------------------------------------------
 #t hf aug-cc-pvdz symm=none int=(grid=ultrafine) guess=(read,tcheck) s
 table=(opt,rrhf)
 ----------------------------------------------------------------------
 -----
 title
 -----
 Symbolic Z-matrix:
 Charge =  0 Multiplicity = 1

 SCF Done:  E(RHF) =  -340.414033363     A.U. after   15 cycles
 Normal termination of Gaussian 16 at Wed Apr  9 17:40:13 2025.
 Gaussian 16:  ES64L-G16RevC.01  3-Jul-2019

 ----------------------------------------------------------------------
 #t hf aug-cc-pvdz iop(5/13=1,5/36=2,99/5=2) pseudo=read geom=check gue
 ss=(read,tcheck) scf=(maxcycle=1)
 ----------------------------------------------------------------------
 -----
 title
 -----
 Structure from the checkpoint file:  "Grambow2020_wb97xd3_006040_forward_mol1.chk"
 Charge =  0 Multiplicity = 1

                         Standard orientation:
 ---------------------------------------------------------------------
 Center     Atomic      Atomic             Coordinates (Angstroms)
 Number     Number       Type             X           Y           Z
 ---------------------------------------------------------------------
      1          8           0       -1.977776   -0.246680    0.082143
      2          6           0       -0.814772   -0.078873   -0.006411
      3          8           0       -0.215604    1.112339   -0.289249
      4          6           0        1.045569    1.342716    0.162457
      5          6           0        1.453959   -0.816446   -0.088846
      6          8           0        0.094785   -1.075700    0.073530
      7          1           0        1.762989    0.336248   -0.389701
      8          1           0        1.081346    1.074621    1.236285
      9          1           0        1.824191   -1.322635   -0.982718
     10          1           0        2.011697   -1.092292    0.801538
 ---------------------------------------------------------------------

 SCF Done:  E(RHF) =  -341.848894787     A.U. after    2 cycles

 The electronic state is 1-A.
 Alpha  occ. eigenvalues --  -21.13922 -21.13717 -21.07842 -11.57049 -11.48368
 Alpha  occ. eigenvalues --  -11.45794  -1.96057  -1.77617  -1.71077  -1.11236
 Alpha  occ. eigenvalues --   -0.94040  -0.84382  -0.72563  -0.69302  -0.65788
 Alpha  occ. eigenvalues --   -0.61288  -0.57523  -0.51887  -0.44633  -0.40910
 Alpha  occ. eigenvalues --   -0.38280  -0.35565  -0.31110
 Alpha virt. eigenvalues --    0.02707   0.04707   0.04904   0.06311   0.08750
 Alpha virt. eigenvalues --    0.09331   0.10971   0.11075   0.11556   0.11978
 Alpha virt. eigenvalues --    0.13001   0.14661   0.15420   0.16117   0.16285

 Mulliken charges:
               1
     1  O   -2.998429
     2  C    6.436586
     3  O   -2.672141
     4  C   -1.459576
     5  C   -2.252660
     6  O   -2.962605
     7  H    2.155762
     8  H    1.268798
     9  H    1.197694
    10  H    1.286571
 Sum of Mulliken charges =  -0.00000

 Dipole moment (field-independent basis, Debye):
    X=              1.9622    Y=             -2.0821    Z=              0.3634  Tot=              2.8840

 Test job not archived.
 1\1\GINC-SE030\SP\RHF\Aug-CC-pVDZ\C3H4O3\OHZDE\09-Apr-2025\0\\#t hf au
 g-cc-pvdz iop(5/13=1,5/36=2,99/5=2) pseudo=read geom=check guess=(read
 ,tcheck) scf=(maxcycle=1)\\title\\0,1\O,0,2.58961299,0.01111895,-0.332
 77473\C,0,1.43496265,0.09878502,-0.1144261\O,0,0.77294385,1.26307023,0
 .13886893\C,0,-0.54765445,1.35435177,-0.16992694\C,0,-0.73649356,-0.79
 587189,0.3125596\O,0,0.61143327,-0.9665782,0.00452491\H,0,-1.10603523,
 0.35365855,0.55074836\H,0,-0.68609661,0.98391115,-1.20427194\H,0,-0.95
 427946,-1.24155078,1.28531149\H,0,-1.36912844,-1.1958238,-0.47468759\\

 Normal termination of Gaussian 16 at Wed Apr  9 17:40:16 2025.
