 Gaussian 16, Revision C.01,

 ----------------------------------------------------------------------
 #t hf aug-cc-pvdz symm=none int=(grid=ultrafine) guess=(read,tcheck) s
 table=(opt,rrhf)
 ----------------------------------------------------------------------
 -----
 title
 -----
 Symbolic Z-matrix:
 Charge =  0 Multiplicity = 1

 SCF Done:  E(RHF) =  -302.827540713     A.U. after   15 cycles
 Normal termination of Gaussian 16 at Wed Apr  9 19:29:13 2025.
 Gaussian 16:  ES64L-G16RevC.01  3-Jul-2019

 ----------------------------------------------------------------------
 #t hf aug-cc-pvdz iop(5/13=1,5/36=2,99/5=2) pseudo=read geom=check gue
 ss=(read,tcheck) scf=(maxcycle=1)
 ----------------------------------------------------------------------
 -----
 title
 -----
 Structure from the checkpoint file:  "Grambow2020_wb97xd3_009044_reverse_mol2.chk"
 Charge =  0 Multiplicity = 1

                         Standard orientation:
 ---------------------------------------------------------------------
 Center     Atomic      Atomic             Coordinates (Angstroms)
 Number     Number       Type             X           Y           Z
 ---------------------------------------------------------------------
      1          7           0        2.089547   -0.430876   -0.228531
      2          6           0        0.950194    0.150092    0.467577
      3          6           0        0.383609    1.426088   -0.167384
      4          7           0       -0.908382    1.236987   -0.187540
      5          6           0       -0.213726   -0.819297    0.625237
      6          6           0       -0.995754   -1.195168   -0.606566
      7          6           0       -1.431151   -0.049067    0.255570
      8          1           0        2.776611    0.294080   -0.396782
      9          1           0        1.797355   -0.761105   -1.140460
     10          1           0        1.291634    0.447233    1.466771
     11          1           0       -0.222288   -1.508357    1.457768
     12          1           0       -0.603161   -0.955068   -1.587459
     13          1           0       -1.570938   -2.110359   -0.558016
     14          1           0       -2.362514   -0.048825    0.805271
     15          1           0       -1.533897    1.923733   -0.581196
 ---------------------------------------------------------------------

 SCF Done:  E(RHF) =  -304.273491596     A.U. after    2 cycles

 The electronic state is 1-A.
 Alpha  occ. eigenvalues --  -15.78489 -15.72479 -11.47614 -11.45114 -11.40539
 Alpha  occ. eigenvalues --  -11.37982 -11.36278  -1.51573  -1.31116  -1.23509
 Alpha  occ. eigenvalues --   -1.02831  -0.89675  -0.82988  -0.79518  -0.73351
 Alpha  occ. eigenvalues --   -0.65054  -0.62627  -0.55768  -0.55472  -0.54353
 Alpha  occ. eigenvalues --   -0.51260  -0.47267  -0.39954  -0.36126  -0.34888
 Alpha  occ. eigenvalues --   -0.30986
 Alpha virt. eigenvalues --    0.03767   0.05019   0.05316   0.05757   0.05978
 Alpha virt. eigenvalues --    0.06435   0.06819   0.08157   0.09528   0.11206
 Alpha virt. eigenvalues --    0.12026   0.13096   0.13356   0.14119   0.14249

 Mulliken charges:
               1
     1  N   -2.735713
     2  C    0.409337
     3  C   -0.735553
     4  N   -2.711967
     5  C   -0.839891
     6  C   -2.558468
     7  C    0.392326
     8  H    0.611521
     9  H    0.474520
    10  H    1.813755
    11  H    1.237518
    12  H    1.375814
    13  H    1.208951
    14  H    1.283451
    15  H    0.774399
 Sum of Mulliken charges =  -0.00000

 Dipole moment (field-independent basis, Debye):
    X=             -3.0378    Y=             -1.2406    Z=              0.1530  Tot=              3.2850

 Test job not archived.
 1\1\GINC-SE083\SP\RHF\Aug-CC-pVDZ\C5H8N2\OHZDE\09-Apr-2025\0\\#t hf au
 g-cc-pvdz iop(5/13=1,5/36=2,99/5=2) pseudo=read geom=check guess=(read
 ,tcheck) scf=(maxcycle=1)\\title\\0,1\N,0,2.14936436,0.22706734,-0.608
 60447\C,0,1.07134891,-0.44816094,0.10003224\C,0,0.71107546,0.15741106,
 1.46232605\N,0,-0.59261681,0.23301295,1.45356162\C,0,-0.21931743,-0.52
 457446,-0.7047169\C,0,-0.99252464,0.74917709,-0.92808563\C,0,-1.303843
 2,-0.14001674,0.23759491\H,0,2.93521374,0.34131531,0.02013578\H,0,1.85
 369995,1.16138839,-0.86486332\H,0,1.40756971,-1.47017031,0.31384662\H,

 Normal termination of Gaussian 16 at Wed Apr  9 19:29:18 2025.
