 Gaussian 16, Revision C.01,

 ----------------------------------------------------------------------
 #t hf aug-cc-pvdz symm=none int=(grid=ultrafine) guess=(read,tcheck) s
 table=(opt,rrhf)
 ----------------------------------------------------------------------
 -----
 title
 -----
 Symbolic Z-matrix:
 Charge =  0 Multiplicity = 1

 SCF Done:  E(RHF) =  -359.679275400     A.U. after   15 cycles
 Normal termination of Gaussian 16 at Wed Apr  9 04:05:18 2025.
 Gaussian 16:  ES64L-G16RevC.01  3-Jul-2019

 ----------------------------------------------------------------------
 #t hf aug-cc-pvdz iop(5/13=1,5/36=2,99/5=2) pseudo=read geom=check gue
 ss=(read,tcheck) scf=(maxcycle=1)
 ----------------------------------------------------------------------
 -----
 title
 -----
 Structure from the checkpoint file:  "Grambow2020_wb97xd3_009242_reverse_mol1.chk"
 Charge =  0 Multiplicity = 1

                         Standard orientation:
 ---------------------------------------------------------------------
 Center     Atomic      Atomic             Coordinates (Angstroms)
 Number     Number       Type             X           Y           Z
 ---------------------------------------------------------------------
      1          6           0       -0.898819    1.696011   -0.326968
      2          6           0        0.076349    0.902721    0.513766
      3          6           0       -0.899054   -0.864498    0.425149
      4          8           0       -2.005779   -0.842148   -0.016451
      5          6           0        0.954283   -0.028880   -0.070505
      6          8           0        0.328438   -1.058144   -0.559575
      7          7           0        2.284378   -0.085827    0.029179
      8          1           0       -1.095750    1.209905   -1.280229
      9          1           0       -1.858291    1.785172    0.187203
     10          1           0       -0.515996    2.700761   -0.522965
     11          1           0        0.474977    1.445178    1.370553
     12          1           0       -0.553707   -1.366189    1.332569
     13          1           0        2.812158    0.733662    0.262271
     14          1           0        2.768139   -0.937480   -0.194104
 ---------------------------------------------------------------------

 SCF Done:  E(RHF) =  -361.316187191     A.U. after    2 cycles

 The electronic state is 1-A.
 Alpha  occ. eigenvalues --  -21.08581 -21.02031 -15.82126 -11.53336 -11.51326
 Alpha  occ. eigenvalues --  -11.40234 -11.35915  -1.83539  -1.66878  -1.39359
 Alpha  occ. eigenvalues --   -1.16710  -0.96748  -0.89939  -0.78466  -0.73873
 Alpha  occ. eigenvalues --   -0.70314  -0.60551  -0.59850  -0.57700  -0.53415
 Alpha  occ. eigenvalues --   -0.49559  -0.48394  -0.45365  -0.42811  -0.36513
 Alpha  occ. eigenvalues --   -0.27148  -0.25127
 Alpha virt. eigenvalues --    0.02638   0.04288   0.04730   0.05410   0.06032
 Alpha virt. eigenvalues --    0.07720   0.07961   0.09897   0.11163   0.11330
 Alpha virt. eigenvalues --    0.12402   0.13607   0.14043   0.14439   0.15149

 Mulliken charges:
               1
     1  C   -3.976185
     2  C   -2.867687
     3  C    2.463646
     4  O   -2.918407
     5  C    6.010880
     6  O   -3.256866
     7  N   -3.428292
     8  H    1.288312
     9  H    1.178453
    10  H    1.241888
    11  H    1.315973
    12  H    1.531076
    13  H    0.663083
    14  H    0.754125
 Sum of Mulliken charges =   0.00000

 Dipole moment (field-independent basis, Debye):
    X=              4.6488    Y=              0.2621    Z=              0.1208  Tot=              4.6578

 Test job not archived.
 1\1\GINC-SE179\SP\RHF\Aug-CC-pVDZ\C4H7N1O2\OHZDE\09-Apr-2025\0\\#t hf
 aug-cc-pvdz iop(5/13=1,5/36=2,99/5=2) pseudo=read geom=check guess=(re
 ad,tcheck) scf=(maxcycle=1)\\title\\0,1\C,0,-1.17293721,-1.17152812,0.
 45848299\C,0,-0.34483831,-0.34056569,-0.49590121\C,0,-0.68493795,1.450
 81667,0.37450481\O,0,-1.54124509,1.48830759,1.20256461\C,0,0.90499105,
 0.18106,-0.11399319\O,0,0.79907875,1.09496513,0.8046002\N,0,2.08476871
 ,0.02620005,-0.71936601\H,0,-0.8963056,-0.98856712,1.49472051\H,0,-2.2
 3086276,-0.91719932,0.36351696\H,0,-1.05287056,-2.23782485,0.25091192\

 Normal termination of Gaussian 16 at Wed Apr  9 04:05:22 2025.
