 Gaussian 16, Revision C.01,

 ----------------------------------------------------------------------
 #t hf aug-cc-pvdz symm=none int=(grid=ultrafine) guess=(read,tcheck) s
 table=(opt,rrhf)
 ----------------------------------------------------------------------
 -----
 title
 -----
 Symbolic Z-matrix:
 Charge =  0 Multiplicity = 1

 SCF Done:  E(RHF) =  -338.658552485     A.U. after   15 cycles
 Normal termination of Gaussian 16 at Wed Apr  9 18:17:12 2025.
 Gaussian 16:  ES64L-G16RevC.01  3-Jul-2019

 ----------------------------------------------------------------------
 #t hf aug-cc-pvdz iop(5/13=1,5/36=2,99/5=2) pseudo=read geom=check gue
 ss=(read,tcheck) scf=(maxcycle=1)
 ----------------------------------------------------------------------
 -----
 title
 -----
 Structure from the checkpoint file:  "Grambow2020_wb97xd3_006836_forward_mol1.chk"
 Charge =  0 Multiplicity = 1

                         Standard orientation:
 ---------------------------------------------------------------------
 Center     Atomic      Atomic             Coordinates (Angstroms)
 Number     Number       Type             X           Y           Z
 ---------------------------------------------------------------------
      1          7           0        2.442673   -0.461014   -0.201629
      2          6           0        1.122246   -0.072854    0.100880
      3          6           0        0.667810    1.302460   -0.023928
      4          7           0       -0.691941    1.132456   -0.033430
      5          6           0       -1.095258   -0.180449   -0.018054
      6          8           0       -2.417825   -0.411850   -0.044838
      7          6           0       -0.016896   -0.989409    0.050556
      8          1           0        3.042849    0.346547   -0.289311
      9          1           0        2.832117   -1.124940    0.450095
     10          1           0        1.060449    0.542280    1.160285
     11          1           0       -1.342424    1.897106    0.010182
     12          1           0       -2.577152   -1.357750   -0.042717
     13          1           0        0.004215   -2.067023    0.058857
 ---------------------------------------------------------------------

 SCF Done:  E(RHF) =  -340.198663977     A.U. after    2 cycles

 The electronic state is 1-A.
 Alpha  occ. eigenvalues --  -21.13283 -15.77787 -15.74601 -11.49654 -11.46582
 Alpha  occ. eigenvalues --  -11.38889 -11.36885  -1.79656  -1.50112  -1.33055
 Alpha  occ. eigenvalues --   -1.11990  -1.03058  -0.83048  -0.78619  -0.70078
 Alpha  occ. eigenvalues --   -0.67069  -0.64691  -0.60176  -0.55822  -0.55095
 Alpha  occ. eigenvalues --   -0.47198  -0.45366  -0.41865  -0.34239  -0.33142
 Alpha  occ. eigenvalues --   -0.29257
 Alpha virt. eigenvalues --    0.03254   0.04846   0.05468   0.06237   0.06465
 Alpha virt. eigenvalues --    0.07371   0.10378   0.11349   0.12182   0.12517
 Alpha virt. eigenvalues --    0.13079   0.13781   0.14377   0.15070   0.15239

 Mulliken charges:
               1
     1  N   -3.254768
     2  C    3.187046
     3  C   -1.495395
     4  N   -2.678803
     5  C    4.519860
     6  O   -3.541592
     7  C   -2.640108
     8  H    0.660940
     9  H    0.506719
    10  H    1.737426
    11  H    0.859340
    12  H    0.763168
    13  H    1.376167
 Sum of Mulliken charges =  -0.00000

 Dipole moment (field-independent basis, Debye):
    X=             -2.0572    Y=             -2.1307    Z=              0.9439  Tot=              3.1085

 Test job not archived.
 1\1\GINC-SE162\SP\RHF\Aug-CC-pVDZ\C4H6N2O1\OHZDE\09-Apr-2025\0\\#t hf
 aug-cc-pvdz iop(5/13=1,5/36=2,99/5=2) pseudo=read geom=check guess=(re
 ad,tcheck) scf=(maxcycle=1)\\title\\0,1\N,0,-2.09890565,0.52783005,-0.
 6575959\C,0,-0.87560107,0.01444666,-0.18254649\C,0,-0.41268461,-1.3234
 7473,-0.51307819\N,0,0.91871703,-1.22735915,-0.20316506\C,0,1.31679054
 ,0.02812232,0.18661103\O,0,2.61589385,0.18979132,0.48601036\C,0,0.2531
 4921,0.85888433,0.20872937\H,0,-2.67105635,-0.20895681,-1.04469199\H,0
 ,-2.61470948,1.05495868,0.03036438\H,0,-1.04467335,-0.81730698,0.70297

 Normal termination of Gaussian 16 at Wed Apr  9 18:17:15 2025.
