 Gaussian 16, Revision C.01,

 ----------------------------------------------------------------------
 #t hf aug-cc-pvdz symm=none int=(grid=ultrafine) guess=(read,tcheck) s
 table=(opt,rrhf)
 ----------------------------------------------------------------------
 -----
 title
 -----
 Symbolic Z-matrix:
 Charge =  0 Multiplicity = 1

 SCF Done:  E(RHF) =  -302.789688897     A.U. after   15 cycles
 Normal termination of Gaussian 16 at Wed Apr  9 18:23:23 2025.
 Gaussian 16:  ES64L-G16RevC.01  3-Jul-2019

 ----------------------------------------------------------------------
 #t hf aug-cc-pvdz iop(5/13=1,5/36=2,99/5=2) pseudo=read geom=check gue
 ss=(read,tcheck) scf=(maxcycle=1)
 ----------------------------------------------------------------------
 -----
 title
 -----
 Structure from the checkpoint file:  "Grambow2020_wb97xd3_006953_forward_mol1.chk"
 Charge =  0 Multiplicity = 1

                         Standard orientation:
 ---------------------------------------------------------------------
 Center     Atomic      Atomic             Coordinates (Angstroms)
 Number     Number       Type             X           Y           Z
 ---------------------------------------------------------------------
      1          6           0        0.700533    1.508867    0.326415
      2          6           0        0.699227    0.025663    0.060297
      3          6           0        1.934354   -0.490381   -0.636208
      4          7           0        0.147782   -0.879174    1.060129
      5          6           0       -0.572700   -0.727875   -0.170793
      6          6           0       -2.184401   -0.260497    0.045399
      7          7           0       -1.782467    0.567918   -0.700923
      8          1           0        0.719996    2.066820   -0.610557
      9          1           0        1.594343    1.768198    0.898823
     10          1           0       -0.175924    1.828982    0.886594
     11          1           0        2.819607   -0.273816   -0.034428
     12          1           0        1.880507   -1.568987   -0.780807
     13          1           0        2.055190   -0.009192   -1.608630
     14          1           0       -0.303734   -0.396225    1.827095
     15          1           0       -0.609277   -1.571653   -0.843190
 ---------------------------------------------------------------------

 SCF Done:  E(RHF) =  -304.238339188     A.U. after    2 cycles

 The electronic state is 1-A.
 Alpha  occ. eigenvalues --  -15.79503 -15.75945 -11.57437 -11.45490 -11.41550
 Alpha  occ. eigenvalues --  -11.40328 -11.38208  -1.52566  -1.36220  -1.14624
 Alpha  occ. eigenvalues --   -1.03597  -0.93308  -0.83286  -0.68948  -0.67658
 Alpha  occ. eigenvalues --   -0.64996  -0.60750  -0.58015  -0.55490  -0.54083
 Alpha  occ. eigenvalues --   -0.49497  -0.48264  -0.45996  -0.43554  -0.42191
 Alpha  occ. eigenvalues --   -0.34846
 Alpha virt. eigenvalues --    0.03725   0.05349   0.05579   0.05774   0.06188
 Alpha virt. eigenvalues --    0.06518   0.06829   0.07614   0.09589   0.10009
 Alpha virt. eigenvalues --    0.11267   0.12425   0.13181   0.14099   0.14178

 Mulliken charges:
               1
     1  C   -4.572798
     2  C    3.251583
     3  C   -4.623331
     4  N   -2.600993
     5  C    0.157039
     6  C   -0.378407
     7  N   -0.955434
     8  H    1.212780
     9  H    1.114724
    10  H    1.407256
    11  H    1.153963
    12  H    1.243209
    13  H    1.315446
    14  H    0.723373
    15  H    1.551589
 Sum of Mulliken charges =  -0.00000

 Dipole moment (field-independent basis, Debye):
    X=              2.4852    Y=              0.7486    Z=             -0.1344  Tot=              2.5989

 Test job not archived.
 1\1\GINC-SE135\SP\RHF\Aug-CC-pVDZ\C5H8N2\OHZDE\09-Apr-2025\0\\#t hf au
 g-cc-pvdz iop(5/13=1,5/36=2,99/5=2) pseudo=read geom=check guess=(read
 ,tcheck) scf=(maxcycle=1)\\title\\0,1\C,0,-0.63505365,1.30958864,-0.18
 272886\C,0,-0.2100534,-0.13213027,-0.07532011\C,0,-1.19149891,-1.02636
 993,0.64166155\N,0,0.47081178,-0.76194147,-1.19881665\C,0,1.23340612,-
 0.52065174,-0.00827667\C,0,2.63291934,0.39106296,-0.27827955\N,0,2.092
 77771,1.01032902,0.57587311\H,0,-0.71824545,1.75988848,0.80717803\H,0,
 -1.61415254,1.35827707,-0.66521688\H,0,0.06776405,1.90556072,-0.761793

 Normal termination of Gaussian 16 at Wed Apr  9 18:23:28 2025.
