 Gaussian 16, Revision C.01,

 ----------------------------------------------------------------------
 #t hf aug-cc-pvdz symm=none int=(grid=ultrafine) guess=(read,tcheck) s
 table=(opt,rrhf)
 ----------------------------------------------------------------------
 -----
 title
 -----
 Symbolic Z-matrix:
 Charge =  0 Multiplicity = 1

 SCF Done:  E(RHF) =  -359.792617045     A.U. after   14 cycles
 Normal termination of Gaussian 16 at Wed Apr  9 19:33:49 2025.
 Gaussian 16:  ES64L-G16RevC.01  3-Jul-2019

 ----------------------------------------------------------------------
 #t hf aug-cc-pvdz iop(5/13=1,5/36=2,99/5=2) pseudo=read geom=check gue
 ss=(read,tcheck) scf=(maxcycle=1)
 ----------------------------------------------------------------------
 -----
 title
 -----
 Structure from the checkpoint file:  "Grambow2020_wb97xd3_009385_forward_mol2.chk"
 Charge =  0 Multiplicity = 1

                         Standard orientation:
 ---------------------------------------------------------------------
 Center     Atomic      Atomic             Coordinates (Angstroms)
 Number     Number       Type             X           Y           Z
 ---------------------------------------------------------------------
      1          6           0       -0.769698    1.605236   -0.000147
      2          7           0       -0.286937    0.230346    0.000613
      3          6           0       -1.199036   -0.805770    0.000581
      4          8           0       -2.392234   -0.659671   -0.000425
      5          6           0        1.096607    0.038699   -0.000029
      6          8           0        1.827347    0.997697    0.000065
      7          6           0        1.635483   -1.371623   -0.000539
      8          1           0       -1.854971    1.575971   -0.002178
      9          1           0       -0.407574    2.128535    0.883352
     10          1           0       -0.405189    2.127426   -0.883238
     11          1           0       -0.733934   -1.800036    0.001555
     12          1           0        1.319611   -1.921642    0.886921
     13          1           0        2.719427   -1.299558   -0.005598
     14          1           0        1.310146   -1.926582   -0.881420
 ---------------------------------------------------------------------

 SCF Done:  E(RHF) =  -361.394038728     A.U. after    2 cycles

 The electronic state is 1-A.
 Alpha  occ. eigenvalues --  -21.05979 -21.05501 -15.78398 -11.53120 -11.50803
 Alpha  occ. eigenvalues --  -11.41459 -11.40127  -1.74834  -1.72841  -1.43645
 Alpha  occ. eigenvalues --   -1.14049  -1.03276  -0.91061  -0.78591  -0.70552
 Alpha  occ. eigenvalues --   -0.66814  -0.62418  -0.60471  -0.57172  -0.54668
 Alpha  occ. eigenvalues --   -0.53486  -0.51979  -0.49661  -0.45602  -0.33627
 Alpha  occ. eigenvalues --   -0.31829  -0.29720
 Alpha virt. eigenvalues --    0.02875   0.05171   0.05419   0.05701   0.06908
 Alpha virt. eigenvalues --    0.07036   0.07450   0.08488   0.11459   0.11719
 Alpha virt. eigenvalues --    0.12297   0.12754   0.13768   0.14239   0.14559

 Mulliken charges:
               1
     1  C   -3.503657
     2  N   -3.009117
     3  C    2.272041
     4  O   -2.874405
     5  C    5.203383
     6  O   -3.209023
     7  C   -4.326895
     8  H    1.320016
     9  H    1.360425
    10  H    1.360540
    11  H    1.719135
    12  H    1.319697
    13  H    1.046819
    14  H    1.321042
 Sum of Mulliken charges =  -0.00000

 Dipole moment (field-independent basis, Debye):
    X=              0.6085    Y=             -0.6014    Z=              0.0000  Tot=              0.8555

 Test job not archived.
 1\1\GINC-SE212\SP\RHF\Aug-CC-pVDZ\C4H7N1O2\OHZDE\09-Apr-2025\0\\#t hf
 aug-cc-pvdz iop(5/13=1,5/36=2,99/5=2) pseudo=read geom=check guess=(re
 ad,tcheck) scf=(maxcycle=1)\\title\\0,1\C,0,-1.70636426,-0.79305664,-0
 .32325742\N,0,-0.51783054,-0.03214439,0.03975905\C,0,-0.65301422,1.104
 20597,0.81169887\O,0,-1.70186342,1.52694227,1.2194711\C,0,0.71143374,-
 0.50756509,-0.42263437\O,0,0.74486567,-1.5092087,-1.09289659\C,0,1.966
 0136,0.25296562,-0.06623696\H,0,-2.56605711,-0.29434799,0.11365882\H,0
 ,-1.80523846,-0.83663827,-1.40671088\H,0,-1.62764325,-1.81038062,0.056

 Normal termination of Gaussian 16 at Wed Apr  9 19:33:53 2025.
