 Gaussian 16, Revision C.01,

 ----------------------------------------------------------------------
 #t hf aug-cc-pvdz symm=none int=(grid=ultrafine) guess=(read,tcheck) s
 table=(opt,rrhf)
 ----------------------------------------------------------------------
 -----
 title
 -----
 Symbolic Z-matrix:
 Charge =  0 Multiplicity = 1

 SCF Done:  E(RHF) =  -379.393778705     A.U. after   16 cycles
 Normal termination of Gaussian 16 at Wed Apr  9 19:16:58 2025.
 Gaussian 16:  ES64L-G16RevC.01  3-Jul-2019

 ----------------------------------------------------------------------
 #t hf aug-cc-pvdz iop(5/13=1,5/36=2,99/5=2) pseudo=read geom=check gue
 ss=(read,tcheck) scf=(maxcycle=1)
 ----------------------------------------------------------------------
 -----
 title
 -----
 Structure from the checkpoint file:  "Grambow2020_wb97xd3_008540_forward_mol1.chk"
 Charge =  0 Multiplicity = 1

                         Standard orientation:
 ---------------------------------------------------------------------
 Center     Atomic      Atomic             Coordinates (Angstroms)
 Number     Number       Type             X           Y           Z
 ---------------------------------------------------------------------
      1          8           0        0.510440    1.462363   -0.350027
      2          6           0        0.014689   -0.057271   -0.116391
      3          6           0       -1.249638   -0.416676   -0.867935
      4          8           0       -2.071840   -0.170506    0.261937
      5          6           0       -0.881140    0.150144    1.041551
      6          6           0        1.255051   -0.844650   -0.051916
      7          8           0        2.335967   -0.341454    0.161388
      8          1           0        1.457561    1.427154   -0.092627
      9          1           0       -1.252994   -1.474559   -1.150534
     10          1           0       -1.485994    0.203189   -1.736274
     11          1           0       -0.094367    1.611297    0.526801
     12          1           0       -0.782517   -0.422024    1.963438
     13          1           0        1.127998   -1.937563   -0.129043
 ---------------------------------------------------------------------

 SCF Done:  E(RHF) =  -381.058722736     A.U. after    2 cycles

 The electronic state is 1-A.
 Alpha  occ. eigenvalues --  -21.15876 -21.09937 -21.03340 -11.53431 -11.50620
 Alpha  occ. eigenvalues --  -11.46391 -11.38797  -1.83919  -1.74525  -1.73111
 Alpha  occ. eigenvalues --   -1.16562  -0.98930  -0.92933  -0.78555  -0.75698
 Alpha  occ. eigenvalues --   -0.69104  -0.65073  -0.61155  -0.56320  -0.52677
 Alpha  occ. eigenvalues --   -0.50512  -0.48326  -0.42253  -0.38803  -0.36815
 Alpha  occ. eigenvalues --   -0.32711  -0.21276
 Alpha virt. eigenvalues --    0.03391   0.04734   0.05316   0.06038   0.06884
 Alpha virt. eigenvalues --    0.07684   0.08708   0.09829   0.10663   0.11759
 Alpha virt. eigenvalues --    0.12030   0.13434   0.14391   0.14616   0.14913

 Mulliken charges:
               1
     1  O   -2.695922
     2  C    0.825336
     3  C   -0.534735
     4  O   -2.745584
     5  C   -0.445812
     6  C    0.929689
     7  O   -2.920299
     8  H    1.024807
     9  H    1.403361
    10  H    1.279488
    11  H    0.979795
    12  H    1.422618
    13  H    1.477258
 Sum of Mulliken charges =  -0.00000

 Dipole moment (field-independent basis, Debye):
    X=              2.0936    Y=              0.0970    Z=             -2.2915  Tot=              3.1054

 Test job not archived.
 1\1\GINC-SE231\SP\RHF\Aug-CC-pVDZ\C4H6O3\OHZDE\09-Apr-2025\0\\#t hf au
 g-cc-pvdz iop(5/13=1,5/36=2,99/5=2) pseudo=read geom=check guess=(read
 ,tcheck) scf=(maxcycle=1)\\title\\0,1\O,0,0.81525306,0.73875024,-1.252
 28241\C,0,0.11277271,-0.05920429,-0.03596341\C,0,-1.09846169,-0.869411
 21,-0.44704731\O,0,-2.0001352,0.1526866,-0.05267907\C,0,-0.86934608,0.
 95933597,0.39342927\C,0,1.23184244,-0.5121337,0.80377387\O,0,2.3376621
 9,-0.02269309,0.7352587\H,0,1.71761377,0.91593209,-0.90748791\H,0,-1.2
 0262757,-1.76534031,0.17379982\H,0,-1.16170336,-1.13768081,-1.50446923

 Normal termination of Gaussian 16 at Wed Apr  9 19:17:02 2025.
