 Gaussian 16, Revision C.01,

 ----------------------------------------------------------------------
 #t hf aug-cc-pvdz symm=none int=(grid=ultrafine) guess=(read,tcheck) s
 table=(opt,rrhf)
 ----------------------------------------------------------------------
 -----
 title
 -----
 Symbolic Z-matrix:
 Charge =  0 Multiplicity = 1

 SCF Done:  E(RHF) =  -310.247338058     A.U. after   12 cycles

 1\1\GINC-SE168\Stability\RHF\Aug-CC-pVDZ\C6H14O1\OHZDE\09-Apr-2025\0\\
 #t hf aug-cc-pvdz symm=none int=(grid=ultrafine) guess=(read,tcheck) s
 table=(opt,rrhf)\\title\\0,1\C,0,-3.48398155,-0.28320674,-0.74256241\C
 ,0,-2.26924926,-0.31705619,0.17526688\C,0,-0.96189889,-0.04017691,-0.5
 5763118\C,0,0.25631684,-0.07471894,0.3564993\C,0,1.54734923,0.19770207
 ,-0.38477325\O,0,2.62205865,0.13927575,0.52014495\C,0,3.8603325,0.3690
 191,-0.0935875\H,0,-4.40590114,-0.48743818,-0.19522583\H,0,-3.39609732
 ,-1.02811236,-1.53738652\H,0,-3.5894206,0.69499627,-1.21852206\H,0,-2.

 Normal termination of Gaussian 16 at Wed Apr  9 18:52:07 2025.
 Gaussian 16:  ES64L-G16RevC.01  3-Jul-2019

 ----------------------------------------------------------------------
 #t hf aug-cc-pvdz iop(5/13=1,5/36=2,99/5=2) pseudo=read geom=check gue
 ss=(read,tcheck) scf=(maxcycle=1)
 ----------------------------------------------------------------------
 -----
 title
 -----
 Structure from the checkpoint file:  "Grambow2020_wb97xd3_007724_forward_mol2.chk"
 Charge =  0 Multiplicity = 1

                         Standard orientation:
 ---------------------------------------------------------------------
 Center     Atomic      Atomic             Coordinates (Angstroms)
 Number     Number       Type             X           Y           Z
 ---------------------------------------------------------------------
      1          6           0        3.755526   -0.331992   -0.005908
      2          6           0        2.483776    0.505730   -0.003265
      3          6           0        1.215053   -0.338807    0.004938
      4          6           0       -0.059816    0.495210    0.005897
      5          6           0       -1.311303   -0.355805    0.009946
      6          8           0       -2.440803    0.481712    0.000671
      7          6           0       -3.645540   -0.233328   -0.009297
      8          1           0        4.648745    0.295143   -0.015142
      9          1           0        3.795393   -0.981994   -0.883553
     10          1           0        3.806764   -0.970891    0.879370
     11          1           0        2.482012    1.167277    0.869310
     12          1           0        2.473690    1.161386   -0.880267
     13          1           0        1.218247   -1.001510   -0.868543
     14          1           0        1.225438   -0.995175    0.883181
     15          1           0       -0.082903    1.145844   -0.873515
     16          1           0       -0.078167    1.151412    0.881190
     17          1           0       -1.327081   -1.016155   -0.871663
     18          1           0       -1.330576   -1.005262    0.899552
     19          1           0       -3.722853   -0.878866   -0.894840
     20          1           0       -4.459167    0.490789   -0.030077
     21          1           0       -3.749292   -0.861736    0.885762
 ---------------------------------------------------------------------

 SCF Done:  E(RHF) =  -311.786740506     A.U. after    2 cycles

 The electronic state is 1-A.
 Alpha  occ. eigenvalues --  -21.03732 -11.43236 -11.41543 -11.39741 -11.39134
 Alpha  occ. eigenvalues --  -11.36449 -11.33956  -1.75253  -1.25079  -1.11254
 Alpha  occ. eigenvalues --   -1.00294  -0.93034  -0.85507  -0.82304  -0.67343
 Alpha  occ. eigenvalues --   -0.62800  -0.61683  -0.59861  -0.58073  -0.56734
 Alpha  occ. eigenvalues --   -0.53387  -0.51910  -0.48896  -0.47544  -0.45087
 Alpha  occ. eigenvalues --   -0.44927  -0.39702  -0.38191  -0.29331
 Alpha virt. eigenvalues --    0.04152   0.04841   0.05030   0.05657   0.05783
 Alpha virt. eigenvalues --    0.06028   0.06469   0.06789   0.07305   0.07890
 Alpha virt. eigenvalues --    0.07930   0.09472   0.09812   0.10515   0.11668

 Mulliken charges:
               1
     1  C   -4.427265
     2  C   -2.834347
     3  C   -1.768317
     4  C   -3.031405
     5  C   -1.185573
     6  O   -3.098912
     7  C   -3.534687
     8  H    1.078773
     9  H    1.314201
    10  H    1.314146
    11  H    1.430661
    12  H    1.432240
    13  H    1.540883
    14  H    1.540112
    15  H    1.477388
    16  H    1.479288
    17  H    1.639780
    18  H    1.636411
    19  H    1.321552
    20  H    1.352703
    21  H    1.322367
 Sum of Mulliken charges =  -0.00000

 Dipole moment (field-independent basis, Debye):
    X=              0.0734    Y=             -0.2088    Z=             -0.0033  Tot=              0.2213

 Test job not archived.
 1\1\GINC-SE168\SP\RHF\Aug-CC-pVDZ\C6H14O1\OHZDE\09-Apr-2025\0\\#t hf a
 ug-cc-pvdz iop(5/13=1,5/36=2,99/5=2) pseudo=read geom=check guess=(rea
 d,tcheck) scf=(maxcycle=1)\\title\\0,1\C,0,-3.48398155,-0.28320674,-0.
 74256241\C,0,-2.26924926,-0.31705619,0.17526688\C,0,-0.96189889,-0.040
 17691,-0.55763118\C,0,0.25631684,-0.07471894,0.3564993\C,0,1.54734923,
 0.19770207,-0.38477325\O,0,2.62205865,0.13927575,0.52014495\C,0,3.8603
 325,0.3690191,-0.0935875\H,0,-4.40590114,-0.48743818,-0.19522583\H,0,-
 3.39609732,-1.02811236,-1.53738652\H,0,-3.5894206,0.69499627,-1.218522

 Normal termination of Gaussian 16 at Wed Apr  9 18:52:14 2025.
