 Gaussian 16, Revision C.01,

 ----------------------------------------------------------------------
 #t hf aug-cc-pvdz symm=none int=(grid=ultrafine) guess=(read,tcheck) s
 table=(opt,rrhf)
 ----------------------------------------------------------------------
 -----
 title
 -----
 Symbolic Z-matrix:
 Charge =  0 Multiplicity = 1

 SCF Done:  E(RHF) =  -287.883811021     A.U. after   15 cycles

 1\1\GINC-SE117\Stability\RHF\Aug-CC-pVDZ\C6H11N1\OHZDE\09-Apr-2025\0\\
 #t hf aug-cc-pvdz symm=none int=(grid=ultrafine) guess=(read,tcheck) s
 table=(opt,rrhf)\\title\\0,1\C,0,-2.36924802,-0.14350316,-1.32715207\C
 ,0,-1.39602705,0.21632583,-0.35179723\C,0,0.05248046,-0.13601305,-0.56
 147396\C,0,0.96334155,0.00014572,0.66367354\C,0,2.41328163,-0.36495892
 ,0.34071654\C,0,0.88122668,1.36248108,1.20088748\N,0,0.80672307,2.4370
 7894,1.59646265\H,0,-2.20104063,-0.68450183,0.0574894\H,0,-3.2948529,0
 .40518775,-1.39530981\H,0,-2.17267284,-0.96080971,-2.0056585\H,0,-1.57

 Normal termination of Gaussian 16 at Wed Apr  9 18:15:32 2025.
 Gaussian 16:  ES64L-G16RevC.01  3-Jul-2019

 ----------------------------------------------------------------------
 #t hf aug-cc-pvdz iop(5/13=1,5/36=2,99/5=2) pseudo=read geom=check gue
 ss=(read,tcheck) scf=(maxcycle=1)
 ----------------------------------------------------------------------
 -----
 title
 -----
 Structure from the checkpoint file:  "Grambow2020_wb97xd3_006815_forward_mol1.chk"
 Charge =  0 Multiplicity = 1

                         Standard orientation:
 ---------------------------------------------------------------------
 Center     Atomic      Atomic             Coordinates (Angstroms)
 Number     Number       Type             X           Y           Z
 ---------------------------------------------------------------------
      1          6           0       -2.953455    0.008995   -0.193619
      2          6           0       -1.592593    0.307542    0.101133
      3          6           0       -0.506285   -0.666896   -0.268579
      4          6           0        0.867364   -0.416529    0.363558
      5          6           0        1.900828   -1.449857   -0.088232
      6          6           0        1.323863    0.941618    0.049955
      7          7           0        1.662723    2.005013   -0.216796
      8          1           0       -2.291824    0.090720    1.145698
      9          1           0       -3.671989    0.806333   -0.295661
     10          1           0       -3.261414   -1.018031   -0.325456
     11          1           0       -1.314417    1.355871    0.058514
     12          1           0       -1.307490    0.270781    1.685364
     13          1           0       -0.828416   -1.682322   -0.029878
     14          1           0       -0.429788   -0.608913   -1.359434
     15          1           0        0.758211   -0.462416    1.450828
     16          1           0        1.562960   -2.450845    0.183256
     17          1           0        2.042597   -1.414336   -1.169297
     18          1           0        2.864168   -1.271171    0.388339
 ---------------------------------------------------------------------

 SCF Done:  E(RHF) =  -289.339927019     A.U. after    2 cycles

 The electronic state is 1-A.
 Alpha  occ. eigenvalues --  -15.76017 -11.51357 -11.48838 -11.44819 -11.43023
 Alpha  occ. eigenvalues --  -11.40274 -11.36746  -1.36578  -1.27929  -1.18875
 Alpha  occ. eigenvalues --   -1.02970  -0.93386  -0.84386  -0.73920  -0.68029
 Alpha  occ. eigenvalues --   -0.66090  -0.61629  -0.58854  -0.57472  -0.55953
 Alpha  occ. eigenvalues --   -0.53427  -0.51602  -0.49438  -0.48791  -0.43237
 Alpha  occ. eigenvalues --   -0.42418  -0.27059
 Alpha virt. eigenvalues --    0.03454   0.04705   0.04881   0.05404   0.05727
 Alpha virt. eigenvalues --    0.05893   0.06434   0.07469   0.07951   0.08123
 Alpha virt. eigenvalues --    0.09150   0.10688   0.11524   0.12171   0.13216

 Mulliken charges:
               1
     1  C   -3.556218
     2  C   -1.798841
     3  C   -3.034217
     4  C   -1.666281
     5  C   -4.042277
     6  C    2.428692
     7  N   -2.551494
     8  H    1.681447
     9  H    1.256200
    10  H    1.266041
    11  H    1.711057
    12  H   -0.433052
    13  H    1.518907
    14  H    1.527923
    15  H    1.897535
    16  H    1.254135
    17  H    1.364780
    18  H    1.175661
 Sum of Mulliken charges =  -0.00000

 Dipole moment (field-independent basis, Debye):
    X=             -0.6225    Y=             -3.1704    Z=             -0.2572  Tot=              3.2412

 Test job not archived.
 1\1\GINC-SE117\SP\RHF\Aug-CC-pVDZ\C6H11N1\OHZDE\09-Apr-2025\0\\#t hf a
 ug-cc-pvdz iop(5/13=1,5/36=2,99/5=2) pseudo=read geom=check guess=(rea
 d,tcheck) scf=(maxcycle=1)\\title\\0,1\C,0,-2.36924802,-0.14350316,-1.
 32715207\C,0,-1.39602705,0.21632583,-0.35179723\C,0,0.05248046,-0.1360
 1305,-0.56147396\C,0,0.96334155,0.00014572,0.66367354\C,0,2.41328163,-
 0.36495892,0.34071654\C,0,0.88122668,1.36248108,1.20088748\N,0,0.80672
 307,2.43707894,1.59646265\H,0,-2.20104063,-0.68450183,0.0574894\H,0,-3
 .2948529,0.40518775,-1.39530981\H,0,-2.17267284,-0.96080971,-2.0056585

 Normal termination of Gaussian 16 at Wed Apr  9 18:15:38 2025.
