 Gaussian 16, Revision C.01,

 ----------------------------------------------------------------------
 #t hf aug-cc-pvdz symm=none int=(grid=ultrafine) guess=(read,tcheck) s
 table=(opt,rrhf)
 ----------------------------------------------------------------------
 -----
 title
 -----
 Symbolic Z-matrix:
 Charge =  0 Multiplicity = 1

 SCF Done:  E(RHF) =  -286.678443164     A.U. after   17 cycles
 Normal termination of Gaussian 16 at Wed Apr  9 18:42:42 2025.
 Gaussian 16:  ES64L-G16RevC.01  3-Jul-2019

 ----------------------------------------------------------------------
 #t hf aug-cc-pvdz iop(5/13=1,5/36=2,99/5=2) pseudo=read geom=check gue
 ss=(read,tcheck) scf=(maxcycle=1)
 ----------------------------------------------------------------------
 -----
 title
 -----
 Structure from the checkpoint file:  "Grambow2020_wb97xd3_007561_reverse_mol1.chk"
 Charge =  0 Multiplicity = 1

                         Standard orientation:
 ---------------------------------------------------------------------
 Center     Atomic      Atomic             Coordinates (Angstroms)
 Number     Number       Type             X           Y           Z
 ---------------------------------------------------------------------
      1          6           0        1.150727   -0.616870    1.211069
      2          6           0        0.648860   -0.002597   -0.087772
      3          6           0       -0.434645   -1.117268   -0.767782
      4          6           0       -1.615118   -0.592694   -0.175719
      5          6           0       -1.938319    0.460639    0.397696
      6          6           0       -0.122188    1.254823    0.069807
      7          7           0        1.565525    0.562728   -0.926044
      8          1           0        0.334599   -0.990279    1.831509
      9          1           0        1.703048    0.131407    1.784341
     10          1           0        1.826501   -1.445843    0.990059
     11          1           0       -0.134214   -2.116595   -0.460239
     12          1           0       -0.412203   -1.021361   -1.852380
     13          1           0       -2.685503    1.087838    0.839953
     14          1           0       -0.407986    1.750108   -0.847924
     15          1           0        0.168455    1.920636    0.880020
     16          1           0        2.512722    0.428797   -0.566830
 ---------------------------------------------------------------------

 SCF Done:  E(RHF) =  -288.117281462     A.U. after    2 cycles

 The electronic state is 1-A.
 Alpha  occ. eigenvalues --  -15.69848 -11.47900 -11.45337 -11.43041 -11.42528
 Alpha  occ. eigenvalues --  -11.40836 -11.37740  -1.40058  -1.20058  -1.05764
 Alpha  occ. eigenvalues --   -1.02292  -0.97825  -0.78392  -0.75245  -0.66334
 Alpha  occ. eigenvalues --   -0.62969  -0.60158  -0.57870  -0.57029  -0.54269
 Alpha  occ. eigenvalues --   -0.49796  -0.47878  -0.39166  -0.37417  -0.34508
 Alpha  occ. eigenvalues --   -0.27571
 Alpha virt. eigenvalues --    0.03221   0.04893   0.05279   0.05577   0.05774
 Alpha virt. eigenvalues --    0.06276   0.06917   0.07083   0.07343   0.08112
 Alpha virt. eigenvalues --    0.10300   0.11140   0.12453   0.13970   0.14065

 Mulliken charges:
               1
     1  C   -4.433603
     2  C    4.452884
     3  C   -4.190071
     4  C    2.467985
     5  C   -2.012594
     6  C   -2.962517
     7  N   -3.373577
     8  H    1.303426
     9  H    1.050711
    10  H    1.191303
    11  H    1.240703
    12  H    1.152778
    13  H    0.734705
    14  H    1.438512
    15  H    1.463938
    16  H    0.475415
 Sum of Mulliken charges =   0.00000

 Dipole moment (field-independent basis, Debye):
    X=             -0.4684    Y=              0.0792    Z=              1.5496  Tot=              1.6207

 Test job not archived.
 1\1\GINC-SE340\SP\RHF\Aug-CC-pVDZ\C6H9N1\OHZDE\09-Apr-2025\0\\#t hf au
 g-cc-pvdz iop(5/13=1,5/36=2,99/5=2) pseudo=read geom=check guess=(read
 ,tcheck) scf=(maxcycle=1)\\title\\0,1\C,0,-0.59940048,1.46754679,0.342
 43958\C,0,-0.55591006,-0.0417821,0.15210757\C,0,0.40062607,-0.33315925
 ,-1.21866732\C,0,1.63847608,-0.48003612,-0.53647428\C,0,1.99835318,-0.
 66055035,0.63854809\C,0,0.09071512,-0.79470267,1.25457647\N,0,-1.72767
 429,-0.73455194,0.25011965\H,0,0.39427881,1.91610485,0.29953608\H,0,-1
 .04150684,1.70486569,1.31292408\H,0,-1.21858439,1.91967505,-0.43531649

 Normal termination of Gaussian 16 at Wed Apr  9 18:42:46 2025.
