 Gaussian 16, Revision C.01,

 ----------------------------------------------------------------------
 #t hf aug-cc-pvdz symm=none int=(grid=ultrafine) guess=(read,tcheck) s
 table=(opt,rrhf)
 ----------------------------------------------------------------------
 -----
 title
 -----
 Symbolic Z-matrix:
 Charge =  0 Multiplicity = 1

 SCF Done:  E(RHF) =  -306.423123785     A.U. after   19 cycles
 Normal termination of Gaussian 16 at Wed Apr  9 19:09:06 2025.
 Gaussian 16:  ES64L-G16RevC.01  3-Jul-2019

 ----------------------------------------------------------------------
 #t hf aug-cc-pvdz iop(5/13=1,5/36=2,99/5=2) pseudo=read geom=check gue
 ss=(read,tcheck) scf=(maxcycle=1)
 ----------------------------------------------------------------------
 -----
 title
 -----
 Structure from the checkpoint file:  "Grambow2020_wb97xd3_008173_forward_mol1.chk"
 Charge =  0 Multiplicity = 1

                         Standard orientation:
 ---------------------------------------------------------------------
 Center     Atomic      Atomic             Coordinates (Angstroms)
 Number     Number       Type             X           Y           Z
 ---------------------------------------------------------------------
      1          6           0       -1.084331   -1.126848   -0.406085
      2          6           0       -0.103725   -0.767870    0.732403
      3          8           0        1.165479   -0.942017    0.085797
      4          6           0        1.712564    0.144428   -0.361374
      5          6           0        0.198495    1.692690    0.016160
      6          6           0       -0.660763    0.704582    0.688486
      7          6           0       -1.136761    0.338011   -0.680324
      8          1           0       -0.729914   -1.838838   -1.155001
      9          1           0       -2.025716   -1.484844    0.027012
     10          1           0       -0.102933   -1.332797    1.660898
     11          1           0        2.366193   -0.167110   -1.205923
     12          1           0        1.075062    2.165396    0.421203
     13          1           0       -0.411307    2.403814   -0.543323
     14          1           0       -1.309843    0.958585    1.535973
     15          1           0       -1.738252    0.921969   -1.362809
 ---------------------------------------------------------------------

 SCF Done:  E(RHF) =  -307.882142063     A.U. after    2 cycles

 The electronic state is 1-A.
 Alpha  occ. eigenvalues --  -21.09995 -11.51490 -11.44650 -11.42514 -11.41861
 Alpha  occ. eigenvalues --  -11.40555 -11.36602  -1.82525  -1.34445  -1.08566
 Alpha  occ. eigenvalues --   -0.95678  -0.87387  -0.83415  -0.74411  -0.72184
 Alpha  occ. eigenvalues --   -0.64086  -0.61272  -0.59006  -0.53620  -0.50428
 Alpha  occ. eigenvalues --   -0.47662  -0.43658  -0.41797  -0.39454  -0.34293
 Alpha  occ. eigenvalues --   -0.20794
 Alpha virt. eigenvalues --    0.03832   0.04776   0.04869   0.05484   0.05776
 Alpha virt. eigenvalues --    0.06400   0.06641   0.07014   0.09444   0.10455
 Alpha virt. eigenvalues --    0.11966   0.12148   0.12798   0.13400   0.13703

 Mulliken charges:
               1
     1  C   -3.333712
     2  C    1.405809
     3  O   -3.169741
     4  C   -0.955330
     5  C   -2.221502
     6  C   -2.085788
     7  C   -0.245981
     8  H    1.302243
     9  H    1.196585
    10  H    1.601735
    11  H    1.522074
    12  H    1.284000
    13  H    1.070450
    14  H    1.361562
    15  H    1.267596
 Sum of Mulliken charges =   0.00000

 Dipole moment (field-independent basis, Debye):
    X=             -0.7470    Y=             -0.9179    Z=              1.0229  Tot=              1.5642

 Test job not archived.
 1\1\GINC-SE118\SP\RHF\Aug-CC-pVDZ\C6H8O1\OHZDE\09-Apr-2025\0\\#t hf au
 g-cc-pvdz iop(5/13=1,5/36=2,99/5=2) pseudo=read geom=check guess=(read
 ,tcheck) scf=(maxcycle=1)\\title\\0,1\C,0,-1.53174575,0.016891,-0.3625
 5423\C,0,-0.67147979,-0.52010548,0.80285777\O,0,-0.09784012,-1.6987833
 3,0.21893857\C,0,1.10399293,-1.55786614,-0.2451359\C,0,1.52002808,0.58
 579048,0.00725472\C,0,0.22321503,0.77004138,0.67884296\C,0,-0.35808451
 ,0.8749072,-0.69435895\H,0,-1.92119066,-0.72095421,-1.06777359\H,0,-2.
 35837392,0.61222507,0.04266473\H,0,-1.12962764,-0.78791819,1.75134245\

 Normal termination of Gaussian 16 at Wed Apr  9 19:09:11 2025.
