 Gaussian 16, Revision C.01,

 ----------------------------------------------------------------------
 #t hf aug-cc-pvdz symm=none int=(grid=ultrafine) guess=(read,tcheck) s
 table=(opt,rrhf)
 ----------------------------------------------------------------------
 -----
 title
 -----
 Symbolic Z-matrix:
 Charge =  0 Multiplicity = 1

 SCF Done:  E(RHF) =  -306.503219808     A.U. after   19 cycles
 Normal termination of Gaussian 16 at Wed Apr  9 04:05:55 2025.
 Gaussian 16:  ES64L-G16RevC.01  3-Jul-2019

 ----------------------------------------------------------------------
 #t hf aug-cc-pvdz iop(5/13=1,5/36=2,99/5=2) pseudo=read geom=check gue
 ss=(read,tcheck) scf=(maxcycle=1)
 ----------------------------------------------------------------------
 -----
 title
 -----
 Structure from the checkpoint file:  "Grambow2020_wb97xd3_009278_forward_mol1.chk"
 Charge =  0 Multiplicity = 1

                         Standard orientation:
 ---------------------------------------------------------------------
 Center     Atomic      Atomic             Coordinates (Angstroms)
 Number     Number       Type             X           Y           Z
 ---------------------------------------------------------------------
      1          6           0        2.000914   -0.999959   -0.019921
      2          6           0        1.011322    0.142811   -0.291906
      3          6           0        1.590380    1.506093    0.059473
      4          6           0       -0.216006   -0.146570    0.509525
      5          8           0       -0.969738   -1.149243   -0.048228
      6          6           0       -1.802686   -0.063432    0.108901
      7          6           0       -2.802562    0.584352   -0.138428
      8          1           0        2.259897   -1.045059    1.039986
      9          1           0        2.917459   -0.831934   -0.586271
     10          1           0        1.587662   -1.964801   -0.315572
     11          1           0        0.730066    0.106957   -1.353994
     12          1           0        1.864230    1.546856    1.115500
     13          1           0        2.484538    1.707824   -0.533294
     14          1           0        0.867690    2.300904   -0.130183
     15          1           0       -3.641808    1.233429   -0.216204
 ---------------------------------------------------------------------

 SCF Done:  E(RHF) =  -307.942597517     A.U. after    2 cycles

 The electronic state is 1-A.
 Alpha  occ. eigenvalues --  -21.14105 -11.51135 -11.46500 -11.43104 -11.42038
 Alpha  occ. eigenvalues --  -11.39494 -11.36884  -1.86038  -1.24852  -1.08991
 Alpha  occ. eigenvalues --   -1.01339  -0.93358  -0.80199  -0.75973  -0.66862
 Alpha  occ. eigenvalues --   -0.64052  -0.60225  -0.56801  -0.55702  -0.54437
 Alpha  occ. eigenvalues --   -0.49112  -0.47493  -0.45443  -0.40865  -0.34439
 Alpha  occ. eigenvalues --   -0.25653
 Alpha virt. eigenvalues --    0.03461   0.04436   0.05300   0.05842   0.05957
 Alpha virt. eigenvalues --    0.06321   0.06676   0.06952   0.08087   0.10096
 Alpha virt. eigenvalues --    0.11169   0.12185   0.12368   0.13284   0.13726

 Mulliken charges:
               1
     1  C   -3.713888
     2  C   -1.681634
     3  C   -3.753738
     4  C    0.605060
     5  O   -2.958464
     6  C    5.271415
     7  C   -3.821935
     8  H    1.371378
     9  H    1.258893
    10  H    1.280285
    11  H    1.763974
    12  H    1.295310
    13  H    1.206857
    14  H    1.228896
    15  H    0.647592
 Sum of Mulliken charges =   0.00000

 Dipole moment (field-independent basis, Debye):
    X=              0.6520    Y=             -0.4360    Z=             -1.2842  Tot=              1.5048

 Test job not archived.
 1\1\GINC-SE403\SP\RHF\Aug-CC-pVDZ\C6H8O1\OHZDE\09-Apr-2025\0\\#t hf au
 g-cc-pvdz iop(5/13=1,5/36=2,99/5=2) pseudo=read geom=check guess=(read
 ,tcheck) scf=(maxcycle=1)\\title\\0,1\C,0,-1.44065232,0.70296703,-1.09
 525512\C,0,-0.36321426,-0.10543809,-0.35714962\C,0,-0.95863263,-1.1951
 808,0.52333374\C,0,0.43215193,0.86813056,0.45026869\O,0,1.2887021,1.60
 447806,-0.32990367\C,0,2.05047081,1.01976818,0.65766881\C,0,3.10069197
 ,0.63128498,1.13376357\H,0,-2.09774074,1.2115498,-0.38667321\H,0,-2.04
 987998,0.03162819,-1.70121342\H,0,-0.99762782,1.45116265,-1.75331182\H

 Normal termination of Gaussian 16 at Wed Apr  9 04:06:00 2025.
