 Gaussian 16, Revision C.01,

 ----------------------------------------------------------------------
 #t hf aug-cc-pvdz symm=none int=(grid=ultrafine) guess=(read,tcheck) s
 table=(opt,rrhf)
 ----------------------------------------------------------------------
 -----
 title
 -----
 Symbolic Z-matrix:
 Charge =  0 Multiplicity = 1

 SCF Done:  E(RHF) =  -359.689346940     A.U. after   14 cycles
 Normal termination of Gaussian 16 at Wed Apr  9 19:10:56 2025.
 Gaussian 16:  ES64L-G16RevC.01  3-Jul-2019

 ----------------------------------------------------------------------
 #t hf aug-cc-pvdz iop(5/13=1,5/36=2,99/5=2) pseudo=read geom=check gue
 ss=(read,tcheck) scf=(maxcycle=1)
 ----------------------------------------------------------------------
 -----
 title
 -----
 Structure from the checkpoint file:  "Grambow2020_wb97xd3_008265_forward_mol1.chk"
 Charge =  0 Multiplicity = 1

                         Standard orientation:
 ---------------------------------------------------------------------
 Center     Atomic      Atomic             Coordinates (Angstroms)
 Number     Number       Type             X           Y           Z
 ---------------------------------------------------------------------
      1          6           0        2.294579   -0.490509   -0.338745
      2          6           0        1.073820   -0.044021    0.422330
      3          6           0        0.476729    1.323844   -0.015962
      4          7           0       -0.942351    1.026530   -0.017696
      5          6           0       -1.087326   -0.267297    0.025347
      6          8           0       -2.288140   -0.611898   -0.180623
      7          8           0       -0.013253   -1.004874    0.215885
      8          1           0        2.082390   -0.549491   -1.407316
      9          1           0        2.635763   -1.466702    0.005819
     10          1           0        3.102027    0.228415   -0.185025
     11          1           0        1.266897   -0.044525    1.497898
     12          1           0        0.837073    1.614765   -1.008990
     13          1           0        0.741912    2.112541    0.689148
     14          1           0       -2.205273    0.721354   -0.307576
 ---------------------------------------------------------------------

 SCF Done:  E(RHF) =  -361.312762724     A.U. after    2 cycles

 The electronic state is 1-A.
 Alpha  occ. eigenvalues --  -21.10966 -21.05226 -15.71434 -11.51613 -11.50576
 Alpha  occ. eigenvalues --  -11.43800 -11.39318  -1.88354  -1.71919  -1.37524
 Alpha  occ. eigenvalues --   -1.17854  -1.01443  -0.88539  -0.77958  -0.71440
 Alpha  occ. eigenvalues --   -0.69105  -0.62395  -0.58842  -0.57088  -0.56593
 Alpha  occ. eigenvalues --   -0.52927  -0.48621  -0.45701  -0.42012  -0.35445
 Alpha  occ. eigenvalues --   -0.34016  -0.29947
 Alpha virt. eigenvalues --    0.03314   0.05064   0.05191   0.05482   0.05643
 Alpha virt. eigenvalues --    0.06072   0.07196   0.10184   0.10727   0.11932
 Alpha virt. eigenvalues --    0.12483   0.13229   0.14106   0.14550   0.14909

 Mulliken charges:
               1
     1  C   -3.734405
     2  C   -0.358727
     3  C   -1.874556
     4  N   -2.560463
     5  C    6.238354
     6  O   -2.898957
     7  O   -3.170516
     8  H    1.203787
     9  H    1.245664
    10  H    1.196986
    11  H    1.519772
    12  H    1.491091
    13  H    1.408400
    14  H    0.293571
 Sum of Mulliken charges =  -0.00000

 Dipole moment (field-independent basis, Debye):
    X=              2.8585    Y=              0.1158    Z=              0.2142  Tot=              2.8688

 Test job not archived.
 1\1\GINC-SE232\SP\RHF\Aug-CC-pVDZ\C4H7N1O2\OHZDE\09-Apr-2025\0\\#t hf
 aug-cc-pvdz iop(5/13=1,5/36=2,99/5=2) pseudo=read geom=check guess=(re
 ad,tcheck) scf=(maxcycle=1)\\title\\0,1\C,0,-1.62991193,-0.92610956,-0
 .04916841\C,0,-0.3611165,-0.29129887,-0.55514376\C,0,-0.07334606,1.142
 00416,-0.02363448\N,0,1.34457952,1.05746551,0.26709955\C,0,1.68517045,
 -0.1998508,0.27089973\O,0,2.85774743,-0.36687813,0.7184402\O,0,0.79245
 793,-1.08453494,-0.12198007\H,0,-1.63009232,-0.97144385,1.0409201\H,0,
 -1.74665372,-1.93591933,-0.44253811\H,0,-2.48745332,-0.3317392,-0.3713

 Normal termination of Gaussian 16 at Wed Apr  9 19:11:00 2025.
