 Gaussian 16, Revision C.01,

 ----------------------------------------------------------------------
 #t hf aug-cc-pvdz symm=none int=(grid=ultrafine) guess=(read,tcheck) s
 table=(opt,rrhf)
 ----------------------------------------------------------------------
 -----
 title
 -----
 Symbolic Z-matrix:
 Charge =  0 Multiplicity = 1

 SCF Done:  E(RHF) =  -301.573883354     A.U. after   15 cycles
 Normal termination of Gaussian 16 at Wed Apr  9 19:23:03 2025.
 Gaussian 16:  ES64L-G16RevC.01  3-Jul-2019

 ----------------------------------------------------------------------
 #t hf aug-cc-pvdz iop(5/13=1,5/36=2,99/5=2) pseudo=read geom=check gue
 ss=(read,tcheck) scf=(maxcycle=1)
 ----------------------------------------------------------------------
 -----
 title
 -----
 Structure from the checkpoint file:  "Grambow2020_wb97xd3_008864_forward_mol1.chk"
 Charge =  0 Multiplicity = 1

                         Standard orientation:
 ---------------------------------------------------------------------
 Center     Atomic      Atomic             Coordinates (Angstroms)
 Number     Number       Type             X           Y           Z
 ---------------------------------------------------------------------
      1          7           0        1.704189   -0.679760   -0.455855
      2          6           0        1.770804   -0.269244    0.655228
      3          6           0        0.670194    0.776133   -0.116984
      4          6           0       -0.582981    0.554896   -0.860861
      5          6           0       -1.201633   -0.800497   -0.587676
      6          6           0       -1.121905   -0.416902    0.902675
      7          7           0       -0.582721    0.942682    0.588708
      8          1           0        1.213138    1.691307   -0.291091
      9          1           0       -0.869012    1.244682   -1.646167
     10          1           0       -2.225753   -0.864956   -0.949011
     11          1           0       -0.633764   -1.665693   -0.926862
     12          1           0       -2.087972   -0.312586    1.390153
     13          1           0       -0.453794   -0.999522    1.538722
 ---------------------------------------------------------------------

 SCF Done:  E(RHF) =  -302.992066269     A.U. after    2 cycles

 The electronic state is 1-A.
 Alpha  occ. eigenvalues --  -15.79447 -15.74701 -11.55697 -11.47675 -11.44492
 Alpha  occ. eigenvalues --  -11.41685 -11.39045  -1.57584  -1.38005  -1.12504
 Alpha  occ. eigenvalues --   -1.02383  -0.87737  -0.80715  -0.73755  -0.68169
 Alpha  occ. eigenvalues --   -0.65866  -0.60569  -0.57762  -0.53844  -0.47695
 Alpha  occ. eigenvalues --   -0.47318  -0.45291  -0.42357  -0.40717  -0.34180
 Alpha virt. eigenvalues --    0.03872   0.05160   0.05474   0.05728   0.06541
 Alpha virt. eigenvalues --    0.07104   0.08833   0.09647   0.10680   0.11473
 Alpha virt. eigenvalues --    0.12496   0.12731   0.13259   0.14363   0.14723

 Mulliken charges:
               1
     1  N   -0.868440
     2  C   -0.395815
     3  C    0.541145
     4  C   -0.214893
     5  C   -3.425696
     6  C   -2.198024
     7  N   -1.577075
     8  H    1.507779
     9  H    1.350515
    10  H    1.089336
    11  H    1.303463
    12  H    1.310832
    13  H    1.576873
 Sum of Mulliken charges =   0.00000

 Dipole moment (field-independent basis, Debye):
    X=             -2.1684    Y=              0.0979    Z=             -1.5512  Tot=              2.6679

 Test job not archived.
 1\1\GINC-SE036\SP\RHF\Aug-CC-pVDZ\C5H6N2\OHZDE\09-Apr-2025\0\\#t hf au
 g-cc-pvdz iop(5/13=1,5/36=2,99/5=2) pseudo=read geom=check guess=(read
 ,tcheck) scf=(maxcycle=1)\\title\\0,1\N,0,1.95692572,-0.34666258,0.880
 09765\C,0,1.87881326,0.83711611,0.88581373\C,0,1.12491847,0.37018506,-
 0.56817499\C,0,0.01465639,-0.54699544,-0.882573\C,0,-0.85356185,-0.858
 51951,0.31892511\C,0,-0.9944662,0.66775458,0.47792069\N,0,-0.19492877,
 0.93361832,-0.75812941\H,0,1.83055296,0.6050226,-1.34892929\H,0,-0.004
 46999,-1.05761239,-1.83820293\H,0,-1.78850218,-1.3379801,0.03688914\H,

 Normal termination of Gaussian 16 at Wed Apr  9 19:23:07 2025.
