 Gaussian 16, Revision C.01,

 ----------------------------------------------------------------------
 #t hf aug-cc-pvdz symm=none int=(grid=ultrafine) guess=(read,tcheck) s
 table=(opt,rrhf)
 ----------------------------------------------------------------------
 -----
 title
 -----
 Symbolic Z-matrix:
 Charge =  0 Multiplicity = 1

 SCF Done:  E(RHF) =  -287.965451447     A.U. after   16 cycles

 1\1\GINC-SE249\Stability\RHF\Aug-CC-pVDZ\C6H11N1\OHZDE\09-Apr-2025\0\\
 #t hf aug-cc-pvdz symm=none int=(grid=ultrafine) guess=(read,tcheck) s
 table=(opt,rrhf)\\title\\0,1\C,0,2.35258491,-0.45243422,-0.19724361\C,
 0,0.89472674,-0.10767567,0.25615067\C,0,0.58886684,1.37167766,0.050923
 72\C,0,0.16792762,-1.10152494,-0.53588316\C,0,-2.72091812,-0.37855286,
 0.95350935\C,0,-0.24780794,-0.70793401,-1.80991849\N,0,-0.64728615,-0.
 4988578,-2.88017523\H,0,2.60221305,-1.49701709,-0.01974902\H,0,3.01842
 131,0.1760176,0.39482625\H,0,2.50582875,-0.21991618,-1.25184554\H,0,0.

 Normal termination of Gaussian 16 at Wed Apr  9 03:46:21 2025.
 Gaussian 16:  ES64L-G16RevC.01  3-Jul-2019

 ----------------------------------------------------------------------
 #t hf aug-cc-pvdz iop(5/13=1,5/36=2,99/5=2) pseudo=read geom=check gue
 ss=(read,tcheck) scf=(maxcycle=1)
 ----------------------------------------------------------------------
 -----
 title
 -----
 Structure from the checkpoint file:  "Grambow2020_wb97xd3_007881_reverse_mol2.chk"
 Charge =  0 Multiplicity = 1

                         Standard orientation:
 ---------------------------------------------------------------------
 Center     Atomic      Atomic             Coordinates (Angstroms)
 Number     Number       Type             X           Y           Z
 ---------------------------------------------------------------------
      1          6           0        2.225556   -0.512229   -0.580910
      2          6           0        0.733009   -0.812556   -0.217757
      3          6           0        0.559644   -1.007906    1.284221
      4          6           0        0.104101    0.341364   -0.862919
      5          6           0       -2.958826   -0.822459   -0.270970
      6          6           0       -0.047825    1.491111   -0.084514
      7          7           0       -0.232099    2.500732    0.459043
      8          1           0        2.375061   -0.410279   -1.654328
      9          1           0        2.809017   -1.360247   -0.221363
     10          1           0        2.582275    0.388987   -0.080614
     11          1           0        0.467025   -1.720012   -0.765306
     12          1           0        1.112236   -1.887664    1.619597
     13          1           0       -0.491046   -1.153715    1.538089
     14          1           0        0.924243   -0.140158    1.837905
     15          1           0       -2.343363   -0.554008   -1.130702
     16          1           0       -4.007851   -0.791647   -0.560648
     17          1           0       -2.706114   -1.828252    0.063117
     18          1           0       -2.790750   -0.112079    0.538037
 ---------------------------------------------------------------------

 SCF Done:  E(RHF) =  -289.379995565     A.U. after    2 cycles

 The electronic state is 1-A.
 Alpha  occ. eigenvalues --  -15.78561 -11.48344 -11.44923 -11.44012 -11.41210
 Alpha  occ. eigenvalues --  -11.38818 -11.36410  -1.35073  -1.26787  -1.03666
 Alpha  occ. eigenvalues --   -1.03309  -1.01588  -0.86291  -0.66904  -0.64833
 Alpha  occ. eigenvalues --   -0.59244  -0.56799  -0.56423  -0.54626  -0.54458
 Alpha  occ. eigenvalues --   -0.54143  -0.51520  -0.50746  -0.49829  -0.47771
 Alpha  occ. eigenvalues --   -0.45285  -0.33377
 Alpha virt. eigenvalues --    0.02379   0.03237   0.04856   0.05421   0.05594
 Alpha virt. eigenvalues --    0.05693   0.06226   0.06367   0.07197   0.08322
 Alpha virt. eigenvalues --    0.08417   0.09573   0.10533   0.11514   0.12716

 Mulliken charges:
               1
     1  C   -4.152424
     2  C   -0.659419
     3  C   -4.235752
     4  C   -1.061841
     5  C   -5.506664
     6  C    3.064719
     7  N   -2.407179
     8  H    1.235312
     9  H    1.251214
    10  H    1.432530
    11  H    1.673570
    12  H    1.138579
    13  H    1.395796
    14  H    1.396784
    15  H    1.459792
    16  H    1.147100
    17  H    1.359898
    18  H    1.467982
 Sum of Mulliken charges =   0.00000

 Dipole moment (field-independent basis, Debye):
    X=              1.4911    Y=             -3.1245    Z=              0.6366  Tot=              3.5201

 Test job not archived.
 1\1\GINC-SE249\SP\RHF\Aug-CC-pVDZ\C6H11N1\OHZDE\09-Apr-2025\0\\#t hf a
 ug-cc-pvdz iop(5/13=1,5/36=2,99/5=2) pseudo=read geom=check guess=(rea
 d,tcheck) scf=(maxcycle=1)\\title\\0,1\C,0,2.35258491,-0.45243422,-0.1
 9724361\C,0,0.89472674,-0.10767567,0.25615067\C,0,0.58886684,1.3716776
 6,0.05092372\C,0,0.16792762,-1.10152494,-0.53588316\C,0,-2.72091812,-0
 .37855286,0.95350935\C,0,-0.24780794,-0.70793401,-1.80991849\N,0,-0.64
 728615,-0.4988578,-2.88017523\H,0,2.60221305,-1.49701709,-0.01974902\H
 ,0,3.01842131,0.1760176,0.39482625\H,0,2.50582875,-0.21991618,-1.25184

 Normal termination of Gaussian 16 at Wed Apr  9 03:46:28 2025.
