 Gaussian 16, Revision C.01,

 ----------------------------------------------------------------------
 #t hf aug-cc-pvdz symm=none int=(grid=ultrafine) guess=(read,tcheck) s
 table=(opt,rrhf)
 ----------------------------------------------------------------------
 -----
 title
 -----
 Symbolic Z-matrix:
 Charge =  0 Multiplicity = 1

 SCF Done:  E(RHF) =  -279.765832669     A.U. after   16 cycles
 Normal termination of Gaussian 16 at Wed Apr  9 17:08:06 2025.
 Gaussian 16:  ES64L-G16RevC.01  3-Jul-2019

 ----------------------------------------------------------------------
 #t hf aug-cc-pvdz iop(5/13=1,5/36=2,99/5=2) pseudo=read geom=check gue
 ss=(read,tcheck) scf=(maxcycle=1)
 ----------------------------------------------------------------------
 -----
 title
 -----
 Structure from the checkpoint file:  "Grambow2020_b97d3_007050_reverse_mol1.chk"
 Charge =  0 Multiplicity = 1

                         Standard orientation:
 ---------------------------------------------------------------------
 Center     Atomic      Atomic             Coordinates (Angstroms)
 Number     Number       Type             X           Y           Z
 ---------------------------------------------------------------------
      1          7           0        2.038212    0.053299   -0.201986
      2          6           0        0.669637    0.084788    0.097216
      3          6           0       -0.247784    1.170386    0.045195
      4          6           0       -1.492637    0.558935   -0.071248
      5          7           0       -1.410994   -0.799613   -0.056713
      6          7           0       -0.122609   -1.155898    0.012986
      7          1           0        2.400343   -0.899838   -0.168360
      8          1           0        2.596445    0.664628    0.392357
      9          1           0       -0.008296    2.227784    0.069302
     10          1           0       -2.463729    1.043146   -0.137647
     11          1           0        0.367678   -0.604887    1.137358
 ---------------------------------------------------------------------

 SCF Done:  E(RHF) =  -281.070021688     A.U. after    2 cycles

 The electronic state is 1-A.
 Alpha  occ. eigenvalues --  -15.79750 -15.78074 -15.74659 -11.51008 -11.44723
 Alpha  occ. eigenvalues --  -11.39005  -1.59509  -1.36037  -1.15097  -1.11118
 Alpha  occ. eigenvalues --   -0.83188  -0.79621  -0.70972  -0.70033  -0.65494
 Alpha  occ. eigenvalues --   -0.55152  -0.52837  -0.47101  -0.45379  -0.38100
 Alpha  occ. eigenvalues --   -0.36677  -0.31929
 Alpha virt. eigenvalues --    0.02930   0.04818   0.05338   0.06044   0.06406
 Alpha virt. eigenvalues --    0.10272   0.11351   0.11705   0.12063   0.13149
 Alpha virt. eigenvalues --    0.13777   0.14556   0.14954   0.15857   0.16483

 Mulliken charges:
               1
     1  N   -3.158505
     2  C    1.933111
     3  C   -0.751869
     4  C   -0.113319
     5  N   -1.879465
     6  N   -1.246665
     7  H    0.692930
     8  H    0.489764
     9  H    1.245266
    10  H    1.389468
    11  H    1.399285
 Sum of Mulliken charges =   0.00000

 Dipole moment (field-independent basis, Debye):
    X=              2.4939    Y=              2.0577    Z=              0.9910  Tot=              3.3817

 Test job not archived.
 1\1\GINC-SE173\SP\RHF\Aug-CC-pVDZ\C3H5N3\OHZDE\09-Apr-2025\0\\#t hf au
 g-cc-pvdz iop(5/13=1,5/36=2,99/5=2) pseudo=read geom=check guess=(read
 ,tcheck) scf=(maxcycle=1)\\title\\0,1\N,0,-1.82479471,-0.05920159,-0.3
 3453179\C,0,-0.47101003,0.05168273,0.00968202\C,0,0.60176783,-0.854487
 86,-0.2159093\C,0,1.74009631,-0.05577967,-0.15790392\N,0,1.45207849,1.
 24522881,0.11950157\N,0,0.12370635,1.38685637,0.20377572\H,0,-2.328402
 25,0.80402986,-0.12971404\H,0,-2.2901771,-0.85251512,0.10440466\H,0,0.
 52605887,-1.91877164,-0.40980445\H,0,2.77437664,-0.36865412,-0.277327\

 Normal termination of Gaussian 16 at Wed Apr  9 17:08:09 2025.
