 Gaussian 16, Revision C.01,

 ----------------------------------------------------------------------
 #t hf aug-cc-pvdz symm=none int=(grid=ultrafine) guess=(read,tcheck) s
 table=(opt,rrhf)
 ----------------------------------------------------------------------
 -----
 title
 -----
 Symbolic Z-matrix:
 Charge =  0 Multiplicity = 1

 SCF Done:  E(RHF) =  -323.757902872     A.U. after   16 cycles
 Normal termination of Gaussian 16 at Wed Apr  9 18:19:26 2025.
 Gaussian 16:  ES64L-G16RevC.01  3-Jul-2019

 ----------------------------------------------------------------------
 #t hf aug-cc-pvdz iop(5/13=1,5/36=2,99/5=2) pseudo=read geom=check gue
 ss=(read,tcheck) scf=(maxcycle=1)
 ----------------------------------------------------------------------
 -----
 title
 -----
 Structure from the checkpoint file:  "Grambow2020_wb97xd3_006875_reverse_mol2.chk"
 Charge =  0 Multiplicity = 1

                         Standard orientation:
 ---------------------------------------------------------------------
 Center     Atomic      Atomic             Coordinates (Angstroms)
 Number     Number       Type             X           Y           Z
 ---------------------------------------------------------------------
      1          6           0        2.521039   -0.115154   -0.467502
      2          7           0        1.242248    0.445789   -0.046833
      3          6           0        0.830196   -0.004492    1.269257
      4          6           0        0.206467   -0.576175   -0.086541
      5          6           0       -1.094347   -0.109403   -0.128707
      6          8           0       -2.114090   -0.957539   -0.073475
      7          6           0       -1.511647    1.307997   -0.239816
      8          1           0        3.308358    0.571235   -0.157734
      9          1           0        2.544306   -0.204416   -1.555900
     10          1           0        2.717019   -1.090822   -0.002345
     11          1           0       -1.791037   -1.862278    0.006297
     12          1           0        0.180704    0.772463    1.706334
     13          1           0        0.435066   -1.613690   -0.313775
     14          1           0       -2.175991    1.579115    0.581766
     15          1           0       -0.635532    1.949896   -0.259722
     16          1           0       -2.076162    1.421646   -1.169437
 ---------------------------------------------------------------------

 SCF Done:  E(RHF) =  -325.280272611     A.U. after    2 cycles

 The electronic state is 1-A.
 Alpha  occ. eigenvalues --  -21.15685 -15.71938 -11.54785 -11.43807 -11.40980
 Alpha  occ. eigenvalues --  -11.37138 -11.35872  -1.82360  -1.47530  -1.16745
 Alpha  occ. eigenvalues --   -1.06108  -0.95309  -0.81680  -0.79563  -0.71842
 Alpha  occ. eigenvalues --   -0.62856  -0.61677  -0.59107  -0.56710  -0.55136
 Alpha  occ. eigenvalues --   -0.54641  -0.50796  -0.47689  -0.44329  -0.40493
 Alpha  occ. eigenvalues --   -0.31550  -0.26704
 Alpha virt. eigenvalues --    0.03362   0.04722   0.05375   0.05771   0.06215
 Alpha virt. eigenvalues --    0.06569   0.07047   0.07347   0.08420   0.09964
 Alpha virt. eigenvalues --    0.11074   0.11796   0.12786   0.13906   0.14037

 Mulliken charges:
               1
     1  C   -3.580122
     2  N   -2.134301
     3  C   -1.760947
     4  C   -1.045117
     5  C    5.236504
     6  O   -4.051653
     7  C   -4.417537
     8  H    1.348839
     9  H    1.361808
    10  H    1.357202
    11  H    0.935696
    12  H    1.267886
    13  H    1.686531
    14  H    1.274505
    15  H    1.364092
    16  H    1.156612
 Sum of Mulliken charges =   0.00000

 Dipole moment (field-independent basis, Debye):
    X=             -3.6569    Y=             -0.3229    Z=             -2.7140  Tot=              4.5654

 Test job not archived.
 1\1\GINC-SE028\SP\RHF\Aug-CC-pVDZ\C5H9N1O1\OHZDE\09-Apr-2025\0\\#t hf
 aug-cc-pvdz iop(5/13=1,5/36=2,99/5=2) pseudo=read geom=check guess=(re
 ad,tcheck) scf=(maxcycle=1)\\title\\0,1\C,0,1.48314013,0.12666564,-1.9
 125012\N,0,0.8514908,0.4151165,-0.63002611\C,0,1.29199238,-0.4700256,0
 .43163003\C,0,-0.11950498,-0.61881223,-0.30293366\C,0,-1.07172116,-0.2
 7054311,0.63715481\O,0,-1.94497369,-1.17021191,1.07337147\C,0,-1.24818
 297,1.06740323,1.24893\H,0,2.38258779,0.7365502,-1.98990463\H,0,0.8065
 7699,0.39796961,-2.7259975\H,0,1.77792509,-0.92794619,-1.99969898\H,0,

 Normal termination of Gaussian 16 at Wed Apr  9 18:19:31 2025.
