 Gaussian 16, Revision C.01,

 ----------------------------------------------------------------------
 #t hf aug-cc-pvdz symm=none int=(grid=ultrafine) guess=(read,tcheck) s
 table=(opt,rrhf)
 ----------------------------------------------------------------------
 -----
 title
 -----
 Symbolic Z-matrix:
 Charge =  0 Multiplicity = 1

 SCF Done:  E(RHF) =  -339.099410580     A.U. after   17 cycles
 Normal termination of Gaussian 16 at Wed Apr  9 16:29:42 2025.
 Gaussian 16:  ES64L-G16RevC.01  3-Jul-2019

 ----------------------------------------------------------------------
 #t hf aug-cc-pvdz iop(5/13=1,5/36=2,99/5=2) pseudo=read geom=check gue
 ss=(read,tcheck) scf=(maxcycle=1)
 ----------------------------------------------------------------------
 -----
 title
 -----
 Structure from the checkpoint file:  "Grambow2020_b97d3_006816_reverse_mol2.chk"
 Charge =  0 Multiplicity = 1

                         Standard orientation:
 ---------------------------------------------------------------------
 Center     Atomic      Atomic             Coordinates (Angstroms)
 Number     Number       Type             X           Y           Z
 ---------------------------------------------------------------------
      1          8           0        0.709715    1.381286    0.000541
      2          6           0       -2.355843    0.247232   -0.000303
      3          6           0       -1.175319   -0.089219   -0.000195
      4          8           0       -0.249635   -1.075156    0.000851
      5          6           0        1.049552   -0.845650   -0.000510
      6          8           0        1.591006    0.312692   -0.000448
      7          1           0       -3.208219    0.895521   -0.000904
      8          1           0        1.689180   -1.720275   -0.000599
 ---------------------------------------------------------------------

 SCF Done:  E(RHF) =  -340.520669589     A.U. after    2 cycles

 The electronic state is 1-A.
 Alpha  occ. eigenvalues --  -21.21947 -21.18735 -21.01059 -11.59649 -11.48062
 Alpha  occ. eigenvalues --  -11.41853  -2.02668  -1.88202  -1.38355  -1.10488
 Alpha  occ. eigenvalues --   -0.95541  -0.79084  -0.74560  -0.67019  -0.65341
 Alpha  occ. eigenvalues --   -0.54485  -0.51191  -0.46365  -0.40182  -0.38206
 Alpha  occ. eigenvalues --   -0.26871  -0.26002
 Alpha virt. eigenvalues --    0.02282   0.04921   0.08074   0.08115   0.09759
 Alpha virt. eigenvalues --    0.10144   0.11123   0.12000   0.14513   0.14549
 Alpha virt. eigenvalues --    0.14868   0.15359   0.16428   0.18176   0.19415

 Mulliken charges:
               1
     1  O   -0.386371
     2  C   -3.101275
     3  C    3.541162
     4  O   -3.194156
     5  C    2.249449
     6  O   -1.858232
     7  H    0.993647
     8  H    1.755775
 Sum of Mulliken charges =  -0.00000

 Dipole moment (field-independent basis, Debye):
    X=              0.5639    Y=             -1.2909    Z=              0.0002  Tot=              1.4087

 Test job not archived.
 1\1\GINC-SE057\SP\RHF\Aug-CC-pVDZ\C3H2O3\OHZDE\09-Apr-2025\0\\#t hf au
 g-cc-pvdz iop(5/13=1,5/36=2,99/5=2) pseudo=read geom=check guess=(read
 ,tcheck) scf=(maxcycle=1)\\title\\0,1\O,0,0.18158888,-1.12381498,1.367
 29405\C,0,-1.39042876,1.5807126,0.41965633\C,0,-0.58373317,0.72731598,
 0.06217471\O,0,0.23597777,0.23316674,-0.89325904\C,0,0.96882008,-0.851
 00305,-0.72568763\O,0,0.99728371,-1.56156298,0.33696056\H,0,-2.0779619
 ,2.09863298,1.05674372\H,0,1.58614038,-1.14498328,-1.56627369\\Version
 =ES64L-G16RevC.01\State=1-A\HF=-340.5206696\RMSD=4.672e-01\Dipole=0.26

 Normal termination of Gaussian 16 at Wed Apr  9 16:29:44 2025.
