 Gaussian 16, Revision C.01,

 ----------------------------------------------------------------------
 #t hf aug-cc-pvdz symm=none int=(grid=ultrafine) guess=(read,tcheck) s
 table=(opt,rrhf)
 ----------------------------------------------------------------------
 -----
 title
 -----
 Symbolic Z-matrix:
 Charge =  0 Multiplicity = 1

 SCF Done:  E(RHF) =  -269.907076540     A.U. after   16 cycles

 1\1\GINC-SE454\Stability\RHF\Aug-CC-pVDZ\C5H10O1\OHZDE\09-Apr-2025\0\\
 #t hf aug-cc-pvdz symm=none int=(grid=ultrafine) guess=(read,tcheck) s
 table=(opt,rrhf)\\title\\0,1\C,0,-0.979377,-1.13591296,-0.26009112\C,0
 ,-0.2454585,0.20818022,-0.34045738\C,0,-1.13772178,1.35614123,0.107852
 26\C,0,1.1802721,-0.10335242,1.08896152\C,0,1.83553941,-0.30676712,-0.
 15097747\O,0,0.49621951,0.44051304,-1.41007799\H,0,-1.77230222,-1.0825
 7965,-1.02776464\H,0,-1.46013309,-1.3114017,0.71080341\H,0,-0.34183966
 ,-1.98797251,-0.5204251\H,0,-1.89415689,1.48397517,-0.68829837\H,0,-0.

 Normal termination of Gaussian 16 at Wed Apr  9 16:13:01 2025.
 Gaussian 16:  ES64L-G16RevC.01  3-Jul-2019

 ----------------------------------------------------------------------
 #t hf aug-cc-pvdz iop(5/13=1,5/36=2,99/5=2) pseudo=read geom=check gue
 ss=(read,tcheck) scf=(maxcycle=1)
 ----------------------------------------------------------------------
 -----
 title
 -----
 Structure from the checkpoint file:  "Grambow2020_b97d3_006762_reverse_mol1.chk"
 Charge =  0 Multiplicity = 1

                         Standard orientation:
 ---------------------------------------------------------------------
 Center     Atomic      Atomic             Coordinates (Angstroms)
 Number     Number       Type             X           Y           Z
 ---------------------------------------------------------------------
      1          6           0        0.771318    1.452104    0.099096
      2          6           0        0.428904   -0.020658   -0.156650
      3          6           0        1.537577   -0.941629    0.330780
      4          6           0       -1.173762   -0.213598    1.095242
      5          6           0       -1.722162   -0.069135   -0.203446
      6          8           0       -0.106322   -0.333424   -1.324495
      7          1           0        1.628238    1.672378   -0.562769
      8          1           0        1.081870    1.653183    1.132384
      9          1           0       -0.035650    2.135260   -0.187844
     10          1           0        2.382119   -0.799709   -0.368505
     11          1           0        1.232644   -1.991209    0.268270
     12          1           0        1.883548   -0.700605    1.344348
     13          1           0       -1.101400    0.647186    1.754274
     14          1           0       -1.126630   -1.200667    1.547503
     15          1           0       -1.995867    0.916859   -0.577288
     16          1           0       -2.149542   -0.907793   -0.744543
 ---------------------------------------------------------------------

 SCF Done:  E(RHF) =  -271.240328603     A.U. after    2 cycles

 The electronic state is 1-A.
 Alpha  occ. eigenvalues --  -20.96728 -11.49865 -11.49258 -11.39686 -11.37673
 Alpha  occ. eigenvalues --  -11.36661  -1.65690  -1.17519  -1.12329  -1.01591
 Alpha  occ. eigenvalues --   -0.86402  -0.74738  -0.67250  -0.62133  -0.60433
 Alpha  occ. eigenvalues --   -0.58299  -0.56842  -0.54389  -0.51416  -0.49041
 Alpha  occ. eigenvalues --   -0.45678  -0.41652  -0.25333  -0.22923
 Alpha virt. eigenvalues --    0.03553   0.05092   0.05234   0.05489   0.05685
 Alpha virt. eigenvalues --    0.05848   0.06453   0.06824   0.08913   0.09394
 Alpha virt. eigenvalues --    0.09874   0.12419   0.12984   0.13772   0.13997

 Mulliken charges:
               1
     1  C   -4.306267
     2  C    4.884079
     3  C   -4.087764
     4  C   -3.309761
     5  C   -2.537165
     6  O   -3.361958
     7  H    1.113967
     8  H    1.356922
     9  H    1.365386
    10  H    1.090930
    11  H    1.266685
    12  H    1.277812
    13  H    1.293712
    14  H    1.319392
    15  H    1.382423
    16  H    1.251606
 Sum of Mulliken charges =   0.00000

 Dipole moment (field-independent basis, Debye):
    X=             -0.7025    Y=              0.4855    Z=              0.4611  Tot=              0.9705

 Test job not archived.
 1\1\GINC-SE454\SP\RHF\Aug-CC-pVDZ\C5H10O1\OHZDE\09-Apr-2025\0\\#t hf a
 ug-cc-pvdz iop(5/13=1,5/36=2,99/5=2) pseudo=read geom=check guess=(rea
 d,tcheck) scf=(maxcycle=1)\\title\\0,1\C,0,-0.979377,-1.13591296,-0.26
 009112\C,0,-0.2454585,0.20818022,-0.34045738\C,0,-1.13772178,1.3561412
 3,0.10785226\C,0,1.1802721,-0.10335242,1.08896152\C,0,1.83553941,-0.30
 676712,-0.15097747\O,0,0.49621951,0.44051304,-1.41007799\H,0,-1.772302
 22,-1.08257965,-1.02776464\H,0,-1.46013309,-1.3114017,0.71080341\H,0,-
 0.34183966,-1.98797251,-0.5204251\H,0,-1.89415689,1.48397517,-0.688298

 Normal termination of Gaussian 16 at Wed Apr  9 16:13:06 2025.
