 Gaussian 16, Revision C.01,

 ----------------------------------------------------------------------
 #t hf aug-cc-pvdz symm=none int=(grid=ultrafine) guess=(read,tcheck) s
 table=(opt,rrhf)
 ----------------------------------------------------------------------
 -----
 title
 -----
 Symbolic Z-matrix:
 Charge =  0 Multiplicity = 1

 SCF Done:  E(RHF) =  -283.526407169     A.U. after   15 cycles
 Normal termination of Gaussian 16 at Wed Apr  9 17:53:17 2025.
 Gaussian 16:  ES64L-G16RevC.01  3-Jul-2019

 ----------------------------------------------------------------------
 #t hf aug-cc-pvdz iop(5/13=1,5/36=2,99/5=2) pseudo=read geom=check gue
 ss=(read,tcheck) scf=(maxcycle=1)
 ----------------------------------------------------------------------
 -----
 title
 -----
 Structure from the checkpoint file:  "Grambow2020_wb97xd3_006229_forward_mol1.chk"
 Charge =  0 Multiplicity = 1

                         Standard orientation:
 ---------------------------------------------------------------------
 Center     Atomic      Atomic             Coordinates (Angstroms)
 Number     Number       Type             X           Y           Z
 ---------------------------------------------------------------------
      1          8           0       -2.141858   -0.233856   -0.000143
      2          6           0       -0.977770    0.162005   -0.000201
      3          6           0        0.052887   -1.101578    0.000262
      4          6           0        1.357611   -0.507260   -0.000327
      5          6           0        2.163080    0.420468   -0.000382
      6          7           0       -0.369709    1.305777    0.000023
      7          1           0       -0.131752   -1.699118   -0.890576
      8          1           0       -0.131360   -1.695637    0.893583
      9          1           0        2.521167   -0.923952   -0.000430
     10          1           0        2.943364    1.153087    0.001882
     11          1           0       -1.053441    2.054220    0.000412
 ---------------------------------------------------------------------

 SCF Done:  E(RHF) =  -284.826627458     A.U. after    2 cycles

 The electronic state is 1-A.
 Alpha  occ. eigenvalues --  -20.95859 -15.65576 -11.57765 -11.55896 -11.45255
 Alpha  occ. eigenvalues --  -11.42268  -1.63629  -1.33188  -1.22499  -1.09497
 Alpha  occ. eigenvalues --   -0.85354  -0.74478  -0.67905  -0.64575  -0.64100
 Alpha  occ. eigenvalues --   -0.51078  -0.49517  -0.48422  -0.44648  -0.34942
 Alpha  occ. eigenvalues --   -0.23187  -0.22753
 Alpha virt. eigenvalues --    0.00754   0.02967   0.04362   0.06115   0.06400
 Alpha virt. eigenvalues --    0.07906   0.07960   0.08826   0.10397   0.12276
 Alpha virt. eigenvalues --    0.12279   0.12888   0.13959   0.14316   0.14943

 Mulliken charges:
               1
     1  O   -3.046042
     2  C    5.227017
     3  C   -4.078548
     4  C    2.776401
     5  C   -2.923173
     6  N   -2.874115
     7  H    1.156914
     8  H    1.156806
     9  H    1.194486
    10  H    0.674498
    11  H    0.735756
 Sum of Mulliken charges =  -0.00000

 Dipole moment (field-independent basis, Debye):
    X=              7.8976    Y=             -1.5078    Z=              0.0033  Tot=              8.0403

 Test job not archived.
 1\1\GINC-SE219\SP\RHF\Aug-CC-pVDZ\C4H5N1O1\OHZDE\09-Apr-2025\0\\#t hf
 aug-cc-pvdz iop(5/13=1,5/36=2,99/5=2) pseudo=read geom=check guess=(re
 ad,tcheck) scf=(maxcycle=1)\\title\\0,1\O,0,-1.64850219,1.91797912,0.0
 9171395\C,0,-0.63027813,1.2295892,0.12556308\C,0,-0.98357693,-0.325878
 57,-0.21295701\C,0,0.27483838,-1.00906643,-0.14109167\C,0,1.48764338,-
 1.10222533,0.03178438\N,0,0.62994536,1.41906992,0.3576976\H,0,-1.42514
 067,-0.37210661,-1.20674859\H,0,-1.69385163,-0.6867425,0.52877194\H,0,
 0.66108827,-2.17320821,-0.29301632\H,0,2.5330508,-1.29022244,0.1635366

 Normal termination of Gaussian 16 at Wed Apr  9 17:53:21 2025.
