 Gaussian 16, Revision C.01,

 ----------------------------------------------------------------------
 #t hf aug-cc-pvdz symm=none int=(grid=ultrafine) guess=(read,tcheck) s
 table=(opt,rrhf)
 ----------------------------------------------------------------------
 -----
 title
 -----
 Symbolic Z-matrix:
 Charge =  0 Multiplicity = 1

 SCF Done:  E(RHF) =  -394.440217464     A.U. after   14 cycles
 Normal termination of Gaussian 16 at Wed Apr  9 18:29:24 2025.
 Gaussian 16:  ES64L-G16RevC.01  3-Jul-2019

 ----------------------------------------------------------------------
 #t hf aug-cc-pvdz iop(5/13=1,5/36=2,99/5=2) pseudo=read geom=check gue
 ss=(read,tcheck) scf=(maxcycle=1)
 ----------------------------------------------------------------------
 -----
 title
 -----
 Structure from the checkpoint file:  "Grambow2020_wb97xd3_007195_reverse_mol2.chk"
 Charge =  0 Multiplicity = 1

                         Standard orientation:
 ---------------------------------------------------------------------
 Center     Atomic      Atomic             Coordinates (Angstroms)
 Number     Number       Type             X           Y           Z
 ---------------------------------------------------------------------
      1          7           0       -0.620198   -0.603709    0.072942
      2          6           0       -1.731019   -1.062862    0.006900
      3          8           0       -2.845477   -1.389467   -0.050245
      4          6           0        2.777228   -0.551647   -0.027393
      5          8           0        2.100821   -1.544433    0.015149
      6          6           0        0.393824    2.466987   -0.043237
      7          8           0       -0.601855    2.980900    0.023298
      8          1           0        0.265363   -1.105911    0.063615
      9          1           0        3.877330   -0.616356   -0.083414
     10          1           0        2.330588    0.457358   -0.014031
 ---------------------------------------------------------------------

 SCF Done:  E(RHF) =  -396.076748791     A.U. after    2 cycles

 The electronic state is 1-A.
 Alpha  occ. eigenvalues --  -21.17981 -21.11451 -21.10703 -15.76190 -11.56417
 Alpha  occ. eigenvalues --  -11.51305 -11.50486  -1.80797  -1.76413  -1.74949
 Alpha  occ. eigenvalues --   -1.34447  -0.92636  -0.78904  -0.72448  -0.69529
 Alpha  occ. eigenvalues --   -0.61486  -0.58396  -0.57457  -0.56494  -0.53085
 Alpha  occ. eigenvalues --   -0.52939  -0.51504  -0.48322  -0.37735  -0.33824
 Alpha  occ. eigenvalues --   -0.33635
 Alpha virt. eigenvalues --    0.03024   0.05598   0.06373   0.07517   0.09446
 Alpha virt. eigenvalues --    0.10439   0.10537   0.10992   0.11604   0.12644
 Alpha virt. eigenvalues --    0.13374   0.14058   0.15279   0.15517   0.16807

 Mulliken charges:
               1
     1  N   -2.410844
     2  C    3.852644
     3  O   -2.413518
     4  C   -0.750149
     5  O   -2.403915
     6  C    0.993438
     7  O   -1.103311
     8  H    1.140598
     9  H    1.471371
    10  H    1.623686
 Sum of Mulliken charges =   0.00000

 Dipole moment (field-independent basis, Debye):
    X=              0.5329    Y=              0.5835    Z=             -0.0310  Tot=              0.7908

 Test job not archived.
 1\1\GINC-SE232\SP\RHF\Aug-CC-pVDZ\C3H3N1O3\OHZDE\09-Apr-2025\0\\#t hf
 aug-cc-pvdz iop(5/13=1,5/36=2,99/5=2) pseudo=read geom=check guess=(re
 ad,tcheck) scf=(maxcycle=1)\\title\\0,1\N,0,-0.1379958,0.37766173,-1.2
 269775\C,0,-0.35519931,0.84971558,-2.31283919\O,0,-0.67217925,1.242898
 9,-3.36016095\C,0,1.43810939,-0.08122418,1.74969719\O,0,1.88752498,0.5
 2571492,0.81449097\C,0,-2.04770311,-1.34940302,0.73291351\O,0,-2.90019
 693,-1.53331394,0.02627304\H,0,0.6755831,0.52461978,-0.63283565\H,0,2.
 00125489,-0.16603448,2.69480282\H,0,0.45151203,-0.57342229,1.70363376\

 Normal termination of Gaussian 16 at Wed Apr  9 18:29:27 2025.
