 Gaussian 16, Revision C.01,

 ----------------------------------------------------------------------
 #t hf aug-cc-pvdz symm=none int=(grid=ultrafine) guess=(read,tcheck) s
 table=(opt,rrhf)
 ----------------------------------------------------------------------
 -----
 title
 -----
 Symbolic Z-matrix:
 Charge =  0 Multiplicity = 1

 SCF Done:  E(RHF) =  -379.298213388     A.U. after   22 cycles
 Normal termination of Gaussian 16 at Wed Apr  9 19:17:03 2025.
 Gaussian 16:  ES64L-G16RevC.01  3-Jul-2019

 ----------------------------------------------------------------------
 #t hf aug-cc-pvdz iop(5/13=1,5/36=2,99/5=2) pseudo=read geom=check gue
 ss=(read,tcheck) scf=(maxcycle=1)
 ----------------------------------------------------------------------
 -----
 title
 -----
 Structure from the checkpoint file:  "Grambow2020_wb97xd3_008538_reverse_mol1.chk"
 Charge =  0 Multiplicity = 1

                         Standard orientation:
 ---------------------------------------------------------------------
 Center     Atomic      Atomic             Coordinates (Angstroms)
 Number     Number       Type             X           Y           Z
 ---------------------------------------------------------------------
      1          8           0       -1.571724    1.300866   -0.223087
      2          6           0        0.254323   -0.404181   -0.085086
      3          6           0        0.763374    0.921850    0.295269
      4          8           0        2.122947    0.505866    0.082147
      5          6           0        1.682169   -0.801368   -0.292758
      6          6           0       -0.932328   -1.113411    0.169793
      7          8           0       -2.085925   -0.726271    0.029349
      8          1           0       -2.514584    1.495783   -0.263039
      9          1           0        0.563968    1.268360    1.311863
     10          1           0        0.381810    1.711152   -0.390615
     11          1           0        1.957328   -1.063963   -1.320046
     12          1           0        2.052292   -1.576430    0.388441
     13          1           0       -0.768421   -2.095940    0.642822
 ---------------------------------------------------------------------

 SCF Done:  E(RHF) =  -380.937364638     A.U. after    2 cycles

 The electronic state is 1-A.
 Alpha  occ. eigenvalues --  -21.11961 -21.07052 -21.00634 -11.52563 -11.50642
 Alpha  occ. eigenvalues --  -11.49762 -11.44881  -1.81765  -1.74008  -1.50117
 Alpha  occ. eigenvalues --   -1.19408  -1.03936  -0.95590  -0.79837  -0.72141
 Alpha  occ. eigenvalues --   -0.70413  -0.61185  -0.59645  -0.55473  -0.51208
 Alpha  occ. eigenvalues --   -0.46234  -0.45012  -0.42665  -0.34798  -0.32418
 Alpha  occ. eigenvalues --   -0.27426  -0.21542
 Alpha virt. eigenvalues --    0.02107   0.03907   0.04485   0.05177   0.06206
 Alpha virt. eigenvalues --    0.07555   0.07857   0.08675   0.09421   0.10922
 Alpha virt. eigenvalues --    0.11850   0.12959   0.13338   0.13885   0.14765

 Mulliken charges:
               1
     1  O   -1.530628
     2  C    0.320673
     3  C   -1.311221
     4  O   -2.875381
     5  C   -1.327250
     6  C    1.629620
     7  O   -2.646018
     8  H    1.110767
     9  H    1.447399
    10  H    1.316602
    11  H    1.260136
    12  H    1.229599
    13  H    1.375701
 Sum of Mulliken charges =  -0.00000

 Dipole moment (field-independent basis, Debye):
    X=             -0.2116    Y=             -0.6210    Z=              0.4386  Tot=              0.7892

 Test job not archived.
 1\1\GINC-SE219\SP\RHF\Aug-CC-pVDZ\C4H6O3\OHZDE\09-Apr-2025\0\\#t hf au
 g-cc-pvdz iop(5/13=1,5/36=2,99/5=2) pseudo=read geom=check guess=(read
 ,tcheck) scf=(maxcycle=1)\\title\\0,1\O,0,1.5149715,-0.69230633,-1.431
 5329\C,0,-0.04583752,0.29180611,0.25845966\C,0,-0.76289009,-0.65356621
 ,-0.6100257\O,0,-2.03387272,-0.09359763,-0.23862039\C,0,-1.38730092,0.
 84571328,0.62355172\C,0,1.21724754,0.29818465,0.87545744\O,0,2.3072661
 7,0.07781462,0.36195382\H,0,2.41982467,-0.87315419,-1.70921808\H,0,-0.
 66928696,-1.7185137,-0.38548298\H,0,-0.46631927,-0.52562518,-1.6752499

 Normal termination of Gaussian 16 at Wed Apr  9 19:17:07 2025.
