 Gaussian 16, Revision C.01,

 ----------------------------------------------------------------------
 #t hf aug-cc-pvdz symm=none int=(grid=ultrafine) guess=(read,tcheck) s
 table=(opt,rrhf)
 ----------------------------------------------------------------------
 -----
 title
 -----
 Symbolic Z-matrix:
 Charge =  0 Multiplicity = 1

 SCF Done:  E(RHF) =  -305.725885414     A.U. after   15 cycles
 Normal termination of Gaussian 16 at Wed Apr  9 17:18:22 2025.
 Gaussian 16:  ES64L-G16RevC.01  3-Jul-2019

 ----------------------------------------------------------------------
 #t hf aug-cc-pvdz iop(5/13=1,5/36=2,99/5=2) pseudo=read geom=check gue
 ss=(read,tcheck) scf=(maxcycle=1)
 ----------------------------------------------------------------------
 -----
 title
 -----
 Structure from the checkpoint file:  "Grambow2020_b97d3_007093_reverse_mol1.chk"
 Charge =  0 Multiplicity = 1

                         Standard orientation:
 ---------------------------------------------------------------------
 Center     Atomic      Atomic             Coordinates (Angstroms)
 Number     Number       Type             X           Y           Z
 ---------------------------------------------------------------------
      1          6           0        0.714940    1.833256   -0.005822
      2          6           0        0.903877   -0.370287    0.509001
      3          6           0        1.906099   -0.870472   -0.495835
      4          8           0       -0.302157   -0.874533    0.471818
      5          6           0       -1.419480    0.130460   -0.142623
      6          8           0       -2.531803   -0.226853   -0.251303
      7          1           0        1.780796    1.705040   -0.214906
      8          1           0        0.331798    2.533267   -0.766599
      9          1           0        0.582105    2.270369    0.990640
     10          1           0        1.269449   -0.053320    1.492739
     11          1           0        2.149883   -1.923215   -0.276616
     12          1           0        2.838363   -0.292776   -0.459909
     13          1           0        1.487630   -0.831037   -1.510244
     14          1           0       -0.400971    1.065020   -0.207549
 ---------------------------------------------------------------------

 SCF Done:  E(RHF) =  -307.155346962     A.U. after    2 cycles

 The electronic state is 1-A.
 Alpha  occ. eigenvalues --  -21.10296 -21.07999 -11.51490 -11.50349 -11.40552
 Alpha  occ. eigenvalues --  -11.37436  -1.79425  -1.70582  -1.14057  -1.03143
 Alpha  occ. eigenvalues --   -0.88617  -0.78701  -0.67579  -0.62248  -0.61133
 Alpha  occ. eigenvalues --   -0.57070  -0.55543  -0.53635  -0.53061  -0.49135
 Alpha  occ. eigenvalues --   -0.46138  -0.36899  -0.32879  -0.30081
 Alpha virt. eigenvalues --    0.03266   0.04722   0.05002   0.05364   0.05867
 Alpha virt. eigenvalues --    0.06174   0.07409   0.08595   0.10170   0.11064
 Alpha virt. eigenvalues --    0.12017   0.12837   0.13889   0.14168   0.14658

 Mulliken charges:
               1
     1  C   -5.465582
     2  C    0.963636
     3  C   -3.760477
     4  O   -3.118746
     5  C    1.246889
     6  O   -2.657505
     7  H    1.276908
     8  H    0.389157
     9  H    0.853694
    10  H    1.556392
    11  H    1.215274
    12  H    1.316952
    13  H    1.268682
    14  H    4.914726
 Sum of Mulliken charges =   0.00000

 Dipole moment (field-independent basis, Debye):
    X=              0.9360    Y=             -0.5039    Z=              0.0194  Tot=              1.0631

 Test job not archived.
 1\1\GINC-SE103\SP\RHF\Aug-CC-pVDZ\C4H8O2\OHZDE\09-Apr-2025\0\\#t hf au
 g-cc-pvdz iop(5/13=1,5/36=2,99/5=2) pseudo=read geom=check guess=(read
 ,tcheck) scf=(maxcycle=1)\\title\\0,1\C,0,0.31227771,1.52338403,0.1204
 218\C,0,-0.31707577,-0.51211262,-0.66507733\C,0,-1.5252361,-0.8409876,
 0.16950028\O,0,0.72473858,-1.29647983,-0.56732164\C,0,1.95918434,-0.65
 369857,0.26870312\O,0,2.93577405,-1.27975329,0.4449803\H,0,-0.77175569
 ,1.64071082,0.20591357\H,0,0.74946196,2.037554,0.99225531\H,0,0.666073
 06,2.00261269,-0.799806\H,0,-0.47354963,-0.02850158,-1.63641037\H,0,-1

 Normal termination of Gaussian 16 at Wed Apr  9 17:18:27 2025.
