 Gaussian 16, Revision C.01,

 ----------------------------------------------------------------------
 #t hf aug-cc-pvdz symm=none int=(grid=ultrafine) guess=(read,tcheck) s
 table=(opt,rrhf)
 ----------------------------------------------------------------------
 -----
 title
 -----
 Symbolic Z-matrix:
 Charge =  0 Multiplicity = 1

 SCF Done:  E(RHF) =  -374.500868187     A.U. after   14 cycles
 Normal termination of Gaussian 16 at Wed Apr  9 18:37:13 2025.
 Gaussian 16:  ES64L-G16RevC.01  3-Jul-2019

 ----------------------------------------------------------------------
 #t hf aug-cc-pvdz iop(5/13=1,5/36=2,99/5=2) pseudo=read geom=check gue
 ss=(read,tcheck) scf=(maxcycle=1)
 ----------------------------------------------------------------------
 -----
 title
 -----
 Structure from the checkpoint file:  "Grambow2020_wb97xd3_007335_forward_mol1.chk"
 Charge =  0 Multiplicity = 1

                         Standard orientation:
 ---------------------------------------------------------------------
 Center     Atomic      Atomic             Coordinates (Angstroms)
 Number     Number       Type             X           Y           Z
 ---------------------------------------------------------------------
      1          7           0        2.305694   -0.602755   -0.084251
      2          6           0        1.042067   -0.062317   -0.006470
      3          6           0        0.614600    1.221669    0.008029
      4          8           0       -0.800449    1.227380    0.007592
      5          6           0       -1.119031   -0.042123    0.005166
      6          8           0       -2.215439   -0.672140   -0.003169
      7          7           0       -0.087508   -0.863823    0.000062
      8          1           0        2.393541   -1.498975    0.365994
      9          1           0        3.051349    0.025550    0.162461
     10          1           0        1.102137    2.177803    0.003792
     11          1           0       -1.173036   -1.583627   -0.018659
 ---------------------------------------------------------------------

 SCF Done:  E(RHF) =  -376.141389758     A.U. after    2 cycles

 The electronic state is 1-A.
 Alpha  occ. eigenvalues --  -21.13662 -21.06148 -15.78848 -15.74569 -11.52220
 Alpha  occ. eigenvalues --  -11.50736 -11.41350  -1.90925  -1.72968  -1.45676
 Alpha  occ. eigenvalues --   -1.31939  -1.06312  -0.88025  -0.81634  -0.71830
 Alpha  occ. eigenvalues --   -0.68288  -0.66818  -0.62988  -0.53848  -0.51865
 Alpha  occ. eigenvalues --   -0.50174  -0.44148  -0.43497  -0.36175  -0.35803
 Alpha  occ. eigenvalues --   -0.25187
 Alpha virt. eigenvalues --    0.02973   0.04573   0.05278   0.07371   0.10299
 Alpha virt. eigenvalues --    0.10520   0.11547   0.11843   0.12478   0.12704
 Alpha virt. eigenvalues --    0.13489   0.13985   0.14985   0.15473   0.17733

 Mulliken charges:
               1
     1  N   -3.248580
     2  C    3.482533
     3  C    0.087387
     4  O   -3.273150
     5  C    5.799360
     6  O   -2.868642
     7  N   -3.054955
     8  H    0.662747
     9  H    0.584034
    10  H    1.432190
    11  H    0.397076
 Sum of Mulliken charges =   0.00000

 Dipole moment (field-independent basis, Debye):
    X=              2.9639    Y=              0.2358    Z=              0.7953  Tot=              3.0778

 Test job not archived.
 1\1\GINC-SE232\SP\RHF\Aug-CC-pVDZ\C3H4N2O2\OHZDE\09-Apr-2025\0\\#t hf
 aug-cc-pvdz iop(5/13=1,5/36=2,99/5=2) pseudo=read geom=check guess=(re
 ad,tcheck) scf=(maxcycle=1)\\title\\0,1\N,0,-1.8833415,-0.35222848,0.0
 8701352\C,0,-0.56946232,0.05698772,0.05323931\C,0,-0.00770905,1.282017
 78,0.17689422\O,0,1.39989957,1.13811032,0.15890234\C,0,1.58147592,-0.1
 5006951,0.01482188\O,0,2.60456629,-0.88929256,-0.06223674\N,0,0.468320
 16,-0.85349069,-0.05824734\H,0,-2.06679824,-1.17760673,-0.45955921\H,0
 ,-2.55820798,0.37513689,-0.07769961\H,0,-0.39064306,2.27769371,0.29477

 Normal termination of Gaussian 16 at Wed Apr  9 18:37:18 2025.
