 Gaussian 16, Revision C.01,

 ----------------------------------------------------------------------
 #t hf aug-cc-pvdz symm=none int=(grid=ultrafine) guess=(read,tcheck) s
 table=(opt,rrhf)
 ----------------------------------------------------------------------
 -----
 title
 -----
 Symbolic Z-matrix:
 Charge =  0 Multiplicity = 1

 SCF Done:  E(RHF) =  -301.995286041     A.U. after   14 cycles
 Normal termination of Gaussian 16 at Wed Apr  9 03:14:59 2025.
 Gaussian 16:  ES64L-G16RevC.01  3-Jul-2019

 ----------------------------------------------------------------------
 #t hf aug-cc-pvdz iop(5/13=1,5/36=2,99/5=2) pseudo=read geom=check gue
 ss=(read,tcheck) scf=(maxcycle=1)
 ----------------------------------------------------------------------
 -----
 title
 -----
 Structure from the checkpoint file:  "Grambow2020_b97d3_006945_reverse_mol2.chk"
 Charge =  0 Multiplicity = 1

                         Standard orientation:
 ---------------------------------------------------------------------
 Center     Atomic      Atomic             Coordinates (Angstroms)
 Number     Number       Type             X           Y           Z
 ---------------------------------------------------------------------
      1          6           0       -1.786417   -1.289034   -0.218269
      2          7           0       -1.716650    0.151205   -0.140868
      3          6           0       -0.851274    0.991355   -0.027709
      4          8           0       -0.136685    1.939119    0.077135
      5          7           0        1.639951   -0.970738   -0.162470
      6          6           0        2.481440   -0.008068   -0.162304
      7          1           0       -2.272550   -1.684089    0.684915
      8          1           0       -0.782164   -1.719295   -0.310272
      9          1           0       -2.396897   -1.576506   -1.085036
     10          1           0        0.266276   -0.952730    2.282063
     11          1           0        2.124596   -1.876448   -0.253169
     12          1           0       -0.042540   -1.025405    2.957260
     13          1           0        3.574928   -0.119757   -0.249123
     14          1           0        2.096226    1.012487   -0.070664
 ---------------------------------------------------------------------

 SCF Done:  E(RHF) =  -303.373487769     A.U. after    2 cycles

 The electronic state is 1-A.
 Alpha  occ. eigenvalues --  -21.09836 -15.75903 -15.75409 -11.55350 -11.43000
 Alpha  occ. eigenvalues --  -11.41157  -1.73928  -1.38257  -1.33317  -1.02889
 Alpha  occ. eigenvalues --   -0.88307  -0.69402  -0.67959  -0.62576  -0.62357
 Alpha  occ. eigenvalues --   -0.60560  -0.58844  -0.57618  -0.53084  -0.51932
 Alpha  occ. eigenvalues --   -0.43514  -0.40997  -0.34105  -0.31394
 Alpha virt. eigenvalues --    0.03551   0.04297   0.05451   0.06055   0.07069
 Alpha virt. eigenvalues --    0.07652   0.08675   0.09314   0.10030   0.10787
 Alpha virt. eigenvalues --    0.12026   0.12554   0.13609   0.14871   0.15043

 Mulliken charges:
               1
     1  C   -3.490373
     2  N   -2.276798
     3  C    3.980578
     4  O   -2.533582
     5  N   -2.410818
     6  C   -1.287119
     7  H    1.356008
     8  H    1.667030
     9  H    1.312980
    10  H   -0.175548
    11  H    0.720018
    12  H    0.099534
    13  H    1.391230
    14  H    1.646859
 Sum of Mulliken charges =  -0.00000

 Dipole moment (field-independent basis, Debye):
    X=              2.4853    Y=             -1.3160    Z=             -0.2340  Tot=              2.8219

 Test job not archived.
 1\1\GINC-SE127\SP\RHF\Aug-CC-pVDZ\C3H8N2O1\OHZDE\09-Apr-2025\0\\#t hf
 aug-cc-pvdz iop(5/13=1,5/36=2,99/5=2) pseudo=read geom=check guess=(re
 ad,tcheck) scf=(maxcycle=1)\\title\\0,1\C,0,-2.11020271,0.14680765,0.2
 8132164\N,0,-1.55809096,1.02248534,-0.72540921\C,0,-0.4751568,1.218235
 42,-1.23183657\O,0,0.50473517,1.53818147,-1.82960908\N,0,1.08662571,-1
 .12678625,0.22962902\C,0,2.15415502,-0.92430837,-0.4443283\H,0,-2.4059
 1537,0.73585375,1.16093121\H,0,-1.37502843,-0.61012472,0.57912323\H,0,
 -3.00952933,-0.34220652,-0.11703569\H,0,0.58634431,1.13749137,1.806275

 Normal termination of Gaussian 16 at Wed Apr  9 03:15:03 2025.
