 Gaussian 16, Revision C.01,

 ----------------------------------------------------------------------
 #t hf aug-cc-pvdz symm=none int=(grid=ultrafine) guess=(read,tcheck) s
 table=(opt,rrhf)
 ----------------------------------------------------------------------
 -----
 title
 -----
 Symbolic Z-matrix:
 Charge =  0 Multiplicity = 1

 SCF Done:  E(RHF) =  -305.472268096     A.U. after   15 cycles
 Normal termination of Gaussian 16 at Wed Apr  9 19:02:49 2025.
 Gaussian 16:  ES64L-G16RevC.01  3-Jul-2019

 ----------------------------------------------------------------------
 #t hf aug-cc-pvdz iop(5/13=1,5/36=2,99/5=2) pseudo=read geom=check gue
 ss=(read,tcheck) scf=(maxcycle=1)
 ----------------------------------------------------------------------
 -----
 title
 -----
 Structure from the checkpoint file:  "Grambow2020_wb97xd3_008026_reverse_mol2.chk"
 Charge =  0 Multiplicity = 1

                         Standard orientation:
 ---------------------------------------------------------------------
 Center     Atomic      Atomic             Coordinates (Angstroms)
 Number     Number       Type             X           Y           Z
 ---------------------------------------------------------------------
      1          8           0        1.538653   -0.676781   -0.387690
      2          6           0        0.413124   -1.507127   -0.032658
      3          6           0       -0.298697   -0.291929    0.600802
      4          6           0        0.906534    0.455576    0.061953
      5          6           0        1.303774    1.709157   -0.014284
      6          6           0       -1.611841    0.074524    0.103461
      7          6           0       -2.695388    0.370067   -0.309840
      8          1           0        2.244864    1.968850   -0.479022
      9          1           0       -0.077661   -1.909985   -0.918767
     10          1           0        0.703255   -2.305271    0.650180
     11          1           0       -0.303480   -0.329895    1.691264
     12          1           0        0.674762    2.492182    0.383804
     13          1           0       -3.655993    0.636755   -0.682550
 ---------------------------------------------------------------------

 SCF Done:  E(RHF) =  -306.879022516     A.U. after    2 cycles

 The electronic state is 1-A.
 Alpha  occ. eigenvalues --  -21.07263 -11.50485 -11.46509 -11.44117 -11.41447
 Alpha  occ. eigenvalues --  -11.41199 -11.37176  -1.81685  -1.21995  -1.10382
 Alpha  occ. eigenvalues --   -1.05683  -0.92745  -0.79685  -0.72949  -0.68594
 Alpha  occ. eigenvalues --   -0.66003  -0.62699  -0.56761  -0.51876  -0.48266
 Alpha  occ. eigenvalues --   -0.45774  -0.42055  -0.36670  -0.35513  -0.27428
 Alpha virt. eigenvalues --    0.03112   0.04774   0.05456   0.05765   0.06092
 Alpha virt. eigenvalues --    0.07028   0.09349   0.09891   0.10645   0.11222
 Alpha virt. eigenvalues --    0.11696   0.12649   0.13348   0.13844   0.14614

 Mulliken charges:
               1
     1  O   -3.308765
     2  C   -1.514976
     3  C   -3.677360
     4  C    5.407104
     5  C   -4.226643
     6  C    5.027494
     7  C   -5.093409
     8  H    1.420987
     9  H    1.534062
    10  H    1.508746
    11  H    0.794516
    12  H    1.331950
    13  H    0.796294
 Sum of Mulliken charges =  -0.00000

 Dipole moment (field-independent basis, Debye):
    X=             -0.5728    Y=             -1.1245    Z=              0.2927  Tot=              1.2955

 Test job not archived.
 1\1\GINC-SE113\SP\RHF\Aug-CC-pVDZ\C6H6O1\OHZDE\09-Apr-2025\0\\#t hf au
 g-cc-pvdz iop(5/13=1,5/36=2,99/5=2) pseudo=read geom=check guess=(read
 ,tcheck) scf=(maxcycle=1)\\title\\0,1\O,0,1.43771189,-1.10184588,0.343
 93156\C,0,1.60243129,0.31870516,0.15095714\C,0,0.13484367,0.43763498,-
 0.3145639\C,0,0.09998977,-1.03619703,0.04363645\C,0,-0.80645789,-1.990
 48064,0.09628082\C,0,-0.74587138,1.33938035,0.4045873\C,0,-1.4662798,2
 .08635417,1.00064022\H,0,-0.54455742,-2.99206129,0.40823597\H,0,1.8230
 2794,0.82376908,1.09148989\H,0,2.36425622,0.53604017,-0.59728484\H,0,0

 Normal termination of Gaussian 16 at Wed Apr  9 19:02:53 2025.
