 Gaussian 16, Revision C.01,

 ----------------------------------------------------------------------
 #t hf aug-cc-pvdz symm=none int=(grid=ultrafine) guess=(read,tcheck) s
 table=(opt,rrhf)
 ----------------------------------------------------------------------
 -----
 title
 -----
 Symbolic Z-matrix:
 Charge =  0 Multiplicity = 1

 SCF Done:  E(RHF) =  -302.296926802     A.U. after   14 cycles
 Normal termination of Gaussian 16 at Wed Apr  9 16:04:10 2025.
 Gaussian 16:  ES64L-G16RevC.01  3-Jul-2019

 ----------------------------------------------------------------------
 #t hf aug-cc-pvdz iop(5/13=1,5/36=2,99/5=2) pseudo=read geom=check gue
 ss=(read,tcheck) scf=(maxcycle=1)
 ----------------------------------------------------------------------
 -----
 title
 -----
 Structure from the checkpoint file:  "Grambow2020_b97d3_006707_forward_mol2.chk"
 Charge =  0 Multiplicity = 1

                         Standard orientation:
 ---------------------------------------------------------------------
 Center     Atomic      Atomic             Coordinates (Angstroms)
 Number     Number       Type             X           Y           Z
 ---------------------------------------------------------------------
      1          8           0       -2.814592   -0.464038    0.308932
      2          6           0       -2.037216    0.233426   -0.324956
      3          6           0       -0.605585    0.233301   -0.097733
      4          6           0        0.605511    0.231068    0.101397
      5          6           0        2.036579    0.224372    0.331468
      6          8           0        2.815448   -0.455054   -0.319927
      7          1           0       -2.370424    0.926136   -1.129617
      8          1           0        2.367837    0.893601    1.156526
 ---------------------------------------------------------------------

 SCF Done:  E(RHF) =  -303.568303388     A.U. after    2 cycles

 The electronic state is 1-A.
 Alpha  occ. eigenvalues --  -21.10385 -21.10374 -11.56035 -11.54502 -11.47130
 Alpha  occ. eigenvalues --  -11.46234  -1.73969  -1.73150  -1.18982  -1.02316
 Alpha  occ. eigenvalues --   -0.90435  -0.75000  -0.69977  -0.57522  -0.56370
 Alpha  occ. eigenvalues --   -0.52274  -0.51866  -0.39220  -0.38840  -0.34567
 Alpha  occ. eigenvalues --   -0.33146
 Alpha virt. eigenvalues --    0.02422   0.04480   0.07707   0.08036   0.08385
 Alpha virt. eigenvalues --    0.09633   0.10696   0.11192   0.11252   0.11552
 Alpha virt. eigenvalues --    0.12829   0.14019   0.16430   0.16455   0.19255

 Mulliken charges:
               1
     1  O   -2.465304
     2  C    0.177692
     3  C    1.257183
     4  C    1.260384
     5  C    0.176306
     6  O   -2.465658
     7  H    1.030077
     8  H    1.029322
 Sum of Mulliken charges =   0.00000

 Dipole moment (field-independent basis, Debye):
    X=             -0.0024    Y=              1.0723    Z=              0.0160  Tot=              1.0724

 Test job not archived.
 1\1\GINC-SE026\SP\RHF\Aug-CC-pVDZ\C4H2O2\OHZDE\09-Apr-2025\0\\#t hf au
 g-cc-pvdz iop(5/13=1,5/36=2,99/5=2) pseudo=read geom=check guess=(read
 ,tcheck) scf=(maxcycle=1)\\title\\0,1\O,0,-2.76454912,0.075234,0.82586
 658\C,0,-2.02082456,-0.40845095,-0.01407821\C,0,-0.60066923,-0.1241963
 ,-0.07369935\C,0,0.60066138,0.12275536,-0.12094299\C,0,2.02064605,0.40
 876704,-0.1736013\O,0,2.86661031,-0.30772365,0.33977775\H,0,-2.3785988
 4,-1.10798286,-0.80211782\H,0,2.27672401,1.34159736,-0.72366704\\Versi
 on=ES64L-G16RevC.01\State=1-A\HF=-303.5683034\RMSD=1.098e+00\Dipole=-0

 Normal termination of Gaussian 16 at Wed Apr  9 16:04:12 2025.
