 Gaussian 16, Revision C.01,

 ----------------------------------------------------------------------
 #t hf aug-cc-pvdz symm=none int=(grid=ultrafine) guess=(read,tcheck) s
 table=(opt,rrhf)
 ----------------------------------------------------------------------
 -----
 title
 -----
 Symbolic Z-matrix:
 Charge =  0 Multiplicity = 1

 SCF Done:  E(RHF) =  -234.065040445     A.U. after   15 cycles
 Normal termination of Gaussian 16 at Wed Apr  9 16:19:08 2025.
 Gaussian 16:  ES64L-G16RevC.01  3-Jul-2019

 ----------------------------------------------------------------------
 #t hf aug-cc-pvdz iop(5/13=1,5/36=2,99/5=2) pseudo=read geom=check gue
 ss=(read,tcheck) scf=(maxcycle=1)
 ----------------------------------------------------------------------
 -----
 title
 -----
 Structure from the checkpoint file:  "Grambow2020_b97d3_006792_forward_mol1.chk"
 Charge =  0 Multiplicity = 1

                         Standard orientation:
 ---------------------------------------------------------------------
 Center     Atomic      Atomic             Coordinates (Angstroms)
 Number     Number       Type             X           Y           Z
 ---------------------------------------------------------------------
      1          6           0        2.607519   -0.183599   -0.279883
      2          6           0        1.260442    0.201731    0.311173
      3          6           0       -0.654224    1.372093   -0.334346
      4          6           0       -1.119859    0.090720    0.373179
      5          6           0       -2.411161   -0.437467   -0.270790
      6          6           0        0.114589   -0.807843    0.158676
      7          1           0        2.518025   -0.414590   -1.350187
      8          1           0        2.973399   -1.091141    0.228648
      9          1           0        3.361724    0.604167   -0.150796
     10          1           0        1.346066    0.564682    1.343584
     11          1           0        0.830974    1.094064   -0.361686
     12          1           0       -0.624919    2.194659    0.419781
     13          1           0       -1.278953    0.196751    1.463538
     14          1           0       -2.708974   -1.391241    0.189301
     15          1           0       -3.240960    0.272549   -0.144058
     16          1           0       -2.255855   -0.591020   -1.347087
     17          1           0        0.182701   -1.670189    0.837373
     18          1           0        0.112924   -1.182497   -0.876468
 ---------------------------------------------------------------------

 SCF Done:  E(RHF) =  -235.276302885     A.U. after    2 cycles

 The electronic state is 1-A.
 Alpha  occ. eigenvalues --  -11.45822 -11.42515 -11.40037 -11.38853 -11.37585
 Alpha  occ. eigenvalues --  -11.35153  -1.31192  -1.12721  -1.00432  -0.93604
 Alpha  occ. eigenvalues --   -0.86232  -0.75601  -0.66393  -0.60955  -0.59992
 Alpha  occ. eigenvalues --   -0.56698  -0.55371  -0.53225  -0.48696  -0.48584
 Alpha  occ. eigenvalues --   -0.47323  -0.41347  -0.40683  -0.30969
 Alpha virt. eigenvalues --    0.03985   0.04939   0.05069   0.05612   0.05675
 Alpha virt. eigenvalues --    0.05870   0.06363   0.06668   0.07539   0.08193
 Alpha virt. eigenvalues --    0.08450   0.09612   0.11014   0.12779   0.12966

 Mulliken charges:
               1
     1  C   -4.203123
     2  C   -2.350053
     3  C   -2.490380
     4  C   -0.161575
     5  C   -4.238341
     6  C   -3.114708
     7  H    1.233523
     8  H    1.255588
     9  H    1.129827
    10  H    1.455213
    11  H    2.210642
    12  H    1.087492
    13  H    1.462645
    14  H    1.219226
    15  H    1.215123
    16  H    1.388687
    17  H    1.296523
    18  H    1.603691
 Sum of Mulliken charges =   0.00000

 Dipole moment (field-independent basis, Debye):
    X=              1.0989    Y=             -1.1511    Z=              1.8039  Tot=              2.4056

 Test job not archived.
 1\1\GINC-SE454\SP\RHF\Aug-CC-pVDZ\C6H12\OHZDE\09-Apr-2025\0\\#t hf aug
 -cc-pvdz iop(5/13=1,5/36=2,99/5=2) pseudo=read geom=check guess=(read,
 tcheck) scf=(maxcycle=1)\\title\\0,1\C,0,-2.55282252,0.0437129,0.38903
 424\C,0,-1.20716415,0.34259254,-0.25308529\C,0,0.80621506,1.37582774,0
 .32234282\C,0,1.15588274,0.0721732,-0.41082915\C,0,2.43294091,-0.54725
 964,0.17786779\C,0,-0.12704658,-0.74308848,-0.15250645\H,0,-2.43696794
 ,-0.20200145,1.45351489\H,0,-2.99899575,-0.83272543,-0.10985183\H,0,-3
 .25656258,0.88153709,0.29487713\H,0,-1.3087447,0.7193752,-1.27907383\H

 Normal termination of Gaussian 16 at Wed Apr  9 16:19:14 2025.
