 Gaussian 16, Revision C.01,

 ----------------------------------------------------------------------
 #t hf aug-cc-pvdz symm=none int=(grid=ultrafine) guess=(read,tcheck) s
 table=(opt,rrhf)
 ----------------------------------------------------------------------
 -----
 title
 -----
 Symbolic Z-matrix:
 Charge =  0 Multiplicity = 1

 SCF Done:  E(RHF) =  -306.724983265     A.U. after   14 cycles
 Normal termination of Gaussian 16 at Wed Apr  9 03:59:42 2025.
 Gaussian 16:  ES64L-G16RevC.01  3-Jul-2019

 ----------------------------------------------------------------------
 #t hf aug-cc-pvdz iop(5/13=1,5/36=2,99/5=2) pseudo=read geom=check gue
 ss=(read,tcheck) scf=(maxcycle=1)
 ----------------------------------------------------------------------
 -----
 title
 -----
 Structure from the checkpoint file:  "Grambow2020_wb97xd3_008780_reverse_mol2.chk"
 Charge =  0 Multiplicity = 1

                         Standard orientation:
 ---------------------------------------------------------------------
 Center     Atomic      Atomic             Coordinates (Angstroms)
 Number     Number       Type             X           Y           Z
 ---------------------------------------------------------------------
      1          8           0       -0.349680   -1.133127   -0.227847
      2          6           0       -1.047055    0.019497   -0.020621
      3          6           0       -2.377976   -0.016387   -0.010086
      4          6           0        0.966201   -1.165479    0.307950
      5          6           0        1.810002   -0.008580   -0.193533
      6          6           0        1.051996    1.270874   -0.009679
      7          6           0       -0.272450    1.257427    0.101189
      8          1           0       -2.944576    0.898691    0.084556
      9          1           0       -2.908082   -0.952381   -0.119326
     10          1           0        0.909688   -1.138381    1.402909
     11          1           0        1.376942   -2.128782    0.008138
     12          1           0        2.753179    0.016769    0.358462
     13          1           0        2.065683   -0.149959   -1.249205
     14          1           0        1.598100    2.206455    0.032769
     15          1           0       -0.837802    2.168487    0.253148
 ---------------------------------------------------------------------

 SCF Done:  E(RHF) =  -308.163357911     A.U. after    2 cycles

 The electronic state is 1-A.
 Alpha  occ. eigenvalues --  -21.05977 -11.47299 -11.44937 -11.43186 -11.40075
 Alpha  occ. eigenvalues --  -11.38091 -11.36520  -1.78895  -1.24027  -1.16433
 Alpha  occ. eigenvalues --   -1.01636  -0.91620  -0.84213  -0.71849  -0.69086
 Alpha  occ. eigenvalues --   -0.63792  -0.61870  -0.55544  -0.54644  -0.52910
 Alpha  occ. eigenvalues --   -0.50842  -0.49011  -0.45007  -0.36998  -0.33261
 Alpha  occ. eigenvalues --   -0.26476
 Alpha virt. eigenvalues --    0.03564   0.04973   0.05258   0.05696   0.05924
 Alpha virt. eigenvalues --    0.06384   0.06786   0.07881   0.10336   0.11240
 Alpha virt. eigenvalues --    0.11820   0.12099   0.13503   0.13780   0.14272

 Mulliken charges:
               1
     1  O   -4.030575
     2  C    5.041650
     3  C   -5.052148
     4  C   -1.895063
     5  C   -4.081219
     6  C   -0.017151
     7  C   -1.166279
     8  H    1.471990
     9  H    1.494377
    10  H    1.577969
    11  H    1.278169
    12  H    1.213259
    13  H    1.240086
    14  H    1.372550
    15  H    1.552385
 Sum of Mulliken charges =  -0.00000

 Dipole moment (field-independent basis, Debye):
    X=              1.6094    Y=              0.1675    Z=              0.1193  Tot=              1.6225

 Test job not archived.
 1\1\GINC-SE252\SP\RHF\Aug-CC-pVDZ\C6H8O1\OHZDE\09-Apr-2025\0\\#t hf au
 g-cc-pvdz iop(5/13=1,5/36=2,99/5=2) pseudo=read geom=check guess=(read
 ,tcheck) scf=(maxcycle=1)\\title\\0,1\O,0,-1.02924888,-0.51695602,0.65
 467892\C,0,-0.11248042,-1.17646639,-0.1084727\C,0,-0.25643683,-2.48363
 739,-0.31663089\C,0,-1.16487259,0.87380219,0.3957088\C,0,0.15977142,1.
 60366951,0.5161739\C,0,1.19696173,0.87917257,-0.28676934\C,0,1.0344011
 3,-0.40387875,-0.59333642\H,0,0.49797055,-3.03247004,-0.86161926\H,0,-
 1.11234952,-3.01618423,0.07431441\H,0,-1.57738864,1.01389255,-0.610803

 Normal termination of Gaussian 16 at Wed Apr  9 03:59:46 2025.
