 Gaussian 16, Revision C.01,

 ----------------------------------------------------------------------
 #t hf aug-cc-pvdz symm=none int=(grid=ultrafine) guess=(read,tcheck) s
 table=(opt,rrhf)
 ----------------------------------------------------------------------
 -----
 title
 -----
 Symbolic Z-matrix:
 Charge =  0 Multiplicity = 1

 SCF Done:  E(RHF) =  -266.661151683     A.U. after   15 cycles
 Normal termination of Gaussian 16 at Wed Apr  9 03:09:40 2025.
 Gaussian 16:  ES64L-G16RevC.01  3-Jul-2019

 ----------------------------------------------------------------------
 #t hf aug-cc-pvdz iop(5/13=1,5/36=2,99/5=2) pseudo=read geom=check gue
 ss=(read,tcheck) scf=(maxcycle=1)
 ----------------------------------------------------------------------
 -----
 title
 -----
 Structure from the checkpoint file:  "Grambow2020_b97d3_006693_reverse_mol2.chk"
 Charge =  0 Multiplicity = 1

                         Standard orientation:
 ---------------------------------------------------------------------
 Center     Atomic      Atomic             Coordinates (Angstroms)
 Number     Number       Type             X           Y           Z
 ---------------------------------------------------------------------
      1          6           0       -0.501642    1.102940    0.143823
      2          6           0       -1.252748   -0.206960    0.048935
      3          8           0       -0.119062   -1.179234    0.077168
      4          6           0        0.922940   -0.503503   -0.412984
      5          8           0        0.758088    0.779342   -0.420646
      6          1           0        0.986613    0.494272    2.269266
      7          1           0       -0.902949    1.989357   -0.346420
      8          1           0       -1.893936   -0.441433    0.905991
      9          1           0       -1.813888   -0.406937   -0.894269
     10          1           0        1.589365    0.158872    2.564269
     11          1           0        1.911284   -0.949864   -0.429665
 ---------------------------------------------------------------------

 SCF Done:  E(RHF) =  -267.853891590     A.U. after    2 cycles

 The electronic state is 1-A.
 Alpha  occ. eigenvalues --  -21.16743 -21.12850 -11.53625 -11.44891 -11.34712
 Alpha  occ. eigenvalues --   -1.94234  -1.72890  -1.11141  -0.89316  -0.83918
 Alpha  occ. eigenvalues --   -0.74934  -0.67288  -0.60014  -0.57089  -0.56585
 Alpha  occ. eigenvalues --   -0.52768  -0.44823  -0.42877  -0.40467  -0.23420
 Alpha virt. eigenvalues --    0.03256   0.05299   0.06052   0.06276   0.07000
 Alpha virt. eigenvalues --    0.08524   0.09228   0.10238   0.10660   0.13321
 Alpha virt. eigenvalues --    0.14118   0.14516   0.15025   0.15570   0.15962

 Mulliken charges:
               1
     1  C   -0.665555
     2  C   -2.020403
     3  O   -2.541555
     4  C    2.080845
     5  O   -2.703062
     6  H   -0.306359
     7  H    1.374376
     8  H    1.445658
     9  H    1.349104
    10  H    0.183233
    11  H    1.803718
 Sum of Mulliken charges =   0.00000

 Dipole moment (field-independent basis, Debye):
    X=              0.5138    Y=             -1.6953    Z=             -1.3159  Tot=              2.2067

 Test job not archived.
 1\1\GINC-SE365\SP\RHF\Aug-CC-pVDZ\C3H6O2\OHZDE\09-Apr-2025\0\\#t hf au
 g-cc-pvdz iop(5/13=1,5/36=2,99/5=2) pseudo=read geom=check guess=(read
 ,tcheck) scf=(maxcycle=1)\\title\\0,1\C,0,0.60410688,0.84171511,0.4685
 5616\C,0,1.14338448,-0.51938049,0.08698082\O,0,-0.12043162,-1.22449464
 ,-0.2830741\C,0,-1.0739516,-0.60805211,0.41937045\O,0,-0.71867872,0.54
 54877,0.8841844\H,0,-0.84138659,1.26885997,-1.72939304\H,0,1.10701687,
 1.42164206,1.24178897\H,0,1.78749772,-0.53544904,-0.79930604\H,0,1.616
 11925,-1.12641067,0.89477977\H,0,-1.47084875,1.16016398,-2.12282961\H,

 Normal termination of Gaussian 16 at Wed Apr  9 03:09:43 2025.
