 Gaussian 16, Revision C.01,

 ----------------------------------------------------------------------
 #t hf aug-cc-pvdz symm=none int=(grid=ultrafine) guess=(read,tcheck) s
 table=(opt,rrhf)
 ----------------------------------------------------------------------
 -----
 title
 -----
 Symbolic Z-matrix:
 Charge =  0 Multiplicity = 1

 SCF Done:  E(RHF) =  -344.717657121     A.U. after   14 cycles

 1\1\GINC-SE437\Stability\RHF\Aug-CC-pVDZ\C5H10O2\OHZDE\09-Apr-2025\0\\
 #t hf aug-cc-pvdz symm=none int=(grid=ultrafine) guess=(read,tcheck) s
 table=(opt,rrhf)\\title\\0,1\C,0,2.21533723,0.52240104,-0.95634125\C,0
 ,1.07272427,-0.26739213,-0.66856759\C,0,0.64742669,-0.23038671,1.46617
 635\O,0,-0.69639159,0.13598082,1.27877323\C,0,-1.1146491,-0.29066932,0
 .02510887\C,0,-2.46265873,0.28031253,-0.30447423\O,0,-0.15907075,0.195
 35439,-0.91375942\H,0,3.12099032,0.02239837,-1.26167565\H,0,1.73616514
 ,0.26045139,0.37330018\H,0,2.06686851,1.5694023,-1.17371958\H,0,1.1906

 Normal termination of Gaussian 16 at Wed Apr  9 03:34:32 2025.
 Gaussian 16:  ES64L-G16RevC.01  3-Jul-2019

 ----------------------------------------------------------------------
 #t hf aug-cc-pvdz iop(5/13=1,5/36=2,99/5=2) pseudo=read geom=check gue
 ss=(read,tcheck) scf=(maxcycle=1)
 ----------------------------------------------------------------------
 -----
 title
 -----
 Structure from the checkpoint file:  "Grambow2020_wb97xd3_007111_reverse_mol1.chk"
 Charge =  0 Multiplicity = 1

                         Standard orientation:
 ---------------------------------------------------------------------
 Center     Atomic      Atomic             Coordinates (Angstroms)
 Number     Number       Type             X           Y           Z
 ---------------------------------------------------------------------
      1          6           0        2.426067   -0.644818   -0.325342
      2          6           0        1.234691   -0.420240    0.411093
      3          6           0        0.472176    1.581305    0.021514
      4          8           0       -0.815423    1.120237   -0.302057
      5          6           0       -1.035797   -0.096952    0.329235
      6          6           0       -2.300074   -0.730765   -0.172422
      7          8           0        0.069080   -0.935221    0.001558
      8          1           0        3.357677   -0.712249    0.214097
      9          1           0        1.733346    0.614052   -0.285933
     10          1           0        2.337938   -1.053098   -1.320857
     11          1           0        1.321212   -0.188113    1.472213
     12          1           0        0.820059    2.237029   -0.781382
     13          1           0        0.496060    2.098060    0.989460
     14          1           0       -1.042183    0.036022    1.425279
     15          1           0       -2.221810   -0.897072   -1.246449
     16          1           0       -2.474850   -1.681729    0.329453
     17          1           0       -3.139090   -0.064208    0.023637
 ---------------------------------------------------------------------

 SCF Done:  E(RHF) =  -346.335335004     A.U. after    2 cycles

 The electronic state is 1-A.
 Alpha  occ. eigenvalues --  -21.09097 -21.05242 -11.52294 -11.48796 -11.38424
 Alpha  occ. eigenvalues --  -11.37381 -11.36080  -1.87831  -1.71046  -1.19992
 Alpha  occ. eigenvalues --   -1.10075  -0.94416  -0.86963  -0.84443  -0.71789
 Alpha  occ. eigenvalues --   -0.68156  -0.64715  -0.61506  -0.58004  -0.55755
 Alpha  occ. eigenvalues --   -0.52756  -0.51298  -0.47944  -0.45841  -0.41297
 Alpha  occ. eigenvalues --   -0.35805  -0.33145  -0.21902
 Alpha virt. eigenvalues --    0.04056   0.04825   0.04997   0.05414   0.05547
 Alpha virt. eigenvalues --    0.05840   0.06745   0.06963   0.08354   0.08452
 Alpha virt. eigenvalues --    0.11537   0.12499   0.13284   0.13509   0.14032

 Mulliken charges:
               1
     1  C   -3.862598
     2  C    0.796889
     3  C   -2.207502
     4  O   -3.197481
     5  C    1.877286
     6  C   -3.988071
     7  O   -3.554065
     8  H    1.151925
     9  H    2.769484
    10  H    1.265043
    11  H    1.385035
    12  H    0.898515
    13  H    1.346858
    14  H    1.705166
    15  H    1.232029
    16  H    1.195233
    17  H    1.186254
 Sum of Mulliken charges =  -0.00000

 Dipole moment (field-independent basis, Debye):
    X=             -0.9444    Y=             -0.6998    Z=              0.9622  Tot=              1.5191

 Test job not archived.
 1\1\GINC-SE437\SP\RHF\Aug-CC-pVDZ\C5H10O2\OHZDE\09-Apr-2025\0\\#t hf a
 ug-cc-pvdz iop(5/13=1,5/36=2,99/5=2) pseudo=read geom=check guess=(rea
 d,tcheck) scf=(maxcycle=1)\\title\\0,1\C,0,2.21533723,0.52240104,-0.95
 634125\C,0,1.07272427,-0.26739213,-0.66856759\C,0,0.64742669,-0.230386
 71,1.46617635\O,0,-0.69639159,0.13598082,1.27877323\C,0,-1.1146491,-0.
 29066932,0.02510887\C,0,-2.46265873,0.28031253,-0.30447423\O,0,-0.1590
 7075,0.19535439,-0.91375942\H,0,3.12099032,0.02239837,-1.26167565\H,0,
 1.73616514,0.26045139,0.37330018\H,0,2.06686851,1.5694023,-1.17371958\

 Normal termination of Gaussian 16 at Wed Apr  9 03:34:37 2025.
