 Gaussian 16, Revision C.01,

 ----------------------------------------------------------------------
 #t hf aug-cc-pvdz symm=none int=(grid=ultrafine) guess=(read,tcheck) s
 table=(opt,rrhf)
 ----------------------------------------------------------------------
 -----
 title
 -----
 Symbolic Z-matrix:
 Charge =  0 Multiplicity = 1

 SCF Done:  E(RHF) =  -268.684703514     A.U. after   15 cycles
 Normal termination of Gaussian 16 at Wed Apr  9 17:49:51 2025.
 Gaussian 16:  ES64L-G16RevC.01  3-Jul-2019

 ----------------------------------------------------------------------
 #t hf aug-cc-pvdz iop(5/13=1,5/36=2,99/5=2) pseudo=read geom=check gue
 ss=(read,tcheck) scf=(maxcycle=1)
 ----------------------------------------------------------------------
 -----
 title
 -----
 Structure from the checkpoint file:  "Grambow2020_wb97xd3_006195_reverse_mol1.chk"
 Charge =  0 Multiplicity = 1

                         Standard orientation:
 ---------------------------------------------------------------------
 Center     Atomic      Atomic             Coordinates (Angstroms)
 Number     Number       Type             X           Y           Z
 ---------------------------------------------------------------------
      1          6           0       -1.725718    0.764631    0.071655
      2          6           0       -1.825541   -0.727804    0.110358
      3          6           0       -0.595772   -0.073498   -0.449309
      4          6           0        0.668587   -0.159773    0.325405
      5          6           0        1.865221   -0.827010   -0.219500
      6          8           0        1.642762    0.877998    0.061843
      7          1           0       -1.572675    1.287487    1.007485
      8          1           0       -2.326017    1.302868   -0.648974
      9          1           0       -2.492363   -1.221390   -0.583165
     10          1           0       -1.743437   -1.216737    1.073292
     11          1           0       -0.458533   -0.117605   -1.523389
     12          1           0        0.519284   -0.201706    1.404464
     13          1           0        2.543143   -1.132322    0.583687
     14          1           0        2.067836    0.416150   -0.839803
 ---------------------------------------------------------------------

 SCF Done:  E(RHF) =  -269.964723702     A.U. after    2 cycles

 The electronic state is 1-A.
 Alpha  occ. eigenvalues --  -21.09654 -11.48840 -11.42374 -11.41198 -11.40119
 Alpha  occ. eigenvalues --  -11.36860  -1.78603  -1.31986  -1.04012  -0.91167
 Alpha  occ. eigenvalues --   -0.86833  -0.82412  -0.68495  -0.68397  -0.60511
 Alpha  occ. eigenvalues --   -0.56782  -0.51745  -0.50730  -0.46733  -0.41537
 Alpha  occ. eigenvalues --   -0.36591  -0.35428  -0.31768
 Alpha virt. eigenvalues --    0.04227   0.05266   0.05642   0.05721   0.05851
 Alpha virt. eigenvalues --    0.06279   0.06765   0.07764   0.10270   0.11309
 Alpha virt. eigenvalues --    0.12331   0.13358   0.13594   0.14415   0.15165

 Mulliken charges:
               1
     1  C   -2.196556
     2  C   -2.068948
     3  C   -0.477284
     4  C   -0.353167
     5  C   -2.294391
     6  O   -2.463652
     7  H    1.343129
     8  H    1.136920
     9  H    1.170101
    10  H    1.298219
    11  H    1.220224
    12  H    1.380125
    13  H    1.148776
    14  H    1.156502
 Sum of Mulliken charges =   0.00000

 Dipole moment (field-independent basis, Debye):
    X=             -1.1543    Y=              1.4155    Z=              1.3162  Tot=              2.2513

 Test job not archived.
 1\1\GINC-SE229\SP\RHF\Aug-CC-pVDZ\C5H8O1\OHZDE\09-Apr-2025\0\\#t hf au
 g-cc-pvdz iop(5/13=1,5/36=2,99/5=2) pseudo=read geom=check guess=(read
 ,tcheck) scf=(maxcycle=1)\\title\\0,1\C,0,-1.66341789,-0.30911977,-0.1
 0856994\C,0,-1.22130041,1.10520895,-0.31600665\C,0,-0.39521083,0.17816
 834,0.5277023\C,0,0.91328704,-0.28536435,-0.00069373\C,0,2.17920223,0.
 02474891,0.68876071\O,0,1.40890368,-1.53137729,0.54452598\H,0,-1.57543
 274,-0.99568536,-0.94131596\H,0,-2.51061061,-0.49487573,0.53728125\H,0
 ,-1.76047534,1.89639459,0.18655684\H,0,-0.83648024,1.37842688,-1.29084

 Normal termination of Gaussian 16 at Wed Apr  9 17:49:55 2025.
