 Gaussian 16, Revision C.01,

 ----------------------------------------------------------------------
 #t hf aug-cc-pvdz symm=none int=(grid=ultrafine) guess=(read,tcheck) s
 table=(opt,rrhf)
 ----------------------------------------------------------------------
 -----
 title
 -----
 Symbolic Z-matrix:
 Charge =  0 Multiplicity = 1

 SCF Done:  E(RHF) =  -359.662874772     A.U. after   17 cycles
 Normal termination of Gaussian 16 at Wed Apr  9 03:46:35 2025.
 Gaussian 16:  ES64L-G16RevC.01  3-Jul-2019

 ----------------------------------------------------------------------
 #t hf aug-cc-pvdz iop(5/13=1,5/36=2,99/5=2) pseudo=read geom=check gue
 ss=(read,tcheck) scf=(maxcycle=1)
 ----------------------------------------------------------------------
 -----
 title
 -----
 Structure from the checkpoint file:  "Grambow2020_wb97xd3_007890_reverse_mol2.chk"
 Charge =  0 Multiplicity = 1

                         Standard orientation:
 ---------------------------------------------------------------------
 Center     Atomic      Atomic             Coordinates (Angstroms)
 Number     Number       Type             X           Y           Z
 ---------------------------------------------------------------------
      1          6           0       -1.729101    1.389875   -0.101250
      2          6           0       -0.643010    0.378483    0.059509
      3          7           0       -0.979063   -1.014331    0.003625
      4          8           0       -2.156122   -1.235165   -0.111655
      5          6           0        0.651601    0.649252    0.256307
      6          6           0        1.762750   -0.338967    0.438505
      7          8           0        2.848026   -0.033987   -0.418645
      8          1           0       -2.472683    1.285783    0.690650
      9          1           0       -1.318251    2.397681   -0.072523
     10          1           0       -2.254918    1.245130   -1.046304
     11          1           0        2.583708   -0.228502   -1.319944
     12          1           0        0.965482    1.689824    0.281981
     13          1           0        2.151358   -0.245369    1.455800
     14          1           0        1.410068   -1.362877    0.308939
 ---------------------------------------------------------------------

 SCF Done:  E(RHF) =  -361.270311992     A.U. after    2 cycles

 The electronic state is 1-A.
 Alpha  occ. eigenvalues --  -21.11728 -21.08225 -15.85598 -11.48614 -11.45078
 Alpha  occ. eigenvalues --  -11.41687 -11.39019  -1.86333  -1.72492  -1.28430
 Alpha  occ. eigenvalues --   -1.07779  -1.03994  -0.91631  -0.74762  -0.69231
 Alpha  occ. eigenvalues --   -0.65673  -0.61264  -0.59821  -0.56853  -0.54268
 Alpha  occ. eigenvalues --   -0.52856  -0.52033  -0.49573  -0.42239  -0.35935
 Alpha  occ. eigenvalues --   -0.32514  -0.27377
 Alpha virt. eigenvalues --    0.03421   0.05122   0.05525   0.05720   0.06414
 Alpha virt. eigenvalues --    0.06647   0.07703   0.09062   0.10063   0.11673
 Alpha virt. eigenvalues --    0.12271   0.13220   0.13786   0.14159   0.15385

 Mulliken charges:
               1
     1  C   -4.515459
     2  C    2.518821
     3  N    0.324579
     4  O   -2.420184
     5  C   -0.218912
     6  C   -1.600179
     7  O   -2.490987
     8  H    1.205919
     9  H    1.239705
    10  H    1.230954
    11  H    0.743916
    12  H    1.413154
    13  H    1.244388
    14  H    1.324285
 Sum of Mulliken charges =  -0.00000

 Dipole moment (field-independent basis, Debye):
    X=             -0.0681    Y=              1.2841    Z=             -0.0591  Tot=              1.2873

 Test job not archived.
 1\1\GINC-SE159\SP\RHF\Aug-CC-pVDZ\C4H7N1O2\OHZDE\09-Apr-2025\0\\#t hf
 aug-cc-pvdz iop(5/13=1,5/36=2,99/5=2) pseudo=read geom=check guess=(re
 ad,tcheck) scf=(maxcycle=1)\\title\\0,1\C,0,-1.69213829,-1.04344647,-0
 .61439775\C,0,-0.67188928,-0.0653624,-0.13398779\N,0,-1.11176837,1.114
 474,0.55192555\O,0,-2.30734927,1.23030331,0.62045695\C,0,0.65171977,-0
 .1826515,-0.28353526\C,0,1.70055169,0.78620594,0.16999775\O,0,2.719323
 16,0.11786537,0.89177908\H,0,-2.36324289,-0.57634052,-1.33709195\H,0,-
 1.20845865,-1.90007027,-1.08081645\H,0,-2.31390186,-1.39049921,0.21235

 Normal termination of Gaussian 16 at Wed Apr  9 03:46:43 2025.
