 Gaussian 16, Revision C.01,

 ----------------------------------------------------------------------
 #t hf aug-cc-pvdz symm=none int=(grid=ultrafine) guess=(read,tcheck) s
 table=(opt,rrhf)
 ----------------------------------------------------------------------
 -----
 title
 -----
 Symbolic Z-matrix:
 Charge =  0 Multiplicity = 1

 SCF Done:  E(RHF) =  -304.629641185     A.U. after   15 cycles
 Normal termination of Gaussian 16 at Wed Apr  9 03:14:51 2025.
 Gaussian 16:  ES64L-G16RevC.01  3-Jul-2019

 ----------------------------------------------------------------------
 #t hf aug-cc-pvdz iop(5/13=1,5/36=2,99/5=2) pseudo=read geom=check gue
 ss=(read,tcheck) scf=(maxcycle=1)
 ----------------------------------------------------------------------
 -----
 title
 -----
 Structure from the checkpoint file:  "Grambow2020_b97d3_006926_reverse_mol2.chk"
 Charge =  0 Multiplicity = 1

                         Standard orientation:
 ---------------------------------------------------------------------
 Center     Atomic      Atomic             Coordinates (Angstroms)
 Number     Number       Type             X           Y           Z
 ---------------------------------------------------------------------
      1          8           0        1.558525    1.286511   -0.162049
      2          6           0        1.090338    0.166440   -0.158309
      3          6           0        0.954064   -1.070251    0.651844
      4          6           0       -0.033814   -0.708056   -0.545606
      5          8           0       -1.390455   -0.418122   -0.440093
      6          6           0       -1.715577    0.683973    0.409939
      7          1           0       -1.254081    1.619001    0.057688
      8          1           0        1.544226   -1.971217    0.472096
      9          1           0        0.680095   -0.919870    1.699977
     10          1           0        0.127095   -1.383942   -1.388656
     11          1           0       -1.405626    0.500091    1.452271
     12          1           0       -2.806333    0.776195    0.376541
 ---------------------------------------------------------------------

 SCF Done:  E(RHF) =  -305.976388203     A.U. after    2 cycles

 The electronic state is 1-A.
 Alpha  occ. eigenvalues --  -21.08024 -21.07457 -11.50805 -11.48352 -11.41598
 Alpha  occ. eigenvalues --  -11.41495  -1.77762  -1.70343  -1.25746  -1.01117
 Alpha  occ. eigenvalues --   -0.87230  -0.76859  -0.68197  -0.62806  -0.60186
 Alpha  occ. eigenvalues --   -0.58797  -0.56254  -0.51988  -0.47454  -0.43090
 Alpha  occ. eigenvalues --   -0.42626  -0.30928  -0.26211
 Alpha virt. eigenvalues --    0.03206   0.05032   0.05371   0.05490   0.07169
 Alpha virt. eigenvalues --    0.07576   0.08923   0.10263   0.11174   0.12248
 Alpha virt. eigenvalues --    0.12908   0.13678   0.14484   0.15075   0.15603

 Mulliken charges:
               1
     1  O   -2.862055
     2  C    3.080796
     3  C   -2.821225
     4  C    1.048199
     5  O   -3.481930
     6  C   -2.993128
     7  H    1.361206
     8  H    1.261937
     9  H    1.313646
    10  H    1.448980
    11  H    1.390156
    12  H    1.253418
 Sum of Mulliken charges =   0.00000

 Dipole moment (field-independent basis, Debye):
    X=             -0.8573    Y=             -0.8250    Z=              0.3138  Tot=              1.2304

 Test job not archived.
 1\1\GINC-SE029\SP\RHF\Aug-CC-pVDZ\C4H6O2\OHZDE\09-Apr-2025\0\\#t hf au
 g-cc-pvdz iop(5/13=1,5/36=2,99/5=2) pseudo=read geom=check guess=(read
 ,tcheck) scf=(maxcycle=1)\\title\\0,1\O,0,-0.70934126,-1.76283947,-1.2
 8379441\C,0,-0.93924861,-0.70385685,-0.73655456\C,0,-1.49029307,-0.090
 35021,0.49806343\C,0,-0.49669,0.68084613,-0.48121247\O,0,0.7958463,1.1
 0187206,-0.18497327\C,0,1.6971988,0.06926071,0.22018003\H,0,1.82175035
 ,-0.6925176,-0.56436896\H,0,-2.48461009,0.35784371,0.55094273\H,0,-1.1
 5332064,-0.53705682,1.43782927\H,0,-1.02530391,1.47888773,-1.00765727\

 Normal termination of Gaussian 16 at Wed Apr  9 03:14:54 2025.
