 Gaussian 16, Revision C.01,

 ----------------------------------------------------------------------
 #t hf aug-cc-pvdz symm=none int=(grid=ultrafine) guess=(read,tcheck) s
 table=(opt,rrhf)
 ----------------------------------------------------------------------
 -----
 title
 -----
 Symbolic Z-matrix:
 Charge =  0 Multiplicity = 1

 SCF Done:  E(RHF) =  -191.817603098     A.U. after   14 cycles
 Normal termination of Gaussian 16 at Wed Apr  9 03:21:18 2025.
 Gaussian 16:  ES64L-G16RevC.01  3-Jul-2019

 ----------------------------------------------------------------------
 #t hf aug-cc-pvdz iop(5/13=1,5/36=2,99/5=2) pseudo=read geom=check gue
 ss=(read,tcheck) scf=(maxcycle=1)
 ----------------------------------------------------------------------
 -----
 title
 -----
 Structure from the checkpoint file:  "Grambow2020_wb97xd3_006094_reverse_mol1.chk"
 Charge =  0 Multiplicity = 1

                         Standard orientation:
 ---------------------------------------------------------------------
 Center     Atomic      Atomic             Coordinates (Angstroms)
 Number     Number       Type             X           Y           Z
 ---------------------------------------------------------------------
      1          6           0       -1.574079    0.025367   -0.197539
      2          6           0       -0.223751   -0.334604    0.365541
      3          6           0        1.473806   -0.261747   -0.462632
      4          8           0        0.714352    0.716624    0.158941
      5          1           0       -1.953583    0.909526    0.315555
      6          1           0       -2.279515   -0.795183   -0.060752
      7          1           0       -1.485654    0.250197   -1.259809
      8          1           0       -0.206662   -0.662449    1.404968
      9          1           0        1.993654   -0.800938    0.375936
     10          1           0        0.161080   -1.208239   -0.279646
 ---------------------------------------------------------------------

 SCF Done:  E(RHF) =  -192.702457966     A.U. after    2 cycles

 The electronic state is 1-A.
 Alpha  occ. eigenvalues --  -21.07711 -11.47735 -11.43717 -11.38978  -1.80605
 Alpha  occ. eigenvalues --   -1.14119  -0.93240  -0.86916  -0.69262  -0.60544
 Alpha  occ. eigenvalues --   -0.56255  -0.54090  -0.50632  -0.46051  -0.41650
 Alpha  occ. eigenvalues --   -0.27139
 Alpha virt. eigenvalues --    0.03611   0.05195   0.05639   0.06004   0.06752
 Alpha virt. eigenvalues --    0.06835   0.10130   0.11048   0.11795   0.12633
 Alpha virt. eigenvalues --    0.13892   0.15251   0.16054   0.16738   0.18227

 Mulliken charges:
               1
     1  C   -3.195647
     2  C   -1.485113
     3  C   -0.835061
     4  O   -2.292792
     5  H    1.221449
     6  H    1.177553
     7  H    1.196797
     8  H    1.295118
     9  H    1.143505
    10  H    1.774190
 Sum of Mulliken charges =  -0.00000

 Dipole moment (field-independent basis, Debye):
    X=             -1.8368    Y=             -0.0791    Z=              1.8671  Tot=              2.6204

 Test job not archived.
 1\1\GINC-SE162\SP\RHF\Aug-CC-pVDZ\C3H6O1\OHZDE\09-Apr-2025\0\\#t hf au
 g-cc-pvdz iop(5/13=1,5/36=2,99/5=2) pseudo=read geom=check guess=(read
 ,tcheck) scf=(maxcycle=1)\\title\\0,1\C,0,-1.24636436,0.27283312,0.208
 55022\C,0,0.08646831,-0.22898586,-0.28313812\C,0,1.81518371,0.09998018
 ,0.4069361\O,0,0.83814546,-0.81018326,0.77751815\H,0,-1.82416992,-0.56
 520281,0.59952802\H,0,-1.80449991,0.74160165,-0.60286385\H,0,-1.098379
 69,0.99727546,1.00859432\H,0,0.06231715,-0.89685699,-1.14427029\H,0,2.
 34018378,-0.37789897,-0.46494197\H,0,0.68022148,0.7097855,-0.58934657\

 Normal termination of Gaussian 16 at Wed Apr  9 03:21:20 2025.
