 Gaussian 16, Revision C.01,

 ----------------------------------------------------------------------
 #t hf aug-cc-pvdz symm=none int=(grid=ultrafine) guess=(read,tcheck) s
 table=(opt,rrhf)
 ----------------------------------------------------------------------
 -----
 title
 -----
 Symbolic Z-matrix:
 Charge =  0 Multiplicity = 1

 SCF Done:  E(RHF) =  -353.349070417     A.U. after   20 cycles
 Normal termination of Gaussian 16 at Wed Apr  9 18:57:29 2025.
 Gaussian 16:  ES64L-G16RevC.01  3-Jul-2019

 ----------------------------------------------------------------------
 #t hf aug-cc-pvdz iop(5/13=1,5/36=2,99/5=2) pseudo=read geom=check gue
 ss=(read,tcheck) scf=(maxcycle=1)
 ----------------------------------------------------------------------
 -----
 title
 -----
 Structure from the checkpoint file:  "Grambow2020_wb97xd3_007949_reverse_mol1.chk"
 Charge =  0 Multiplicity = 1

                         Standard orientation:
 ---------------------------------------------------------------------
 Center     Atomic      Atomic             Coordinates (Angstroms)
 Number     Number       Type             X           Y           Z
 ---------------------------------------------------------------------
      1          8           0        2.141260   -0.233000   -0.160249
      2          6           0        0.864870    0.078516   -0.047372
      3          6           0        0.269691    1.274300   -0.179926
      4          7           0       -0.898414    0.852847    0.523063
      5          7           0       -1.694354    0.178635   -0.345377
      6          6           0       -1.192873   -0.994894   -0.186979
      7          7           0        0.021870   -0.961290    0.452934
      8          1           0        2.224285   -1.147968    0.142497
      9          1           0        0.633098    2.284677   -0.239451
     10          1           0       -1.641308   -1.911582   -0.549716
 ---------------------------------------------------------------------

 SCF Done:  E(RHF) =  -354.886953701     A.U. after    2 cycles

 The electronic state is 1-A.
 Alpha  occ. eigenvalues --  -21.13893 -15.90310 -15.77648 -15.73135 -11.52113
 Alpha  occ. eigenvalues --  -11.46882 -11.41588  -1.81602  -1.66683  -1.29805
 Alpha  occ. eigenvalues --   -1.25633  -0.97673  -0.88708  -0.73527  -0.71891
 Alpha  occ. eigenvalues --   -0.71421  -0.67326  -0.58594  -0.55216  -0.50397
 Alpha  occ. eigenvalues --   -0.46071  -0.44625  -0.35766  -0.33678  -0.30073
 Alpha virt. eigenvalues --    0.03467   0.04473   0.05682   0.06212   0.09754
 Alpha virt. eigenvalues --    0.10259   0.10551   0.10738   0.12079   0.12384
 Alpha virt. eigenvalues --    0.13662   0.14497   0.15325   0.15784   0.16572

 Mulliken charges:
               1
     1  O   -3.442972
     2  C    4.726530
     3  C   -1.310106
     4  N   -0.967178
     5  N   -1.240668
     6  C    1.272898
     7  N   -2.713086
     8  H    0.909945
     9  H    1.180810
    10  H    1.583827
 Sum of Mulliken charges =   0.00000

 Dipole moment (field-independent basis, Debye):
    X=              1.2228    Y=             -0.2975    Z=             -0.3001  Tot=              1.2937

 Test job not archived.
 1\1\GINC-SE219\SP\RHF\Aug-CC-pVDZ\C3H3N3O1\OHZDE\09-Apr-2025\0\\#t hf
 aug-cc-pvdz iop(5/13=1,5/36=2,99/5=2) pseudo=read geom=check guess=(re
 ad,tcheck) scf=(maxcycle=1)\\title\\0,1\O,0,2.03160092,-0.42513968,-0.
 07429173\C,0,0.80118238,0.0409927,0.01371117\C,0,0.35414373,1.29289325
 ,-0.17232936\N,0,-0.85938078,1.04311529,0.53566438\N,0,-1.72617407,0.4
 3388523,-0.31273282\C,0,-1.36961573,-0.7836872,-0.10266549\N,0,-0.1626
 6853,-0.86931631,0.54707673\H,0,2.00299643,-1.33032373,0.26561759\H,0,
 0.83622529,2.24933077,-0.26873531\H,0,-1.92287063,-1.65429232,-0.43273

 Normal termination of Gaussian 16 at Wed Apr  9 18:57:32 2025.
