 Gaussian 16, Revision C.01,

 ----------------------------------------------------------------------
 #t hf aug-cc-pvdz symm=none int=(grid=ultrafine) guess=(read,tcheck) s
 table=(opt,rrhf)
 ----------------------------------------------------------------------
 -----
 title
 -----
 Symbolic Z-matrix:
 Charge =  0 Multiplicity = 1

 SCF Done:  E(RHF) =  -317.561982450     A.U. after   17 cycles
 Normal termination of Gaussian 16 at Wed Apr  9 19:26:54 2025.
 Gaussian 16:  ES64L-G16RevC.01  3-Jul-2019

 ----------------------------------------------------------------------
 #t hf aug-cc-pvdz iop(5/13=1,5/36=2,99/5=2) pseudo=read geom=check gue
 ss=(read,tcheck) scf=(maxcycle=1)
 ----------------------------------------------------------------------
 -----
 title
 -----
 Structure from the checkpoint file:  "Grambow2020_wb97xd3_008978_forward_mol1.chk"
 Charge =  0 Multiplicity = 1

                         Standard orientation:
 ---------------------------------------------------------------------
 Center     Atomic      Atomic             Coordinates (Angstroms)
 Number     Number       Type             X           Y           Z
 ---------------------------------------------------------------------
      1          7           0       -0.005405    0.997215    1.013845
      2          6           0       -0.002398    1.136039   -0.423105
      3          6           0        1.198048    0.238538   -0.707154
      4          7           0        1.170068   -0.901572   -0.119671
      5          6           0        0.002325   -0.998352    0.643327
      6          7           0       -1.164220   -0.908288   -0.123079
      7          6           0       -1.195896    0.231687   -0.710693
      8          1           0        0.826795    1.338261    1.482884
      9          1           0       -0.844672    1.326891    1.478732
     10          1           0        2.030805    0.502415   -1.350475
     11          1           0        0.002694   -1.620666    1.528669
     12          1           0       -2.031194    0.494140   -1.351717
 ---------------------------------------------------------------------

 SCF Done:  E(RHF) =  -319.038945403     A.U. after    2 cycles

 The electronic state is 1-A.
 Alpha  occ. eigenvalues --  -15.80912 -15.74552 -15.74492 -11.50252 -11.45069
 Alpha  occ. eigenvalues --  -11.43363 -11.35563  -1.57863  -1.33343  -1.32329
 Alpha  occ. eigenvalues --   -1.08192  -0.91173  -0.87506  -0.76910  -0.73629
 Alpha  occ. eigenvalues --   -0.65402  -0.62592  -0.59235  -0.55507  -0.54903
 Alpha  occ. eigenvalues --   -0.43954  -0.40611  -0.39148  -0.34767  -0.25387
 Alpha virt. eigenvalues --    0.03381   0.05027   0.05485   0.05824   0.05905
 Alpha virt. eigenvalues --    0.06311   0.09829   0.10207   0.10679   0.12304
 Alpha virt. eigenvalues --    0.12787   0.13373   0.13687   0.14698   0.15281

 Mulliken charges:
               1
     1  N   -1.060848
     2  C   -2.043123
     3  C    1.052923
     4  N   -2.630466
     5  C    0.298496
     6  N   -2.628535
     7  C    1.061662
     8  H    0.686972
     9  H    0.686796
    10  H    1.538530
    11  H    1.500720
    12  H    1.536873
 Sum of Mulliken charges =   0.00000

 Dipole moment (field-independent basis, Debye):
    X=             -0.0068    Y=              0.2433    Z=              2.9398  Tot=              2.9498

 Test job not archived.
 1\1\GINC-SE135\SP\RHF\Aug-CC-pVDZ\C4H5N3\OHZDE\09-Apr-2025\0\\#t hf au
 g-cc-pvdz iop(5/13=1,5/36=2,99/5=2) pseudo=read geom=check guess=(read
 ,tcheck) scf=(maxcycle=1)\\title\\0,1\N,0,-0.97640279,-0.04600498,0.75
 941404\C,0,-0.86981177,0.09885403,-0.67298317\C,0,0.10634867,1.2711540
 1,-0.68227617\N,0,1.12876621,1.12769123,0.07920342\C,0,1.05199941,-0.1
 0982266,0.72559437\N,0,1.05011005,-1.1930687,-0.159217\C,0,0.02565313,
 -1.10891037,-0.92683908\H,0,-1.36107373,0.75560753,1.24758634\H,0,-1.4
 1064486,-0.90636174,1.07626646\H,0,-0.01403103,2.17331863,-1.27268492\

 Normal termination of Gaussian 16 at Wed Apr  9 19:26:58 2025.
