 Gaussian 16, Revision C.01,

 ----------------------------------------------------------------------
 #t hf aug-cc-pvdz symm=none int=(grid=ultrafine) guess=(read,tcheck) s
 table=(opt,rrhf)
 ----------------------------------------------------------------------
 -----
 title
 -----
 Symbolic Z-matrix:
 Charge =  0 Multiplicity = 1

 SCF Done:  E(RHF) =  -269.890337350     A.U. after   15 cycles

 1\1\GINC-SE090\Stability\RHF\Aug-CC-pVDZ\C5H10O1\OHZDE\09-Apr-2025\0\\
 #t hf aug-cc-pvdz symm=none int=(grid=ultrafine) guess=(read,tcheck) s
 table=(opt,rrhf)\\title\\0,1\C,0,1.76239234,0.36001413,-1.09530063\C,0
 ,0.91065317,0.91215245,0.07867717\C,0,0.48638559,-0.28292647,0.8755482
 1\O,0,-1.12484184,-0.01689786,1.77134718\C,0,-0.87378988,-0.85667279,0
 .59210014\C,0,-1.76866914,-0.45181506,-0.5635633\H,0,2.58636508,-0.264
 88131,-0.72647573\H,0,2.18965353,1.19437291,-1.66713467\H,0,1.15102832
 ,-0.24678779,-1.77741377\H,0,1.53784184,1.57703045,0.68940759\H,0,0.08

 Normal termination of Gaussian 16 at Wed Apr  9 03:09:03 2025.
 Gaussian 16:  ES64L-G16RevC.01  3-Jul-2019

 ----------------------------------------------------------------------
 #t hf aug-cc-pvdz iop(5/13=1,5/36=2,99/5=2) pseudo=read geom=check gue
 ss=(read,tcheck) scf=(maxcycle=1)
 ----------------------------------------------------------------------
 -----
 title
 -----
 Structure from the checkpoint file:  "Grambow2020_b97d3_006614_forward_mol1.chk"
 Charge =  0 Multiplicity = 1

                         Standard orientation:
 ---------------------------------------------------------------------
 Center     Atomic      Atomic             Coordinates (Angstroms)
 Number     Number       Type             X           Y           Z
 ---------------------------------------------------------------------
      1          6           0        2.273616    0.405294   -0.217327
      2          6           0        1.214724   -0.447850    0.530626
      3          6           0        0.162842   -0.777814   -0.483222
      4          8           0       -1.516458   -1.038548    0.279176
      5          6           0       -1.056301    0.100471   -0.526903
      6          6           0       -1.220962    1.403954    0.230788
      7          1           0        2.641472   -0.115420   -1.111193
      8          1           0        3.126994    0.600636    0.445462
      9          1           0        1.854377    1.371053   -0.531651
     10          1           0        1.694633   -1.366177    0.897754
     11          1           0        0.854866    0.117983    1.404931
     12          1           0       -0.912192   -1.772613   -0.281041
     13          1           0       -1.561909    0.141192   -1.502484
     14          1           0       -0.782293    1.357722    1.233537
     15          1           0       -2.286635    1.649974    0.335975
     16          1           0       -0.741175    2.219701   -0.328475
 ---------------------------------------------------------------------

 SCF Done:  E(RHF) =  -271.212036251     A.U. after    2 cycles

 The electronic state is 1-A.
 Alpha  occ. eigenvalues --  -21.07634 -11.48298 -11.42766 -11.40331 -11.38989
 Alpha  occ. eigenvalues --  -11.36744  -1.74106  -1.20617  -1.11011  -0.96909
 Alpha  occ. eigenvalues --   -0.88775  -0.77435  -0.67660  -0.63190  -0.60478
 Alpha  occ. eigenvalues --   -0.56921  -0.53963  -0.51310  -0.49742  -0.48926
 Alpha  occ. eigenvalues --   -0.47064  -0.39861  -0.33887  -0.30163
 Alpha virt. eigenvalues --    0.03794   0.05006   0.05270   0.05712   0.06020
 Alpha virt. eigenvalues --    0.06332   0.06647   0.07172   0.08573   0.09360
 Alpha virt. eigenvalues --    0.10954   0.11957   0.13003   0.13827   0.14140

 Mulliken charges:
               1
     1  C   -3.338160
     2  C   -3.433867
     3  C   -0.905890
     4  O   -2.366347
     5  C    0.480878
     6  C   -3.919531
     7  H    1.281053
     8  H    1.152210
     9  H    1.423253
    10  H    1.314924
    11  H    1.735032
    12  H    1.245507
    13  H    1.542234
    14  H    1.303298
    15  H    1.118100
    16  H    1.367306
 Sum of Mulliken charges =  -0.00000

 Dipole moment (field-independent basis, Debye):
    X=             -0.7884    Y=              1.2075    Z=              1.2119  Tot=              1.8837

 Test job not archived.
 1\1\GINC-SE090\SP\RHF\Aug-CC-pVDZ\C5H10O1\OHZDE\09-Apr-2025\0\\#t hf a
 ug-cc-pvdz iop(5/13=1,5/36=2,99/5=2) pseudo=read geom=check guess=(rea
 d,tcheck) scf=(maxcycle=1)\\title\\0,1\C,0,1.76239234,0.36001413,-1.09
 530063\C,0,0.91065317,0.91215245,0.07867717\C,0,0.48638559,-0.28292647
 ,0.87554821\O,0,-1.12484184,-0.01689786,1.77134718\C,0,-0.87378988,-0.
 85667279,0.59210014\C,0,-1.76866914,-0.45181506,-0.5635633\H,0,2.58636
 508,-0.26488131,-0.72647573\H,0,2.18965353,1.19437291,-1.66713467\H,0,
 1.15102832,-0.24678779,-1.77741377\H,0,1.53784184,1.57703045,0.6894075

 Normal termination of Gaussian 16 at Wed Apr  9 03:09:07 2025.
