 Gaussian 16, Revision C.01,

 ----------------------------------------------------------------------
 #t hf aug-cc-pvdz symm=none int=(grid=ultrafine) guess=(read,tcheck) s
 table=(opt,rrhf)
 ----------------------------------------------------------------------
 -----
 title
 -----
 Symbolic Z-matrix:
 Charge =  0 Multiplicity = 1

 SCF Done:  E(RHF) =  -271.890971703     A.U. after   15 cycles
 Normal termination of Gaussian 16 at Wed Apr  9 03:39:49 2025.
 Gaussian 16:  ES64L-G16RevC.01  3-Jul-2019

 ----------------------------------------------------------------------
 #t hf aug-cc-pvdz iop(5/13=1,5/36=2,99/5=2) pseudo=read geom=check gue
 ss=(read,tcheck) scf=(maxcycle=1)
 ----------------------------------------------------------------------
 -----
 title
 -----
 Structure from the checkpoint file:  "Grambow2020_wb97xd3_007431_reverse_mol1.chk"
 Charge =  0 Multiplicity = 1

                         Standard orientation:
 ---------------------------------------------------------------------
 Center     Atomic      Atomic             Coordinates (Angstroms)
 Number     Number       Type             X           Y           Z
 ---------------------------------------------------------------------
      1          6           0        2.720903    0.005430   -0.188349
      2          6           0        1.386296   -0.708561   -0.026761
      3          6           0        0.317536    0.216324    0.540150
      4          6           0       -0.055814    1.389826   -0.371854
      5          6           0       -1.969357    0.502395   -0.162429
      6          6           0       -1.762912   -0.939023   -0.486398
      7          6           0       -1.072860   -0.360106    0.701799
      8          1           0        3.472426   -0.642538   -0.642227
      9          1           0        3.109472    0.342657    0.776455
     10          1           0        2.605069    0.883822   -0.828755
     11          1           0        1.054913   -1.080552   -1.000307
     12          1           0        1.496985   -1.581067    0.626146
     13          1           0        0.654110    0.581984    1.516628
     14          1           0       -1.338577    1.119794   -0.933653
     15          1           0       -0.324617    2.243912    0.266397
     16          1           0       -2.898650    0.953422    0.151970
     17          1           0       -2.596111   -1.595168   -0.271341
     18          1           0       -1.199409   -1.190299   -1.376506
     19          1           0       -1.418368   -0.673672    1.678239
 ---------------------------------------------------------------------

 SCF Done:  E(RHF) =  -273.276672405     A.U. after    2 cycles

 The electronic state is 1-A.
 Alpha  occ. eigenvalues --  -11.48336 -11.43992 -11.41382 -11.39765 -11.38576
 Alpha  occ. eigenvalues --  -11.37067 -11.34783  -1.39110  -1.18452  -1.04795
 Alpha  occ. eigenvalues --   -0.94208  -0.87043  -0.84331  -0.74162  -0.70741
 Alpha  occ. eigenvalues --   -0.64290  -0.61811  -0.57800  -0.54548  -0.53038
 Alpha  occ. eigenvalues --   -0.50294  -0.48009  -0.45893  -0.44154  -0.39205
 Alpha  occ. eigenvalues --   -0.36780  -0.28740
 Alpha virt. eigenvalues --    0.04117   0.04920   0.04982   0.05246   0.05611
 Alpha virt. eigenvalues --    0.05921   0.06227   0.06630   0.07436   0.08351
 Alpha virt. eigenvalues --    0.08679   0.09574   0.11493   0.12807   0.13053

 Mulliken charges:
               1
     1  C   -4.080914
     2  C   -3.683271
     3  C   -0.798385
     4  C   -2.602263
     5  C   -2.297639
     6  C   -2.867921
     7  C   -0.289364
     8  H    1.057393
     9  H    1.293799
    10  H    1.470106
    11  H    1.702374
    12  H    1.427730
    13  H    1.672825
    14  H    1.776757
    15  H    1.215004
    16  H    1.125909
    17  H    1.310500
    18  H    1.298974
    19  H    1.268386
 Sum of Mulliken charges =  -0.00000

 Dipole moment (field-independent basis, Debye):
    X=             -1.5654    Y=             -1.1055    Z=              1.6938  Tot=              2.5577

 Test job not archived.
 1\1\GINC-SE454\SP\RHF\Aug-CC-pVDZ\C7H12\OHZDE\09-Apr-2025\0\\#t hf aug
 -cc-pvdz iop(5/13=1,5/36=2,99/5=2) pseudo=read geom=check guess=(read,
 tcheck) scf=(maxcycle=1)\\title\\0,1\C,0,2.48073052,0.29418368,-0.7263
 0311\C,0,1.14530172,-0.43613771,-0.74448575\C,0,0.32962045,-0.15014618
 ,0.5092765\C,0,-0.1067293,1.31067309,0.66372789\C,0,-2.011855,0.382426
 77,0.70725137\C,0,-2.03472758,-0.50616707,-0.49072261\C,0,-1.0453526,-
 0.77812656,0.59108368\H,0,3.04252943,0.13012987,-1.64723836\H,0,3.1033
 7677,-0.03884191,0.1085379\H,0,2.32206848,1.37037017,-0.61786332\H,0,0

 Normal termination of Gaussian 16 at Wed Apr  9 03:39:56 2025.
