 Gaussian 16, Revision C.01,

 ----------------------------------------------------------------------
 #t hf aug-cc-pvdz symm=none int=(grid=ultrafine) guess=(read,tcheck) s
 table=(opt,rrhf)
 ----------------------------------------------------------------------
 -----
 title
 -----
 Symbolic Z-matrix:
 Charge =  0 Multiplicity = 1

 SCF Done:  E(RHF) =  -305.793564613     A.U. after   13 cycles
 Normal termination of Gaussian 16 at Wed Apr  9 16:12:51 2025.
 Gaussian 16:  ES64L-G16RevC.01  3-Jul-2019

 ----------------------------------------------------------------------
 #t hf aug-cc-pvdz iop(5/13=1,5/36=2,99/5=2) pseudo=read geom=check gue
 ss=(read,tcheck) scf=(maxcycle=1)
 ----------------------------------------------------------------------
 -----
 title
 -----
 Structure from the checkpoint file:  "Grambow2020_b97d3_006755_reverse_mol2.chk"
 Charge =  0 Multiplicity = 1

                         Standard orientation:
 ---------------------------------------------------------------------
 Center     Atomic      Atomic             Coordinates (Angstroms)
 Number     Number       Type             X           Y           Z
 ---------------------------------------------------------------------
      1          6           0       -1.613351   -0.732861    0.012283
      2          6           0       -2.492271    0.501730   -0.015055
      3          6           0        0.274742    0.770536    0.013854
      4          8           0       -0.162674   -0.478738    0.003319
      5          6           0        1.778151    0.687233    0.004733
      6          8           0        2.431723   -0.572168   -0.013524
      7          1           0       -1.781680   -1.374536   -0.862431
      8          1           0       -3.541099    0.168484   -0.011842
      9          1           0       -1.780569   -1.333763    0.915740
     10          1           0       -2.315752    1.141157    0.856810
     11          1           0       -2.310131    1.103758   -0.912335
     12          1           0        2.088126    1.297529   -0.868040
     13          1           0        2.095917    1.275756    0.889440
     14          1           0        1.709176   -1.230971   -0.020588
 ---------------------------------------------------------------------

 SCF Done:  E(RHF) =  -307.180306903     A.U. after    2 cycles

 The electronic state is 1-A.
 Alpha  occ. eigenvalues --  -21.11487 -21.05930 -11.45602 -11.44163 -11.39287
 Alpha  occ. eigenvalues --  -11.38136  -1.81833  -1.68633  -1.15060  -1.04481
 Alpha  occ. eigenvalues --   -0.91332  -0.74343  -0.66411  -0.65122  -0.61072
 Alpha  occ. eigenvalues --   -0.59446  -0.54396  -0.52468  -0.52083  -0.47291
 Alpha  occ. eigenvalues --   -0.42074  -0.40169  -0.31623  -0.31168
 Alpha virt. eigenvalues --    0.03488   0.05033   0.05108   0.05605   0.06379
 Alpha virt. eigenvalues --    0.06449   0.07314   0.07449   0.10223   0.11322
 Alpha virt. eigenvalues --    0.11882   0.13053   0.14216   0.14373   0.14671

 Mulliken charges:
               1
     1  C   -1.300419
     2  C   -3.975134
     3  C    0.104532
     4  O   -2.669630
     5  C    0.105492
     6  O   -2.747529
     7  H    1.489465
     8  H    1.135232
     9  H    1.494173
    10  H    1.348971
    11  H    1.341721
    12  H    1.366357
    13  H    1.363868
    14  H    0.942901
 Sum of Mulliken charges =  -0.00000

 Dipole moment (field-independent basis, Debye):
    X=             -1.6516    Y=             -1.8616    Z=             -0.0089  Tot=              2.4887

 Test job not archived.
 1\1\GINC-SE232\SP\RHF\Aug-CC-pVDZ\C4H8O2\OHZDE\09-Apr-2025\0\\#t hf au
 g-cc-pvdz iop(5/13=1,5/36=2,99/5=2) pseudo=read geom=check guess=(read
 ,tcheck) scf=(maxcycle=1)\\title\\0,1\C,0,-1.27360581,0.60644283,-0.43
 71121\C,0,-2.0184417,-0.68603456,-0.16844466\C,0,0.72854785,-0.5585837
 4,0.24052715\O,0,0.17381923,0.57200661,-0.16711544\C,0,2.1942867,-0.26
 421819,0.42002352\O,0,2.70801187,1.03236519,0.15822236\H,0,-1.64606537
 ,1.43044952,0.1853777\H,0,-3.08026085,-0.51787855,-0.40374707\H,0,-1.3
 4878024,0.91042057,-1.48935977\H,0,-1.63863483,-1.50597097,-0.78782017

 Normal termination of Gaussian 16 at Wed Apr  9 16:12:55 2025.
