 Gaussian 16, Revision C.01,

 ----------------------------------------------------------------------
 #t hf aug-cc-pvdz symm=none int=(grid=ultrafine) guess=(read,tcheck) s
 table=(opt,rrhf)
 ----------------------------------------------------------------------
 -----
 title
 -----
 Symbolic Z-matrix:
 Charge =  0 Multiplicity = 1

 SCF Done:  E(RHF) =  -307.812747189     A.U. after   14 cycles

 1\1\GINC-SE159\Stability\RHF\Aug-CC-pVDZ\C6H10O1\OHZDE\09-Apr-2025\0\\
 #t hf aug-cc-pvdz symm=none int=(grid=ultrafine) guess=(read,tcheck) s
 table=(opt,rrhf)\\title\\0,1\O,0,1.7104804,-0.52019995,1.28635831\C,0,
 1.29056357,-0.3625669,-0.06137677\C,0,0.07470289,-1.22551181,-0.381123
 6\C,0,-1.16858486,-0.69264978,0.31818294\C,0,-1.41580086,0.77562531,-0
 .03937891\C,0,-0.29928372,1.73262461,-0.1329135\C,0,1.01784646,1.11116
 978,-0.38442642\H,0,1.07121439,-0.10574029,1.86937239\H,0,2.14553901,-
 0.70633962,-0.64813589\H,0,0.28071732,-2.25638238,-0.08717353\H,0,-0.0

 Normal termination of Gaussian 16 at Wed Apr  9 19:13:11 2025.
 Gaussian 16:  ES64L-G16RevC.01  3-Jul-2019

 ----------------------------------------------------------------------
 #t hf aug-cc-pvdz iop(5/13=1,5/36=2,99/5=2) pseudo=read geom=check gue
 ss=(read,tcheck) scf=(maxcycle=1)
 ----------------------------------------------------------------------
 -----
 title
 -----
 Structure from the checkpoint file:  "Grambow2020_wb97xd3_008411_reverse_mol2.chk"
 Charge =  0 Multiplicity = 1

                         Standard orientation:
 ---------------------------------------------------------------------
 Center     Atomic      Atomic             Coordinates (Angstroms)
 Number     Number       Type             X           Y           Z
 ---------------------------------------------------------------------
      1          8           0       -1.840237   -0.163454   -0.810330
      2          6           0       -1.122547    0.040518    0.398340
      3          6           0       -0.211199   -1.138283    0.722533
      4          6           0        0.964221   -1.197883   -0.243682
      5          6           0        1.739651    0.122516   -0.250868
      6          6           0        1.035930    1.416474   -0.210168
      7          6           0       -0.328945    1.351540    0.353036
      8          1           0       -1.236866   -0.099153   -1.553400
      9          1           0       -1.901635    0.118743    1.160149
     10          1           0       -0.794480   -2.060408    0.690703
     11          1           0        0.159817   -1.025531    1.747841
     12          1           0        0.603116   -1.412880   -1.255418
     13          1           0        1.631320   -2.024827    0.009310
     14          1           0        2.290207    0.248551    0.705938
     15          1           0        2.542073    0.140576   -0.993049
     16          1           0       -0.087540    1.682578    1.382028
     17          1           0       -0.946774    2.170698   -0.026612
 ---------------------------------------------------------------------

 SCF Done:  E(RHF) =  -309.269801737     A.U. after    2 cycles

 The electronic state is 1-A.
 Alpha  occ. eigenvalues --  -21.06860 -11.45859 -11.43636 -11.42827 -11.39377
 Alpha  occ. eigenvalues --  -11.38890 -11.35658  -1.71983  -1.30031  -1.11295
 Alpha  occ. eigenvalues --   -1.09060  -0.90699  -0.85529  -0.72291  -0.67858
 Alpha  occ. eigenvalues --   -0.64040  -0.60957  -0.58591  -0.56126  -0.53841
 Alpha  occ. eigenvalues --   -0.50798  -0.48990  -0.46423  -0.41856  -0.40162
 Alpha  occ. eigenvalues --   -0.32981  -0.27833
 Alpha virt. eigenvalues --    0.03116   0.04763   0.04910   0.05402   0.05671
 Alpha virt. eigenvalues --    0.06255   0.06469   0.06868   0.07263   0.08626
 Alpha virt. eigenvalues --    0.09151   0.10811   0.12652   0.13123   0.14091

 Mulliken charges:
               1
     1  O   -3.461573
     2  C    2.121517
     3  C   -3.577996
     4  C   -2.985696
     5  C   -2.281265
     6  C   -0.714138
     7  C   -2.563183
     8  H    0.777852
     9  H    1.683877
    10  H    1.292326
    11  H    1.382839
    12  H    1.449850
    13  H    1.254369
    14  H    1.432375
    15  H    1.403998
    16  H    1.352269
    17  H    1.432580
 Sum of Mulliken charges =  -0.00000

 Dipole moment (field-independent basis, Debye):
    X=             -0.1821    Y=             -1.8723    Z=              0.9397  Tot=              2.1028

 Test job not archived.
 1\1\GINC-SE159\SP\RHF\Aug-CC-pVDZ\C6H10O1\OHZDE\09-Apr-2025\0\\#t hf a
 ug-cc-pvdz iop(5/13=1,5/36=2,99/5=2) pseudo=read geom=check guess=(rea
 d,tcheck) scf=(maxcycle=1)\\title\\0,1\O,0,1.7104804,-0.52019995,1.286
 35831\C,0,1.29056357,-0.3625669,-0.06137677\C,0,0.07470289,-1.22551181
 ,-0.3811236\C,0,-1.16858486,-0.69264978,0.31818294\C,0,-1.41580086,0.7
 7562531,-0.03937891\C,0,-0.29928372,1.73262461,-0.1329135\C,0,1.017846
 46,1.11116978,-0.38442642\H,0,1.07121439,-0.10574029,1.86937239\H,0,2.
 14553901,-0.70633962,-0.64813589\H,0,0.28071732,-2.25638238,-0.0871735

 Normal termination of Gaussian 16 at Wed Apr  9 19:13:17 2025.
