 Gaussian 16, Revision C.01,

 ----------------------------------------------------------------------
 #t hf aug-cc-pvdz symm=none int=(grid=ultrafine) guess=(read,tcheck) s
 table=(opt,rrhf)
 ----------------------------------------------------------------------
 -----
 title
 -----
 Symbolic Z-matrix:
 Charge =  0 Multiplicity = 1

 SCF Done:  E(RHF) =  -322.581035046     A.U. after   16 cycles
 Normal termination of Gaussian 16 at Wed Apr  9 04:04:48 2025.
 Gaussian 16:  ES64L-G16RevC.01  3-Jul-2019

 ----------------------------------------------------------------------
 #t hf aug-cc-pvdz iop(5/13=1,5/36=2,99/5=2) pseudo=read geom=check gue
 ss=(read,tcheck) scf=(maxcycle=1)
 ----------------------------------------------------------------------
 -----
 title
 -----
 Structure from the checkpoint file:  "Grambow2020_wb97xd3_009162_reverse_mol1.chk"
 Charge =  0 Multiplicity = 1

                         Standard orientation:
 ---------------------------------------------------------------------
 Center     Atomic      Atomic             Coordinates (Angstroms)
 Number     Number       Type             X           Y           Z
 ---------------------------------------------------------------------
      1          6           0       -1.795444   -1.432505    0.314240
      2          7           0       -0.331671   -0.549890   -0.362147
      3          6           0        0.900612   -1.208395   -0.249749
      4          6           0        1.823366   -0.305723    0.132881
      5          6           0        1.178703    0.980842    0.252649
      6          6           0       -0.121294    0.788885   -0.068170
      7          8           0       -1.188272    1.598176   -0.147405
      8          1           0       -2.249054   -0.556633    0.790914
      9          1           0       -1.265472   -2.000276    1.085410
     10          1           0       -1.105062   -0.939479   -0.983289
     11          1           0        0.960845   -2.266670   -0.441047
     12          1           0        2.865749   -0.510687    0.319708
     13          1           0        1.638737    1.913636    0.538076
     14          1           0       -0.933525    2.485307    0.113392
 ---------------------------------------------------------------------

 SCF Done:  E(RHF) =  -324.064903305     A.U. after    2 cycles

 The electronic state is 1-A.
 Alpha  occ. eigenvalues --  -21.13179 -15.78560 -11.50097 -11.45568 -11.41588
 Alpha  occ. eigenvalues --  -11.37093 -11.36943  -1.79644  -1.50549  -1.18340
 Alpha  occ. eigenvalues --   -1.04304  -0.95094  -0.82863  -0.80290  -0.74347
 Alpha  occ. eigenvalues --   -0.63460  -0.61046  -0.58076  -0.57143  -0.54096
 Alpha  occ. eigenvalues --   -0.50891  -0.45035  -0.44896  -0.36688  -0.30973
 Alpha  occ. eigenvalues --   -0.26663
 Alpha virt. eigenvalues --    0.03193   0.04854   0.05228   0.05866   0.06134
 Alpha virt. eigenvalues --    0.07308   0.07936   0.10117   0.11563   0.12271
 Alpha virt. eigenvalues --    0.12503   0.12927   0.13379   0.13580   0.14794

 Mulliken charges:
               1
     1  C   -3.412777
     2  N   -3.036934
     3  C   -0.609159
     4  C   -0.466275
     5  C   -2.204341
     6  C    4.441111
     7  O   -3.695724
     8  H    1.241126
     9  H    1.426519
    10  H    1.533166
    11  H    1.291088
    12  H    1.330119
    13  H    1.377612
    14  H    0.784468
 Sum of Mulliken charges =  -0.00000

 Dipole moment (field-independent basis, Debye):
    X=              1.5281    Y=              2.3144    Z=              0.2863  Tot=              2.7881

 Test job not archived.
 1\1\GINC-SE044\SP\RHF\Aug-CC-pVDZ\C5H7N1O1\OHZDE\09-Apr-2025\0\\#t hf
 aug-cc-pvdz iop(5/13=1,5/36=2,99/5=2) pseudo=read geom=check guess=(re
 ad,tcheck) scf=(maxcycle=1)\\title\\0,1\C,0,-2.0960157,0.17465533,0.72
 605009\N,0,-0.61224597,-0.11178503,-0.32061979\C,0,-0.0497332,-1.39457
 432,-0.26756566\C,0,1.28886203,-1.26181036,-0.21069066\C,0,1.60829796,
 0.14590843,-0.24905016\C,0,0.42910037,0.80393407,-0.32817343\O,0,0.091
 31219,2.10005916,-0.403207\H,0,-1.79529658,1.1649782,1.08515992\H,0,-1
 .85384219,-0.55506664,1.50502073\H,0,-1.58352807,0.04269925,-0.7310796

 Normal termination of Gaussian 16 at Wed Apr  9 04:04:53 2025.
