 Gaussian 16, Revision C.01,

 ----------------------------------------------------------------------
 #t hf aug-cc-pvdz symm=none int=(grid=ultrafine) guess=(read,tcheck) s
 table=(opt,rrhf)
 ----------------------------------------------------------------------
 -----
 title
 -----
 Symbolic Z-matrix:
 Charge =  0 Multiplicity = 1

 SCF Done:  E(RHF) =  -338.769035769     A.U. after   14 cycles
 Normal termination of Gaussian 16 at Wed Apr  9 03:27:43 2025.
 Gaussian 16:  ES64L-G16RevC.01  3-Jul-2019

 ----------------------------------------------------------------------
 #t hf aug-cc-pvdz iop(5/13=1,5/36=2,99/5=2) pseudo=read geom=check gue
 ss=(read,tcheck) scf=(maxcycle=1)
 ----------------------------------------------------------------------
 -----
 title
 -----
 Structure from the checkpoint file:  "Grambow2020_wb97xd3_006689_forward_mol2.chk"
 Charge =  0 Multiplicity = 1

                         Standard orientation:
 ---------------------------------------------------------------------
 Center     Atomic      Atomic             Coordinates (Angstroms)
 Number     Number       Type             X           Y           Z
 ---------------------------------------------------------------------
      1          6           0        2.424196   -0.582506    0.002342
      2          6           0        1.072525    0.019119    0.001226
      3          6           0        0.576232    1.265438    0.006518
      4          7           0       -0.815524    1.231115    0.007117
      5          6           0       -1.082546   -0.027490   -0.006604
      6          7           0       -2.308938   -0.627513   -0.074459
      7          8           0       -0.012625   -0.839596   -0.009078
      8          1           0        2.590576   -1.192341   -0.888222
      9          1           0        3.170565    0.211102    0.015415
     10          1           0        2.580827   -1.214664    0.879124
     11          1           0        1.120365    2.196341    0.014896
     12          1           0       -2.365990   -1.544031    0.334877
     13          1           0       -3.066558   -0.012217    0.167036
 ---------------------------------------------------------------------

 SCF Done:  E(RHF) =  -340.306215548     A.U. after    2 cycles

 The electronic state is 1-A.
 Alpha  occ. eigenvalues --  -21.11290 -15.78035 -15.70783 -11.48439 -11.44610
 Alpha  occ. eigenvalues --  -11.41802 -11.37860  -1.87693  -1.39497  -1.33342
 Alpha  occ. eigenvalues --   -1.14440  -0.99371  -0.81560  -0.79225  -0.70566
 Alpha  occ. eigenvalues --   -0.66433  -0.64024  -0.58066  -0.56868  -0.54258
 Alpha  occ. eigenvalues --   -0.50931  -0.45042  -0.44314  -0.37934  -0.36898
 Alpha  occ. eigenvalues --   -0.27471
 Alpha virt. eigenvalues --    0.03297   0.04815   0.05470   0.06283   0.06464
 Alpha virt. eigenvalues --    0.06613   0.09599   0.11897   0.12002   0.12304
 Alpha virt. eigenvalues --    0.13154   0.13583   0.14370   0.16145   0.16334

 Mulliken charges:
               1
     1  C   -4.519495
     2  C    4.738511
     3  C   -1.332013
     4  N   -3.289997
     5  C    5.711304
     6  N   -3.006773
     7  O   -4.099558
     8  H    1.152484
     9  H    1.034596
    10  H    1.155909
    11  H    1.253774
    12  H    0.589408
    13  H    0.611851
 Sum of Mulliken charges =   0.00000

 Dipole moment (field-independent basis, Debye):
    X=              0.2827    Y=             -2.0084    Z=              0.8028  Tot=              2.1813

 Test job not archived.
 1\1\GINC-SE174\SP\RHF\Aug-CC-pVDZ\C4H6N2O1\OHZDE\09-Apr-2025\0\\#t hf
 aug-cc-pvdz iop(5/13=1,5/36=2,99/5=2) pseudo=read geom=check guess=(re
 ad,tcheck) scf=(maxcycle=1)\\title\\0,1\C,0,-2.1204086,0.48365705,0.01
 765663\C,0,-0.77543841,-0.09533541,-0.19398025\C,0,-0.29036312,-1.3023
 8384,-0.52167437\N,0,1.10031494,-1.26583962,-0.57499197\C,0,1.37752006
 ,-0.04289757,-0.28664145\N,0,2.60495377,0.55813841,-0.25780724\O,0,0.3
 1570611,0.74152363,-0.03867421\H,0,-2.32051168,1.29584802,-0.68447471\
 H,0,-2.87241983,-0.29000064,-0.13394933\H,0,-2.23268582,0.87687024,1.0

 Normal termination of Gaussian 16 at Wed Apr  9 03:27:47 2025.
