 Gaussian 16, Revision C.01,

 ----------------------------------------------------------------------
 #t hf aug-cc-pvdz symm=none int=(grid=ultrafine) guess=(read,tcheck) s
 table=(opt,rrhf)
 ----------------------------------------------------------------------
 -----
 title
 -----
 Symbolic Z-matrix:
 Charge =  0 Multiplicity = 1

 SCF Done:  E(RHF) =  -359.725963481     A.U. after   15 cycles
 Normal termination of Gaussian 16 at Wed Apr  9 18:34:26 2025.
 Gaussian 16:  ES64L-G16RevC.01  3-Jul-2019

 ----------------------------------------------------------------------
 #t hf aug-cc-pvdz iop(5/13=1,5/36=2,99/5=2) pseudo=read geom=check gue
 ss=(read,tcheck) scf=(maxcycle=1)
 ----------------------------------------------------------------------
 -----
 title
 -----
 Structure from the checkpoint file:  "Grambow2020_wb97xd3_007276_reverse_mol2.chk"
 Charge =  0 Multiplicity = 1

                         Standard orientation:
 ---------------------------------------------------------------------
 Center     Atomic      Atomic             Coordinates (Angstroms)
 Number     Number       Type             X           Y           Z
 ---------------------------------------------------------------------
      1          8           0        1.528064   -1.537497   -0.239517
      2          6           0        0.631069   -0.448513   -0.320236
      3          6           0       -0.710455   -0.791528    0.325101
      4          7           0       -1.570305    0.367986    0.338361
      5          6           0       -2.674160    0.296096   -0.258242
      6          6           0        1.259298    0.771203    0.337236
      7          8           0        1.515802    1.794348   -0.224490
      8          1           0        1.615298   -1.810265    0.677880
      9          1           0        0.500854   -0.230340   -1.380911
     10          1           0       -1.144071   -1.657375   -0.193831
     11          1           0       -0.527296   -1.078981    1.368162
     12          1           0        1.510791    0.626621    1.413973
     13          1           0       -3.331461    1.163106   -0.266018
     14          1           0       -3.017417   -0.607017   -0.778885
 ---------------------------------------------------------------------

 SCF Done:  E(RHF) =  -361.321192648     A.U. after    2 cycles

 The electronic state is 1-A.
 Alpha  occ. eigenvalues --  -21.09413 -21.06758 -15.75269 -11.49203 -11.47207
 Alpha  occ. eigenvalues --  -11.43258 -11.41035  -1.75441  -1.70247  -1.40914
 Alpha  occ. eigenvalues --   -1.12827  -0.97274  -0.85809  -0.82429  -0.69130
 Alpha  occ. eigenvalues --   -0.66290  -0.63170  -0.60860  -0.59731  -0.52632
 Alpha  occ. eigenvalues --   -0.51787  -0.46520  -0.43947  -0.40101  -0.38820
 Alpha  occ. eigenvalues --   -0.35205  -0.27834
 Alpha virt. eigenvalues --    0.03558   0.04689   0.05268   0.05668   0.05746
 Alpha virt. eigenvalues --    0.06839   0.06942   0.09554   0.10569   0.11668
 Alpha virt. eigenvalues --    0.12303   0.12928   0.14485   0.14679   0.15052

 Mulliken charges:
               1
     1  O   -2.962202
     2  C    0.309421
     3  C   -2.289912
     4  N   -2.293485
     5  C   -1.482154
     6  C    2.251337
     7  O   -2.910473
     8  H    0.724881
     9  H    1.596703
    10  H    1.485132
    11  H    1.309644
    12  H    1.369338
    13  H    1.392968
    14  H    1.498803
 Sum of Mulliken charges =  -0.00000

 Dipole moment (field-independent basis, Debye):
    X=             -1.8688    Y=             -1.7600    Z=              0.0231  Tot=              2.5672

 Test job not archived.
 1\1\GINC-SE028\SP\RHF\Aug-CC-pVDZ\C4H7N1O2\OHZDE\09-Apr-2025\0\\#t hf
 aug-cc-pvdz iop(5/13=1,5/36=2,99/5=2) pseudo=read geom=check guess=(re
 ad,tcheck) scf=(maxcycle=1)\\title\\0,1\O,0,2.13234026,0.13711122,0.66
 165706\C,0,0.88236875,-0.39280532,0.26953109\C,0,-0.06429762,0.7139246
 6,-0.19174687\N,0,-1.29044235,0.14465408,-0.69819505\C,0,-2.36981326,0
 .46630152,-0.14043186\C,0,1.09481531,-1.42471592,-0.82804541\O,0,0.814
 87328,-2.58320775,-0.74038137\H,0,2.49511854,0.66144441,-0.05743687\H,
 0,0.4747355,-0.90650478,1.1410444\H,0,-0.21408849,1.42176132,0.6350148

 Normal termination of Gaussian 16 at Wed Apr  9 18:34:30 2025.
