 Gaussian 16, Revision C.01,

 ----------------------------------------------------------------------
 #t hf aug-cc-pvdz symm=none int=(grid=ultrafine) guess=(read,tcheck) s
 table=(opt,rrhf)
 ----------------------------------------------------------------------
 -----
 title
 -----
 Symbolic Z-matrix:
 Charge =  0 Multiplicity = 1

 SCF Done:  E(RHF) =  -343.642088366     A.U. after   16 cycles
 Normal termination of Gaussian 16 at Wed Apr  9 18:55:51 2025.
 Gaussian 16:  ES64L-G16RevC.01  3-Jul-2019

 ----------------------------------------------------------------------
 #t hf aug-cc-pvdz iop(5/13=1,5/36=2,99/5=2) pseudo=read geom=check gue
 ss=(read,tcheck) scf=(maxcycle=1)
 ----------------------------------------------------------------------
 -----
 title
 -----
 Structure from the checkpoint file:  "Grambow2020_wb97xd3_007805_forward_mol1.chk"
 Charge =  0 Multiplicity = 1

                         Standard orientation:
 ---------------------------------------------------------------------
 Center     Atomic      Atomic             Coordinates (Angstroms)
 Number     Number       Type             X           Y           Z
 ---------------------------------------------------------------------
      1          6           0       -1.852057   -1.170713    0.178765
      2          6           0       -0.919919    0.018224    0.150582
      3          6           0       -1.563875    1.316658   -0.282435
      4          6           0        1.264281    0.170069    1.353121
      5          6           0        1.337804   -0.070166   -0.066228
      6          8           0        2.436520   -0.151965   -0.551707
      7          8           0        0.187534   -0.283719   -0.712968
      8          1           0       -1.331529   -2.057890    0.537940
      9          1           0       -2.703394   -0.973839    0.831307
     10          1           0       -2.222327   -1.367530   -0.829083
     11          1           0       -0.835492    2.127869   -0.301418
     12          1           0       -1.979189    1.205404   -1.285575
     13          1           0       -2.371101    1.588155    0.399125
     14          1           0        1.360924    1.243703    1.569102
     15          1           0       -0.507721    0.135166    1.193184
 ---------------------------------------------------------------------

 SCF Done:  E(RHF) =  -345.175913500     A.U. after    2 cycles

 The electronic state is 1-A.
 Alpha  occ. eigenvalues --  -21.10763 -21.04969 -11.52765 -11.49797 -11.45287
 Alpha  occ. eigenvalues --  -11.42197 -11.38857  -1.86832  -1.68055  -1.21349
 Alpha  occ. eigenvalues --   -1.07702  -1.04478  -0.88595  -0.76229  -0.68146
 Alpha  occ. eigenvalues --   -0.65716  -0.63466  -0.57637  -0.56752  -0.56314
 Alpha  occ. eigenvalues --   -0.54875  -0.50244  -0.47468  -0.43758  -0.37737
 Alpha  occ. eigenvalues --   -0.31973  -0.30171
 Alpha virt. eigenvalues --    0.02869   0.04652   0.04903   0.05142   0.05287
 Alpha virt. eigenvalues --    0.05792   0.06585   0.07329   0.08484   0.10460
 Alpha virt. eigenvalues --    0.11226   0.12120   0.12566   0.13486   0.14354

 Mulliken charges:
               1
     1  C   -3.741205
     2  C   -0.110277
     3  C   -3.728798
     4  C   -3.025303
     5  C    5.927316
     6  O   -3.163574
     7  O   -3.287091
     8  H    1.274441
     9  H    1.155613
    10  H    1.244283
    11  H    1.324091
    12  H    1.264122
    13  H    1.172243
    14  H    1.211180
    15  H    2.482961
 Sum of Mulliken charges =  -0.00000

 Dipole moment (field-independent basis, Debye):
    X=             -3.3674    Y=              1.2509    Z=             -0.4976  Tot=              3.6265

 Test job not archived.
 1\1\GINC-SE113\SP\RHF\Aug-CC-pVDZ\C5H8O2\OHZDE\09-Apr-2025\0\\#t hf au
 g-cc-pvdz iop(5/13=1,5/36=2,99/5=2) pseudo=read geom=check guess=(read
 ,tcheck) scf=(maxcycle=1)\\title\\0,1\C,0,-0.95470516,1.42526467,-0.44
 486126\C,0,-0.25946748,0.14639295,-0.03942663\C,0,-1.12076001,-0.82173
 014,0.74097609\C,0,1.8225338,-0.7587837,-1.0814495\C,0,1.9806494,-0.12
 673473,0.20431242\O,0,3.08904897,-0.11069923,0.67415483\O,0,0.90942915
 ,0.47908263,0.72629997\H,0,-0.28895688,2.05299767,-1.03627433\H,0,-1.8
 4639631,1.20587393,-1.0331651\H,0,-1.25248226,1.97726893,0.44856701\H,

 Normal termination of Gaussian 16 at Wed Apr  9 18:55:56 2025.
