 Gaussian 16, Revision C.01,

 ----------------------------------------------------------------------
 #t hf aug-cc-pvdz symm=none int=(grid=ultrafine) guess=(read,tcheck) s
 table=(opt,rrhf)
 ----------------------------------------------------------------------
 -----
 title
 -----
 Symbolic Z-matrix:
 Charge =  0 Multiplicity = 1

 SCF Done:  E(RHF) =  -302.696847452     A.U. after   16 cycles
 Normal termination of Gaussian 16 at Wed Apr  9 18:28:24 2025.
 Gaussian 16:  ES64L-G16RevC.01  3-Jul-2019

 ----------------------------------------------------------------------
 #t hf aug-cc-pvdz iop(5/13=1,5/36=2,99/5=2) pseudo=read geom=check gue
 ss=(read,tcheck) scf=(maxcycle=1)
 ----------------------------------------------------------------------
 -----
 title
 -----
 Structure from the checkpoint file:  "Grambow2020_wb97xd3_007173_forward_mol1.chk"
 Charge =  0 Multiplicity = 1

                         Standard orientation:
 ---------------------------------------------------------------------
 Center     Atomic      Atomic             Coordinates (Angstroms)
 Number     Number       Type             X           Y           Z
 ---------------------------------------------------------------------
      1          6           0       -1.826440    1.450652   -0.174400
      2          6           0       -1.181499    0.243829    0.448508
      3          6           0       -1.400460   -1.165742    0.064635
      4          7           0       -0.311197   -0.567954   -0.393339
      5          6           0        0.990993   -0.892522   -0.290095
      6          6           0        1.922611    0.160583   -0.055927
      7          7           0        2.678376    0.997549    0.173197
      8          1           0       -2.118626    1.247127   -1.204772
      9          1           0       -1.142704    2.301647   -0.163480
     10          1           0       -2.718408    1.727964    0.389750
     11          1           0       -0.820189    0.380782    1.470935
     12          1           0       -0.430790   -1.983528    1.160710
     13          1           0       -2.135896   -1.831813   -0.355199
     14          1           0        0.431412   -1.885483    1.149254
     15          1           0        1.333715   -1.744674   -0.862531
 ---------------------------------------------------------------------

 SCF Done:  E(RHF) =  -304.166277255     A.U. after    2 cycles

 The electronic state is 1-A.
 Alpha  occ. eigenvalues --  -15.81815 -15.75538 -11.52675 -11.47762 -11.44965
 Alpha  occ. eigenvalues --  -11.42716 -11.39897  -1.57468  -1.30806  -1.17124
 Alpha  occ. eigenvalues --   -1.08060  -0.88352  -0.87098  -0.77092  -0.69956
 Alpha  occ. eigenvalues --   -0.69589  -0.59952  -0.59735  -0.55048  -0.52896
 Alpha  occ. eigenvalues --   -0.49216  -0.48352  -0.46359  -0.43934  -0.40276
 Alpha  occ. eigenvalues --   -0.29171
 Alpha virt. eigenvalues --    0.03460   0.04468   0.05158   0.05619   0.06178
 Alpha virt. eigenvalues --    0.06723   0.07232   0.07340   0.08713   0.09612
 Alpha virt. eigenvalues --    0.11243   0.11665   0.12527   0.13028   0.13601

 Mulliken charges:
               1
     1  C   -3.903608
     2  C   -0.347339
     3  C   -0.759135
     4  N   -2.245499
     5  C   -0.810079
     6  C    2.320316
     7  N   -2.424583
     8  H    1.240490
     9  H    1.211562
    10  H    1.170362
    11  H    1.587621
    12  H   -0.047678
    13  H    1.194998
    14  H    0.202759
    15  H    1.609813
 Sum of Mulliken charges =   0.00000

 Dipole moment (field-independent basis, Debye):
    X=             -3.8406    Y=             -1.3551    Z=             -1.2293  Tot=              4.2541

 Test job not archived.
 1\1\GINC-SE362\SP\RHF\Aug-CC-pVDZ\C5H8N2\OHZDE\09-Apr-2025\0\\#t hf au
 g-cc-pvdz iop(5/13=1,5/36=2,99/5=2) pseudo=read geom=check guess=(read
 ,tcheck) scf=(maxcycle=1)\\title\\0,1\C,0,-1.78487328,-1.06871419,0.25
 055126\C,0,-0.82702557,-0.05406982,-0.30927851\C,0,-0.55481999,1.29155
 572,0.23605547\N,0,0.3108333,0.32969891,0.51723379\C,0,1.63862581,0.24
 174091,0.31491218\C,0,2.16402009,-1.01026251,-0.11893821\N,0,2.5933071
 5,-2.00455843,-0.50788118\H,0,-1.92878617,-0.91861527,1.32070144\H,0,-
 1.4140619,-2.08182287,0.08347384\H,0,-2.75304641,-0.97844464,-0.244692

 Normal termination of Gaussian 16 at Wed Apr  9 18:28:28 2025.
