 Gaussian 16, Revision C.01,

 ----------------------------------------------------------------------
 #t hf aug-cc-pvdz symm=none int=(grid=ultrafine) guess=(read,tcheck) s
 table=(opt,rrhf)
 ----------------------------------------------------------------------
 -----
 title
 -----
 Symbolic Z-matrix:
 Charge =  0 Multiplicity = 1

 SCF Done:  E(RHF) =  -342.403136210     A.U. after   15 cycles
 Normal termination of Gaussian 16 at Wed Apr  9 03:59:09 2025.
 Gaussian 16:  ES64L-G16RevC.01  3-Jul-2019

 ----------------------------------------------------------------------
 #t hf aug-cc-pvdz iop(5/13=1,5/36=2,99/5=2) pseudo=read geom=check gue
 ss=(read,tcheck) scf=(maxcycle=1)
 ----------------------------------------------------------------------
 -----
 title
 -----
 Structure from the checkpoint file:  "Grambow2020_wb97xd3_008759_reverse_mol1.chk"
 Charge =  0 Multiplicity = 1

                         Standard orientation:
 ---------------------------------------------------------------------
 Center     Atomic      Atomic             Coordinates (Angstroms)
 Number     Number       Type             X           Y           Z
 ---------------------------------------------------------------------
      1          8           0       -2.279800    0.612779    0.025302
      2          6           0       -1.575414   -0.314702   -0.257366
      3          6           0       -0.275456   -0.612201    0.448583
      4          8           0        0.707232   -1.242165   -0.395158
      5          6           0        1.735199   -0.405118    0.078773
      6          6           0        1.073292    1.249180   -0.463051
      7          6           0        0.702690    0.503289    0.761490
      8          1           0       -1.844124   -1.033634   -1.058030
      9          1           0       -0.491116   -1.247979    1.314741
     10          1           0        2.082174    0.434891   -0.830512
     11          1           0        1.662396    2.144352   -0.300046
     12          1           0        0.399574    1.252615   -1.311347
     13          1           0        0.809776    0.962156    1.733466
 ---------------------------------------------------------------------

 SCF Done:  E(RHF) =  -343.937051910     A.U. after    2 cycles

 The electronic state is 1-A.
 Alpha  occ. eigenvalues --  -21.08377 -21.07451 -11.50922 -11.48565 -11.46568
 Alpha  occ. eigenvalues --  -11.45585 -11.40770  -1.82871  -1.72617  -1.26865
 Alpha  occ. eigenvalues --   -1.08831  -0.94310  -0.84005  -0.78453  -0.73076
 Alpha  occ. eigenvalues --   -0.66907  -0.63002  -0.58908  -0.54454  -0.52022
 Alpha  occ. eigenvalues --   -0.49287  -0.45892  -0.39099  -0.36333  -0.32725
 Alpha  occ. eigenvalues --   -0.27635
 Alpha virt. eigenvalues --    0.03614   0.04470   0.04976   0.06000   0.06497
 Alpha virt. eigenvalues --    0.06745   0.09037   0.10243   0.10399   0.11612
 Alpha virt. eigenvalues --    0.13209   0.13345   0.13735   0.14210   0.14489

 Mulliken charges:
               1
     1  O   -2.793041
     2  C    0.857240
     3  C    0.402738
     4  O   -2.780285
     5  C    0.525678
     6  C   -3.145934
     7  C   -1.545321
     8  H    1.466402
     9  H    1.576297
    10  H    1.440420
    11  H    1.347960
    12  H    1.281645
    13  H    1.366201
 Sum of Mulliken charges =  -0.00000

 Dipole moment (field-independent basis, Debye):
    X=             -0.7502    Y=              1.0868    Z=             -0.1677  Tot=              1.3312

 Test job not archived.
 1\1\GINC-SE105\SP\RHF\Aug-CC-pVDZ\C5H6O2\OHZDE\09-Apr-2025\0\\#t hf au
 g-cc-pvdz iop(5/13=1,5/36=2,99/5=2) pseudo=read geom=check guess=(read
 ,tcheck) scf=(maxcycle=1)\\title\\0,1\O,0,1.38064233,1.92019897,-0.893
 03835\C,0,1.596639,0.92997785,-0.25343677\C,0,0.85212677,-0.36640633,-
 0.458013\O,0,0.71825772,-1.1495984,0.74328506\C,0,-0.63680969,-1.42673
 655,0.48067934\C,0,-1.32537264,0.30351002,0.50357258\C,0,-0.65407205,-
 0.36915268,-0.63224418\H,0,2.37913392,0.89713336,0.53190024\H,0,1.3733
 1025,-0.94540523,-1.22877862\H,0,-1.39113172,-0.78260319,1.29853971\H,

 Normal termination of Gaussian 16 at Wed Apr  9 03:59:13 2025.
