 Gaussian 16, Revision C.01,

 ----------------------------------------------------------------------
 #t hf aug-cc-pvdz symm=none int=(grid=ultrafine) guess=(read,tcheck) s
 table=(opt,rrhf)
 ----------------------------------------------------------------------
 -----
 title
 -----
 Symbolic Z-matrix:
 Charge =  0 Multiplicity = 1

 SCF Done:  E(RHF) =  -305.867887807     A.U. after   14 cycles
 Normal termination of Gaussian 16 at Wed Apr  9 17:19:22 2025.
 Gaussian 16:  ES64L-G16RevC.01  3-Jul-2019

 ----------------------------------------------------------------------
 #t hf aug-cc-pvdz iop(5/13=1,5/36=2,99/5=2) pseudo=read geom=check gue
 ss=(read,tcheck) scf=(maxcycle=1)
 ----------------------------------------------------------------------
 -----
 title
 -----
 Structure from the checkpoint file:  "Grambow2020_b97d3_007099_reverse_mol2.chk"
 Charge =  0 Multiplicity = 1

                         Standard orientation:
 ---------------------------------------------------------------------
 Center     Atomic      Atomic             Coordinates (Angstroms)
 Number     Number       Type             X           Y           Z
 ---------------------------------------------------------------------
      1          6           0        1.044561    1.402031   -0.209568
      2          6           0        1.150809   -0.097342    0.020858
      3          6           0        2.529790   -0.710055   -0.175636
      4          8           0        0.188034   -0.775837    0.357201
      5          6           0       -2.423722    0.385699   -0.477594
      6          8           0       -3.098641   -0.498687   -0.200754
      7          1           0        1.431038    1.921892    0.681864
      8          1           0        1.657982    1.726504   -1.062069
      9          1           0       -0.001708    1.687603   -0.356775
     10          1           0       -1.226161    0.961084    2.932811
     11          1           0        2.550169   -1.736649    0.205199
     12          1           0        3.304114   -0.105541    0.319591
     13          1           0        2.772401   -0.718682   -1.250128
     14          1           0       -1.011607    0.577989    2.329579
 ---------------------------------------------------------------------

 SCF Done:  E(RHF) =  -307.250664122     A.U. after    2 cycles

 The electronic state is 1-A.
 Alpha  occ. eigenvalues --  -21.15847 -21.05260 -11.49428 -11.49234 -11.39703
 Alpha  occ. eigenvalues --  -11.38558  -1.77665  -1.70209  -1.15791  -1.03716
 Alpha  occ. eigenvalues --   -0.75434  -0.70730  -0.62149  -0.61797  -0.60754
 Alpha  occ. eigenvalues --   -0.60083  -0.55821  -0.51638  -0.50384  -0.50265
 Alpha  occ. eigenvalues --   -0.49163  -0.47065  -0.40728  -0.28730
 Alpha virt. eigenvalues --    0.03113   0.05344   0.05427   0.05659   0.05946
 Alpha virt. eigenvalues --    0.07253   0.07858   0.08752   0.10790   0.11733
 Alpha virt. eigenvalues --    0.11956   0.12506   0.13574   0.14076   0.15028

 Mulliken charges:
               1
     1  C   -3.929395
     2  C    4.103238
     3  C   -4.652265
     4  O   -3.209572
     5  C    0.978020
     6  O   -1.114606
     7  H    1.251047
     8  H    1.353223
     9  H    1.472155
    10  H    0.173150
    11  H    1.308813
    12  H    1.314784
    13  H    1.240900
    14  H   -0.289493
 Sum of Mulliken charges =   0.00000

 Dipole moment (field-independent basis, Debye):
    X=              0.5786    Y=             -0.5764    Z=             -0.0245  Tot=              0.8171

 Test job not archived.
 1\1\GINC-SE174\SP\RHF\Aug-CC-pVDZ\C4H8O2\OHZDE\09-Apr-2025\0\\#t hf au
 g-cc-pvdz iop(5/13=1,5/36=2,99/5=2) pseudo=read geom=check guess=(read
 ,tcheck) scf=(maxcycle=1)\\title\\0,1\C,0,-0.33206436,1.22108829,-0.31
 532808\C,0,-0.57548155,-0.15874164,0.27570465\C,0,-1.97717939,-0.42371
 3,0.80546916\O,0,0.29897359,-1.01561049,0.31470633\C,0,3.05524749,0.11
 119368,0.33889614\O,0,3.63249326,-0.85761922,0.54501408\H,0,-0.749767,
 1.24438782,-1.33476553\H,0,-0.84411378,2.00550291,0.25984498\H,0,0.742
 16214,1.42314525,-0.37111691\H,0,1.62461922,-1.03055089,-2.83061598\H,

 Normal termination of Gaussian 16 at Wed Apr  9 17:19:25 2025.
