 Gaussian 16, Revision C.01,

 ----------------------------------------------------------------------
 #t hf aug-cc-pvdz symm=none int=(grid=ultrafine) guess=(read,tcheck) s
 table=(opt,rrhf)
 ----------------------------------------------------------------------
 -----
 title
 -----
 Symbolic Z-matrix:
 Charge =  0 Multiplicity = 1

 SCF Done:  E(RHF) =  -325.077078494     A.U. after   13 cycles
 Normal termination of Gaussian 16 at Wed Apr  9 19:26:24 2025.
 Gaussian 16:  ES64L-G16RevC.01  3-Jul-2019

 ----------------------------------------------------------------------
 #t hf aug-cc-pvdz iop(5/13=1,5/36=2,99/5=2) pseudo=read geom=check gue
 ss=(read,tcheck) scf=(maxcycle=1)
 ----------------------------------------------------------------------
 -----
 title
 -----
 Structure from the checkpoint file:  "Grambow2020_wb97xd3_008959_reverse_mol2.chk"
 Charge =  0 Multiplicity = 1

                         Standard orientation:
 ---------------------------------------------------------------------
 Center     Atomic      Atomic             Coordinates (Angstroms)
 Number     Number       Type             X           Y           Z
 ---------------------------------------------------------------------
      1          6           0       -2.524202    1.129102    0.007496
      2          6           0       -2.203887   -0.298409    0.428948
      3          7           0        0.143409   -0.248750   -0.292807
      4          6           0       -1.115167   -0.954326   -0.414221
      5          6           0        1.165747   -0.866431    0.097691
      6          6           0        2.469775   -0.138986    0.232066
      7          8           0        2.356773    1.210476   -0.103483
      8          1           0       -3.310004    1.555236    0.633308
      9          1           0       -2.867152    1.163749   -1.029607
     10          1           0       -1.643844    1.767261    0.088080
     11          1           0       -1.894283   -0.317352    1.478453
     12          1           0       -3.102637   -0.918084    0.358998
     13          1           0       -1.009463   -2.011826   -0.132809
     14          1           0       -1.408727   -0.920753   -1.468429
     15          1           0        1.154405   -1.935298    0.349275
     16          1           0        2.825954   -0.250763    1.265529
     17          1           0        3.210410   -0.637192   -0.409525
     18          1           0        1.433699    1.336761   -0.367644
 ---------------------------------------------------------------------

 SCF Done:  E(RHF) =  -326.629859949     A.U. after    2 cycles

 The electronic state is 1-A.
 Alpha  occ. eigenvalues --  -21.05372 -15.73314 -11.46700 -11.43248 -11.40230
 Alpha  occ. eigenvalues --  -11.38987 -11.35046  -1.71194  -1.40495  -1.18692
 Alpha  occ. eigenvalues --   -1.05302  -0.96915  -0.85609  -0.78150  -0.68753
 Alpha  occ. eigenvalues --   -0.64237  -0.63029  -0.61471  -0.57927  -0.55787
 Alpha  occ. eigenvalues --   -0.52497  -0.48042  -0.47735  -0.46247  -0.39782
 Alpha  occ. eigenvalues --   -0.38862  -0.37343  -0.31219
 Alpha virt. eigenvalues --    0.03964   0.04899   0.05197   0.05572   0.05829
 Alpha virt. eigenvalues --    0.05999   0.06356   0.07153   0.07372   0.08563
 Alpha virt. eigenvalues --    0.09290   0.10974   0.11717   0.12315   0.13825

 Mulliken charges:
               1
     1  C   -3.473544
     2  C   -3.157892
     3  N   -2.464838
     4  C   -2.559541
     5  C   -0.185960
     6  C   -0.189282
     7  O   -2.865054
     8  H    1.113221
     9  H    1.311788
    10  H    1.392809
    11  H    1.551693
    12  H    1.344799
    13  H    1.546717
    14  H    1.543858
    15  H    1.636957
    16  H    1.281269
    17  H    1.235084
    18  H    0.937916
 Sum of Mulliken charges =  -0.00000

 Dipole moment (field-independent basis, Debye):
    X=             -0.7884    Y=             -1.7618    Z=              0.2981  Tot=              1.9530

 Test job not archived.
 1\1\GINC-SE100\SP\RHF\Aug-CC-pVDZ\C5H11N1O1\OHZDE\09-Apr-2025\0\\#t hf
  aug-cc-pvdz iop(5/13=1,5/36=2,99/5=2) pseudo=read geom=check guess=(r
 ead,tcheck) scf=(maxcycle=1)\\title\\0,1\C,0,-2.22313334,-1.11600669,-
 0.00089128\C,0,-1.82234075,0.25815368,0.51781818\N,0,0.59119894,-0.041
 93295,0.17435062\C,0,-0.43153728,0.29306048,1.1430523\C,0,1.52529041,0
 .76898374,-0.04718851\C,0,2.58285205,0.43023073,-1.05442686\O,0,2.3616
 2564,-0.81040777,-1.65299738\H,0,-3.22464528,-1.09448394,-0.43358687\H
 ,0,-2.22293023,-1.85426089,0.80494934\H,0,-1.53008242,-1.46142232,-0.7

 Normal termination of Gaussian 16 at Wed Apr  9 19:26:30 2025.
