 Gaussian 16, Revision C.01,

 ----------------------------------------------------------------------
 #t hf aug-cc-pvdz symm=none int=(grid=ultrafine) guess=(read,tcheck) s
 table=(opt,rrhf)
 ----------------------------------------------------------------------
 -----
 title
 -----
 Symbolic Z-matrix:
 Charge =  0 Multiplicity = 1

 SCF Done:  E(RHF) =  -323.747740892     A.U. after   15 cycles
 Normal termination of Gaussian 16 at Wed Apr  9 18:25:32 2025.
 Gaussian 16:  ES64L-G16RevC.01  3-Jul-2019

 ----------------------------------------------------------------------
 #t hf aug-cc-pvdz iop(5/13=1,5/36=2,99/5=2) pseudo=read geom=check gue
 ss=(read,tcheck) scf=(maxcycle=1)
 ----------------------------------------------------------------------
 -----
 title
 -----
 Structure from the checkpoint file:  "Grambow2020_wb97xd3_006976_forward_mol1.chk"
 Charge =  0 Multiplicity = 1

                         Standard orientation:
 ---------------------------------------------------------------------
 Center     Atomic      Atomic             Coordinates (Angstroms)
 Number     Number       Type             X           Y           Z
 ---------------------------------------------------------------------
      1          6           0       -2.074770   -1.224447    0.358257
      2          6           0       -0.933531   -1.199262   -0.405393
      3          6           0       -0.218617    0.846188   -0.470248
      4          8           0       -1.148913    1.634907   -0.205918
      5          6           0        0.946612    0.802699    0.522867
      6          6           0        2.002474   -0.134068    0.161585
      7          7           0        2.818922   -0.879573   -0.143947
      8          1           0       -3.045526   -1.348561   -0.106102
      9          1           0       -2.027029   -1.485857    1.409168
     10          1           0       -2.560103    0.249175    0.743312
     11          1           0       -1.030143   -1.305087   -1.477661
     12          1           0       -0.008295   -1.563633    0.020347
     13          1           0        0.031554    0.644391   -1.515444
     14          1           0       -2.179693    0.957105    0.492736
     15          1           0        0.572036    0.574944    1.522415
     16          1           0        1.373045    1.808622    0.563789
 ---------------------------------------------------------------------

 SCF Done:  E(RHF) =  -325.311359335     A.U. after    2 cycles

 The electronic state is 1-A.
 Alpha  occ. eigenvalues --  -21.06013 -15.76795 -11.51287 -11.46638 -11.46047
 Alpha  occ. eigenvalues --  -11.42948 -11.38912  -1.72677  -1.33067  -1.18760
 Alpha  occ. eigenvalues --   -1.14983  -0.90873  -0.84456  -0.73419  -0.68944
 Alpha  occ. eigenvalues --   -0.67433  -0.64224  -0.61560  -0.58559  -0.54215
 Alpha  occ. eigenvalues --   -0.51748  -0.51106  -0.45091  -0.44737  -0.39670
 Alpha  occ. eigenvalues --   -0.33932  -0.31217
 Alpha virt. eigenvalues --    0.03215   0.04614   0.04817   0.05515   0.06213
 Alpha virt. eigenvalues --    0.06589   0.07271   0.07534   0.08660   0.10472
 Alpha virt. eigenvalues --    0.10781   0.12030   0.12501   0.13504   0.13803

 Mulliken charges:
               1
     1  C   -2.913496
     2  C   -3.129584
     3  C    2.113043
     4  O   -3.329250
     5  C   -3.425095
     6  C    2.364786
     7  N   -2.452784
     8  H    1.379957
     9  H    1.389330
    10  H    0.042910
    11  H    1.288172
    12  H    1.574063
    13  H    1.746206
    14  H    0.446941
    15  H    1.521215
    16  H    1.383585
 Sum of Mulliken charges =  -0.00000

 Dipole moment (field-independent basis, Debye):
    X=             -2.6641    Y=              0.7195    Z=              0.7909  Tot=              2.8706

 Test job not archived.
 1\1\GINC-SE174\SP\RHF\Aug-CC-pVDZ\C5H9N1O1\OHZDE\09-Apr-2025\0\\#t hf
 aug-cc-pvdz iop(5/13=1,5/36=2,99/5=2) pseudo=read geom=check guess=(re
 ad,tcheck) scf=(maxcycle=1)\\title\\0,1\C,0,1.93617121,-0.07946102,0.3
 9719645\C,0,0.95134128,0.85335258,0.18227989\C,0,-0.65000516,-0.107852
 33,-0.91815169\O,0,-0.21974615,-1.12196229,-1.50454599\C,0,-1.69014838
 ,-0.34121147,0.18165318\C,0,-2.15629512,0.87804276,0.8289776\N,0,-2.50
 565298,1.85208958,1.32384861\H,0,2.86539086,-0.03718655,-0.15792916\H,
 0,1.97891579,-0.62814856,1.33108227\H,0,1.64430967,-1.43863914,-0.3919

 Normal termination of Gaussian 16 at Wed Apr  9 18:25:37 2025.
