 Gaussian 16, Revision C.01,

 ----------------------------------------------------------------------
 #t hf aug-cc-pvdz symm=none int=(grid=ultrafine) guess=(read,tcheck) s
 table=(opt,rrhf)
 ----------------------------------------------------------------------
 -----
 title
 -----
 Symbolic Z-matrix:
 Charge =  0 Multiplicity = 1

 SCF Done:  E(RHF) =  -322.517897112     A.U. after   17 cycles
 Normal termination of Gaussian 16 at Wed Apr  9 18:22:23 2025.
 Gaussian 16:  ES64L-G16RevC.01  3-Jul-2019

 ----------------------------------------------------------------------
 #t hf aug-cc-pvdz iop(5/13=1,5/36=2,99/5=2) pseudo=read geom=check gue
 ss=(read,tcheck) scf=(maxcycle=1)
 ----------------------------------------------------------------------
 -----
 title
 -----
 Structure from the checkpoint file:  "Grambow2020_wb97xd3_006937_forward_mol1.chk"
 Charge =  0 Multiplicity = 1

                         Standard orientation:
 ---------------------------------------------------------------------
 Center     Atomic      Atomic             Coordinates (Angstroms)
 Number     Number       Type             X           Y           Z
 ---------------------------------------------------------------------
      1          8           0       -0.249053   -1.277210   -0.642931
      2          6           0       -0.697773   -0.182936   -1.055413
      3          7           0       -1.408236    0.585793   -0.183102
      4          6           0       -1.672086    0.259354    1.066946
      5          6           0        1.297545   -1.005032    0.616151
      6          6           0        1.634019    0.300761    0.311942
      7          6           0        1.618347    1.415718   -0.167937
      8          1           0       -0.486909    0.264210   -2.023462
      9          1           0       -1.677276    1.503063   -0.507789
     10          1           0       -1.438148   -0.739256    1.390524
     11          1           0       -2.179491    0.975766    1.691116
     12          1           0        0.912834   -1.224843    1.603219
     13          1           0        1.839629   -1.803610    0.131069
     14          1           0        1.799123    2.414600   -0.489654
 ---------------------------------------------------------------------

 SCF Done:  E(RHF) =  -324.034315866     A.U. after    2 cycles

 The electronic state is 1-A.
 Alpha  occ. eigenvalues --  -21.04920 -15.84436 -11.44811 -11.42761 -11.41298
 Alpha  occ. eigenvalues --  -11.40687 -11.39394  -1.71306  -1.43612  -1.15777
 Alpha  occ. eigenvalues --   -1.01260  -0.97086  -0.83068  -0.74894  -0.73300
 Alpha  occ. eigenvalues --   -0.63348  -0.60881  -0.60088  -0.58385  -0.57592
 Alpha  occ. eigenvalues --   -0.49893  -0.43984  -0.36424  -0.34248  -0.31236
 Alpha  occ. eigenvalues --   -0.20463
 Alpha virt. eigenvalues --    0.02983   0.04577   0.04834   0.05196   0.06151
 Alpha virt. eigenvalues --    0.06732   0.07141   0.09011   0.09632   0.11161
 Alpha virt. eigenvalues --    0.11406   0.12615   0.13185   0.14201   0.14515

 Mulliken charges:
               1
     1  O   -2.579890
     2  C    1.894840
     3  N   -2.030765
     4  C   -2.391971
     5  C   -3.212066
     6  C    3.681969
     7  C   -3.733880
     8  H    1.653769
     9  H    0.733714
    10  H    1.668560
    11  H    1.337591
    12  H    1.232640
    13  H    1.099834
    14  H    0.645655
 Sum of Mulliken charges =  -0.00000

 Dipole moment (field-independent basis, Debye):
    X=             -2.2639    Y=              1.7066    Z=              0.1918  Tot=              2.8416

 Test job not archived.
 1\1\GINC-SE226\SP\RHF\Aug-CC-pVDZ\C5H7N1O1\OHZDE\09-Apr-2025\0\\#t hf
 aug-cc-pvdz iop(5/13=1,5/36=2,99/5=2) pseudo=read geom=check guess=(re
 ad,tcheck) scf=(maxcycle=1)\\title\\0,1\O,0,-1.16080843,-0.33993993,-0
 .796653\C,0,-1.20357174,0.63792673,-0.01506783\N,0,-0.96730643,0.40961
 275,1.30730903\C,0,-0.70708382,-0.77113343,1.83354412\C,0,0.73123542,-
 0.96336576,-1.08448323\C,0,1.42503231,0.14624682,-0.63922214\C,0,1.683
 67427,1.23041011,-0.15823042\H,0,-1.31255608,1.6790647,-0.30776929\H,0
 ,-0.9126442,1.22379235,1.9017088\H,0,-0.82528078,-1.64066831,1.2117800

 Normal termination of Gaussian 16 at Wed Apr  9 18:22:27 2025.
