 Gaussian 16, Revision C.01,

 ----------------------------------------------------------------------
 #t hf aug-cc-pvdz symm=none int=(grid=ultrafine) guess=(read,tcheck) s
 table=(opt,rrhf)
 ----------------------------------------------------------------------
 -----
 title
 -----
 Symbolic Z-matrix:
 Charge =  0 Multiplicity = 1

 SCF Done:  E(RHF) =  -338.624977892     A.U. after   15 cycles
 Normal termination of Gaussian 16 at Wed Apr  9 03:40:23 2025.
 Gaussian 16:  ES64L-G16RevC.01  3-Jul-2019

 ----------------------------------------------------------------------
 #t hf aug-cc-pvdz iop(5/13=1,5/36=2,99/5=2) pseudo=read geom=check gue
 ss=(read,tcheck) scf=(maxcycle=1)
 ----------------------------------------------------------------------
 -----
 title
 -----
 Structure from the checkpoint file:  "Grambow2020_wb97xd3_007486_forward_mol1.chk"
 Charge =  0 Multiplicity = 1

                         Standard orientation:
 ---------------------------------------------------------------------
 Center     Atomic      Atomic             Coordinates (Angstroms)
 Number     Number       Type             X           Y           Z
 ---------------------------------------------------------------------
      1          6           0        2.451903    0.322611   -0.012791
      2          8           0        1.432837   -0.664996    0.010206
      3          6           0        0.188582   -0.194849    0.024759
      4          6           0       -0.351741    1.054231    0.023695
      5          7           0       -1.726384    0.912956   -0.087258
      6          6           0       -2.049014   -0.434436   -0.098846
      7          7           0       -0.846169   -1.082164    0.012098
      8          1           0        2.363426    0.943598   -0.907827
      9          1           0        3.398020   -0.212203   -0.027230
     10          1           0        2.397632    0.952073    0.879270
     11          1           0        0.130278    2.016414    0.050339
     12          1           0       -2.448074    0.399810    0.800999
     13          1           0       -0.734486   -2.080616    0.028014
 ---------------------------------------------------------------------

 SCF Done:  E(RHF) =  -340.160357068     A.U. after    2 cycles

 The electronic state is 1-A.
 Alpha  occ. eigenvalues --  -21.11092 -15.79107 -15.75839 -11.50649 -11.43688
 Alpha  occ. eigenvalues --  -11.39579 -11.37831  -1.83762  -1.55962  -1.29122
 Alpha  occ. eigenvalues --   -1.09402  -1.01784  -0.84492  -0.79744  -0.74092
 Alpha  occ. eigenvalues --   -0.66806  -0.63765  -0.61681  -0.59417  -0.55380
 Alpha  occ. eigenvalues --   -0.47754  -0.46613  -0.40666  -0.38236  -0.34123
 Alpha  occ. eigenvalues --   -0.29448
 Alpha virt. eigenvalues --    0.03033   0.04798   0.05671   0.05902   0.06645
 Alpha virt. eigenvalues --    0.06812   0.08674   0.10844   0.11518   0.12134
 Alpha virt. eigenvalues --    0.12483   0.13779   0.14043   0.14888   0.15583

 Mulliken charges:
               1
     1  C   -3.226913
     2  O   -3.643421
     3  C    5.115871
     4  C   -0.177882
     5  N   -2.495981
     6  C   -0.623904
     7  N   -2.793992
     8  H    1.389777
     9  H    1.374824
    10  H    1.365406
    11  H    1.466219
    12  H    1.339231
    13  H    0.910766
 Sum of Mulliken charges =  -0.00000

 Dipole moment (field-independent basis, Debye):
    X=              4.8497    Y=             -0.7528    Z=              0.7996  Tot=              4.9725

 Test job not archived.
 1\1\GINC-SE345\SP\RHF\Aug-CC-pVDZ\C4H6N2O1\OHZDE\09-Apr-2025\0\\#t hf
 aug-cc-pvdz iop(5/13=1,5/36=2,99/5=2) pseudo=read geom=check guess=(re
 ad,tcheck) scf=(maxcycle=1)\\title\\0,1\C,0,-2.12937854,0.03502399,-0.
 18472473\O,0,-1.08675806,-0.74700498,0.37720635\C,0,0.14000336,-0.2615
 8751,0.2073556\C,0,0.64399313,0.84661192,-0.40095247\N,0,2.00472595,0.
 88305517,-0.13829366\C,0,2.36073473,-0.23974638,0.59127145\N,0,1.19208
 751,-0.93840446,0.748868\H,0,-2.14466185,1.0318194,0.26328029\H,0,-3.0
 5776414,-0.48399482,0.03908468\H,0,-2.00588907,0.11956212,-1.26756489\

 Normal termination of Gaussian 16 at Wed Apr  9 03:40:26 2025.
