 Gaussian 16, Revision C.01,

 ----------------------------------------------------------------------
 #t hf aug-cc-pvdz symm=none int=(grid=ultrafine) guess=(read,tcheck) s
 table=(opt,rrhf)
 ----------------------------------------------------------------------
 -----
 title
 -----
 Symbolic Z-matrix:
 Charge =  0 Multiplicity = 1

 SCF Done:  E(RHF) =  -320.683347269     A.U. after   15 cycles
 Normal termination of Gaussian 16 at Wed Apr  9 17:27:49 2025.
 Gaussian 16:  ES64L-G16RevC.01  3-Jul-2019

 ----------------------------------------------------------------------
 #t hf aug-cc-pvdz iop(5/13=1,5/36=2,99/5=2) pseudo=read geom=check gue
 ss=(read,tcheck) scf=(maxcycle=1)
 ----------------------------------------------------------------------
 -----
 title
 -----
 Structure from the checkpoint file:  "Grambow2020_b97d3_007141_reverse_mol2.chk"
 Charge =  0 Multiplicity = 1

                         Standard orientation:
 ---------------------------------------------------------------------
 Center     Atomic      Atomic             Coordinates (Angstroms)
 Number     Number       Type             X           Y           Z
 ---------------------------------------------------------------------
      1          8           0       -2.259950    0.511805   -0.031534
      2          6           0       -1.286886   -0.156751   -0.109131
      3          7           0       -0.439512   -1.039145   -0.191965
      4          6           0        0.985058   -0.983774   -0.281650
      5          6           0        1.572899    0.413955   -0.149420
      6          8           0        0.904069    1.416127   -0.000844
      7          1           0        0.137048   -0.645593    2.654260
      8          1           0        1.442570   -1.617052    0.498666
      9          1           0        1.331168   -1.404881   -1.243170
     10          1           0        2.686662    0.447170   -0.203311
     11          1           0        0.699758   -0.569661    3.137538
 ---------------------------------------------------------------------

 SCF Done:  E(RHF) =  -322.080085809     A.U. after    2 cycles

 The electronic state is 1-A.
 Alpha  occ. eigenvalues --  -21.11897 -21.09407 -15.77178 -11.57450 -11.51777
 Alpha  occ. eigenvalues --  -11.45785  -1.75733  -1.73521  -1.41325  -1.10936
 Alpha  occ. eigenvalues --   -0.87231  -0.70675  -0.69794  -0.67623  -0.62220
 Alpha  occ. eigenvalues --   -0.59837  -0.57006  -0.56128  -0.51108  -0.45656
 Alpha  occ. eigenvalues --   -0.38530  -0.33318  -0.31841
 Alpha virt. eigenvalues --    0.02971   0.04914   0.05163   0.06529   0.07474
 Alpha virt. eigenvalues --    0.09216   0.10305   0.10926   0.11727   0.12279
 Alpha virt. eigenvalues --    0.12986   0.13725   0.14588   0.15088   0.15774

 Mulliken charges:
               1
     1  O   -2.519076
     2  C    3.926990
     3  N   -2.448388
     4  C   -1.945319
     5  C    1.196589
     6  O   -2.543104
     7  H   -0.210366
     8  H    1.479929
     9  H    1.394045
    10  H    1.542697
    11  H    0.126002
 Sum of Mulliken charges =  -0.00000

 Dipole moment (field-independent basis, Debye):
    X=              1.7339    Y=             -0.0033    Z=             -0.1360  Tot=              1.7392

 Test job not archived.
 1\1\GINC-SE135\SP\RHF\Aug-CC-pVDZ\C3H5N1O2\OHZDE\09-Apr-2025\0\\#t hf
 aug-cc-pvdz iop(5/13=1,5/36=2,99/5=2) pseudo=read geom=check guess=(re
 ad,tcheck) scf=(maxcycle=1)\\title\\0,1\O,0,2.9121999,-0.16597179,0.26
 770422\C,0,1.76741441,-0.40489393,0.44721548\N,0,0.66230493,-0.8831839
 1,0.67850254\C,0,-0.63966649,-0.29640035,0.71112664\C,0,-0.68581709,1.
 16376915,0.28396723\O,0,0.29360571,1.80311775,-0.04118054\H,0,0.141424
 07,-0.87672328,-2.20540835\H,0,-1.33001746,-0.86022665,0.0593855\H,0,-
 1.07169086,-0.36392934,1.72623116\H,0,-1.70810704,1.61015803,0.2955971

 Normal termination of Gaussian 16 at Wed Apr  9 17:27:52 2025.
