 Gaussian 16, Revision C.01,

 ----------------------------------------------------------------------
 #t hf aug-cc-pvdz symm=none int=(grid=ultrafine) guess=(read,tcheck) s
 table=(opt,rrhf)
 ----------------------------------------------------------------------
 -----
 title
 -----
 Symbolic Z-matrix:
 Charge =  0 Multiplicity = 1

 SCF Done:  E(RHF) =  -245.539982620     A.U. after   17 cycles
 Normal termination of Gaussian 16 at Wed Apr  9 17:37:24 2025.
 Gaussian 16:  ES64L-G16RevC.01  3-Jul-2019

 ----------------------------------------------------------------------
 #t hf aug-cc-pvdz iop(5/13=1,5/36=2,99/5=2) pseudo=read geom=check gue
 ss=(read,tcheck) scf=(maxcycle=1)
 ----------------------------------------------------------------------
 -----
 title
 -----
 Structure from the checkpoint file:  "Grambow2020_b97d3_007205_forward_mol1.chk"
 Charge =  0 Multiplicity = 1

                         Standard orientation:
 ---------------------------------------------------------------------
 Center     Atomic      Atomic             Coordinates (Angstroms)
 Number     Number       Type             X           Y           Z
 ---------------------------------------------------------------------
      1          8           0        1.998542   -0.307917   -0.270251
      2          6           0        0.985051    0.082145    0.200815
      3          6           0       -0.351937   -0.185416    0.654034
      4          6           0       -1.050282    0.672699   -0.411653
      5          7           0       -1.558507   -0.614571   -0.065983
      6          1           0        0.521562    1.898587    0.363886
      7          1           0       -0.553055    0.189294    1.658432
      8          1           0       -0.479301    1.857301    0.153579
      9          1           0       -0.559615    0.726772   -1.402606
     10          1           0       -1.505369   -1.323190   -0.808574
 ---------------------------------------------------------------------

 SCF Done:  E(RHF) =  -246.673169431     A.U. after    2 cycles

 The electronic state is 1-A.
 Alpha  occ. eigenvalues --  -21.15505 -15.81075 -11.58803 -11.47714 -11.43539
 Alpha  occ. eigenvalues --   -1.78036  -1.49935  -1.09057  -0.90234  -0.81322
 Alpha  occ. eigenvalues --   -0.70679  -0.64421  -0.60293  -0.55603  -0.52382
 Alpha  occ. eigenvalues --   -0.49478  -0.44826  -0.34862  -0.28619
 Alpha virt. eigenvalues --    0.03794   0.05452   0.05892   0.07122   0.07551
 Alpha virt. eigenvalues --    0.08490   0.09825   0.10674   0.10949   0.11561
 Alpha virt. eigenvalues --    0.13737   0.14056   0.14877   0.16173   0.16464

 Mulliken charges:
               1
     1  O   -2.756678
     2  C    2.888905
     3  C   -0.705980
     4  C   -0.961434
     5  N   -2.283518
     6  H    0.252484
     7  H    1.565350
     8  H    0.060183
     9  H    1.290125
    10  H    0.650564
 Sum of Mulliken charges =   0.00000

 Dipole moment (field-independent basis, Debye):
    X=              0.6768    Y=             -2.8675    Z=             -1.1551  Tot=              3.1646

 Test job not archived.
 1\1\GINC-SE112\SP\RHF\Aug-CC-pVDZ\C3H5N1O1\OHZDE\09-Apr-2025\0\\#t hf
 aug-cc-pvdz iop(5/13=1,5/36=2,99/5=2) pseudo=read geom=check guess=(re
 ad,tcheck) scf=(maxcycle=1)\\title\\0,1\O,0,1.70456973,-0.60332267,1.4
 8677333\C,0,1.11310037,-0.31855251,0.50174239\C,0,0.38544162,0.6532519
 2,-0.26678866\C,0,-0.95756568,-0.09123479,-0.22428805\N,0,-0.9014803,1
 .32060017,-0.02827729\H,0,0.49349496,-1.56795715,-0.76156777\H,0,0.748
 22639,0.75757385,-1.29010492\H,0,-0.40665149,-1.15080854,-1.01332813\H
 ,0,-1.16889885,-0.67835382,0.69020451\H,0,-1.16071474,1.64554954,0.911

 Normal termination of Gaussian 16 at Wed Apr  9 17:37:27 2025.
