 Gaussian 16, Revision C.01,

 ----------------------------------------------------------------------
 #t hf aug-cc-pvdz symm=none int=(grid=ultrafine) guess=(read,tcheck) s
 table=(opt,rrhf)
 ----------------------------------------------------------------------
 -----
 title
 -----
 Symbolic Z-matrix:
 Charge =  0 Multiplicity = 1

 SCF Done:  E(RHF) =  -353.532599410     A.U. after   16 cycles
 Normal termination of Gaussian 16 at Wed Apr  9 18:54:27 2025.
 Gaussian 16:  ES64L-G16RevC.01  3-Jul-2019

 ----------------------------------------------------------------------
 #t hf aug-cc-pvdz iop(5/13=1,5/36=2,99/5=2) pseudo=read geom=check gue
 ss=(read,tcheck) scf=(maxcycle=1)
 ----------------------------------------------------------------------
 -----
 title
 -----
 Structure from the checkpoint file:  "Grambow2020_wb97xd3_007770_reverse_mol2.chk"
 Charge =  0 Multiplicity = 1

                         Standard orientation:
 ---------------------------------------------------------------------
 Center     Atomic      Atomic             Coordinates (Angstroms)
 Number     Number       Type             X           Y           Z
 ---------------------------------------------------------------------
      1          8           0       -2.566526    0.023429   -0.039903
      2          6           0       -1.444111   -0.089387   -0.416349
      3          7           0        0.529692    1.162286    0.200341
      4          6           0       -0.224102   -0.049273    0.526839
      5          7           0        0.634717   -1.159713    0.247427
      6          6           0        1.685475   -0.619917   -0.211573
      7          7           0        1.637093    0.820245   -0.246951
      8          1           0       -1.174841   -0.232249   -1.480367
      9          1           0       -0.573948   -0.021121    1.559456
     10          1           0        2.566906   -1.142324   -0.559097
 ---------------------------------------------------------------------

 SCF Done:  E(RHF) =  -355.064910028     A.U. after    2 cycles

 The electronic state is 1-A.
 Alpha  occ. eigenvalues --  -21.09819 -15.82969 -15.82273 -15.78224 -11.52590
 Alpha  occ. eigenvalues --  -11.47942 -11.45761  -1.75161  -1.66910  -1.36895
 Alpha  occ. eigenvalues --   -1.19514  -0.94626  -0.85959  -0.84967  -0.75548
 Alpha  occ. eigenvalues --   -0.67961  -0.62810  -0.55974  -0.53803  -0.52306
 Alpha  occ. eigenvalues --   -0.48548  -0.43498  -0.42948  -0.40012  -0.31866
 Alpha virt. eigenvalues --    0.03447   0.05086   0.05963   0.06538   0.09153
 Alpha virt. eigenvalues --    0.10210   0.10460   0.10688   0.11405   0.12367
 Alpha virt. eigenvalues --    0.12981   0.14404   0.15195   0.15808   0.16033

 Mulliken charges:
               1
     1  O   -2.859420
     2  C    3.003427
     3  N   -0.587246
     4  C   -1.878308
     5  N   -2.274006
     6  C    1.265386
     7  N   -1.283775
     8  H    1.579432
     9  H    1.632992
    10  H    1.401518
 Sum of Mulliken charges =   0.00000

 Dipole moment (field-independent basis, Debye):
    X=              0.7751    Y=             -1.0632    Z=             -0.0318  Tot=              1.3162

 Test job not archived.
 1\1\GINC-SE226\SP\RHF\Aug-CC-pVDZ\C3H3N3O1\OHZDE\09-Apr-2025\0\\#t hf
 aug-cc-pvdz iop(5/13=1,5/36=2,99/5=2) pseudo=read geom=check guess=(re
 ad,tcheck) scf=(maxcycle=1)\\title\\0,1\O,0,2.5189186,0.54833269,-0.73
 133434\C,0,1.53243107,-0.05358852,-0.4506422\N,0,-0.04990356,0.314085,
 1.33930901\C,0,0.20215398,0.62737586,-0.06817038\N,0,-0.86781259,0.045
 86307,-0.820323\C,0,-1.56968799,-0.53973662,0.05751308\N,0,-1.07648666
 ,-0.38269108,1.40278203\H,0,1.48196274,-1.15918185,-0.43771579\H,0,0.2
 9918074,1.70387263,-0.21384831\H,0,-2.46522833,-1.11766617,-0.12851511

 Normal termination of Gaussian 16 at Wed Apr  9 18:54:30 2025.
