 Gaussian 16, Revision C.01,

 ----------------------------------------------------------------------
 #t hf aug-cc-pvdz symm=none int=(grid=ultrafine) guess=(read,tcheck) s
 table=(opt,rrhf)
 ----------------------------------------------------------------------
 -----
 title
 -----
 Symbolic Z-matrix:
 Charge =  0 Multiplicity = 1

 SCF Done:  E(RHF) =  -247.754586462     A.U. after   14 cycles
 Normal termination of Gaussian 16 at Wed Apr  9 17:48:26 2025.
 Gaussian 16:  ES64L-G16RevC.01  3-Jul-2019

 ----------------------------------------------------------------------
 #t hf aug-cc-pvdz iop(5/13=1,5/36=2,99/5=2) pseudo=read geom=check gue
 ss=(read,tcheck) scf=(maxcycle=1)
 ----------------------------------------------------------------------
 -----
 title
 -----
 Structure from the checkpoint file:  "Grambow2020_wb97xd3_006173_forward_mol1.chk"
 Charge =  0 Multiplicity = 1

                         Standard orientation:
 ---------------------------------------------------------------------
 Center     Atomic      Atomic             Coordinates (Angstroms)
 Number     Number       Type             X           Y           Z
 ---------------------------------------------------------------------
      1          6           0        1.595002   -0.948744   -0.225819
      2          6           0        1.010963    0.293394    0.384393
      3          6           0        0.280567    1.290145   -0.446589
      4          6           0       -0.479159    0.451482    0.549818
      5          6           0       -1.334610   -0.969152    0.334597
      6          7           0       -1.838291   -0.275214   -0.483279
      7          1           0        1.654931   -1.750707    0.511544
      8          1           0        2.599674   -0.749598   -0.602424
      9          1           0        0.985329   -1.305605   -1.056966
     10          1           0        1.559648    0.685964    1.234772
     11          1           0        0.143395    1.064813   -1.494822
     12          1           0        0.363211    2.344156   -0.216072
     13          1           0       -0.874728    0.934722    1.428527
 ---------------------------------------------------------------------

 SCF Done:  E(RHF) =  -248.955231999     A.U. after    2 cycles

 The electronic state is 1-A.
 Alpha  occ. eigenvalues --  -15.78845 -11.47847 -11.44934 -11.40200 -11.40092
 Alpha  occ. eigenvalues --  -11.38208  -1.43578  -1.28303  -1.05938  -0.88641
 Alpha  occ. eigenvalues --   -0.82683  -0.71648  -0.66512  -0.61554  -0.58577
 Alpha  occ. eigenvalues --   -0.55807  -0.51452  -0.50166  -0.47030  -0.45165
 Alpha  occ. eigenvalues --   -0.39691  -0.37432
 Alpha virt. eigenvalues --    0.03767   0.05127   0.05353   0.05544   0.06167
 Alpha virt. eigenvalues --    0.06467   0.07328   0.08941   0.10383   0.12134
 Alpha virt. eigenvalues --    0.12736   0.13557   0.13684   0.14610   0.14736

 Mulliken charges:
               1
     1  C   -4.517378
     2  C   -0.356820
     3  C   -2.437313
     4  C   -0.468672
     5  C   -0.162082
     6  N   -0.908529
     7  H    1.231919
     8  H    1.117759
     9  H    1.335808
    10  H    1.309538
    11  H    1.396641
    12  H    1.149876
    13  H    1.309254
 Sum of Mulliken charges =   0.00000

 Dipole moment (field-independent basis, Debye):
    X=              2.0536    Y=              2.0396    Z=              0.1292  Tot=              2.8972

 Test job not archived.
 1\1\GINC-SE041\SP\RHF\Aug-CC-pVDZ\C5H7N1\OHZDE\09-Apr-2025\0\\#t hf au
 g-cc-pvdz iop(5/13=1,5/36=2,99/5=2) pseudo=read geom=check guess=(read
 ,tcheck) scf=(maxcycle=1)\\title\\0,1\C,0,1.43817048,0.61720082,-0.043
 40115\C,0,0.46105647,-0.5098664,-0.22041432\C,0,-0.54797635,-0.8268199
 6,0.8278767\C,0,-0.99811297,-0.23914055,-0.48565875\C,0,-1.32320195,1.
 34716973,-0.90309503\N,0,-2.01724564,1.21645001,0.04842081\H,0,1.75188
 122,1.01281306,-1.01062145\H,0,2.32363267,0.27050108,0.49196134\H,0,0.
 99738388,1.4374876,0.52466066\H,0,0.83210003,-1.34922319,-0.80017124\H

 Normal termination of Gaussian 16 at Wed Apr  9 17:48:30 2025.
