 Gaussian 16, Revision C.01,

 ----------------------------------------------------------------------
 #t hf aug-cc-pvdz symm=none int=(grid=ultrafine) guess=(read,tcheck) s
 table=(opt,rrhf)
 ----------------------------------------------------------------------
 -----
 title
 -----
 Symbolic Z-matrix:
 Charge =  0 Multiplicity = 1

 SCF Done:  E(RHF) =  -344.767494663     A.U. after   15 cycles

 1\1\GINC-SE094\Stability\RHF\Aug-CC-pVDZ\C5H10O2\OHZDE\09-Apr-2025\0\\
 #t hf aug-cc-pvdz symm=none int=(grid=ultrafine) guess=(read,tcheck) s
 table=(opt,rrhf)\\title\\0,1\C,0,-2.24829167,-0.36421281,0.00601188\C,
 0,-1.12918865,0.42379852,-0.65979618\C,0,0.23105144,-0.21652918,-0.572
 26417\O,0,0.20138329,-1.53697342,-0.94076544\C,0,1.42022512,0.50506799
 ,-0.68538866\C,0,2.29760564,0.42299593,1.02953379\O,0,3.14938216,1.134
 29183,1.32573026\H,0,-3.20371193,0.14647399,-0.12216669\H,0,-2.3340149
 7,-1.36048472,-0.42768284\H,0,-2.06424315,-0.4780482,1.07629524\H,0,-1

 Normal termination of Gaussian 16 at Wed Apr  9 03:45:44 2025.
 Gaussian 16:  ES64L-G16RevC.01  3-Jul-2019

 ----------------------------------------------------------------------
 #t hf aug-cc-pvdz iop(5/13=1,5/36=2,99/5=2) pseudo=read geom=check gue
 ss=(read,tcheck) scf=(maxcycle=1)
 ----------------------------------------------------------------------
 -----
 title
 -----
 Structure from the checkpoint file:  "Grambow2020_wb97xd3_007827_forward_mol1.chk"
 Charge =  0 Multiplicity = 1

                         Standard orientation:
 ---------------------------------------------------------------------
 Center     Atomic      Atomic             Coordinates (Angstroms)
 Number     Number       Type             X           Y           Z
 ---------------------------------------------------------------------
      1          6           0       -2.575717   -0.838447   -0.420827
      2          6           0       -1.531860   -0.539536    0.645788
      3          6           0       -0.420210    0.374030    0.201302
      4          8           0       -0.897896    1.497698   -0.422744
      5          6           0        0.830572    0.406788    0.819448
      6          6           0        2.112924   -0.249044   -0.462328
      7          8           0        3.168446   -0.590822   -0.165247
      8          1           0       -3.359931   -1.481166   -0.018358
      9          1           0       -3.039451    0.080323   -0.779727
     10          1           0       -2.126607   -1.345320   -1.277401
     11          1           0       -2.017442   -0.063630    1.505529
     12          1           0       -1.081412   -1.464251    1.013055
     13          1           0        0.013278   -0.504201   -1.106839
     14          1           0       -0.180664    2.118698   -0.566231
     15          1           0        1.007141   -0.318597    1.605539
     16          1           0        1.292006    1.372047    1.004040
     17          1           0        0.834422   -0.571649   -1.375975
 ---------------------------------------------------------------------

 SCF Done:  E(RHF) =  -346.412131674     A.U. after    2 cycles

 The electronic state is 1-A.
 Alpha  occ. eigenvalues --  -21.11981 -21.10638 -11.51070 -11.48177 -11.42171
 Alpha  occ. eigenvalues --  -11.38975 -11.36419  -1.76991  -1.75469  -1.22078
 Alpha  occ. eigenvalues --   -1.09856  -0.93376  -0.80663  -0.78685  -0.68077
 Alpha  occ. eigenvalues --   -0.64628  -0.61632  -0.60485  -0.56874  -0.53323
 Alpha  occ. eigenvalues --   -0.50322  -0.49906  -0.48356  -0.46803  -0.45553
 Alpha  occ. eigenvalues --   -0.42514  -0.39284  -0.24560
 Alpha virt. eigenvalues --    0.03645   0.04932   0.05318   0.05565   0.06119
 Alpha virt. eigenvalues --    0.06286   0.06402   0.07603   0.08126   0.10758
 Alpha virt. eigenvalues --    0.11594   0.11917   0.12534   0.13426   0.13709

 Mulliken charges:
               1
     1  C   -3.928589
     2  C   -3.927680
     3  C    5.713367
     4  O   -3.768542
     5  C   -4.212799
     6  C    1.483164
     7  O   -2.192299
     8  H    1.107788
     9  H    1.352245
    10  H    1.392668
    11  H    1.339105
    12  H    1.419486
    13  H   -0.493880
    14  H    0.854805
    15  H    1.399650
    16  H    1.397862
    17  H    1.063649
 Sum of Mulliken charges =   0.00000

 Dipole moment (field-independent basis, Debye):
    X=             -0.1521    Y=              0.4985    Z=              1.0670  Tot=              1.1874

 Test job not archived.
 1\1\GINC-SE094\SP\RHF\Aug-CC-pVDZ\C5H10O2\OHZDE\09-Apr-2025\0\\#t hf a
 ug-cc-pvdz iop(5/13=1,5/36=2,99/5=2) pseudo=read geom=check guess=(rea
 d,tcheck) scf=(maxcycle=1)\\title\\0,1\C,0,-2.24829167,-0.36421281,0.0
 0601188\C,0,-1.12918865,0.42379852,-0.65979618\C,0,0.23105144,-0.21652
 918,-0.57226417\O,0,0.20138329,-1.53697342,-0.94076544\C,0,1.42022512,
 0.50506799,-0.68538866\C,0,2.29760564,0.42299593,1.02953379\O,0,3.1493
 8216,1.13429183,1.32573026\H,0,-3.20371193,0.14647399,-0.12216669\H,0,
 -2.33401497,-1.36048472,-0.42768284\H,0,-2.06424315,-0.4780482,1.07629

 Normal termination of Gaussian 16 at Wed Apr  9 03:45:50 2025.
