 Gaussian 16, Revision C.01,

 ----------------------------------------------------------------------
 #t hf aug-cc-pvdz symm=none int=(grid=ultrafine) guess=(read,tcheck) s
 table=(opt,rrhf)
 ----------------------------------------------------------------------
 -----
 title
 -----
 Symbolic Z-matrix:
 Charge =  0 Multiplicity = 1

 SCF Done:  E(RHF) =  -270.758870562     A.U. after   16 cycles
 Normal termination of Gaussian 16 at Wed Apr  9 19:12:15 2025.
 Gaussian 16:  ES64L-G16RevC.01  3-Jul-2019

 ----------------------------------------------------------------------
 #t hf aug-cc-pvdz iop(5/13=1,5/36=2,99/5=2) pseudo=read geom=check gue
 ss=(read,tcheck) scf=(maxcycle=1)
 ----------------------------------------------------------------------
 -----
 title
 -----
 Structure from the checkpoint file:  "Grambow2020_wb97xd3_008385_reverse_mol1.chk"
 Charge =  0 Multiplicity = 1

                         Standard orientation:
 ---------------------------------------------------------------------
 Center     Atomic      Atomic             Coordinates (Angstroms)
 Number     Number       Type             X           Y           Z
 ---------------------------------------------------------------------
      1          6           0        2.278739   -0.133308    0.276886
      2          6           0        0.832352    0.045027   -0.022262
      3          6           0       -1.174309   -0.620047    1.165213
      4          6           0       -1.297160   -0.439237   -0.347595
      5          6           0        0.033554   -0.942310   -0.856090
      6          6           0       -1.167768    1.042976   -0.333704
      7          6           0        0.158706    1.279270   -0.057418
      8          1           0        2.844000   -0.167450   -0.662514
      9          1           0        2.674701    0.680810    0.884109
     10          1           0        2.459785   -1.076383    0.793468
     11          1           0       -1.005572    0.239959    1.791425
     12          1           0       -1.775749   -1.403978    1.636627
     13          1           0       -2.210863   -0.849183   -0.779688
     14          1           0        0.221989   -0.802356   -1.933301
     15          1           0        0.203353   -1.984468   -0.589816
     16          1           0       -1.987861    1.745613   -0.338519
     17          1           0        0.591535    2.223210    0.248031
 ---------------------------------------------------------------------

 SCF Done:  E(RHF) =  -272.133150050     A.U. after    2 cycles

 The electronic state is 1-A.
 Alpha  occ. eigenvalues --  -11.47423 -11.44996 -11.42294 -11.39705 -11.39122
 Alpha  occ. eigenvalues --  -11.38053 -11.35303  -1.40193  -1.12425  -1.04519
 Alpha  occ. eigenvalues --   -0.98332  -0.89178  -0.78428  -0.74653  -0.68176
 Alpha  occ. eigenvalues --   -0.62944  -0.58699  -0.56471  -0.55888  -0.51850
 Alpha  occ. eigenvalues --   -0.48670  -0.46584  -0.43972  -0.42693  -0.34812
 Alpha  occ. eigenvalues --   -0.24250
 Alpha virt. eigenvalues --    0.03909   0.04910   0.05070   0.05370   0.05768
 Alpha virt. eigenvalues --    0.05912   0.06507   0.06842   0.07837   0.08318
 Alpha virt. eigenvalues --    0.08813   0.11690   0.12334   0.12792   0.13401

 Mulliken charges:
               1
     1  C   -5.070845
     2  C    3.660030
     3  C   -2.240652
     4  C   -3.405627
     5  C   -3.839878
     6  C   -0.983259
     7  C   -2.008366
     8  H    1.182368
     9  H    1.350841
    10  H    1.306130
    11  H    1.557558
    12  H    1.329591
    13  H    1.547156
    14  H    1.208844
    15  H    1.476898
    16  H    1.398045
    17  H    1.531165
 Sum of Mulliken charges =   0.00000

 Dipole moment (field-independent basis, Debye):
    X=              0.2251    Y=              0.3575    Z=             -0.4455  Tot=              0.6139

 Test job not archived.
 1\1\GINC-SE224\SP\RHF\Aug-CC-pVDZ\C7H10\OHZDE\09-Apr-2025\0\\#t hf aug
 -cc-pvdz iop(5/13=1,5/36=2,99/5=2) pseudo=read geom=check guess=(read,
 tcheck) scf=(maxcycle=1)\\title\\0,1\C,0,2.17732084,0.09260424,-0.2282
 2228\C,0,0.69396757,0.19736133,-0.18328667\C,0,-0.9811177,-0.91873928,
 1.16857052\C,0,-1.43226914,-0.39773073,-0.19575597\C,0,-0.21997858,-0.
 63644422,-1.0651327\C,0,-1.36873005,1.04448629,0.16460835\C,0,-0.02566
 538,1.33455704,0.22574094\H,0,2.52974724,0.33597522,-1.23803646\H,0,2.
 65739916,0.77398385,0.47430148\H,0,2.50618764,-0.92413219,-0.01115418\

 Normal termination of Gaussian 16 at Wed Apr  9 19:12:21 2025.
