 Gaussian 16, Revision C.01,

 ----------------------------------------------------------------------
 #t hf aug-cc-pvdz symm=none int=(grid=ultrafine) guess=(read,tcheck) s
 table=(opt,rrhf)
 ----------------------------------------------------------------------
 -----
 title
 -----
 Symbolic Z-matrix:
 Charge =  0 Multiplicity = 1

 SCF Done:  E(RHF) =  -344.771971548     A.U. after   15 cycles

 1\1\GINC-SE343\Stability\RHF\Aug-CC-pVDZ\C5H10O2\OHZDE\09-Apr-2025\0\\
 #t hf aug-cc-pvdz symm=none int=(grid=ultrafine) guess=(read,tcheck) s
 table=(opt,rrhf)\\title\\0,1\C,0,2.64535168,0.18479268,-0.31176437\C,0
 ,1.3576275,-0.4687168,0.0015758\C,0,0.50118473,-0.02205427,1.03995148\
 O,0,-0.71292506,-0.55448029,1.12749518\C,0,-1.38056881,-0.4109905,-0.3
 846254\C,0,-2.69605897,0.2693998,-0.08251156\O,0,-0.54934786,0.2265066
 1,-1.14074534\H,0,2.63058119,0.56822407,-1.33430938\H,0,3.43707088,-0.
 56790884,-0.26623635\H,0,2.87744625,0.9990906,0.37471694\H,0,1.0631829

 Normal termination of Gaussian 16 at Wed Apr  9 03:34:33 2025.
 Gaussian 16:  ES64L-G16RevC.01  3-Jul-2019

 ----------------------------------------------------------------------
 #t hf aug-cc-pvdz iop(5/13=1,5/36=2,99/5=2) pseudo=read geom=check gue
 ss=(read,tcheck) scf=(maxcycle=1)
 ----------------------------------------------------------------------
 -----
 title
 -----
 Structure from the checkpoint file:  "Grambow2020_wb97xd3_007105_forward_mol1.chk"
 Charge =  0 Multiplicity = 1

                         Standard orientation:
 ---------------------------------------------------------------------
 Center     Atomic      Atomic             Coordinates (Angstroms)
 Number     Number       Type             X           Y           Z
 ---------------------------------------------------------------------
      1          6           0        2.765093   -0.385767   -0.192529
      2          6           0        1.477386    0.045274    0.390142
      3          6           0        0.626800    0.990086   -0.238396
      4          8           0       -0.588076    1.176945    0.265948
      5          6           0       -1.262446   -0.333541    0.394412
      6          6           0       -2.574987   -0.153074   -0.333178
      7          8           0       -0.433339   -1.195365   -0.094350
      8          1           0        2.746409   -1.460490   -0.386068
      9          1           0        3.555330   -0.209067    0.542151
     10          1           0        3.002210    0.142270   -1.116194
     11          1           0        1.178217   -0.400344    1.329334
     12          1           0        0.522977    0.037377   -0.951484
     13          1           0        1.059754    1.776508   -0.857508
     14          1           0       -1.399048   -0.355242    1.489484
     15          1           0       -2.384505   -0.013989   -1.398161
     16          1           0       -3.178055   -1.053430   -0.201431
     17          1           0       -3.123043    0.705904    0.054384
 ---------------------------------------------------------------------

 SCF Done:  E(RHF) =  -346.375072398     A.U. after    2 cycles

 The electronic state is 1-A.
 Alpha  occ. eigenvalues --  -21.01081 -20.95372 -11.53648 -11.45794 -11.44473
 Alpha  occ. eigenvalues --  -11.42952 -11.34084  -1.75128  -1.58839  -1.25103
 Alpha  occ. eigenvalues --   -1.07708  -1.01515  -0.85802  -0.78988  -0.69928
 Alpha  occ. eigenvalues --   -0.64036  -0.63363  -0.60890  -0.57907  -0.56101
 Alpha  occ. eigenvalues --   -0.53507  -0.50600  -0.47153  -0.44131  -0.36297
 Alpha  occ. eigenvalues --   -0.28898  -0.25029  -0.23227
 Alpha virt. eigenvalues --    0.02532   0.04389   0.04672   0.05233   0.05808
 Alpha virt. eigenvalues --    0.06552   0.06980   0.07323   0.07865   0.08371
 Alpha virt. eigenvalues --    0.10419   0.10638   0.11800   0.12454   0.13392

 Mulliken charges:
               1
     1  C   -4.095820
     2  C   -1.341563
     3  C    0.385447
     4  O   -3.231474
     5  C    1.326860
     6  C   -3.403692
     7  O   -2.795451
     8  H    1.230209
     9  H    1.173206
    10  H    1.315986
    11  H    1.442203
    12  H    1.306283
    13  H    1.367626
    14  H    1.617537
    15  H    1.299257
    16  H    1.120625
    17  H    1.282761
 Sum of Mulliken charges =  -0.00000

 Dipole moment (field-independent basis, Debye):
    X=              4.3499    Y=              0.4983    Z=              0.2276  Tot=              4.3843

 Test job not archived.
 1\1\GINC-SE343\SP\RHF\Aug-CC-pVDZ\C5H10O2\OHZDE\09-Apr-2025\0\\#t hf a
 ug-cc-pvdz iop(5/13=1,5/36=2,99/5=2) pseudo=read geom=check guess=(rea
 d,tcheck) scf=(maxcycle=1)\\title\\0,1\C,0,2.64535168,0.18479268,-0.31
 176437\C,0,1.3576275,-0.4687168,0.0015758\C,0,0.50118473,-0.02205427,1
 .03995148\O,0,-0.71292506,-0.55448029,1.12749518\C,0,-1.38056881,-0.41
 09905,-0.3846254\C,0,-2.69605897,0.2693998,-0.08251156\O,0,-0.54934786
 ,0.22650661,-1.14074534\H,0,2.63058119,0.56822407,-1.33430938\H,0,3.43
 707088,-0.56790884,-0.26623635\H,0,2.87744625,0.9990906,0.37471694\H,0

 Normal termination of Gaussian 16 at Wed Apr  9 03:34:38 2025.
