 Gaussian 16, Revision C.01,

 ----------------------------------------------------------------------
 #t hf aug-cc-pvdz symm=none int=(grid=ultrafine) guess=(read,tcheck) s
 table=(opt,rrhf)
 ----------------------------------------------------------------------
 -----
 title
 -----
 Symbolic Z-matrix:
 Charge =  0 Multiplicity = 1

 SCF Done:  E(RHF) =  -354.656059081     A.U. after   15 cycles
 Normal termination of Gaussian 16 at Wed Apr  9 18:36:14 2025.
 Gaussian 16:  ES64L-G16RevC.01  3-Jul-2019

 ----------------------------------------------------------------------
 #t hf aug-cc-pvdz iop(5/13=1,5/36=2,99/5=2) pseudo=read geom=check gue
 ss=(read,tcheck) scf=(maxcycle=1)
 ----------------------------------------------------------------------
 -----
 title
 -----
 Structure from the checkpoint file:  "Grambow2020_wb97xd3_007312_reverse_mol1.chk"
 Charge =  0 Multiplicity = 1

                         Standard orientation:
 ---------------------------------------------------------------------
 Center     Atomic      Atomic             Coordinates (Angstroms)
 Number     Number       Type             X           Y           Z
 ---------------------------------------------------------------------
      1          8           0       -2.425711   -0.445661   -0.159986
      2          6           0       -1.589631    0.644082    0.117829
      3          6           0       -0.139644    0.289516    0.022531
      4          7           0        0.254746   -0.996904    0.070087
      5          7           0        1.565393   -1.001573   -0.055047
      6          6           0        1.931557    0.369532   -0.084702
      7          7           0        0.851271    1.164864   -0.049855
      8          1           0       -1.963147   -1.251310    0.091808
      9          1           0       -1.774324    1.048575    1.122766
     10          1           0       -1.806682    1.441665   -0.594998
     11          1           0        2.109770   -0.332169    0.950022
     12          1           0        2.926518    0.675037   -0.379947
 ---------------------------------------------------------------------

 SCF Done:  E(RHF) =  -356.239541093     A.U. after    2 cycles

 The electronic state is 1-A.
 Alpha  occ. eigenvalues --  -21.07371 -15.83480 -15.76818 -15.75877 -11.48457
 Alpha  occ. eigenvalues --  -11.47668 -11.42125  -1.73458  -1.67199  -1.33987
 Alpha  occ. eigenvalues --   -1.23015  -1.02790  -0.87447  -0.81614  -0.72312
 Alpha  occ. eigenvalues --   -0.71567  -0.64193  -0.60282  -0.56815  -0.51827
 Alpha  occ. eigenvalues --   -0.44454  -0.42344  -0.41435  -0.40871  -0.39738
 Alpha  occ. eigenvalues --   -0.32619
 Alpha virt. eigenvalues --    0.03160   0.04850   0.05594   0.06546   0.07276
 Alpha virt. eigenvalues --    0.09042   0.09493   0.10789   0.11839   0.12261
 Alpha virt. eigenvalues --    0.13373   0.13493   0.14122   0.14968   0.16086

 Mulliken charges:
               1
     1  O   -2.728681
     2  C   -1.044383
     3  C    3.710348
     4  N   -1.654783
     5  N   -1.161148
     6  C    0.218218
     7  N   -3.153584
     8  H    0.846634
     9  H    1.170377
    10  H    1.210872
    11  H    1.136226
    12  H    1.449903
 Sum of Mulliken charges =  -0.00000

 Dipole moment (field-independent basis, Debye):
    X=              1.8150    Y=              0.7844    Z=              0.4198  Tot=              2.0213

 Test job not archived.
 1\1\GINC-SE168\SP\RHF\Aug-CC-pVDZ\C3H5N3O1\OHZDE\09-Apr-2025\0\\#t hf
 aug-cc-pvdz iop(5/13=1,5/36=2,99/5=2) pseudo=read geom=check guess=(re
 ad,tcheck) scf=(maxcycle=1)\\title\\0,1\O,0,-2.30647585,0.91359117,-0.
 44031641\C,0,-1.64092411,-0.24994508,-0.03169081\C,0,-0.15424255,-0.08
 554192,-0.02858042\N,0,0.42525089,0.91250632,-0.72195473\N,0,1.7226463
 6,0.81855715,-0.51844866\C,0,1.88287012,-0.35550627,0.26308072\N,0,0.6
 9708557,-0.90172739,0.57347233\H,0,-1.73100117,1.39232979,-1.0453584\H
 ,0,-1.88619352,-1.10357951,-0.6788187\H,0,-1.97100561,-0.50539219,0.97

 Normal termination of Gaussian 16 at Wed Apr  9 18:36:18 2025.
