 Gaussian 16, Revision C.01,

 ----------------------------------------------------------------------
 #t hf aug-cc-pvdz symm=none int=(grid=ultrafine) guess=(read,tcheck) s
 table=(opt,rrhf)
 ----------------------------------------------------------------------
 -----
 title
 -----
 Symbolic Z-matrix:
 Charge =  0 Multiplicity = 1

 SCF Done:  E(RHF) =  -317.721721331     A.U. after   14 cycles
 Normal termination of Gaussian 16 at Wed Apr  9 19:00:34 2025.
 Gaussian 16:  ES64L-G16RevC.01  3-Jul-2019

 ----------------------------------------------------------------------
 #t hf aug-cc-pvdz iop(5/13=1,5/36=2,99/5=2) pseudo=read geom=check gue
 ss=(read,tcheck) scf=(maxcycle=1)
 ----------------------------------------------------------------------
 -----
 title
 -----
 Structure from the checkpoint file:  "Grambow2020_wb97xd3_007989_reverse_mol2.chk"
 Charge =  0 Multiplicity = 1

                         Standard orientation:
 ---------------------------------------------------------------------
 Center     Atomic      Atomic             Coordinates (Angstroms)
 Number     Number       Type             X           Y           Z
 ---------------------------------------------------------------------
      1          7           0        2.204248   -0.076969   -0.050316
      2          6           0        0.842382   -0.072831   -0.006694
      3          7           0        0.199337    1.123706   -0.010871
      4          6           0       -1.152096    1.326172    0.003317
      5          6           0       -1.827795    0.085417    0.011958
      6          6           0       -1.148012   -1.105716    0.001039
      7          7           0        0.194283   -1.206533   -0.001281
      8          1           0        2.626676   -0.974615    0.110757
      9          1           0        2.710548    0.719614    0.291927
     10          1           0        0.775745    1.952291   -0.043653
     11          1           0       -2.910631    0.079815    0.020753
     12          1           0       -1.674285   -2.056785   -0.000231
 ---------------------------------------------------------------------

 SCF Done:  E(RHF) =  -319.180568619     A.U. after    2 cycles

 The electronic state is 1-A.
 Alpha  occ. eigenvalues --  -15.80988 -15.79923 -15.73077 -11.51124 -11.45604
 Alpha  occ. eigenvalues --  -11.38648 -11.35530  -1.57178  -1.35889  -1.33788
 Alpha  occ. eigenvalues --   -1.12209  -0.93014  -0.89989  -0.76017  -0.70519
 Alpha  occ. eigenvalues --   -0.68844  -0.62984  -0.61382  -0.60396  -0.48635
 Alpha  occ. eigenvalues --   -0.45405  -0.42760  -0.41930  -0.31345  -0.30548
 Alpha virt. eigenvalues --    0.02803   0.04707   0.05203   0.06533   0.06876
 Alpha virt. eigenvalues --    0.09820   0.10400   0.10574   0.11533   0.12479
 Alpha virt. eigenvalues --    0.13209   0.13777   0.14963   0.15115   0.15473

 Mulliken charges:
               1
     1  N   -2.824132
     2  C    4.033234
     3  N   -2.246081
     4  C   -1.417723
     5  C    0.876674
     6  C   -0.306422
     7  N   -3.174447
     8  H    0.604391
     9  H    0.639980
    10  H    0.658926
    11  H    1.575113
    12  H    1.580488
 Sum of Mulliken charges =  -0.00000

 Dipole moment (field-independent basis, Debye):
    X=              4.1937    Y=             -1.0754    Z=              0.5820  Tot=              4.3683

 Test job not archived.
 1\1\GINC-SE105\SP\RHF\Aug-CC-pVDZ\C4H5N3\OHZDE\09-Apr-2025\0\\#t hf au
 g-cc-pvdz iop(5/13=1,5/36=2,99/5=2) pseudo=read geom=check guess=(read
 ,tcheck) scf=(maxcycle=1)\\title\\0,1\N,0,2.09324228,-0.46479924,-0.01
 448939\C,0,0.77121513,-0.13498206,-0.00649525\N,0,-0.13675509,-1.11108
 668,0.25433913\C,0,-1.49367598,-0.96724705,0.32944639\C,0,-1.85117,0.3
 8089313,0.10398294\C,0,-0.90769081,1.34535592,-0.1423497\N,0,0.4150762
 ,1.10498628,-0.20894673\H,0,2.70314856,0.25413934,-0.36277138\H,0,2.36
 375135,-1.41101314,-0.21328181\H,0,0.22532729,-2.03792584,0.42678993\H

 Normal termination of Gaussian 16 at Wed Apr  9 19:00:38 2025.
