 Gaussian 16, Revision C.01,

 ----------------------------------------------------------------------
 #t hf aug-cc-pvdz symm=none int=(grid=ultrafine) guess=(read,tcheck) s
 table=(opt,rrhf)
 ----------------------------------------------------------------------
 -----
 title
 -----
 Symbolic Z-matrix:
 Charge =  0 Multiplicity = 1

 SCF Done:  E(RHF) =  -299.715909957     A.U. after   15 cycles
 Normal termination of Gaussian 16 at Wed Apr  9 15:40:36 2025.
 Gaussian 16:  ES64L-G16RevC.01  3-Jul-2019

 ----------------------------------------------------------------------
 #t hf aug-cc-pvdz iop(5/13=1,5/36=2,99/5=2) pseudo=read geom=check gue
 ss=(read,tcheck) scf=(maxcycle=1)
 ----------------------------------------------------------------------
 -----
 title
 -----
 Structure from the checkpoint file:  "Grambow2020_b97d3_006601_reverse_mol2.chk"
 Charge =  0 Multiplicity = 1

                         Standard orientation:
 ---------------------------------------------------------------------
 Center     Atomic      Atomic             Coordinates (Angstroms)
 Number     Number       Type             X           Y           Z
 ---------------------------------------------------------------------
      1          6           0        2.132017   -0.655232    0.100580
      2          6           0        0.887643    0.192262   -0.029035
      3          7           0       -0.279532   -0.614837   -0.225158
      4          6           0       -1.449468   -0.243294   -0.063290
      5          7           0       -2.628532   -0.078229    0.223200
      6          8           0        0.863327    1.408731   -0.007422
      7          1           0        2.021498   -1.357364    0.938833
      8          1           0        3.006548   -0.016669    0.257209
      9          1           0        2.264323   -1.260684   -0.807292
     10          1           0       -3.263684    0.453921   -0.365197
 ---------------------------------------------------------------------

 SCF Done:  E(RHF) =  -301.033181043     A.U. after    2 cycles

 The electronic state is 1-A.
 Alpha  occ. eigenvalues --  -21.06348 -15.79544 -15.77014 -11.56002 -11.52834
 Alpha  occ. eigenvalues --  -11.39860  -1.72575  -1.44118  -1.31749  -1.11327
 Alpha  occ. eigenvalues --   -0.88429  -0.75450  -0.65513  -0.62529  -0.62064
 Alpha  occ. eigenvalues --   -0.56909  -0.55082  -0.51642  -0.46184  -0.40001
 Alpha  occ. eigenvalues --   -0.35846  -0.30267
 Alpha virt. eigenvalues --    0.03196   0.04802   0.06423   0.06464   0.08374
 Alpha virt. eigenvalues --    0.10263   0.10973   0.11227   0.12368   0.13062
 Alpha virt. eigenvalues --    0.13494   0.14162   0.15842   0.16369   0.16466

 Mulliken charges:
               1
     1  C   -4.085592
     2  C    4.434687
     3  N   -2.868415
     4  C    3.718354
     5  N   -2.852978
     6  O   -2.884039
     7  H    1.289038
     8  H    1.261966
     9  H    1.263604
    10  H    0.723375
 Sum of Mulliken charges =  -0.00000

 Dipole moment (field-independent basis, Debye):
    X=             -0.1756    Y=              0.0824    Z=             -0.7076  Tot=              0.7337

 Test job not archived.
 1\1\GINC-SE113\SP\RHF\Aug-CC-pVDZ\C3H4N2O1\OHZDE\09-Apr-2025\0\\#t hf
 aug-cc-pvdz iop(5/13=1,5/36=2,99/5=2) pseudo=read geom=check guess=(re
 ad,tcheck) scf=(maxcycle=1)\\title\\0,1\C,0,-1.8311482,0.03718402,0.04
 710282\C,0,-0.43306501,-0.38522049,-0.34077672\N,0,0.54805845,0.541180
 88,0.14021038\C,0,1.76127923,0.31761503,0.24560869\N,0,2.9348554,0.187
 31789,0.57004115\O,0,-0.1569895,-1.36556613,-1.00677866\H,0,-1.9068383
 4,0.1233355,1.14013481\H,0,-2.55966571,-0.68960914,-0.32456025\H,0,-2.
 04588715,1.03256065,-0.36692703\H,0,3.69254683,0.19765079,-0.1071652\\

 Normal termination of Gaussian 16 at Wed Apr  9 15:40:39 2025.
