 Gaussian 16, Revision C.01,

 ----------------------------------------------------------------------
 #t hf aug-cc-pvdz symm=none int=(grid=ultrafine) guess=(read,tcheck) s
 table=(opt,rrhf)
 ----------------------------------------------------------------------
 -----
 title
 -----
 Symbolic Z-matrix:
 Charge =  0 Multiplicity = 1

 SCF Done:  E(RHF) =  -322.424901292     A.U. after   17 cycles
 Normal termination of Gaussian 16 at Wed Apr  9 19:24:11 2025.
 Gaussian 16:  ES64L-G16RevC.01  3-Jul-2019

 ----------------------------------------------------------------------
 #t hf aug-cc-pvdz iop(5/13=1,5/36=2,99/5=2) pseudo=read geom=check gue
 ss=(read,tcheck) scf=(maxcycle=1)
 ----------------------------------------------------------------------
 -----
 title
 -----
 Structure from the checkpoint file:  "Grambow2020_wb97xd3_008890_reverse_mol1.chk"
 Charge =  0 Multiplicity = 1

                         Standard orientation:
 ---------------------------------------------------------------------
 Center     Atomic      Atomic             Coordinates (Angstroms)
 Number     Number       Type             X           Y           Z
 ---------------------------------------------------------------------
      1          8           0       -2.183050    0.158815    0.178371
      2          6           0       -1.006957    0.016261    0.091981
      3          6           0       -0.222629   -1.194197   -0.473882
      4          7           0        1.184017   -0.680520   -0.406265
      5          6           0        0.975775    0.723866   -0.721738
      6          6           0        0.162354    0.946775    0.439684
      7          6           0        1.093930   -0.128322    1.073050
      8          1           0       -0.524920   -1.384583   -1.505315
      9          1           0       -0.331529   -2.111569    0.104248
     10          1           0       -0.204391    1.950439   -1.259061
     11          1           0        1.722403    1.336861   -1.204062
     12          1           0       -0.290489    2.139598   -0.323154
     13          1           0        2.063778    0.256489    1.374332
     14          1           0        0.726592   -0.880411    1.775327
 ---------------------------------------------------------------------

 SCF Done:  E(RHF) =  -323.949347029     A.U. after    2 cycles

 The electronic state is 1-A.
 Alpha  occ. eigenvalues --  -21.07325 -15.76329 -11.52923 -11.51943 -11.47129
 Alpha  occ. eigenvalues --  -11.44258 -11.41335  -1.73426  -1.57053  -1.12931
 Alpha  occ. eigenvalues --   -1.07048  -1.01174  -0.84669  -0.74438  -0.72546
 Alpha  occ. eigenvalues --   -0.67578  -0.63124  -0.61564  -0.53087  -0.51366
 Alpha  occ. eigenvalues --   -0.48675  -0.48229  -0.42620  -0.40176  -0.31364
 Alpha  occ. eigenvalues --   -0.27089
 Alpha virt. eigenvalues --    0.03479   0.04037   0.04885   0.05024   0.05496
 Alpha virt. eigenvalues --    0.06100   0.07600   0.08261   0.09493   0.10303
 Alpha virt. eigenvalues --    0.11374   0.12173   0.12756   0.13917   0.14217

 Mulliken charges:
               1
     1  O   -3.681433
     2  C    5.624967
     3  C   -2.946835
     4  N   -1.700398
     5  C    0.508879
     6  C   -2.281022
     7  C   -2.630486
     8  H    1.327896
     9  H    1.250048
    10  H   -0.138945
    11  H    1.465728
    12  H    0.494998
    13  H    1.302590
    14  H    1.404013
 Sum of Mulliken charges =   0.00000

 Dipole moment (field-independent basis, Debye):
    X=              1.8664    Y=             -1.3386    Z=              0.4172  Tot=              2.3344

 Test job not archived.
 1\1\GINC-SE226\SP\RHF\Aug-CC-pVDZ\C5H7N1O1\OHZDE\09-Apr-2025\0\\#t hf
 aug-cc-pvdz iop(5/13=1,5/36=2,99/5=2) pseudo=read geom=check guess=(re
 ad,tcheck) scf=(maxcycle=1)\\title\\0,1\O,0,-1.55372512,1.41336939,1.2
 1264398\C,0,-0.87196925,0.65084165,0.60870574\C,0,-1.2451922,-0.202062
 46,-0.62977698\N,0,0.07817256,-0.82546464,-0.95713903\C,0,0.98208413,0
 .26235159,-0.61833444\C,0,0.6017686,0.25398574,0.7656925\C,0,0.4264578
 7,-1.27352583,0.51912285\H,0,-1.58796194,0.44586593,-1.43858917\H,0,-2
 .00003286,-0.96496562,-0.44041508\H,0,1.10333573,1.97614647,-0.1344003

 Normal termination of Gaussian 16 at Wed Apr  9 19:24:16 2025.
