 Gaussian 16, Revision C.01,

 ----------------------------------------------------------------------
 #t hf aug-cc-pvdz symm=none int=(grid=ultrafine) guess=(read,tcheck) s
 table=(opt,rrhf)
 ----------------------------------------------------------------------
 -----
 title
 -----
 Symbolic Z-matrix:
 Charge =  0 Multiplicity = 1

 SCF Done:  E(RHF) =  -344.870039028     A.U. after   14 cycles

 1\1\GINC-SE340\Stability\RHF\Aug-CC-pVDZ\C5H10O2\OHZDE\09-Apr-2025\0\\
 #t hf aug-cc-pvdz symm=none int=(grid=ultrafine) guess=(read,tcheck) s
 table=(opt,rrhf)\\title\\0,1\C,0,1.385236,0.45696113,-0.922462\C,0,1.4
 2119687,-0.68912839,0.06010856\C,0,0.92585348,-0.37080236,1.45939081\O
 ,0,-0.21025258,-1.25755441,1.61775766\C,0,-0.42995866,-1.99583244,0.55
 1226\C,0,-2.54877002,0.80472995,-0.59094057\O,0,0.47239681,-1.71937088
 ,-0.3593264\H,0,1.62488045,0.10812143,-1.92671637\H,0,2.11592808,1.217
 23747,-0.63997573\H,0,0.39441846,0.91370102,-0.93917665\H,0,2.4011001,

 Normal termination of Gaussian 16 at Wed Apr  9 03:34:28 2025.
 Gaussian 16:  ES64L-G16RevC.01  3-Jul-2019

 ----------------------------------------------------------------------
 #t hf aug-cc-pvdz iop(5/13=1,5/36=2,99/5=2) pseudo=read geom=check gue
 ss=(read,tcheck) scf=(maxcycle=1)
 ----------------------------------------------------------------------
 -----
 title
 -----
 Structure from the checkpoint file:  "Grambow2020_wb97xd3_007102_reverse_mol2.chk"
 Charge =  0 Multiplicity = 1

                         Standard orientation:
 ---------------------------------------------------------------------
 Center     Atomic      Atomic             Coordinates (Angstroms)
 Number     Number       Type             X           Y           Z
 ---------------------------------------------------------------------
      1          6           0        0.464094    1.927995    0.048921
      2          6           0        1.195986    0.612144   -0.065659
      3          6           0        0.995152   -0.354087    1.087923
      4          8           0        0.377095   -1.502206    0.453908
      5          6           0        0.195256   -1.331494   -0.837838
      6          6           0       -3.063835    0.123227    0.110407
      7          8           0        0.650315   -0.151979   -1.186331
      8          1           0        0.552702    2.497338   -0.876089
      9          1           0        0.886778    2.523739    0.860190
     10          1           0       -0.594136    1.758889    0.254260
     11          1           0        2.250937    0.768734   -0.292916
     12          1           0        0.308821    0.018843    1.848484
     13          1           0        1.920227   -0.685301    1.555655
     14          1           0       -2.481049   -0.416298   -0.635062
     15          1           0       -2.585569    0.027734    1.085107
     16          1           0       -3.132978    1.174866   -0.165980
     17          1           0       -4.064923   -0.301780    0.163217
 ---------------------------------------------------------------------

 SCF Done:  E(RHF) =  -346.454804447     A.U. after    2 cycles

 The electronic state is 1-A.
 Alpha  occ. eigenvalues --  -21.10192 -21.09913 -11.51093 -11.44374 -11.43151
 Alpha  occ. eigenvalues --  -11.39266 -11.35627  -1.91886  -1.69912  -1.20335
 Alpha  occ. eigenvalues --   -1.03121  -1.02654  -0.87093  -0.79262  -0.72075
 Alpha  occ. eigenvalues --   -0.66866  -0.60253  -0.57892  -0.54907  -0.53678
 Alpha  occ. eigenvalues --   -0.53638  -0.53346  -0.52521  -0.49212  -0.44642
 Alpha  occ. eigenvalues --   -0.38607  -0.35315  -0.33024
 Alpha virt. eigenvalues --    0.03028   0.04430   0.04891   0.05125   0.05278
 Alpha virt. eigenvalues --    0.05678   0.06689   0.08278   0.08847   0.09838
 Alpha virt. eigenvalues --    0.10664   0.11742   0.12275   0.12927   0.13283

 Mulliken charges:
               1
     1  C   -3.678995
     2  C   -0.115702
     3  C   -1.193732
     4  O   -2.132912
     5  C    1.168710
     6  C   -5.486312
     7  O   -2.291385
     8  H    1.210958
     9  H    1.185129
    10  H    1.497362
    11  H    1.461110
    12  H    1.579916
    13  H    1.386039
    14  H    1.435266
    15  H    1.476106
    16  H    1.347594
    17  H    1.150848
 Sum of Mulliken charges =  -0.00000

 Dipole moment (field-independent basis, Debye):
    X=              1.6477    Y=              2.8639    Z=              2.3290  Tot=              4.0425

 Test job not archived.
 1\1\GINC-SE340\SP\RHF\Aug-CC-pVDZ\C5H10O2\OHZDE\09-Apr-2025\0\\#t hf a
 ug-cc-pvdz iop(5/13=1,5/36=2,99/5=2) pseudo=read geom=check guess=(rea
 d,tcheck) scf=(maxcycle=1)\\title\\0,1\C,0,1.385236,0.45696113,-0.9224
 62\C,0,1.42119687,-0.68912839,0.06010856\C,0,0.92585348,-0.37080236,1.
 45939081\O,0,-0.21025258,-1.25755441,1.61775766\C,0,-0.42995866,-1.995
 83244,0.551226\C,0,-2.54877002,0.80472995,-0.59094057\O,0,0.47239681,-
 1.71937088,-0.3593264\H,0,1.62488045,0.10812143,-1.92671637\H,0,2.1159
 2808,1.21723747,-0.63997573\H,0,0.39441846,0.91370102,-0.93917665\H,0,

 Normal termination of Gaussian 16 at Wed Apr  9 03:34:33 2025.
