 Gaussian 16, Revision C.01,

 ----------------------------------------------------------------------
 #t hf aug-cc-pvdz symm=none int=(grid=ultrafine) guess=(read,tcheck) s
 table=(opt,rrhf)
 ----------------------------------------------------------------------
 -----
 title
 -----
 Symbolic Z-matrix:
 Charge =  0 Multiplicity = 1

 SCF Done:  E(RHF) =  -337.559578376     A.U. after   15 cycles
 Normal termination of Gaussian 16 at Wed Apr  9 03:58:25 2025.
 Gaussian 16:  ES64L-G16RevC.01  3-Jul-2019

 ----------------------------------------------------------------------
 #t hf aug-cc-pvdz iop(5/13=1,5/36=2,99/5=2) pseudo=read geom=check gue
 ss=(read,tcheck) scf=(maxcycle=1)
 ----------------------------------------------------------------------
 -----
 title
 -----
 Structure from the checkpoint file:  "Grambow2020_wb97xd3_008694_reverse_mol2.chk"
 Charge =  0 Multiplicity = 1

                         Standard orientation:
 ---------------------------------------------------------------------
 Center     Atomic      Atomic             Coordinates (Angstroms)
 Number     Number       Type             X           Y           Z
 ---------------------------------------------------------------------
      1          8           0       -2.592516   -0.399853   -0.008207
      2          6           0       -1.739617    0.438429    0.007053
      3          6           0       -0.272322    0.143271    0.001319
      4          6           0        0.811733    1.148190   -0.003283
      5          7           0        1.948515    0.572525   -0.003796
      6          6           0        1.647802   -0.840224    0.001635
      7          7           0        0.219826   -1.035261    0.003387
      8          1           0       -1.994128    1.517474    0.028727
      9          1           0        0.699417    2.227226   -0.007126
     10          1           0        2.085140   -1.325573   -0.876474
     11          1           0        2.085738   -1.319154    0.883048
 ---------------------------------------------------------------------

 SCF Done:  E(RHF) =  -339.047252891     A.U. after    2 cycles

 The electronic state is 1-A.
 Alpha  occ. eigenvalues --  -21.08965 -15.77344 -15.76364 -11.51306 -11.47741
 Alpha  occ. eigenvalues --  -11.43966 -11.42702  -1.73616  -1.55544  -1.28681
 Alpha  occ. eigenvalues --   -1.11822  -0.94922  -0.84658  -0.77387  -0.73329
 Alpha  occ. eigenvalues --   -0.67731  -0.59962  -0.55105  -0.54124  -0.52061
 Alpha  occ. eigenvalues --   -0.44506  -0.43597  -0.40495  -0.38525  -0.31360
 Alpha virt. eigenvalues --    0.03006   0.05231   0.05465   0.05735   0.06194
 Alpha virt. eigenvalues --    0.08587   0.09970   0.10760   0.11014   0.12641
 Alpha virt. eigenvalues --    0.12693   0.13723   0.14292   0.14528   0.15011

 Mulliken charges:
               1
     1  O   -2.790781
     2  C    1.537967
     3  C    3.522979
     4  C   -0.349488
     5  N   -2.652843
     6  C   -1.925752
     7  N   -3.134741
     8  H    1.387781
     9  H    1.253341
    10  H    1.575987
    11  H    1.575550
 Sum of Mulliken charges =  -0.00000

 Dipole moment (field-independent basis, Debye):
    X=              0.4031    Y=              1.0016    Z=              0.0117  Tot=              1.0797

 Test job not archived.
 1\1\GINC-SE105\SP\RHF\Aug-CC-pVDZ\C4H4N2O1\OHZDE\09-Apr-2025\0\\#t hf
 aug-cc-pvdz iop(5/13=1,5/36=2,99/5=2) pseudo=read geom=check guess=(re
 ad,tcheck) scf=(maxcycle=1)\\title\\0,1\O,0,-2.61059611,-1.21865008,-0
 .13700412\C,0,-2.00113485,-0.18971919,-0.15261245\C,0,-0.51194108,-0.0
 9434183,-0.03723451\C,0,0.28002682,1.15322825,-0.07483879\N,0,1.520908
 67,0.89345566,0.05320351\C,0,1.58672396,-0.5437528,0.18133054\N,0,0.25
 934326,-1.10108738,0.11354454\H,0,-2.52032712,0.78472071,-0.25503162\H
 ,0,-0.09991076,2.16241629,-0.19372664\H,0,2.20609863,-0.96862516,-0.61

 Normal termination of Gaussian 16 at Wed Apr  9 03:58:29 2025.
