 Gaussian 16, Revision C.01,

 ----------------------------------------------------------------------
 #t hf aug-cc-pvdz symm=none int=(grid=ultrafine) guess=(read,tcheck) s
 table=(opt,rrhf)
 ----------------------------------------------------------------------
 -----
 title
 -----
 Symbolic Z-matrix:
 Charge =  0 Multiplicity = 1

 SCF Done:  E(RHF) =  -268.898132666     A.U. after   14 cycles
 Normal termination of Gaussian 16 at Wed Apr  9 03:05:28 2025.
 Gaussian 16:  ES64L-G16RevC.01  3-Jul-2019

 ----------------------------------------------------------------------
 #t hf aug-cc-pvdz iop(5/13=1,5/36=2,99/5=2) pseudo=read geom=check gue
 ss=(read,tcheck) scf=(maxcycle=1)
 ----------------------------------------------------------------------
 -----
 title
 -----
 Structure from the checkpoint file:  "Grambow2020_b97d3_006486_forward_mol2.chk"
 Charge =  0 Multiplicity = 1

                         Standard orientation:
 ---------------------------------------------------------------------
 Center     Atomic      Atomic             Coordinates (Angstroms)
 Number     Number       Type             X           Y           Z
 ---------------------------------------------------------------------
      1          8           0        2.147947    0.000445   -0.001907
      2          6           0        0.930541    0.000153    0.000737
      3          6           0        0.025699    1.238410    0.126642
      4          6           0       -1.383454    0.738294   -0.234893
      5          6           0       -1.384136   -0.738751    0.232199
      6          6           0        0.026859   -1.238598   -0.122944
      7          1           0        0.066917    1.565498    1.179332
      8          1           0        0.403310    2.067715   -0.484293
      9          1           0       -2.185353    1.328139    0.226781
     10          1           0       -1.525137    0.780229   -1.325519
     11          1           0       -2.183332   -1.329740   -0.232522
     12          1           0       -1.530271   -0.779450    1.322330
     13          1           0        0.404365   -2.064134    0.492982
     14          1           0        0.072869   -1.568869   -1.174285
 ---------------------------------------------------------------------

 SCF Done:  E(RHF) =  -270.167568546     A.U. after    2 cycles

 The electronic state is 1-A.
 Alpha  occ. eigenvalues --  -21.04793 -11.49920 -11.44270 -11.41754 -11.39066
 Alpha  occ. eigenvalues --  -11.36294  -1.69399  -1.30674  -1.06532  -0.99739
 Alpha  occ. eigenvalues --   -0.84562  -0.75265  -0.67263  -0.63014  -0.59553
 Alpha  occ. eigenvalues --   -0.56202  -0.52944  -0.48446  -0.47323  -0.46446
 Alpha  occ. eigenvalues --   -0.45342  -0.39430  -0.26818
 Alpha virt. eigenvalues --    0.03511   0.05180   0.05290   0.05295   0.05720
 Alpha virt. eigenvalues --    0.05774   0.06896   0.07201   0.09722   0.12365
 Alpha virt. eigenvalues --    0.13407   0.14211   0.14264   0.14422   0.14874

 Mulliken charges:
               1
     1  O   -3.289457
     2  C    4.425214
     3  C   -3.325948
     4  C   -2.604949
     5  C   -2.603427
     6  C   -3.327476
     7  H    1.379753
     8  H    1.337935
     9  H    1.273957
    10  H    1.371736
    11  H    1.274214
    12  H    1.370979
    13  H    1.338826
    14  H    1.378642
 Sum of Mulliken charges =  -0.00000

 Dipole moment (field-independent basis, Debye):
    X=             -1.8817    Y=             -0.0004    Z=              0.0022  Tot=              1.8817

 Test job not archived.
 1\1\GINC-SE342\SP\RHF\Aug-CC-pVDZ\C5H8O1\OHZDE\09-Apr-2025\0\\#t hf au
 g-cc-pvdz iop(5/13=1,5/36=2,99/5=2) pseudo=read geom=check guess=(read
 ,tcheck) scf=(maxcycle=1)\\title\\0,1\O,0,-0.5957034,2.51372734,0.0805
 5824\C,0,-0.31500532,1.32967836,0.0442007\C,0,-1.30708938,0.16027785,0
 .17125861\C,0,-0.50743984,-1.08546673,-0.24732904\C,0,0.94388285,-0.75
 673855,0.18329331\C,0,1.09407584,0.74016556,-0.13857345\H,0,-1.6019230
 1,0.09790823,1.23240196\H,0,-2.21967858,0.35150359,-0.40683451\H,0,-0.
 88210552,-2.0134814,0.20268923\H,0,-0.54957643,-1.20511495,-1.34058417

 Normal termination of Gaussian 16 at Wed Apr  9 03:05:32 2025.
