 Gaussian 16, Revision C.01,

 ----------------------------------------------------------------------
 #t hf aug-cc-pvdz symm=none int=(grid=ultrafine) guess=(read,tcheck) s
 table=(opt,rrhf)
 ----------------------------------------------------------------------
 -----
 title
 -----
 Symbolic Z-matrix:
 Charge =  0 Multiplicity = 1

 SCF Done:  E(RHF) =  -318.715968694     A.U. after   19 cycles
 Normal termination of Gaussian 16 at Wed Apr  9 18:58:52 2025.
 Gaussian 16:  ES64L-G16RevC.01  3-Jul-2019

 ----------------------------------------------------------------------
 #t hf aug-cc-pvdz iop(5/13=1,5/36=2,99/5=2) pseudo=read geom=check gue
 ss=(read,tcheck) scf=(maxcycle=1)
 ----------------------------------------------------------------------
 -----
 title
 -----
 Structure from the checkpoint file:  "Grambow2020_wb97xd3_007961_forward_mol1.chk"
 Charge =  0 Multiplicity = 1

                         Standard orientation:
 ---------------------------------------------------------------------
 Center     Atomic      Atomic             Coordinates (Angstroms)
 Number     Number       Type             X           Y           Z
 ---------------------------------------------------------------------
      1          6           0       -2.440689   -0.438160    0.594998
      2          6           0       -1.743567    0.275017   -0.562177
      3          6           0       -0.364566    0.677299   -0.226469
      4          6           0        0.543771    1.444493    0.084627
      5          7           0        2.242676    0.173734    0.350528
      6          7           0        1.672926   -0.864791   -0.054054
      7          7           0        0.605308   -1.205739   -0.312357
      8          1           0       -3.461923   -0.702907    0.316570
      9          1           0       -1.909346   -1.351991    0.861961
     10          1           0       -2.479866    0.201766    1.477670
     11          1           0       -1.721666   -0.378763   -1.436420
     12          1           0       -2.306804    1.168459   -0.842970
     13          1           0        1.055879    2.341450    0.345460
     14          1           0        3.207670    0.247666    0.043029
 ---------------------------------------------------------------------

 SCF Done:  E(RHF) =  -320.261660019     A.U. after    2 cycles

 The electronic state is 1-A.
 Alpha  occ. eigenvalues --  -15.89487 -15.83363 -15.78126 -11.43803 -11.42473
 Alpha  occ. eigenvalues --  -11.39040 -11.36367  -1.65463  -1.30011  -1.21860
 Alpha  occ. eigenvalues --   -1.06320  -0.91033  -0.81001  -0.74515  -0.71355
 Alpha  occ. eigenvalues --   -0.64107  -0.62708  -0.61251  -0.58769  -0.51855
 Alpha  occ. eigenvalues --   -0.50098  -0.49350  -0.41814  -0.36572  -0.35125
 Alpha  occ. eigenvalues --   -0.32202
 Alpha virt. eigenvalues --    0.03653   0.05189   0.05464   0.06167   0.06492
 Alpha virt. eigenvalues --    0.06756   0.07350   0.10461   0.10927   0.11878
 Alpha virt. eigenvalues --    0.12275   0.13745   0.14263   0.14617   0.14856

 Mulliken charges:
               1
     1  C   -3.612719
     2  C   -3.890385
     3  C    4.349864
     4  C   -4.063176
     5  N   -0.824950
     6  N    1.464356
     7  N   -1.207715
     8  H    1.179008
     9  H    1.324352
    10  H    1.317518
    11  H    1.359937
    12  H    1.051941
    13  H    0.817950
    14  H    0.734018
 Sum of Mulliken charges =   0.00000

 Dipole moment (field-independent basis, Debye):
    X=              0.5395    Y=              1.1805    Z=             -0.3641  Tot=              1.3480

 Test job not archived.
 1\1\GINC-SE232\SP\RHF\Aug-CC-pVDZ\C4H7N3\OHZDE\09-Apr-2025\0\\#t hf au
 g-cc-pvdz iop(5/13=1,5/36=2,99/5=2) pseudo=read geom=check guess=(read
 ,tcheck) scf=(maxcycle=1)\\title\\0,1\C,0,-1.93612498,0.75109274,0.194
 03251\C,0,-1.25264222,-0.55561584,-0.20473723\C,0,0.18671108,-0.378265
 13,-0.47489407\C,0,1.20183827,-0.26646499,-1.1586058\N,0,2.75266582,0.
 13522071,0.25751303\N,0,2.03286984,-0.03686458,1.26702565\N,0,0.915134
 4,-0.16711912,1.50467192\H,0,-3.00045457,0.58434409,0.36703268\H,0,-1.
 49816376,1.15294276,1.10802808\H,0,-1.82871703,1.50033502,-0.5916205\H

 Normal termination of Gaussian 16 at Wed Apr  9 18:58:56 2025.
