 Gaussian 16, Revision C.01,

 ----------------------------------------------------------------------
 #t hf aug-cc-pvdz symm=none int=(grid=ultrafine) guess=(read,tcheck) s
 table=(opt,rrhf)
 ----------------------------------------------------------------------
 -----
 title
 -----
 Symbolic Z-matrix:
 Charge =  0 Multiplicity = 1

 SCF Done:  E(RHF) =  -309.099257096     A.U. after   12 cycles

 1\1\GINC-SE083\Stability\RHF\Aug-CC-pVDZ\C6H12O1\OHZDE\09-Apr-2025\0\\
 #t hf aug-cc-pvdz symm=none int=(grid=ultrafine) guess=(read,tcheck) s
 table=(opt,rrhf)\\title\\0,1\C,0,1.87155366,-0.76120625,-0.58062983\C,
 0,0.64800065,-0.23851536,0.15386424\O,0,0.91267993,-0.18870196,1.55940
 947\C,0,0.16511992,1.13310481,-0.32926801\C,0,-1.24548455,1.23826858,0
 .24288544\C,0,-1.8191267,-0.17938671,0.07113983\C,0,-0.59689887,-1.122
 11284,-0.00022431\H,0,2.72762489,-0.09706272,-0.42973769\H,0,1.6876253
 1,-0.83034753,-1.65454975\H,0,2.14177269,-1.75127901,-0.20945109\H,0,1

 Normal termination of Gaussian 16 at Wed Apr  9 19:21:23 2025.
 Gaussian 16:  ES64L-G16RevC.01  3-Jul-2019

 ----------------------------------------------------------------------
 #t hf aug-cc-pvdz iop(5/13=1,5/36=2,99/5=2) pseudo=read geom=check gue
 ss=(read,tcheck) scf=(maxcycle=1)
 ----------------------------------------------------------------------
 -----
 title
 -----
 Structure from the checkpoint file:  "Grambow2020_wb97xd3_008664_forward_mol2.chk"
 Charge =  0 Multiplicity = 1

                         Standard orientation:
 ---------------------------------------------------------------------
 Center     Atomic      Atomic             Coordinates (Angstroms)
 Number     Number       Type             X           Y           Z
 ---------------------------------------------------------------------
      1          6           0       -1.998736    0.221929   -0.673669
      2          6           0       -0.659144    0.010571    0.012327
      3          8           0       -0.868235   -0.329574    1.386618
      4          6           0        0.225582   -1.049088   -0.652741
      5          6           0        1.606804   -0.785877   -0.060145
      6          6           0        1.696900    0.749387   -0.003967
      7          6           0        0.237339    1.255702    0.027520
      8          1           0       -2.596419   -0.693948   -0.648017
      9          1           0       -1.866206    0.505132   -1.719683
     10          1           0       -2.562678    1.008299   -0.169063
     11          1           0       -1.348393   -1.160041    1.421693
     12          1           0       -0.145689   -2.063427   -0.481307
     13          1           0        0.234812   -0.881843   -1.734861
     14          1           0        1.653805   -1.201677    0.947663
     15          1           0        2.413122   -1.235057   -0.641591
     16          1           0        2.208356    1.130241   -0.890521
     17          1           0        2.269461    1.088067    0.859500
     18          1           0        0.021920    1.874831   -0.845409
     19          1           0        0.011324    1.850277    0.912697
 ---------------------------------------------------------------------

 SCF Done:  E(RHF) =  -310.612899945     A.U. after    2 cycles

 The electronic state is 1-A.
 Alpha  occ. eigenvalues --  -21.05486 -11.48079 -11.44034 -11.40048 -11.37555
 Alpha  occ. eigenvalues --  -11.37151 -11.33244  -1.71477  -1.29692  -1.09466
 Alpha  occ. eigenvalues --   -1.04427  -0.95667  -0.82205  -0.77718  -0.66036
 Alpha  occ. eigenvalues --   -0.64922  -0.62107  -0.58316  -0.56521  -0.54853
 Alpha  occ. eigenvalues --   -0.49490  -0.45998  -0.45496  -0.43428  -0.43064
 Alpha  occ. eigenvalues --   -0.41676  -0.37253  -0.30608
 Alpha virt. eigenvalues --    0.04086   0.04963   0.05051   0.05212   0.05483
 Alpha virt. eigenvalues --    0.05860   0.06396   0.06868   0.07200   0.08492
 Alpha virt. eigenvalues --    0.08998   0.09293   0.12123   0.13585   0.13847

 Mulliken charges:
               1
     1  C   -4.519354
     2  C    7.143356
     3  O   -3.934078
     4  C   -3.704823
     5  C   -3.143724
     6  C   -2.526018
     7  C   -4.281053
     8  H    1.152021
     9  H    1.190013
    10  H    1.215809
    11  H    0.665548
    12  H    1.253457
    13  H    1.395358
    14  H    1.386303
    15  H    1.230356
    16  H    1.335695
    17  H    1.354056
    18  H    1.375365
    19  H    1.411713
 Sum of Mulliken charges =  -0.00000

 Dipole moment (field-independent basis, Debye):
    X=              0.0111    Y=             -0.2744    Z=             -0.4122  Tot=              0.4953

 Test job not archived.
 1\1\GINC-SE083\SP\RHF\Aug-CC-pVDZ\C6H12O1\OHZDE\09-Apr-2025\0\\#t hf a
 ug-cc-pvdz iop(5/13=1,5/36=2,99/5=2) pseudo=read geom=check guess=(rea
 d,tcheck) scf=(maxcycle=1)\\title\\0,1\C,0,1.87155366,-0.76120625,-0.5
 8062983\C,0,0.64800065,-0.23851536,0.15386424\O,0,0.91267993,-0.188701
 96,1.55940947\C,0,0.16511992,1.13310481,-0.32926801\C,0,-1.24548455,1.
 23826858,0.24288544\C,0,-1.8191267,-0.17938671,0.07113983\C,0,-0.59689
 887,-1.12211284,-0.00022431\H,0,2.72762489,-0.09706272,-0.42973769\H,0
 ,1.68762531,-0.83034753,-1.65454975\H,0,2.14177269,-1.75127901,-0.2094

 Normal termination of Gaussian 16 at Wed Apr  9 19:21:31 2025.
