 Gaussian 16, Revision C.01,

 ----------------------------------------------------------------------
 #t hf aug-cc-pvdz symm=none int=(grid=ultrafine) guess=(read,tcheck) s
 table=(opt,rrhf)
 ----------------------------------------------------------------------
 -----
 title
 -----
 Symbolic Z-matrix:
 Charge =  0 Multiplicity = 1

 SCF Done:  E(RHF) =  -343.474557645     A.U. after   15 cycles
 Normal termination of Gaussian 16 at Wed Apr  9 19:21:12 2025.
 Gaussian 16:  ES64L-G16RevC.01  3-Jul-2019

 ----------------------------------------------------------------------
 #t hf aug-cc-pvdz iop(5/13=1,5/36=2,99/5=2) pseudo=read geom=check gue
 ss=(read,tcheck) scf=(maxcycle=1)
 ----------------------------------------------------------------------
 -----
 title
 -----
 Structure from the checkpoint file:  "Grambow2020_wb97xd3_008656_reverse_mol1.chk"
 Charge =  0 Multiplicity = 1

                         Standard orientation:
 ---------------------------------------------------------------------
 Center     Atomic      Atomic             Coordinates (Angstroms)
 Number     Number       Type             X           Y           Z
 ---------------------------------------------------------------------
      1          6           0       -2.401960    0.135541   -0.693655
      2          6           0       -1.189161    0.596145    0.043355
      3          8           0       -0.818947   -0.446780    1.263397
      4          6           0       -0.076419   -0.314716    0.250404
      5          6           0        1.470472    1.022935    0.270936
      6          8           0        1.892456    0.038035   -0.683841
      7          6           0        1.100425   -1.054477   -0.307768
      8          1           0       -2.358254    0.583293   -1.690538
      9          1           0       -2.468012   -0.951314   -0.804310
     10          1           0       -3.310951    0.501693   -0.216197
     11          1           0        0.042076    1.284306    0.243648
     12          1           0        1.711400    2.016561   -0.116725
     13          1           0        1.959593    0.877683    1.240784
     14          1           0        1.562328   -1.659230    0.485531
     15          1           0        0.853610   -1.695606   -1.158278
 ---------------------------------------------------------------------

 SCF Done:  E(RHF) =  -345.070245522     A.U. after    2 cycles

 The electronic state is 1-A.
 Alpha  occ. eigenvalues --  -21.10272 -21.06283 -11.54878 -11.47830 -11.44436
 Alpha  occ. eigenvalues --  -11.39207 -11.38978  -1.83473  -1.76704  -1.13830
 Alpha  occ. eigenvalues --   -1.07784  -1.01592  -0.90317  -0.76796  -0.69057
 Alpha  occ. eigenvalues --   -0.66956  -0.61875  -0.59591  -0.57972  -0.57307
 Alpha  occ. eigenvalues --   -0.50858  -0.47080  -0.43474  -0.39629  -0.34323
 Alpha  occ. eigenvalues --   -0.32881  -0.27029
 Alpha virt. eigenvalues --    0.03466   0.05037   0.05233   0.05658   0.05998
 Alpha virt. eigenvalues --    0.06589   0.06854   0.07751   0.10011   0.10867
 Alpha virt. eigenvalues --    0.11680   0.12375   0.12966   0.13647   0.14422

 Mulliken charges:
               1
     1  C   -4.133785
     2  C   -0.426507
     3  O   -3.096855
     4  C    4.131215
     5  C   -2.543253
     6  O   -2.634210
     7  C   -1.997737
     8  H    1.198783
     9  H    1.261690
    10  H    1.234639
    11  H    2.269238
    12  H    0.902790
    13  H    1.333447
    14  H    1.308113
    15  H    1.192432
 Sum of Mulliken charges =  -0.00000

 Dipole moment (field-independent basis, Debye):
    X=             -0.1205    Y=             -1.9164    Z=             -0.1063  Tot=              1.9232

 Test job not archived.
 1\1\GINC-SE125\SP\RHF\Aug-CC-pVDZ\C5H8O2\OHZDE\09-Apr-2025\0\\#t hf au
 g-cc-pvdz iop(5/13=1,5/36=2,99/5=2) pseudo=read geom=check guess=(read
 ,tcheck) scf=(maxcycle=1)\\title\\0,1\C,0,2.21533425,-0.28531796,0.670
 31884\C,0,1.00998094,0.52788302,0.33558178\O,0,0.78337932,0.58802074,-
 1.29484448\C,0,-0.01775002,-0.02134941,-0.53208426\C,0,-1.65945327,0.9
 3833963,0.22051944\O,0,-2.05291032,-0.4418169,0.21292917\C,0,-1.161419
 71,-0.96807983,-0.73079587\H,0,2.0867143,-0.63777373,1.69764493\H,0,2.
 35867948,-1.15456257,0.02091278\H,0,3.11677684,0.32731999,0.65096581\H

 Normal termination of Gaussian 16 at Wed Apr  9 19:21:18 2025.
