 Gaussian 16, Revision C.01,

 ----------------------------------------------------------------------
 #t hf aug-cc-pvdz symm=none int=(grid=ultrafine) guess=(read,tcheck) s
 table=(opt,rrhf)
 ----------------------------------------------------------------------
 -----
 title
 -----
 Symbolic Z-matrix:
 Charge =  0 Multiplicity = 1

 SCF Done:  E(RHF) =  -335.334205892     A.U. after   17 cycles
 Normal termination of Gaussian 16 at Wed Apr  9 16:09:39 2025.
 Gaussian 16:  ES64L-G16RevC.01  3-Jul-2019

 ----------------------------------------------------------------------
 #t hf aug-cc-pvdz iop(5/13=1,5/36=2,99/5=2) pseudo=read geom=check gue
 ss=(read,tcheck) scf=(maxcycle=1)
 ----------------------------------------------------------------------
 -----
 title
 -----
 Structure from the checkpoint file:  "Grambow2020_b97d3_006739_forward_mol1.chk"
 Charge =  0 Multiplicity = 1

                         Standard orientation:
 ---------------------------------------------------------------------
 Center     Atomic      Atomic             Coordinates (Angstroms)
 Number     Number       Type             X           Y           Z
 ---------------------------------------------------------------------
      1          8           0        1.985678   -0.275253    0.102460
      2          6           0        0.829055    0.059959   -0.016797
      3          7           0        0.217615    1.249516   -0.162168
      4          6           0       -1.765695    0.492203    0.159986
      5          7           0       -1.423518   -0.668322    0.009684
      6          8           0       -0.149824   -1.089129   -0.095985
      7          1           0        0.698127    2.026935    0.290041
      8          1           0       -1.323804    1.506795   -0.133594
 ---------------------------------------------------------------------

 SCF Done:  E(RHF) =  -336.769636078     A.U. after    2 cycles

 The electronic state is 1-A.
 Alpha  occ. eigenvalues --  -21.16061 -21.05977 -15.87443 -15.77518 -11.54657
 Alpha  occ. eigenvalues --  -11.53167  -1.91128  -1.70406  -1.34999  -1.31365
 Alpha  occ. eigenvalues --   -0.90340  -0.84799  -0.70226  -0.64906  -0.62423
 Alpha  occ. eigenvalues --   -0.55628  -0.52761  -0.51425  -0.43093  -0.38119
 Alpha  occ. eigenvalues --   -0.32611  -0.30249
 Alpha virt. eigenvalues --    0.02249   0.03313   0.06183   0.08096   0.08740
 Alpha virt. eigenvalues --    0.10003   0.11863   0.12376   0.12482   0.13808
 Alpha virt. eigenvalues --    0.14554   0.16226   0.16971   0.17736   0.19603

 Mulliken charges:
               1
     1  O   -2.700188
     2  C    5.218182
     3  N   -2.314956
     4  C   -0.117461
     5  N   -0.213569
     6  O   -2.364327
     7  H    0.605581
     8  H    1.886739
 Sum of Mulliken charges =  -0.00000

 Dipole moment (field-independent basis, Debye):
    X=             -1.3184    Y=              1.3175    Z=              0.2708  Tot=              1.8834

 Test job not archived.
 1\1\GINC-SE232\SP\RHF\Aug-CC-pVDZ\C2H2N2O2\OHZDE\09-Apr-2025\0\\#t hf
 aug-cc-pvdz iop(5/13=1,5/36=2,99/5=2) pseudo=read geom=check guess=(re
 ad,tcheck) scf=(maxcycle=1)\\title\\0,1\O,0,2.21386242,0.18155064,0.14
 701164\C,0,1.01353753,0.02999866,0.12213435\N,0,-0.02055208,0.85075956
 ,-0.13680277\C,0,-1.53050486,-0.51110872,0.55325503\N,0,-0.77116434,-1
 .46499304,0.55227116\O,0,0.55804685,-1.39218707,0.35621555\H,0,0.14204
 525,1.82464832,0.11788563\H,0,-1.53616377,0.51452065,0.04442741\\Versi
 on=ES64L-G16RevC.01\State=1-A\HF=-336.7696361\RMSD=5.892e-02\Dipole=-0

 Normal termination of Gaussian 16 at Wed Apr  9 16:09:41 2025.
