 Gaussian 16, Revision C.01,

 ----------------------------------------------------------------------
 #t hf aug-cc-pvdz symm=none int=(grid=ultrafine) guess=(read,tcheck) s
 table=(opt,rrhf)
 ----------------------------------------------------------------------
 -----
 title
 -----
 Symbolic Z-matrix:
 Charge =  0 Multiplicity = 1

 SCF Done:  E(RHF) =  -322.638212031     A.U. after   16 cycles
 Normal termination of Gaussian 16 at Wed Apr  9 04:04:50 2025.
 Gaussian 16:  ES64L-G16RevC.01  3-Jul-2019

 ----------------------------------------------------------------------
 #t hf aug-cc-pvdz iop(5/13=1,5/36=2,99/5=2) pseudo=read geom=check gue
 ss=(read,tcheck) scf=(maxcycle=1)
 ----------------------------------------------------------------------
 -----
 title
 -----
 Structure from the checkpoint file:  "Grambow2020_wb97xd3_009153_reverse_mol2.chk"
 Charge =  0 Multiplicity = 1

                         Standard orientation:
 ---------------------------------------------------------------------
 Center     Atomic      Atomic             Coordinates (Angstroms)
 Number     Number       Type             X           Y           Z
 ---------------------------------------------------------------------
      1          6           0        2.048344   -0.345101    0.080790
      2          7           0        0.606338   -0.407869    0.065310
      3          6           0       -0.173742   -1.416363   -0.219626
      4          6           0       -1.611045   -1.176872   -0.150875
      5          6           0       -1.612814    0.136975    0.201001
      6          6           0       -0.247620    0.744174    0.401201
      7          8           0        0.089243    1.872288   -0.345184
      8          1           0        2.420608   -0.269873    1.104096
      9          1           0        2.374132    0.532476   -0.478109
     10          1           0        2.454541   -1.243282   -0.381098
     11          1           0        0.304068   -2.359842   -0.480933
     12          1           0       -0.064641    0.987202    1.453862
     13          1           0       -2.486201    0.753222    0.394464
     14          1           0       -0.379553    1.819989   -1.182922
 ---------------------------------------------------------------------

 SCF Done:  E(RHF) =  -324.119874716     A.U. after    2 cycles

 The electronic state is 1-A.
 Alpha  occ. eigenvalues --  -21.10078 -15.79836 -11.48917 -11.47629 -11.43590
 Alpha  occ. eigenvalues --  -11.37682 -11.31544  -1.76378  -1.51778  -1.19157
 Alpha  occ. eigenvalues --   -1.04554  -1.00538  -0.81420  -0.78948  -0.70641
 Alpha  occ. eigenvalues --   -0.68015  -0.63540  -0.60049  -0.59255  -0.54052
 Alpha  occ. eigenvalues --   -0.48272  -0.46295  -0.43878  -0.36478  -0.31471
 Alpha  occ. eigenvalues --   -0.27570
 Alpha virt. eigenvalues --    0.02635   0.04675   0.05000   0.05427   0.05963
 Alpha virt. eigenvalues --    0.06634   0.07190   0.07783   0.09977   0.11085
 Alpha virt. eigenvalues --    0.11558   0.12636   0.13141   0.13860   0.14734

 Mulliken charges:
               1
     1  C   -3.374564
     2  N   -2.824920
     3  C    0.205335
     4  C   -2.427605
     5  C    0.335285
     6  C    1.295453
     7  O   -3.106678
     8  H    1.408486
     9  H    1.437616
    10  H    1.390447
    11  H    1.792470
    12  H    1.701148
    13  H    1.496947
    14  H    0.670580
 Sum of Mulliken charges =   0.00000

 Dipole moment (field-independent basis, Debye):
    X=              6.1218    Y=              2.0670    Z=              0.4581  Tot=              6.4776

 Test job not archived.
 1\1\GINC-SE177\SP\RHF\Aug-CC-pVDZ\C5H7N1O1\OHZDE\09-Apr-2025\0\\#t hf
 aug-cc-pvdz iop(5/13=1,5/36=2,99/5=2) pseudo=read geom=check guess=(re
 ad,tcheck) scf=(maxcycle=1)\\title\\0,1\C,0,-1.79204977,0.0634401,0.28
 65597\N,0,-0.41355668,-0.29157743,0.04722567\C,0,0.19123981,-1.4332310
 9,0.24119023\C,0,1.60920181,-1.49274144,-0.0961\C,0,1.80479512,-0.2125
 443,-0.51185616\C,0,0.57334936,0.65684373,-0.49663412\O,0,0.61047207,1
 .84157897,0.2370089\H,0,-2.32572952,0.19676378,-0.65620518\H,0,-1.8285
 597,0.99770667,0.84732651\H,0,-2.2744436,-0.72572021,0.86065658\H,0,-0

 Normal termination of Gaussian 16 at Wed Apr  9 04:04:55 2025.
