 Gaussian 16, Revision C.01,

 ----------------------------------------------------------------------
 #t hf aug-cc-pvdz symm=none int=(grid=ultrafine) guess=(read,tcheck) s
 table=(opt,rrhf)
 ----------------------------------------------------------------------
 -----
 title
 -----
 Symbolic Z-matrix:
 Charge =  0 Multiplicity = 1

 SCF Done:  E(RHF) =  -302.841500929     A.U. after   14 cycles
 Normal termination of Gaussian 16 at Wed Apr  9 19:29:11 2025.
 Gaussian 16:  ES64L-G16RevC.01  3-Jul-2019

 ----------------------------------------------------------------------
 #t hf aug-cc-pvdz iop(5/13=1,5/36=2,99/5=2) pseudo=read geom=check gue
 ss=(read,tcheck) scf=(maxcycle=1)
 ----------------------------------------------------------------------
 -----
 title
 -----
 Structure from the checkpoint file:  "Grambow2020_wb97xd3_009046_reverse_mol2.chk"
 Charge =  0 Multiplicity = 1

                         Standard orientation:
 ---------------------------------------------------------------------
 Center     Atomic      Atomic             Coordinates (Angstroms)
 Number     Number       Type             X           Y           Z
 ---------------------------------------------------------------------
      1          7           0       -2.716524   -0.763404    0.407730
      2          6           0       -1.850823   -0.201126   -0.570342
      3          6           0       -0.855669    0.611301   -0.319920
      4          7           0        0.041918    1.409359   -0.094738
      5          6           0        1.591674   -0.499991    0.414363
      6          6           0        1.393342    0.977088    0.274944
      7          6           0        2.477502   -1.198732   -0.276223
      8          1           0       -3.685720   -0.569798    0.194657
      9          1           0       -2.517494   -0.411258    1.332747
     10          1           0       -1.983009   -0.546184   -1.588070
     11          1           0        0.955151   -1.005303    1.136604
     12          1           0        2.072599    1.387814   -0.475393
     13          1           0        1.627954    1.484810    1.215015
     14          1           0        2.596039   -2.265505   -0.130836
     15          1           0        3.120568   -0.727501   -1.012601
 ---------------------------------------------------------------------

 SCF Done:  E(RHF) =  -304.286796176     A.U. after    2 cycles

 The electronic state is 1-A.
 Alpha  occ. eigenvalues --  -15.75423 -15.75203 -11.45489 -11.44416 -11.41369
 Alpha  occ. eigenvalues --  -11.40632 -11.37306  -1.41793  -1.33346  -1.17389
 Alpha  occ. eigenvalues --   -1.04198  -0.96104  -0.81208  -0.72751  -0.67639
 Alpha  occ. eigenvalues --   -0.63865  -0.61626  -0.60120  -0.57275  -0.56273
 Alpha  occ. eigenvalues --   -0.51370  -0.47788  -0.41784  -0.39957  -0.35651
 Alpha  occ. eigenvalues --   -0.26715
 Alpha virt. eigenvalues --    0.03572   0.05043   0.05563   0.05807   0.06285
 Alpha virt. eigenvalues --    0.06687   0.06760   0.07929   0.10093   0.10659
 Alpha virt. eigenvalues --    0.12016   0.12141   0.12688   0.13761   0.14435

 Mulliken charges:
               1
     1  N   -2.913519
     2  C    0.303138
     3  C    2.272616
     4  N   -2.852055
     5  C   -0.440124
     6  C   -2.931380
     7  C   -3.170318
     8  H    0.551541
     9  H    0.682300
    10  H    1.486073
    11  H    1.392228
    12  H    1.420800
    13  H    1.383716
    14  H    1.399340
    15  H    1.415643
 Sum of Mulliken charges =   0.00000

 Dipole moment (field-independent basis, Debye):
    X=             -0.1039    Y=             -0.4574    Z=              0.4370  Tot=              0.6410

 Test job not archived.
 1\1\GINC-SE097\SP\RHF\Aug-CC-pVDZ\C5H8N2\OHZDE\09-Apr-2025\0\\#t hf au
 g-cc-pvdz iop(5/13=1,5/36=2,99/5=2) pseudo=read geom=check guess=(read
 ,tcheck) scf=(maxcycle=1)\\title\\0,1\N,0,2.95909593,-0.30422115,-0.13
 396912\C,0,1.93618083,-0.11868353,0.83630964\C,0,0.90649864,0.67849094
 ,0.70459712\N,0,-0.0283505,1.45926856,0.60606123\C,0,-1.32423613,-0.27
 594898,-0.66525476\C,0,-1.28114722,1.09331781,-0.06210773\C,0,-2.21662
 462,-1.19940611,-0.34790606\H,0,3.87444362,-0.1361379,0.26113926\H,0,2
 .83843656,0.30653285,-0.92876266\H,0,1.9791973,-0.75492661,1.71132529\

 Normal termination of Gaussian 16 at Wed Apr  9 19:29:16 2025.
