 Gaussian 16, Revision C.01,

 ----------------------------------------------------------------------
 #t hf aug-cc-pvdz symm=none int=(grid=ultrafine) guess=(read,tcheck) s
 table=(opt,rrhf)
 ----------------------------------------------------------------------
 -----
 title
 -----
 Symbolic Z-matrix:
 Charge =  0 Multiplicity = 1

 SCF Done:  E(RHF) =  -359.662902288     A.U. after   15 cycles
 Normal termination of Gaussian 16 at Wed Apr  9 03:46:30 2025.
 Gaussian 16:  ES64L-G16RevC.01  3-Jul-2019

 ----------------------------------------------------------------------
 #t hf aug-cc-pvdz iop(5/13=1,5/36=2,99/5=2) pseudo=read geom=check gue
 ss=(read,tcheck) scf=(maxcycle=1)
 ----------------------------------------------------------------------
 -----
 title
 -----
 Structure from the checkpoint file:  "Grambow2020_wb97xd3_007902_reverse_mol2.chk"
 Charge =  0 Multiplicity = 1

                         Standard orientation:
 ---------------------------------------------------------------------
 Center     Atomic      Atomic             Coordinates (Angstroms)
 Number     Number       Type             X           Y           Z
 ---------------------------------------------------------------------
      1          6           0       -2.144433   -1.184109    0.078089
      2          6           0       -0.964637   -0.307698    0.380290
      3          7           0       -0.668691    0.769459   -0.526017
      4          8           0       -0.230426    1.917866    0.183118
      5          6           0        0.289223   -0.347752   -0.434991
      6          6           0        1.584579   -0.190591    0.271651
      7          8           0        2.568392   -0.806140   -0.041770
      8          1           0       -2.243053   -1.337829   -0.996583
      9          1           0       -2.026852   -2.157104    0.557961
     10          1           0       -3.064803   -0.727279    0.445453
     11          1           0       -0.397662    2.623606   -0.445363
     12          1           0        0.334023   -0.961376   -1.327510
     13          1           0        1.592248    0.514609    1.121837
     14          1           0       -0.805177   -0.053742    1.425306
 ---------------------------------------------------------------------

 SCF Done:  E(RHF) =  -361.256178905     A.U. after    2 cycles

 The electronic state is 1-A.
 Alpha  occ. eigenvalues --  -21.10621 -21.06433 -15.78613 -11.50768 -11.48642
 Alpha  occ. eigenvalues --  -11.42179 -11.39468  -1.80804  -1.71129  -1.40943
 Alpha  occ. eigenvalues --   -1.09597  -0.99794  -0.86139  -0.82848  -0.69463
 Alpha  occ. eigenvalues --   -0.65010  -0.60561  -0.58505  -0.58019  -0.53288
 Alpha  occ. eigenvalues --   -0.52624  -0.50185  -0.47834  -0.41308  -0.34679
 Alpha  occ. eigenvalues --   -0.32849  -0.28416
 Alpha virt. eigenvalues --    0.03797   0.05047   0.05489   0.05801   0.05986
 Alpha virt. eigenvalues --    0.06640   0.07309   0.09967   0.11109   0.12659
 Alpha virt. eigenvalues --    0.12817   0.13463   0.14269   0.14474   0.15391

 Mulliken charges:
               1
     1  C   -4.297320
     2  C    0.160525
     3  N   -0.296198
     4  O   -2.345879
     5  C   -0.484768
     6  C    1.304511
     7  O   -2.993567
     8  H    1.233859
     9  H    1.205211
    10  H    1.117003
    11  H    0.834915
    12  H    1.408785
    13  H    1.466370
    14  H    1.686552
 Sum of Mulliken charges =   0.00000

 Dipole moment (field-independent basis, Debye):
    X=             -1.7343    Y=              0.5594    Z=              0.4494  Tot=              1.8769

 Test job not archived.
 1\1\GINC-SE419\SP\RHF\Aug-CC-pVDZ\C4H7N1O2\OHZDE\09-Apr-2025\0\\#t hf
 aug-cc-pvdz iop(5/13=1,5/36=2,99/5=2) pseudo=read geom=check guess=(re
 ad,tcheck) scf=(maxcycle=1)\\title\\0,1\C,0,-1.34474085,-1.47307312,0.
 0378532\C,0,-0.33891692,-0.41238924,0.37639114\N,0,-0.60737021,0.93709
 178,-0.04322403\O,0,-0.19069719,1.86437205,0.94688956\C,0,0.52699636,0
 .22736331,-0.66253272\C,0,1.927338,0.55466403,-0.29659891\O,0,2.840664
 86,0.43128704,-1.06837185\H,0,-1.78248666,-1.28776576,-0.94312361\H,0,
 -0.87014555,-2.45563576,0.02552141\H,0,-2.14880251,-1.48760106,0.77541

 Normal termination of Gaussian 16 at Wed Apr  9 03:46:35 2025.
