 Gaussian 16, Revision C.01,

 ----------------------------------------------------------------------
 #t hf aug-cc-pvdz symm=none int=(grid=ultrafine) guess=(read,tcheck) s
 table=(opt,rrhf)
 ----------------------------------------------------------------------
 -----
 title
 -----
 Symbolic Z-matrix:
 Charge =  0 Multiplicity = 1

 SCF Done:  E(RHF) =  -320.244417083     A.U. after   17 cycles
 Normal termination of Gaussian 16 at Wed Apr  9 18:47:19 2025.
 Gaussian 16:  ES64L-G16RevC.01  3-Jul-2019

 ----------------------------------------------------------------------
 #t hf aug-cc-pvdz iop(5/13=1,5/36=2,99/5=2) pseudo=read geom=check gue
 ss=(read,tcheck) scf=(maxcycle=1)
 ----------------------------------------------------------------------
 -----
 title
 -----
 Structure from the checkpoint file:  "Grambow2020_wb97xd3_007653_reverse_mol2.chk"
 Charge =  0 Multiplicity = 1

                         Standard orientation:
 ---------------------------------------------------------------------
 Center     Atomic      Atomic             Coordinates (Angstroms)
 Number     Number       Type             X           Y           Z
 ---------------------------------------------------------------------
      1          7           0       -1.622123   -0.653589   -0.014008
      2          6           0       -0.429068   -1.293502    0.007142
      3          6           0        0.772311   -1.401912    0.014279
      4          6           0       -1.381796    0.596421   -0.007392
      5          8           0       -0.220306    1.299743    0.024608
      6          6           0        1.146791    0.934550   -0.009378
      7          6           0        1.697151   -0.271683   -0.007362
      8          1           0       -2.207229    1.300294   -0.022112
      9          1           0        1.717734    1.852402   -0.031799
     10          1           0        2.774475   -0.358765   -0.028637
 ---------------------------------------------------------------------

 SCF Done:  E(RHF) =  -321.668628246     A.U. after    2 cycles

 The electronic state is 1-A.
 Alpha  occ. eigenvalues --  -21.12563 -15.78325 -11.51787 -11.49370 -11.44136
 Alpha  occ. eigenvalues --  -11.43707 -11.38459  -1.83701  -1.43116  -1.23018
 Alpha  occ. eigenvalues --   -1.03040  -0.96916  -0.79588  -0.73360  -0.69338
 Alpha  occ. eigenvalues --   -0.65039  -0.60458  -0.55633  -0.49831  -0.47859
 Alpha  occ. eigenvalues --   -0.44501  -0.43819  -0.34333  -0.25390
 Alpha virt. eigenvalues --    0.02713   0.04736   0.05732   0.05886   0.08936
 Alpha virt. eigenvalues --    0.09139   0.10137   0.10379   0.11611   0.12524
 Alpha virt. eigenvalues --    0.12548   0.13361   0.14221   0.14705   0.15357

 Mulliken charges:
               1
     1  N   -3.072384
     2  C    0.802909
     3  C    0.278453
     4  C    1.489980
     5  O   -3.590918
     6  C   -0.001131
     7  C   -0.722447
     8  H    1.753395
     9  H    1.603585
    10  H    1.458558
 Sum of Mulliken charges =   0.00000

 Dipole moment (field-independent basis, Debye):
    X=              0.6137    Y=              3.4806    Z=             -0.0464  Tot=              3.5346

 Test job not archived.
 1\1\GINC-SE135\SP\RHF\Aug-CC-pVDZ\C5H3N1O1\OHZDE\09-Apr-2025\0\\#t hf
 aug-cc-pvdz iop(5/13=1,5/36=2,99/5=2) pseudo=read geom=check guess=(re
 ad,tcheck) scf=(maxcycle=1)\\title\\0,1\N,0,-0.10296185,0.4804894,1.97
 473083\C,0,0.89087077,-0.20296763,1.35950841\C,0,1.47343196,-0.7314678
 8,0.4449458\C,0,-0.9596709,0.78675737,1.08446358\O,0,-1.00422662,0.556
 16786,-0.25329136\C,0,-0.17641328,-0.1585715,-1.1518159\C,0,0.97730022
 ,-0.77242512,-0.92814926\H,0,-1.84768854,1.34323839,1.36508448\H,0,-0.
 65604057,-0.12102183,-2.12005142\H,0,1.47834781,-1.26665605,-1.7487291

 Normal termination of Gaussian 16 at Wed Apr  9 18:47:23 2025.
