 Gaussian 16, Revision C.01,

 ----------------------------------------------------------------------
 #t hf aug-cc-pvdz symm=none int=(grid=ultrafine) guess=(read,tcheck) s
 table=(opt,rrhf)
 ----------------------------------------------------------------------
 -----
 title
 -----
 Symbolic Z-matrix:
 Charge =  0 Multiplicity = 1

 SCF Done:  E(RHF) =  -338.743112243     A.U. after   14 cycles
 Normal termination of Gaussian 16 at Wed Apr  9 03:40:24 2025.
 Gaussian 16:  ES64L-G16RevC.01  3-Jul-2019

 ----------------------------------------------------------------------
 #t hf aug-cc-pvdz iop(5/13=1,5/36=2,99/5=2) pseudo=read geom=check gue
 ss=(read,tcheck) scf=(maxcycle=1)
 ----------------------------------------------------------------------
 -----
 title
 -----
 Structure from the checkpoint file:  "Grambow2020_wb97xd3_007481_forward_mol2.chk"
 Charge =  0 Multiplicity = 1

                         Standard orientation:
 ---------------------------------------------------------------------
 Center     Atomic      Atomic             Coordinates (Angstroms)
 Number     Number       Type             X           Y           Z
 ---------------------------------------------------------------------
      1          6           0        2.463377    0.294070    0.008850
      2          8           0        1.439478   -0.682019   -0.009757
      3          6           0        0.194257   -0.183345   -0.005413
      4          6           0       -0.348255    1.069209   -0.006106
      5          7           0       -1.723962    0.967899    0.000939
      6          6           0       -1.991543   -0.302361    0.004986
      7          7           0       -0.852588   -1.057499    0.001217
      8          1           0        2.398574    0.941766   -0.870321
      9          1           0        3.406993   -0.246314   -0.005291
     10          1           0        2.401602    0.904041    0.914975
     11          1           0        0.153643    2.022436   -0.006766
     12          1           0       -2.975044   -0.746086    0.011268
     13          1           0       -0.772750   -2.057935    0.005197
 ---------------------------------------------------------------------

 SCF Done:  E(RHF) =  -340.275500955     A.U. after    2 cycles

 The electronic state is 1-A.
 Alpha  occ. eigenvalues --  -21.09150 -15.79301 -15.71335 -11.47910 -11.42330
 Alpha  occ. eigenvalues --  -11.41657 -11.37100  -1.81635  -1.54592  -1.26789
 Alpha  occ. eigenvalues --   -1.07653  -0.99605  -0.84522  -0.80878  -0.72862
 Alpha  occ. eigenvalues --   -0.64757  -0.63754  -0.59677  -0.59119  -0.53666
 Alpha  occ. eigenvalues --   -0.53071  -0.44905  -0.42468  -0.36495  -0.36139
 Alpha  occ. eigenvalues --   -0.25419
 Alpha virt. eigenvalues --    0.03294   0.04678   0.05574   0.05990   0.06507
 Alpha virt. eigenvalues --    0.07268   0.09077   0.11006   0.11545   0.12279
 Alpha virt. eigenvalues --    0.12761   0.13873   0.14442   0.15373   0.15939

 Mulliken charges:
               1
     1  C   -3.350111
     2  O   -3.773860
     3  C    5.088546
     4  C   -0.436271
     5  N   -3.118873
     6  C    0.794423
     7  N   -3.234585
     8  H    1.359455
     9  H    1.388752
    10  H    1.362391
    11  H    1.454972
    12  H    1.538360
    13  H    0.926800
 Sum of Mulliken charges =   0.00000

 Dipole moment (field-independent basis, Debye):
    X=              2.0444    Y=             -2.9393    Z=              0.0192  Tot=              3.5804

 Test job not archived.
 1\1\GINC-SE220\SP\RHF\Aug-CC-pVDZ\C4H6N2O1\OHZDE\09-Apr-2025\0\\#t hf
 aug-cc-pvdz iop(5/13=1,5/36=2,99/5=2) pseudo=read geom=check guess=(re
 ad,tcheck) scf=(maxcycle=1)\\title\\0,1\C,0,-2.17992381,-0.00683308,-0
 .11517108\O,0,-1.08668415,-0.71952658,0.43105197\C,0,0.1161224,-0.1983
 7102,0.14658406\C,0,0.56148766,0.89154567,-0.54402558\N,0,1.93992446,0
 .9233689,-0.50181008\C,0,2.30304275,-0.112468,0.19127164\N,0,1.2255805
 5,-0.83806984,0.6155879\H,0,-2.20262268,1.01932501,0.26316055\H,0,-3.0
 7953979,-0.53102481,0.19874185\H,0,-2.12539386,0.00976155,-1.20773405\

 Normal termination of Gaussian 16 at Wed Apr  9 03:40:29 2025.
