 Gaussian 16, Revision C.01,

 ----------------------------------------------------------------------
 #t hf aug-cc-pvdz symm=none int=(grid=ultrafine) guess=(read,tcheck) s
 table=(opt,rrhf)
 ----------------------------------------------------------------------
 -----
 title
 -----
 Symbolic Z-matrix:
 Charge =  0 Multiplicity = 1

 SCF Done:  E(RHF) =  -338.607240547     A.U. after   15 cycles
 Normal termination of Gaussian 16 at Wed Apr  9 03:52:34 2025.
 Gaussian 16:  ES64L-G16RevC.01  3-Jul-2019

 ----------------------------------------------------------------------
 #t hf aug-cc-pvdz iop(5/13=1,5/36=2,99/5=2) pseudo=read geom=check gue
 ss=(read,tcheck) scf=(maxcycle=1)
 ----------------------------------------------------------------------
 -----
 title
 -----
 Structure from the checkpoint file:  "Grambow2020_wb97xd3_008307_reverse_mol2.chk"
 Charge =  0 Multiplicity = 1

                         Standard orientation:
 ---------------------------------------------------------------------
 Center     Atomic      Atomic             Coordinates (Angstroms)
 Number     Number       Type             X           Y           Z
 ---------------------------------------------------------------------
      1          6           0       -2.385782    0.259733    0.489109
      2          8           0       -1.497909   -0.294767   -0.528745
      3          6           0       -0.073269   -0.132578   -0.228020
      4          6           0        0.665013   -1.232048    0.061289
      5          7           0        1.868166   -0.549923    0.228197
      6          6           0        1.721495    0.792967    0.047371
      7          7           0        0.476614    1.094912   -0.250161
      8          1           0       -2.156631   -0.213938    1.442155
      9          1           0       -3.405290    0.074355    0.160555
     10          1           0       -2.159647    1.320642    0.514205
     11          1           0       -1.540585   -1.272956   -0.548316
     12          1           0        2.737668   -0.996816    0.457741
     13          1           0        2.529548    1.503487    0.138872
 ---------------------------------------------------------------------

 SCF Done:  E(RHF) =  -340.153027550     A.U. after    2 cycles

 The electronic state is 1-A.
 Alpha  occ. eigenvalues --  -21.21121 -15.75879 -15.70973 -11.47163 -11.41230
 Alpha  occ. eigenvalues --  -11.38764 -11.31263  -1.90303  -1.52841  -1.24229
 Alpha  occ. eigenvalues --   -1.08532  -1.00805  -0.83823  -0.77574  -0.71753
 Alpha  occ. eigenvalues --   -0.67861  -0.67090  -0.62052  -0.58304  -0.53301
 Alpha  occ. eigenvalues --   -0.52434  -0.46252  -0.40253  -0.34463  -0.30720
 Alpha  occ. eigenvalues --   -0.27408
 Alpha virt. eigenvalues --    0.02595   0.05218   0.05233   0.05635   0.06179
 Alpha virt. eigenvalues --    0.06779   0.09972   0.10929   0.11318   0.11568
 Alpha virt. eigenvalues --    0.12631   0.13155   0.13809   0.14847   0.15615

 Mulliken charges:
               1
     1  C   -3.116880
     2  O   -3.304655
     3  C    5.786426
     4  C   -2.160440
     5  N   -2.313872
     6  C    1.112993
     7  N   -3.191075
     8  H    1.384466
     9  H    1.268037
    10  H    1.362481
    11  H    0.869314
    12  H    0.803317
    13  H    1.499888
 Sum of Mulliken charges =   0.00000

 Dipole moment (field-independent basis, Debye):
    X=             -3.3655    Y=              1.3483    Z=              0.4938  Tot=              3.6591

 Test job not archived.
 1\1\GINC-SE105\SP\RHF\Aug-CC-pVDZ\C4H6N2O1\OHZDE\09-Apr-2025\0\\#t hf
 aug-cc-pvdz iop(5/13=1,5/36=2,99/5=2) pseudo=read geom=check guess=(re
 ad,tcheck) scf=(maxcycle=1)\\title\\0,1\C,0,2.13518787,0.08427969,-0.5
 9549868\O,0,1.26357529,-0.70268982,0.27213396\C,0,-0.13803508,-0.27676
 002,0.2518539\C,0,-1.06429495,-1.09625103,-0.30318747\N,0,-2.15366284,
 -0.26692122,-0.04585326\C,0,-1.78001409,0.88548268,0.57858025\N,0,-0.4
 8166075,0.90893326,0.78631321\H,0,1.75062449,0.02935104,-1.61248639\H,
 0,3.13717771,-0.32655287,-0.50092797\H,0,2.07927597,1.09674354,-0.2093

 Normal termination of Gaussian 16 at Wed Apr  9 03:52:38 2025.
