 Gaussian 16, Revision C.01,

 ----------------------------------------------------------------------
 #t hf aug-cc-pvdz symm=none int=(grid=ultrafine) guess=(read,tcheck) s
 table=(opt,rrhf)
 ----------------------------------------------------------------------
 -----
 title
 -----
 Symbolic Z-matrix:
 Charge =  0 Multiplicity = 1

 SCF Done:  E(RHF) =  -305.839076526     A.U. after   15 cycles
 Normal termination of Gaussian 16 at Wed Apr  9 03:15:32 2025.
 Gaussian 16:  ES64L-G16RevC.01  3-Jul-2019

 ----------------------------------------------------------------------
 #t hf aug-cc-pvdz iop(5/13=1,5/36=2,99/5=2) pseudo=read geom=check gue
 ss=(read,tcheck) scf=(maxcycle=1)
 ----------------------------------------------------------------------
 -----
 title
 -----
 Structure from the checkpoint file:  "Grambow2020_b97d3_006960_reverse_mol2.chk"
 Charge =  0 Multiplicity = 1

                         Standard orientation:
 ---------------------------------------------------------------------
 Center     Atomic      Atomic             Coordinates (Angstroms)
 Number     Number       Type             X           Y           Z
 ---------------------------------------------------------------------
      1          8           0       -2.024692   -0.315889    0.465026
      2          6           0       -2.099125    0.603497   -0.331553
      3          6           0        1.188358    1.715087    0.256315
      4          6           0        1.330598    0.547606   -0.391328
      5          6           0        1.357336   -0.809030    0.269124
      6          8           0        0.379642   -1.692220   -0.271337
      7          1           0       -0.495829   -1.353388    0.021067
      8          1           0       -1.430886    0.682119   -1.213001
      9          1           0       -2.850438    1.414346   -0.207928
     10          1           0        1.176175    2.671475   -0.268877
     11          1           0        1.098360    1.751951    1.344649
     12          1           0        1.411267    0.533679   -1.482595
     13          1           0        1.259730   -0.688490    1.364314
     14          1           0        2.329023   -1.289782    0.077508
 ---------------------------------------------------------------------

 SCF Done:  E(RHF) =  -307.212605610     A.U. after    2 cycles

 The electronic state is 1-A.
 Alpha  occ. eigenvalues --  -21.09554 -21.04433 -11.49729 -11.43839 -11.40708
 Alpha  occ. eigenvalues --  -11.37481  -1.73090  -1.68416  -1.17090  -0.95487
 Alpha  occ. eigenvalues --   -0.91787  -0.79543  -0.68843  -0.66330  -0.59820
 Alpha  occ. eigenvalues --   -0.56910  -0.55537  -0.53050  -0.49452  -0.46810
 Alpha  occ. eigenvalues --   -0.40328  -0.35471  -0.32129  -0.30034
 Alpha virt. eigenvalues --    0.03245   0.04803   0.05147   0.05698   0.06109
 Alpha virt. eigenvalues --    0.06634   0.07502   0.08725   0.09953   0.11071
 Alpha virt. eigenvalues --    0.11740   0.12774   0.14060   0.14517   0.15017

 Mulliken charges:
               1
     1  O   -2.099971
     2  C   -0.973239
     3  C   -2.881840
     4  C   -0.811226
     5  C   -2.040196
     6  O   -2.566842
     7  H    1.218051
     8  H    1.693482
     9  H    1.385044
    10  H    1.425076
    11  H    1.516359
    12  H    1.437800
    13  H    1.446161
    14  H    1.251341
 Sum of Mulliken charges =  -0.00000

 Dipole moment (field-independent basis, Debye):
    X=             -0.7561    Y=              1.3999    Z=             -0.2796  Tot=              1.6154

 Test job not archived.
 1\1\GINC-SE029\SP\RHF\Aug-CC-pVDZ\C4H8O2\OHZDE\09-Apr-2025\0\\#t hf au
 g-cc-pvdz iop(5/13=1,5/36=2,99/5=2) pseudo=read geom=check guess=(read
 ,tcheck) scf=(maxcycle=1)\\title\\0,1\O,0,1.83425605,1.26537457,0.6657
 5358\C,0,2.30001623,0.37049296,-0.01806161\C,0,-0.56436966,-1.65925128
 ,0.2353164\C,0,-0.94039039,-0.62867217,-0.53876368\C,0,-1.4684981,0.68
 891765,-0.02648189\O,0,-0.72187119,1.79771076,-0.51753541\H,0,0.157292
 37,1.75949344,-0.0789366\H,0,1.83152351,0.04293364,-0.96826969\H,0,3.2
 2752867,-0.16362271,0.28471052\H,0,-0.1890004,-2.59342716,-0.18547761\

 Normal termination of Gaussian 16 at Wed Apr  9 03:15:36 2025.
