 Gaussian 16, Revision C.01,

 ----------------------------------------------------------------------
 #t hf aug-cc-pvdz symm=none int=(grid=ultrafine) guess=(read,tcheck) s
 table=(opt,rrhf)
 ----------------------------------------------------------------------
 -----
 title
 -----
 Symbolic Z-matrix:
 Charge =  0 Multiplicity = 1

 SCF Done:  E(RHF) =  -266.700610016     A.U. after   15 cycles
 Normal termination of Gaussian 16 at Wed Apr  9 03:05:13 2025.
 Gaussian 16:  ES64L-G16RevC.01  3-Jul-2019

 ----------------------------------------------------------------------
 #t hf aug-cc-pvdz iop(5/13=1,5/36=2,99/5=2) pseudo=read geom=check gue
 ss=(read,tcheck) scf=(maxcycle=1)
 ----------------------------------------------------------------------
 -----
 title
 -----
 Structure from the checkpoint file:  "Grambow2020_b97d3_006480_reverse_mol2.chk"
 Charge =  0 Multiplicity = 1

                         Standard orientation:
 ---------------------------------------------------------------------
 Center     Atomic      Atomic             Coordinates (Angstroms)
 Number     Number       Type             X           Y           Z
 ---------------------------------------------------------------------
      1          8           0       -1.594825   -0.638742    0.071553
      2          6           0       -1.013334    0.649030   -0.032853
      3          6           0        0.504487    0.652962    0.131204
      4          6           0        1.291847   -0.258282    1.015901
      5          8           0        1.056696   -0.354227   -0.831580
      6          1           0       -1.149518   -1.198795   -0.592493
      7          1           0       -1.272809    1.143101   -0.990212
      8          1           0       -1.441581    1.252291    0.779663
      9          1           0        0.915365    1.655240   -0.059826
     10          1           0        0.572992   -1.066965    1.278293
     11          1           0        1.982590   -0.103379   -1.020715
 ---------------------------------------------------------------------

 SCF Done:  E(RHF) =  -267.877545888     A.U. after    2 cycles

 The electronic state is 1-A.
 Alpha  occ. eigenvalues --  -21.12211 -21.07665 -11.47946 -11.42837 -11.39566
 Alpha  occ. eigenvalues --   -1.77994  -1.70404  -1.11645  -0.96392  -0.80900
 Alpha  occ. eigenvalues --   -0.70646  -0.64342  -0.59968  -0.54523  -0.52192
 Alpha  occ. eigenvalues --   -0.44406  -0.41400  -0.39283  -0.33980  -0.32426
 Alpha virt. eigenvalues --    0.03671   0.05230   0.05380   0.05709   0.06539
 Alpha virt. eigenvalues --    0.07184   0.09829   0.10423   0.11574   0.13209
 Alpha virt. eigenvalues --    0.14035   0.15161   0.15370   0.17024   0.17340

 Mulliken charges:
               1
     1  O   -2.506715
     2  C   -0.891586
     3  C    0.684841
     4  C   -2.026862
     5  O   -2.224284
     6  H    0.773978
     7  H    1.231989
     8  H    1.303343
     9  H    1.475001
    10  H    1.260488
    11  H    0.919807
 Sum of Mulliken charges =  -0.00000

 Dipole moment (field-independent basis, Debye):
    X=             -1.1138    Y=              0.7561    Z=             -2.5183  Tot=              2.8555

 Test job not archived.
 1\1\GINC-SE129\SP\RHF\Aug-CC-pVDZ\C3H6O2\OHZDE\09-Apr-2025\0\\#t hf au
 g-cc-pvdz iop(5/13=1,5/36=2,99/5=2) pseudo=read geom=check guess=(read
 ,tcheck) scf=(maxcycle=1)\\title\\0,1\O,0,-1.69300409,-0.40418655,-0.3
 9723169\C,0,-0.87229707,0.70637391,-0.08024077\C,0,0.54933739,0.324197
 96,0.32424479\C,0,0.94613281,-0.90913043,1.06885362\O,0,1.09518234,-0.
 55888623,-0.75674241\H,0,-1.22954773,-0.90030129,-1.09865478\H,0,-0.82
 536544,1.43634213,-0.91265514\H,0,-1.34285551,1.20848857,0.7764726\H,0
 ,1.17142559,1.22119996,0.45940505\H,0,0.04970103,-1.56583163,1.0001191

 Normal termination of Gaussian 16 at Wed Apr  9 03:05:16 2025.
