 Gaussian 16, Revision C.01,

 ----------------------------------------------------------------------
 #t hf aug-cc-pvdz symm=none int=(grid=ultrafine) guess=(read,tcheck) s
 table=(opt,rrhf)
 ----------------------------------------------------------------------
 -----
 title
 -----
 Symbolic Z-matrix:
 Charge =  0 Multiplicity = 1

 SCF Done:  E(RHF) =  -302.774975150     A.U. after   15 cycles
 Normal termination of Gaussian 16 at Wed Apr  9 18:28:29 2025.
 Gaussian 16:  ES64L-G16RevC.01  3-Jul-2019

 ----------------------------------------------------------------------
 #t hf aug-cc-pvdz iop(5/13=1,5/36=2,99/5=2) pseudo=read geom=check gue
 ss=(read,tcheck) scf=(maxcycle=1)
 ----------------------------------------------------------------------
 -----
 title
 -----
 Structure from the checkpoint file:  "Grambow2020_wb97xd3_007171_forward_mol1.chk"
 Charge =  0 Multiplicity = 1

                         Standard orientation:
 ---------------------------------------------------------------------
 Center     Atomic      Atomic             Coordinates (Angstroms)
 Number     Number       Type             X           Y           Z
 ---------------------------------------------------------------------
      1          6           0       -1.231737    1.702358   -0.078675
      2          6           0       -1.526010    0.268664    0.203877
      3          6           0       -0.976051   -1.505788   -0.733493
      4          7           0       -0.555658   -0.665325    0.252345
      5          6           0        0.743343   -0.595149    0.883176
      6          6           0        1.755001    0.066142    0.045027
      7          7           0        2.525506    0.603691   -0.612393
      8          1           0       -0.891040    1.840806   -1.111673
      9          1           0       -0.426024    2.078602    0.560974
     10          1           0       -2.110061    2.326858    0.077113
     11          1           0       -2.525952   -0.065995    0.431866
     12          1           0       -1.061018   -2.573283   -0.548065
     13          1           0       -1.102693   -1.118590   -1.733157
     14          1           0        0.666271   -0.059457    1.831649
     15          1           0        1.074310   -1.614870    1.092157
 ---------------------------------------------------------------------

 SCF Done:  E(RHF) =  -304.225872130     A.U. after    2 cycles

 The electronic state is 1-A.
 Alpha  occ. eigenvalues --  -15.78392 -15.76465 -11.49215 -11.45127 -11.43058
 Alpha  occ. eigenvalues --  -11.39839 -11.38193  -1.50907  -1.31276  -1.15009
 Alpha  occ. eigenvalues --   -1.09704  -0.92671  -0.82766  -0.73902  -0.68877
 Alpha  occ. eigenvalues --   -0.64785  -0.63247  -0.59974  -0.57262  -0.54318
 Alpha  occ. eigenvalues --   -0.53228  -0.52001  -0.44938  -0.44160  -0.35183
 Alpha  occ. eigenvalues --   -0.27093
 Alpha virt. eigenvalues --    0.02887   0.04949   0.05279   0.05437   0.05802
 Alpha virt. eigenvalues --    0.06697   0.07129   0.07825   0.09438   0.09558
 Alpha virt. eigenvalues --    0.10907   0.11555   0.11827   0.13161   0.13549

 Mulliken charges:
               1
     1  C   -3.423792
     2  C    0.061897
     3  C   -2.424148
     4  N   -2.771816
     5  C   -2.902874
     6  C    2.422077
     7  N   -2.312685
     8  H    1.282018
     9  H    1.274781
    10  H    1.220678
    11  H    1.536637
    12  H    1.481062
    13  H    1.475374
    14  H    1.537131
    15  H    1.543658
 Sum of Mulliken charges =   0.00000

 Dipole moment (field-independent basis, Debye):
    X=             -1.9262    Y=             -0.4349    Z=              2.3663  Tot=              3.0820

 Test job not archived.
 1\1\GINC-SE115\SP\RHF\Aug-CC-pVDZ\C5H8N2\OHZDE\09-Apr-2025\0\\#t hf au
 g-cc-pvdz iop(5/13=1,5/36=2,99/5=2) pseudo=read geom=check guess=(read
 ,tcheck) scf=(maxcycle=1)\\title\\0,1\C,0,-1.39436463,-1.23601602,-0.1
 7493177\C,0,-1.04813434,0.17220406,-0.51982656\C,0,-0.2038139,1.733965
 32,0.56544829\N,0,0.16047348,0.70056891,-0.24348299\C,0,1.47092441,0.1
 1752564,-0.42529215\C,0,1.86877748,-0.76118222,0.68503935\N,0,2.153723
 98,-1.45999496,1.54834959\H,0,-1.45722574,-1.37400188,0.9110407\H,0,-0
 .62698736,-1.933965,-0.5269033\H,0,-2.34774718,-1.52954293,-0.61153994

 Normal termination of Gaussian 16 at Wed Apr  9 18:28:34 2025.
