 Gaussian 16, Revision C.01,

 ----------------------------------------------------------------------
 #t hf aug-cc-pvdz symm=none int=(grid=ultrafine) guess=(read,tcheck) s
 table=(opt,rrhf)
 ----------------------------------------------------------------------
 -----
 title
 -----
 Symbolic Z-matrix:
 Charge =  0 Multiplicity = 1

 SCF Done:  E(RHF) =  -305.712940274     A.U. after   15 cycles
 Normal termination of Gaussian 16 at Wed Apr  9 17:57:56 2025.
 Gaussian 16:  ES64L-G16RevC.01  3-Jul-2019

 ----------------------------------------------------------------------
 #t hf aug-cc-pvdz iop(5/13=1,5/36=2,99/5=2) pseudo=read geom=check gue
 ss=(read,tcheck) scf=(maxcycle=1)
 ----------------------------------------------------------------------
 -----
 title
 -----
 Structure from the checkpoint file:  "Grambow2020_wb97xd3_006282_forward_mol1.chk"
 Charge =  0 Multiplicity = 1

                         Standard orientation:
 ---------------------------------------------------------------------
 Center     Atomic      Atomic             Coordinates (Angstroms)
 Number     Number       Type             X           Y           Z
 ---------------------------------------------------------------------
      1          6           0        2.162667    0.238341   -0.210434
      2          6           0        0.938147   -0.151157    0.556581
      3          6           0       -0.747846    1.345436    0.113585
      4          8           0       -1.513423    0.328043   -0.415179
      5          6           0       -1.139743   -0.926598    0.120526
      6          8           0        0.219895   -1.070189   -0.129961
      7          1           0        2.588719    1.156832    0.191479
      8          1           0        2.900529   -0.555631   -0.067146
      9          1           0        1.993127    0.343060   -1.286826
     10          1           0        0.221139    0.739107    0.947162
     11          1           0       -1.216962    1.842834    0.969615
     12          1           0       -0.399591    2.032480   -0.653345
     13          1           0       -1.335443   -0.962793    1.200853
     14          1           0       -1.682645   -1.694859   -0.422220
 ---------------------------------------------------------------------

 SCF Done:  E(RHF) =  -307.112357642     A.U. after    2 cycles

 The electronic state is 1-A.
 Alpha  occ. eigenvalues --  -21.08340 -21.06694 -11.46124 -11.43809 -11.41753
 Alpha  occ. eigenvalues --  -11.37271  -1.87408  -1.71052  -1.13627  -1.01423
 Alpha  occ. eigenvalues --   -0.91035  -0.83144  -0.69755  -0.68249  -0.62188
 Alpha  occ. eigenvalues --   -0.59726  -0.56135  -0.53921  -0.51348  -0.46660
 Alpha  occ. eigenvalues --   -0.44279  -0.37365  -0.32060  -0.24323
 Alpha virt. eigenvalues --    0.03958   0.05212   0.05534   0.05620   0.05945
 Alpha virt. eigenvalues --    0.06416   0.07227   0.07569   0.10608   0.11636
 Alpha virt. eigenvalues --    0.12053   0.13620   0.14293   0.14969   0.15785

 Mulliken charges:
               1
     1  C   -3.731716
     2  C   -0.252085
     3  C   -1.843278
     4  O   -2.762687
     5  C   -0.322337
     6  O   -2.933093
     7  H    1.208975
     8  H    1.249996
     9  H    1.308287
    10  H    2.474928
    11  H    1.092196
    12  H    1.375341
    13  H    1.690608
    14  H    1.444865
 Sum of Mulliken charges =  -0.00000

 Dipole moment (field-independent basis, Debye):
    X=             -0.4738    Y=              0.0749    Z=             -0.6186  Tot=              0.7828

 Test job not archived.
 1\1\GINC-SE173\SP\RHF\Aug-CC-pVDZ\C4H8O2\OHZDE\09-Apr-2025\0\\#t hf au
 g-cc-pvdz iop(5/13=1,5/36=2,99/5=2) pseudo=read geom=check guess=(read
 ,tcheck) scf=(maxcycle=1)\\title\\0,1\C,0,-1.87313862,0.25393909,0.535
 56542\C,0,-0.39937775,0.37151695,0.76723987\C,0,0.69200653,-1.26911658
 ,-0.41420431\O,0,1.35886749,-0.30469569,-1.13944827\C,0,1.44859357,0.9
 088028,-0.41825938\O,0,0.14626083,1.26617498,-0.08932966\H,0,-2.264462
 03,-0.64279262,1.01454181\H,0,-2.3459436,1.11504716,1.01547321\H,0,-2.
 15498322,0.26771237,-0.5221227\H,0,0.24440259,-0.65057893,0.7767947\H,

 Normal termination of Gaussian 16 at Wed Apr  9 17:58:00 2025.
