 Gaussian 16, Revision C.01,

 ----------------------------------------------------------------------
 #t hf aug-cc-pvdz symm=none int=(grid=ultrafine) guess=(read,tcheck) s
 table=(opt,rrhf)
 ----------------------------------------------------------------------
 -----
 title
 -----
 Symbolic Z-matrix:
 Charge =  0 Multiplicity = 1

 SCF Done:  E(RHF) =  -323.797450076     A.U. after   15 cycles
 Normal termination of Gaussian 16 at Wed Apr  9 18:44:57 2025.
 Gaussian 16:  ES64L-G16RevC.01  3-Jul-2019

 ----------------------------------------------------------------------
 #t hf aug-cc-pvdz iop(5/13=1,5/36=2,99/5=2) pseudo=read geom=check gue
 ss=(read,tcheck) scf=(maxcycle=1)
 ----------------------------------------------------------------------
 -----
 title
 -----
 Structure from the checkpoint file:  "Grambow2020_wb97xd3_007604_reverse_mol2.chk"
 Charge =  0 Multiplicity = 1

                         Standard orientation:
 ---------------------------------------------------------------------
 Center     Atomic      Atomic             Coordinates (Angstroms)
 Number     Number       Type             X           Y           Z
 ---------------------------------------------------------------------
      1          6           0        1.019915    1.521350    0.499322
      2          6           0        1.171854    0.404201   -0.503759
      3          7           0        1.754074   -0.862094    0.022509
      4          6           0        0.350599   -0.813199   -0.627695
      5          6           0       -0.714508   -1.028042    0.417302
      6          6           0       -1.960134   -0.221704    0.163786
      7          8           0       -2.009677    0.794587   -0.473632
      8          1           0        0.578336    1.185746    1.439072
      9          1           0        1.975045    2.005530    0.717864
     10          1           0        0.346391    2.266230    0.075504
     11          1           0        1.674082    0.729278   -1.413267
     12          1           0        2.483170   -1.334165   -0.487614
     13          1           0        1.872238   -0.886297    1.028837
     14          1           0       -0.447120   -0.766354    1.464493
     15          1           0       -1.012042   -2.080569    0.462259
     16          1           0       -2.877561   -0.617062    0.650607
 ---------------------------------------------------------------------

 SCF Done:  E(RHF) =  -325.314715062     A.U. after    2 cycles

 The electronic state is 1-A.
 Alpha  occ. eigenvalues --  -21.04791 -15.81744 -11.47705 -11.45337 -11.40269
 Alpha  occ. eigenvalues --  -11.38884 -11.35010  -1.69983  -1.48762  -1.13212
 Alpha  occ. eigenvalues --   -1.10016  -0.95309  -0.83974  -0.74837  -0.73386
 Alpha  occ. eigenvalues --   -0.64456  -0.62781  -0.59508  -0.56485  -0.53630
 Alpha  occ. eigenvalues --   -0.51730  -0.49430  -0.44462  -0.41569  -0.39992
 Alpha  occ. eigenvalues --   -0.28258  -0.26396
 Alpha virt. eigenvalues --    0.03377   0.04467   0.04911   0.05067   0.05549
 Alpha virt. eigenvalues --    0.06213   0.06384   0.07870   0.08345   0.11198
 Alpha virt. eigenvalues --    0.12373   0.12942   0.13154   0.14015   0.14274

 Mulliken charges:
               1
     1  C   -4.371604
     2  C    0.228386
     3  N   -2.043445
     4  C   -0.807180
     5  C   -2.868984
     6  C    1.447374
     7  O   -2.800151
     8  H    1.272512
     9  H    1.045191
    10  H    1.360777
    11  H    1.616040
    12  H    0.688868
    13  H    0.760133
    14  H    1.703980
    15  H    1.311271
    16  H    1.456834
 Sum of Mulliken charges =   0.00000

 Dipole moment (field-independent basis, Debye):
    X=              3.6446    Y=              0.1317    Z=              2.5321  Tot=              4.4398

 Test job not archived.
 1\1\GINC-SE115\SP\RHF\Aug-CC-pVDZ\C5H9N1O1\OHZDE\09-Apr-2025\0\\#t hf
 aug-cc-pvdz iop(5/13=1,5/36=2,99/5=2) pseudo=read geom=check guess=(re
 ad,tcheck) scf=(maxcycle=1)\\title\\0,1\C,0,-1.29502966,-0.09330767,1.
 1225237\C,0,-1.15180674,-0.19715409,-0.37613662\N,0,-0.85987887,1.0789
 1335,-1.08738289\C,0,0.08942455,-0.14056156,-1.16861657\C,0,1.36617657
 ,0.14336911,-0.41900616\C,0,1.92386775,-1.0698656,0.27603193\O,0,1.285
 06589,-2.02750336,0.61730386\H,0,-0.50198127,0.49982334,1.58080463\H,0
 ,-2.25884333,0.33353244,1.41120161\H,0,-1.22616661,-1.09840597,1.53862

 Normal termination of Gaussian 16 at Wed Apr  9 18:45:03 2025.
