 Gaussian 16, Revision C.01,

 ----------------------------------------------------------------------
 #t hf aug-cc-pvdz symm=none int=(grid=ultrafine) guess=(read,tcheck) s
 table=(opt,rrhf)
 ----------------------------------------------------------------------
 -----
 title
 -----
 Symbolic Z-matrix:
 Charge =  0 Multiplicity = 1

 SCF Done:  E(RHF) =  -271.072204243     A.U. after   14 cycles

 1\1\GINC-SE232\Stability\RHF\Aug-CC-pVDZ\C5H12O1\OHZDE\09-Apr-2025\0\\
 #t hf aug-cc-pvdz symm=none int=(grid=ultrafine) guess=(read,tcheck) s
 table=(opt,rrhf)\\title\\0,1\C,0,-2.51435217,-0.33432265,0.13469757\C,
 0,-1.47805383,0.41067366,-0.74430198\C,0,-0.32699451,1.17072252,-0.102
 53521\O,0,0.45843796,-0.10181401,0.84856602\C,0,1.55062025,-0.68774622
 ,0.05806745\C,0,2.71191748,0.28330422,0.06676396\H,0,-3.32637116,-0.77
 568151,-0.4641806\H,0,-2.06760489,-1.17762865,0.69527712\H,0,-2.959978
 05,0.34746757,0.87314678\H,0,-1.11346925,-0.27477203,-1.53201039\H,0,-

 Normal termination of Gaussian 16 at Wed Apr  9 16:24:09 2025.
 Gaussian 16:  ES64L-G16RevC.01  3-Jul-2019

 ----------------------------------------------------------------------
 #t hf aug-cc-pvdz iop(5/13=1,5/36=2,99/5=2) pseudo=read geom=check gue
 ss=(read,tcheck) scf=(maxcycle=1)
 ----------------------------------------------------------------------
 -----
 title
 -----
 Structure from the checkpoint file:  "Grambow2020_b97d3_006799_reverse_mol2.chk"
 Charge =  0 Multiplicity = 1

                         Standard orientation:
 ---------------------------------------------------------------------
 Center     Atomic      Atomic             Coordinates (Angstroms)
 Number     Number       Type             X           Y           Z
 ---------------------------------------------------------------------
      1          6           0        2.552097   -0.517608   -0.028663
      2          6           0        1.594256    0.583323    0.492936
      3          6           0        0.416154    1.044143   -0.352167
      4          8           0       -0.458193   -0.475746   -0.609652
      5          6           0       -1.503702   -0.608237    0.415250
      6          6           0       -2.643767    0.317347    0.047592
      7          1           0        3.395223   -0.694023    0.657518
      8          1           0        2.051096   -1.498143   -0.140674
      9          1           0        2.958233   -0.245403   -1.013390
     10          1           0        1.272315    0.325306    1.519105
     11          1           0        2.177564    1.515251    0.613036
     12          1           0        0.772824    1.081830   -1.404488
     13          1           0        0.178306   -1.214533   -0.491479
     14          1           0       -1.806837   -1.665688    0.414025
     15          1           0       -1.067006   -0.347737    1.387669
     16          1           0       -3.428293    0.256629    0.814803
     17          1           0       -2.252286    1.339703   -0.006092
     18          1           0       -3.075822    0.038967   -0.922499
 ---------------------------------------------------------------------

 SCF Done:  E(RHF) =  -272.411945433     A.U. after    2 cycles

 The electronic state is 1-A.
 Alpha  occ. eigenvalues --  -21.11463 -11.45424 -11.39985 -11.37128 -11.36674
 Alpha  occ. eigenvalues --  -11.33781  -1.77070  -1.16717  -1.12521  -0.95049
 Alpha  occ. eigenvalues --   -0.88664  -0.78346  -0.68177  -0.66017  -0.60056
 Alpha  occ. eigenvalues --   -0.56627  -0.54149  -0.52823  -0.50779  -0.49838
 Alpha  occ. eigenvalues --   -0.48190  -0.46129  -0.42896  -0.36856  -0.27690
 Alpha virt. eigenvalues --    0.03543   0.04820   0.04907   0.05449   0.05697
 Alpha virt. eigenvalues --    0.06357   0.06533   0.06966   0.07563   0.08642
 Alpha virt. eigenvalues --    0.08851   0.09404   0.11583   0.12982   0.14099

 Mulliken charges:
               1
     1  C   -3.626630
     2  C   -2.701590
     3  C   -1.673660
     4  O   -2.453096
     5  C   -2.032320
     6  C   -3.523637
     7  H    1.176855
     8  H    1.243026
     9  H    1.262058
    10  H    1.577763
    11  H    1.428270
    12  H    1.265747
    13  H    1.116182
    14  H    1.413089
    15  H    1.734168
    16  H    1.126011
    17  H    1.378358
    18  H    1.289406
 Sum of Mulliken charges =   0.00000

 Dipole moment (field-independent basis, Debye):
    X=             -0.5401    Y=             -2.8737    Z=              0.0956  Tot=              2.9256

 Test job not archived.
 1\1\GINC-SE232\SP\RHF\Aug-CC-pVDZ\C5H12O1\OHZDE\09-Apr-2025\0\\#t hf a
 ug-cc-pvdz iop(5/13=1,5/36=2,99/5=2) pseudo=read geom=check guess=(rea
 d,tcheck) scf=(maxcycle=1)\\title\\0,1\C,0,-2.51435217,-0.33432265,0.1
 3469757\C,0,-1.47805383,0.41067366,-0.74430198\C,0,-0.32699451,1.17072
 252,-0.10253521\O,0,0.45843796,-0.10181401,0.84856602\C,0,1.55062025,-
 0.68774622,0.05806745\C,0,2.71191748,0.28330422,0.06676396\H,0,-3.3263
 7116,-0.77568151,-0.4641806\H,0,-2.06760489,-1.17762865,0.69527712\H,0
 ,-2.95997805,0.34746757,0.87314678\H,0,-1.11346925,-0.27477203,-1.5320

 Normal termination of Gaussian 16 at Wed Apr  9 16:24:15 2025.
