 Gaussian 16, Revision C.01,

 ----------------------------------------------------------------------
 #t hf aug-cc-pvdz symm=none int=(grid=ultrafine) guess=(read,tcheck) s
 table=(opt,rrhf)
 ----------------------------------------------------------------------
 -----
 title
 -----
 Symbolic Z-matrix:
 Charge =  0 Multiplicity = 1

 SCF Done:  E(RHF) =  -308.997012780     A.U. after   14 cycles

 1\1\GINC-SE094\Stability\RHF\Aug-CC-pVDZ\C6H12O1\OHZDE\09-Apr-2025\0\\
 #t hf aug-cc-pvdz symm=none int=(grid=ultrafine) guess=(read,tcheck) s
 table=(opt,rrhf)\\title\\0,1\C,0,1.44903352,1.34635357,0.56839593\C,0,
 0.67500517,0.09452818,0.26897761\C,0,1.09062036,-1.10080411,0.68217612
 \C,0,-0.60048463,0.3279383,-0.45604516\C,0,-1.59337088,-0.76404025,-0.
 77249815\C,0,-1.90089831,0.21245359,0.31210218\O,0,-1.90521602,-0.1755
 6775,1.64393846\H,0,1.84546403,-0.09469156,-3.04424029\H,0,1.74646487,
 1.83988988,-0.36093995\H,0,2.34691333,1.13721155,1.14892434\H,0,0.8287

 Normal termination of Gaussian 16 at Wed Apr  9 03:52:32 2025.
 Gaussian 16:  ES64L-G16RevC.01  3-Jul-2019

 ----------------------------------------------------------------------
 #t hf aug-cc-pvdz iop(5/13=1,5/36=2,99/5=2) pseudo=read geom=check gue
 ss=(read,tcheck) scf=(maxcycle=1)
 ----------------------------------------------------------------------
 -----
 title
 -----
 Structure from the checkpoint file:  "Grambow2020_wb97xd3_008287_reverse_mol2.chk"
 Charge =  0 Multiplicity = 1

                         Standard orientation:
 ---------------------------------------------------------------------
 Center     Atomic      Atomic             Coordinates (Angstroms)
 Number     Number       Type             X           Y           Z
 ---------------------------------------------------------------------
      1          6           0       -1.951883   -0.689779   -0.858663
      2          6           0       -0.980027   -0.081995    0.111869
      3          6           0       -1.126224   -0.220473    1.427825
      4          6           0        0.165843    0.611985   -0.530303
      5          6           0        1.320057    1.206678    0.239445
      6          6           0        1.521413   -0.063789   -0.515434
      7          8           0        1.705555   -1.268329    0.147545
      8          1           0       -2.353072    3.143005   -0.200085
      9          1           0       -2.410869    0.089047   -1.473862
     10          1           0       -2.744396   -1.236098   -0.348369
     11          1           0       -1.435379   -1.373376   -1.537411
     12          1           0       -1.960177   -0.776288    1.839150
     13          1           0       -1.994493    2.596498    0.159314
     14          1           0       -0.448104    0.238275    2.137080
     15          1           0       -0.090297    1.105472   -1.461687
     16          1           0        1.755222    2.122219   -0.138920
     17          1           0        1.304698    1.131576    1.319269
     18          1           0        2.101564   -0.038055   -1.428970
     19          1           0        0.935788   -1.431395    0.705695
 ---------------------------------------------------------------------

 SCF Done:  E(RHF) =  -310.514240685     A.U. after    2 cycles

 The electronic state is 1-A.
 Alpha  occ. eigenvalues --  -21.06692 -11.46789 -11.44442 -11.40950 -11.39131
 Alpha  occ. eigenvalues --  -11.38315 -11.36576  -1.72276  -1.31749  -1.17522
 Alpha  occ. eigenvalues --   -1.00324  -0.90403  -0.85064  -0.74318  -0.70053
 Alpha  occ. eigenvalues --   -0.65372  -0.61535  -0.59422  -0.58396  -0.56312
 Alpha  occ. eigenvalues --   -0.53139  -0.50393  -0.49379  -0.47004  -0.44177
 Alpha  occ. eigenvalues --   -0.38142  -0.33957  -0.28187
 Alpha virt. eigenvalues --    0.04013   0.04617   0.05011   0.05243   0.05581
 Alpha virt. eigenvalues --    0.05992   0.06517   0.07188   0.07842   0.08414
 Alpha virt. eigenvalues --    0.08718   0.09641   0.12564   0.13383   0.13513

 Mulliken charges:
               1
     1  C   -5.229550
     2  C    2.305538
     3  C   -4.905745
     4  C   -0.783722
     5  C   -2.741619
     6  C    1.504104
     7  O   -3.359809
     8  H    0.329303
     9  H    1.169063
    10  H    1.355825
    11  H    1.216654
    12  H    1.723120
    13  H   -0.477004
    14  H    1.556378
    15  H    1.186910
    16  H    1.280219
    17  H    1.466075
    18  H    1.456943
    19  H    0.947317
 Sum of Mulliken charges =  -0.00000

 Dipole moment (field-independent basis, Debye):
    X=             -0.5777    Y=              0.4967    Z=             -0.4996  Tot=              0.9111

 Test job not archived.
 1\1\GINC-SE094\SP\RHF\Aug-CC-pVDZ\C6H12O1\OHZDE\09-Apr-2025\0\\#t hf a
 ug-cc-pvdz iop(5/13=1,5/36=2,99/5=2) pseudo=read geom=check guess=(rea
 d,tcheck) scf=(maxcycle=1)\\title\\0,1\C,0,1.44903352,1.34635357,0.568
 39593\C,0,0.67500517,0.09452818,0.26897761\C,0,1.09062036,-1.10080411,
 0.68217612\C,0,-0.60048463,0.3279383,-0.45604516\C,0,-1.59337088,-0.76
 404025,-0.77249815\C,0,-1.90089831,0.21245359,0.31210218\O,0,-1.905216
 02,-0.17556775,1.64393846\H,0,1.84546403,-0.09469156,-3.04424029\H,0,1
 .74646487,1.83988988,-0.36093995\H,0,2.34691333,1.13721155,1.14892434\

 Normal termination of Gaussian 16 at Wed Apr  9 03:52:39 2025.
