 Gaussian 16, Revision C.01,

 ----------------------------------------------------------------------
 #t hf aug-cc-pvdz symm=none int=(grid=ultrafine) guess=(read,tcheck) s
 table=(opt,rrhf)
 ----------------------------------------------------------------------
 -----
 title
 -----
 Symbolic Z-matrix:
 Charge =  0 Multiplicity = 1

 SCF Done:  E(RHF) =  -342.470197148     A.U. after   15 cycles
 Normal termination of Gaussian 16 at Wed Apr  9 19:30:07 2025.
 Gaussian 16:  ES64L-G16RevC.01  3-Jul-2019

 ----------------------------------------------------------------------
 #t hf aug-cc-pvdz iop(5/13=1,5/36=2,99/5=2) pseudo=read geom=check gue
 ss=(read,tcheck) scf=(maxcycle=1)
 ----------------------------------------------------------------------
 -----
 title
 -----
 Structure from the checkpoint file:  "Grambow2020_wb97xd3_009064_forward_mol1.chk"
 Charge =  0 Multiplicity = 1

                         Standard orientation:
 ---------------------------------------------------------------------
 Center     Atomic      Atomic             Coordinates (Angstroms)
 Number     Number       Type             X           Y           Z
 ---------------------------------------------------------------------
      1          8           0       -0.233375   -0.629969    1.346527
      2          6           0       -0.830500   -0.560709    0.213865
      3          6           0       -1.324568    0.845881   -0.094935
      4          6           0        0.084320    1.454658   -0.219963
      5          6           0        0.959052    0.241412   -0.119682
      6          8           0        2.029369   -0.167547   -0.108961
      7          6           0       -0.584482   -1.380636   -0.861519
      8          1           0       -1.881400    1.266797    0.738837
      9          1           0       -1.892060    0.936385   -1.019286
     10          1           0        0.374296    2.132902    0.584796
     11          1           0        0.286257    1.935761   -1.178802
     12          1           0        0.003352   -2.278412   -0.724387
     13          1           0       -1.081328   -1.216932   -1.808276
 ---------------------------------------------------------------------

 SCF Done:  E(RHF) =  -344.032907137     A.U. after    2 cycles

 The electronic state is 1-A.
 Alpha  occ. eigenvalues --  -21.15613 -20.99891 -11.61995 -11.50733 -11.47145
 Alpha  occ. eigenvalues --  -11.41710 -11.37634  -1.81048  -1.68770  -1.27862
 Alpha  occ. eigenvalues --   -1.08152  -0.98578  -0.82061  -0.72509  -0.69346
 Alpha  occ. eigenvalues --   -0.65721  -0.64263  -0.60194  -0.57508  -0.52162
 Alpha  occ. eigenvalues --   -0.50593  -0.48982  -0.43967  -0.38554  -0.27234
 Alpha  occ. eigenvalues --   -0.24798
 Alpha virt. eigenvalues --    0.03022   0.04665   0.04906   0.05267   0.06018
 Alpha virt. eigenvalues --    0.07218   0.08536   0.09107   0.11157   0.11679
 Alpha virt. eigenvalues --    0.12775   0.13069   0.13492   0.14234   0.14427

 Mulliken charges:
               1
     1  O   -3.233325
     2  C    3.698572
     3  C   -3.138426
     4  C   -2.770053
     5  C    3.820915
     6  O   -3.131701
     7  C   -3.540730
     8  H    1.394149
     9  H    1.436913
    10  H    1.381780
    11  H    1.376659
    12  H    1.334803
    13  H    1.370446
 Sum of Mulliken charges =   0.00000

 Dipole moment (field-independent basis, Debye):
    X=              1.0050    Y=              2.7870    Z=             -1.3203  Tot=              3.2435

 Test job not archived.
 1\1\GINC-SE100\SP\RHF\Aug-CC-pVDZ\C5H6O2\OHZDE\09-Apr-2025\0\\#t hf au
 g-cc-pvdz iop(5/13=1,5/36=2,99/5=2) pseudo=read geom=check guess=(read
 ,tcheck) scf=(maxcycle=1)\\title\\0,1\O,0,0.62079236,-1.1671498,1.2193
 3691\C,0,0.47797268,-0.91440414,-0.02966337\C,0,-0.9680675,-0.61140029
 ,-0.39723862\C,0,-1.03349654,0.70281703,0.40260977\C,0,0.38777502,0.86
 758266,0.84984475\O,0,1.13774882,1.50448631,1.4370702\C,0,1.4485411,-0
 .38342343,-0.84533072\H,0,-1.64716937,-1.36490862,-0.0055059\H,0,-1.14
 401276,-0.45217798,-1.45947867\H,0,-1.65602165,0.67478819,1.2989438\H,

 Normal termination of Gaussian 16 at Wed Apr  9 19:30:11 2025.
