 Gaussian 16, Revision C.01,

 ----------------------------------------------------------------------
 #t hf aug-cc-pvdz symm=none int=(grid=ultrafine) guess=(read,tcheck) s
 table=(opt,rrhf)
 ----------------------------------------------------------------------
 -----
 title
 -----
 Symbolic Z-matrix:
 Charge =  0 Multiplicity = 1

 SCF Done:  E(RHF) =  -317.699792218     A.U. after   16 cycles
 Normal termination of Gaussian 16 at Wed Apr  9 18:59:34 2025.
 Gaussian 16:  ES64L-G16RevC.01  3-Jul-2019

 ----------------------------------------------------------------------
 #t hf aug-cc-pvdz iop(5/13=1,5/36=2,99/5=2) pseudo=read geom=check gue
 ss=(read,tcheck) scf=(maxcycle=1)
 ----------------------------------------------------------------------
 -----
 title
 -----
 Structure from the checkpoint file:  "Grambow2020_wb97xd3_007980_reverse_mol2.chk"
 Charge =  0 Multiplicity = 1

                         Standard orientation:
 ---------------------------------------------------------------------
 Center     Atomic      Atomic             Coordinates (Angstroms)
 Number     Number       Type             X           Y           Z
 ---------------------------------------------------------------------
      1          7           0        2.380287   -0.259061   -0.003521
      2          6           0        0.224453    0.279154   -0.002209
      3          7           0        1.460166    0.663013   -0.000407
      4          6           0       -0.919486    1.164170   -0.000013
      5          6           0       -2.001048    0.355412    0.001600
      6          6           0       -1.479662   -1.001867    0.000094
      7          7           0       -0.183843   -1.056069   -0.001730
      8          1           0        2.119964   -1.235941    0.013618
      9          1           0        3.332867    0.046367    0.021909
     10          1           0       -0.872964    2.242422    0.000630
     11          1           0       -3.043402    0.636876    0.004196
     12          1           0       -2.078274   -1.906111    0.002421
 ---------------------------------------------------------------------

 SCF Done:  E(RHF) =  -319.168894496     A.U. after    2 cycles

 The electronic state is 1-A.
 Alpha  occ. eigenvalues --  -15.80455 -15.79433 -15.71905 -11.47382 -11.43477
 Alpha  occ. eigenvalues --  -11.41438 -11.37072  -1.56806  -1.43662  -1.15407
 Alpha  occ. eigenvalues --   -1.12207  -0.94779  -0.80781  -0.76530  -0.74238
 Alpha  occ. eigenvalues --   -0.68557  -0.59356  -0.58984  -0.52944  -0.50757
 Alpha  occ. eigenvalues --   -0.49013  -0.43837  -0.36945  -0.32994  -0.29038
 Alpha virt. eigenvalues --    0.03721   0.04877   0.05561   0.05951   0.06711
 Alpha virt. eigenvalues --    0.07131   0.11205   0.12019   0.12036   0.12954
 Alpha virt. eigenvalues --    0.14351   0.14914   0.14932   0.15062   0.15517

 Mulliken charges:
               1
     1  N   -1.852820
     2  C    4.492741
     3  N   -2.324637
     4  C   -2.261258
     5  C   -0.323171
     6  C    0.028911
     7  N   -3.489790
     8  H    0.753934
     9  H    0.825921
    10  H    1.331887
    11  H    1.263679
    12  H    1.554603
 Sum of Mulliken charges =  -0.00000

 Dipole moment (field-independent basis, Debye):
    X=              1.4609    Y=             -0.1217    Z=              0.0574  Tot=              1.4671

 Test job not archived.
 1\1\GINC-SE113\SP\RHF\Aug-CC-pVDZ\C4H5N3\OHZDE\09-Apr-2025\0\\#t hf au
 g-cc-pvdz iop(5/13=1,5/36=2,99/5=2) pseudo=read geom=check guess=(read
 ,tcheck) scf=(maxcycle=1)\\title\\0,1\N,0,2.41834189,-0.6122859,-0.184
 07363\C,0,0.21831154,-0.37163203,0.01404883\N,0,1.24562458,-1.15728677
 ,-0.02735159\C,0,-1.15136798,-0.80464985,0.18235935\C,0,-1.89140612,0.
 32490301,0.16442301\C,0,-0.94540092,1.41441741,-0.01470052\N,0,0.28626
 766,1.01798754,-0.10370586\H,0,2.5023535,0.38981434,-0.28939691\H,0,3.
 20469067,-1.22872774,-0.23880946\H,0,-1.47148861,-1.82916315,0.2949985

 Normal termination of Gaussian 16 at Wed Apr  9 18:59:38 2025.
