 Gaussian 16, Revision C.01,

 ----------------------------------------------------------------------
 #t hf aug-cc-pvdz symm=none int=(grid=ultrafine) guess=(read,tcheck) s
 table=(opt,rrhf)
 ----------------------------------------------------------------------
 -----
 title
 -----
 Symbolic Z-matrix:
 Charge =  0 Multiplicity = 1

 SCF Done:  E(RHF) =  -358.337735456     A.U. after   18 cycles
 Normal termination of Gaussian 16 at Wed Apr  9 18:12:58 2025.
 Gaussian 16:  ES64L-G16RevC.01  3-Jul-2019

 ----------------------------------------------------------------------
 #t hf aug-cc-pvdz iop(5/13=1,5/36=2,99/5=2) pseudo=read geom=check gue
 ss=(read,tcheck) scf=(maxcycle=1)
 ----------------------------------------------------------------------
 -----
 title
 -----
 Structure from the checkpoint file:  "Grambow2020_wb97xd3_006759_reverse_mol2.chk"
 Charge =  0 Multiplicity = 1

                         Standard orientation:
 ---------------------------------------------------------------------
 Center     Atomic      Atomic             Coordinates (Angstroms)
 Number     Number       Type             X           Y           Z
 ---------------------------------------------------------------------
      1          8           0        2.446118   -0.822559   -0.220421
      2          6           0        1.486971   -0.185772   -0.132403
      3          6           0        0.398526    0.639613   -0.006000
      4          8           0        0.429348    1.875791    0.187768
      5          7           0       -0.767771   -0.108774   -0.144452
      6          6           0       -2.214439    0.122819   -0.065843
      7          6           0       -1.501909   -1.145114   -0.278734
      8          1           0        0.271308   -1.272159    2.304908
      9          1           0       -2.649850    0.660059   -0.902863
     10          1           0       -2.596299    0.378461    0.918357
     11          1           0       -0.241694   -1.815186    2.283879
     12          1           0       -1.427694   -2.204888   -0.434018
 ---------------------------------------------------------------------

 SCF Done:  E(RHF) =  -359.913616544     A.U. after    2 cycles

 The electronic state is 1-A.
 Alpha  occ. eigenvalues --  -21.15228 -20.96460 -15.88359 -11.54861 -11.54408
 Alpha  occ. eigenvalues --  -11.50282 -11.48140  -1.78505  -1.66457  -1.56168
 Alpha  occ. eigenvalues --   -1.14837  -0.96016  -0.92378  -0.79961  -0.72494
 Alpha  occ. eigenvalues --   -0.63947  -0.63053  -0.61989  -0.59230  -0.54563
 Alpha  occ. eigenvalues --   -0.49467  -0.49261  -0.45386  -0.38969  -0.27118
 Alpha  occ. eigenvalues --   -0.16512
 Alpha virt. eigenvalues --    0.02331   0.03800   0.04629   0.05859   0.06805
 Alpha virt. eigenvalues --    0.07463   0.08768   0.09383   0.10665   0.11238
 Alpha virt. eigenvalues --    0.12122   0.12965   0.13461   0.13753   0.14064

 Mulliken charges:
               1
     1  O   -2.463668
     2  C    1.525809
     3  C    4.780774
     4  O   -3.238059
     5  N   -2.552896
     6  C   -2.498142
     7  C    0.600334
     8  H   -0.174334
     9  H    1.366038
    10  H    1.491602
    11  H    0.011377
    12  H    1.151164
 Sum of Mulliken charges =   0.00000

 Dipole moment (field-independent basis, Debye):
    X=             -2.1104    Y=             -4.5121    Z=             -0.7051  Tot=              5.0309

 Test job not archived.
 1\1\GINC-SE035\SP\RHF\Aug-CC-pVDZ\C4H5N1O2\OHZDE\09-Apr-2025\0\\#t hf
 aug-cc-pvdz iop(5/13=1,5/36=2,99/5=2) pseudo=read geom=check guess=(re
 ad,tcheck) scf=(maxcycle=1)\\title\\0,1\O,0,2.42021328,0.89752618,1.49
 057507\C,0,1.71579771,0.1655427,0.9417513\C,0,0.94970512,-0.7536696,0.
 27085449\O,0,1.34423466,-1.8514152,-0.1829439\N,0,-0.35947256,-0.28725
 132,0.18137945\C,0,-1.62116486,-0.72298419,-0.42766458\C,0,-1.33947411
 ,0.52309569,0.29939243\H,0,0.98379484,1.71375085,-1.43853803\H,0,-2.11
 938288,-1.55139674,0.06662695\H,0,-1.6400115,-0.73170031,-1.51366041\H

 Normal termination of Gaussian 16 at Wed Apr  9 18:13:02 2025.
