 Gaussian 16, Revision C.01,

 ----------------------------------------------------------------------
 #t hf aug-cc-pvdz symm=none int=(grid=ultrafine) guess=(read,tcheck) s
 table=(opt,rrhf)
 ----------------------------------------------------------------------
 -----
 title
 -----
 Symbolic Z-matrix:
 Charge =  0 Multiplicity = 1

 SCF Done:  E(RHF) =  -269.984571334     A.U. after   13 cycles

 1\1\GINC-SE232\Stability\RHF\Aug-CC-pVDZ\C5H10O1\OHZDE\09-Apr-2025\0\\
 #t hf aug-cc-pvdz symm=none int=(grid=ultrafine) guess=(read,tcheck) s
 table=(opt,rrhf)\\title\\0,1\C,0,1.92289485,-0.21145557,0.12849156\O,0
 ,0.88092586,-1.00622828,0.65877954\C,0,0.11973235,-1.64582804,-0.25664
 933\C,0,-0.72985361,2.63410463,0.01961802\C,0,-1.42654472,1.50980597,0
 .02849427\C,0,-0.8572639,-2.47347504,0.08053951\H,0,1.52690735,0.56683
 39,-0.53089039\H,0,2.64621679,-0.82421222,-0.41862011\H,0,2.42094275,0
 .25776136,0.97445921\H,0,0.35487774,-1.42524472,-1.29635024\H,0,0.0319

 Normal termination of Gaussian 16 at Wed Apr  9 17:50:33 2025.
 Gaussian 16:  ES64L-G16RevC.01  3-Jul-2019

 ----------------------------------------------------------------------
 #t hf aug-cc-pvdz iop(5/13=1,5/36=2,99/5=2) pseudo=read geom=check gue
 ss=(read,tcheck) scf=(maxcycle=1)
 ----------------------------------------------------------------------
 -----
 title
 -----
 Structure from the checkpoint file:  "Grambow2020_wb97xd3_006204_reverse_mol2.chk"
 Charge =  0 Multiplicity = 1

                         Standard orientation:
 ---------------------------------------------------------------------
 Center     Atomic      Atomic             Coordinates (Angstroms)
 Number     Number       Type             X           Y           Z
 ---------------------------------------------------------------------
      1          6           0       -0.526068    1.815730    0.145512
      2          8           0       -1.043391    0.658578   -0.480544
      3          6           0       -1.445972   -0.320928    0.359103
      4          6           0        2.901234   -0.022395    0.000469
      5          6           0        1.990629   -0.978859   -0.073566
      6          6           0       -2.006768   -1.441573   -0.068542
      7          1           0        0.343365    1.572662    0.763840
      8          1           0       -1.288502    2.305777    0.759145
      9          1           0       -0.219747    2.492138   -0.649797
     10          1           0       -1.266497   -0.133407    1.416247
     11          1           0        2.883513    0.830261   -0.669409
     12          1           0        3.704962   -0.054330    0.727540
     13          1           0        2.008821   -1.833324    0.593484
     14          1           0        1.184531   -0.944274   -0.797149
     15          1           0       -2.180032   -1.619049   -1.122029
     16          1           0       -2.301612   -2.196923    0.644620
 ---------------------------------------------------------------------

 SCF Done:  E(RHF) =  -271.275105563     A.U. after    2 cycles

 The electronic state is 1-A.
 Alpha  occ. eigenvalues --  -21.06932 -11.44160 -11.40955 -11.40353 -11.36741
 Alpha  occ. eigenvalues --  -11.36288  -1.78561  -1.13348  -1.11585  -0.98000
 Alpha  occ. eigenvalues --   -0.81815  -0.81049  -0.65349  -0.64101  -0.62613
 Alpha  occ. eigenvalues --   -0.61894  -0.55635  -0.53098  -0.51122  -0.49086
 Alpha  occ. eigenvalues --   -0.45115  -0.40086  -0.35901  -0.26795
 Alpha virt. eigenvalues --    0.03888   0.05013   0.05221   0.05513   0.06030
 Alpha virt. eigenvalues --    0.06232   0.06861   0.07205   0.07656   0.08625
 Alpha virt. eigenvalues --    0.11240   0.12249   0.13173   0.13411   0.14351

 Mulliken charges:
               1
     1  C   -3.080801
     2  O   -3.306856
     3  C    1.211015
     4  C   -2.839300
     5  C   -2.913167
     6  C   -3.215286
     7  H    1.472937
     8  H    1.332924
     9  H    1.325018
    10  H    1.568801
    11  H    1.403172
    12  H    1.316307
    13  H    1.302486
    14  H    1.625495
    15  H    1.451964
    16  H    1.345291
 Sum of Mulliken charges =  -0.00000

 Dipole moment (field-independent basis, Debye):
    X=              0.4796    Y=              1.1100    Z=              0.5014  Tot=              1.3090

 Test job not archived.
 1\1\GINC-SE232\SP\RHF\Aug-CC-pVDZ\C5H10O1\OHZDE\09-Apr-2025\0\\#t hf a
 ug-cc-pvdz iop(5/13=1,5/36=2,99/5=2) pseudo=read geom=check guess=(rea
 d,tcheck) scf=(maxcycle=1)\\title\\0,1\C,0,1.92289485,-0.21145557,0.12
 849156\O,0,0.88092586,-1.00622828,0.65877954\C,0,0.11973235,-1.6458280
 4,-0.25664933\C,0,-0.72985361,2.63410463,0.01961802\C,0,-1.42654472,1.
 50980597,0.02849427\C,0,-0.8572639,-2.47347504,0.08053951\H,0,1.526907
 35,0.5668339,-0.53089039\H,0,2.64621679,-0.82421222,-0.41862011\H,0,2.
 42094275,0.25776136,0.97445921\H,0,0.35487774,-1.42524472,-1.29635024\

 Normal termination of Gaussian 16 at Wed Apr  9 17:50:38 2025.
