 Gaussian 16, Revision C.01,

 ----------------------------------------------------------------------
 #t hf aug-cc-pvdz symm=none int=(grid=ultrafine) guess=(read,tcheck) s
 table=(opt,rrhf)
 ----------------------------------------------------------------------
 -----
 title
 -----
 Symbolic Z-matrix:
 Charge =  0 Multiplicity = 1

 SCF Done:  E(RHF) =  -360.816184446     A.U. after   15 cycles
 Normal termination of Gaussian 16 at Wed Apr  9 03:58:43 2025.
 Gaussian 16:  ES64L-G16RevC.01  3-Jul-2019

 ----------------------------------------------------------------------
 #t hf aug-cc-pvdz iop(5/13=1,5/36=2,99/5=2) pseudo=read geom=check gue
 ss=(read,tcheck) scf=(maxcycle=1)
 ----------------------------------------------------------------------
 -----
 title
 -----
 Structure from the checkpoint file:  "Grambow2020_wb97xd3_008730_reverse_mol1.chk"
 Charge =  0 Multiplicity = 1

                         Standard orientation:
 ---------------------------------------------------------------------
 Center     Atomic      Atomic             Coordinates (Angstroms)
 Number     Number       Type             X           Y           Z
 ---------------------------------------------------------------------
      1          6           0       -2.365514   -0.578972    0.047542
      2          6           0       -0.979131   -0.036225   -0.221126
      3          8           0       -1.041581    1.397356   -0.426502
      4          6           0       -0.053486   -0.217103    0.964475
      5          6           0        1.171459   -0.220306    0.160975
      6          8           0        1.475158   -1.232494   -0.627189
      7          7           0        2.033112    0.768431    0.180798
      8          1           0       -2.868354   -0.050327    0.876192
      9          1           0       -2.327604   -1.643700    0.295418
     10          1           0       -3.003873   -0.481900   -0.833972
     11          1           0        0.570200   -1.508397   -0.916910
     12          1           0       -1.052348    1.539063   -1.371305
     13          1           0       -0.072742    0.569831    1.735908
     14          1           0       -0.183746   -1.201023    1.419172
     15          1           0        2.743299    0.836354   -0.528461
     16          1           0        1.854794    1.557819    0.776699
 ---------------------------------------------------------------------

 SCF Done:  E(RHF) =  -362.477494757     A.U. after    2 cycles

 The electronic state is 1-A.
 Alpha  occ. eigenvalues --  -21.13162 -21.01952 -15.83970 -11.56457 -11.41621
 Alpha  occ. eigenvalues --  -11.35079 -11.30972  -1.82410  -1.65458  -1.41991
 Alpha  occ. eigenvalues --   -1.16649  -1.01800  -0.88107  -0.77992  -0.74932
 Alpha  occ. eigenvalues --   -0.68959  -0.64978  -0.59313  -0.56829  -0.53106
 Alpha  occ. eigenvalues --   -0.52165  -0.48666  -0.47737  -0.42915  -0.39980
 Alpha  occ. eigenvalues --   -0.38723  -0.28942  -0.20196
 Alpha virt. eigenvalues --    0.02900   0.04852   0.05318   0.06041   0.06641
 Alpha virt. eigenvalues --    0.07005   0.07190   0.07457   0.08712   0.10354
 Alpha virt. eigenvalues --    0.12037   0.12734   0.13359   0.13597   0.13899

 Mulliken charges:
               1
     1  C   -3.837288
     2  C    2.262194
     3  O   -2.842154
     4  C   -3.686239
     5  C    6.188263
     6  O   -3.568225
     7  N   -3.599636
     8  H    1.144599
     9  H    1.104336
    10  H    1.249399
    11  H    0.859734
    12  H    0.656341
    13  H    1.347826
    14  H    1.297590
    15  H    0.763006
    16  H    0.660254
 Sum of Mulliken charges =  -0.00000

 Dipole moment (field-independent basis, Debye):
    X=              5.7378    Y=              0.9285    Z=              0.4856  Tot=              5.8327

 Test job not archived.
 1\1\GINC-SE368\SP\RHF\Aug-CC-pVDZ\C4H9N1O2\OHZDE\09-Apr-2025\0\\#t hf
 aug-cc-pvdz iop(5/13=1,5/36=2,99/5=2) pseudo=read geom=check guess=(re
 ad,tcheck) scf=(maxcycle=1)\\title\\0,1\C,0,-2.09339686,-0.1761821,-0.
 84670207\C,0,-0.65860413,0.25031349,-0.62696466\O,0,-0.62254964,1.5576
 7144,-0.00186557\C,0,0.06813933,-0.66117459,0.34061933\C,0,1.39879482,
 -0.37468504,-0.20103951\O,0,1.77047562,-0.81938336,-1.38512367\N,0,2.2
 9267715,0.32781376,0.45310842\H,0,-2.69033883,-0.12972104,0.08091744\H
 ,0,-2.14292476,-1.19825147,-1.23328506\H,0,-2.58623612,0.46442087,-1.5

 Normal termination of Gaussian 16 at Wed Apr  9 03:58:47 2025.
