 Gaussian 16, Revision C.01,

 ----------------------------------------------------------------------
 #t hf aug-cc-pvdz symm=none int=(grid=ultrafine) guess=(read,tcheck) s
 table=(opt,rrhf)
 ----------------------------------------------------------------------
 -----
 title
 -----
 Symbolic Z-matrix:
 Charge =  0 Multiplicity = 1

 SCF Done:  E(RHF) =  -343.535314585     A.U. after   14 cycles
 Normal termination of Gaussian 16 at Wed Apr  9 19:31:15 2025.
 Gaussian 16:  ES64L-G16RevC.01  3-Jul-2019

 ----------------------------------------------------------------------
 #t hf aug-cc-pvdz iop(5/13=1,5/36=2,99/5=2) pseudo=read geom=check gue
 ss=(read,tcheck) scf=(maxcycle=1)
 ----------------------------------------------------------------------
 -----
 title
 -----
 Structure from the checkpoint file:  "Grambow2020_wb97xd3_009111_forward_mol1.chk"
 Charge =  0 Multiplicity = 1

                         Standard orientation:
 ---------------------------------------------------------------------
 Center     Atomic      Atomic             Coordinates (Angstroms)
 Number     Number       Type             X           Y           Z
 ---------------------------------------------------------------------
      1          6           0        1.680870   -0.054942    0.637108
      2          6           0        0.914239   -0.671132   -0.485522
      3          8           0       -0.259187   -1.417834   -0.213055
      4          6           0       -1.398164   -0.804529    0.081796
      5          6           0       -1.422218    0.668011   -0.190494
      6          8           0       -0.257318    1.404524    0.154115
      7          6           0        0.906317    0.810065   -0.320114
      8          1           0        1.244724   -0.137859    1.625833
      9          1           0        2.761517   -0.074952    0.596783
     10          1           0        1.444998   -1.117463   -1.314661
     11          1           0       -1.234831   -0.513000    1.834076
     12          1           0       -1.744445   -1.030553    1.355711
     13          1           0       -1.621648    0.754078   -1.269319
     14          1           0       -2.250433    1.124515    0.347128
     15          1           0        1.445903    1.416876   -1.040674
 ---------------------------------------------------------------------

 SCF Done:  E(RHF) =  -345.106025381     A.U. after    2 cycles

 The electronic state is 1-A.
 Alpha  occ. eigenvalues --  -21.09954 -21.06050 -11.47281 -11.45819 -11.45142
 Alpha  occ. eigenvalues --  -11.40822 -11.38748  -1.84174  -1.75014  -1.27770
 Alpha  occ. eigenvalues --   -1.07485  -0.92660  -0.87450  -0.77542  -0.74244
 Alpha  occ. eigenvalues --   -0.68179  -0.64261  -0.60115  -0.58622  -0.53598
 Alpha  occ. eigenvalues --   -0.50617  -0.47158  -0.45446  -0.42536  -0.32364
 Alpha  occ. eigenvalues --   -0.31039  -0.28313
 Alpha virt. eigenvalues --    0.03663   0.04701   0.04893   0.05285   0.06170
 Alpha virt. eigenvalues --    0.06417   0.07641   0.08667   0.09299   0.11337
 Alpha virt. eigenvalues --    0.12004   0.12684   0.13315   0.14078   0.14206

 Mulliken charges:
               1
     1  C   -2.989018
     2  C    1.163689
     3  O   -3.609496
     4  C    0.403843
     5  C   -1.634102
     6  O   -3.552587
     7  C    1.317979
     8  H    1.363471
     9  H    1.295617
    10  H    1.380918
    11  H    0.395294
    12  H    0.284467
    13  H    1.498673
    14  H    1.288761
    15  H    1.392490
 Sum of Mulliken charges =  -0.00000

 Dipole moment (field-independent basis, Debye):
    X=              1.7610    Y=              0.7686    Z=             -0.6282  Tot=              2.0215

 Test job not archived.
 1\1\GINC-SE226\SP\RHF\Aug-CC-pVDZ\C5H8O2\OHZDE\09-Apr-2025\0\\#t hf au
 g-cc-pvdz iop(5/13=1,5/36=2,99/5=2) pseudo=read geom=check guess=(read
 ,tcheck) scf=(maxcycle=1)\\title\\0,1\C,0,-1.54419511,0.17239765,0.808
 66693\C,0,-1.12467526,-0.08143932,-0.60104179\O,0,-0.23262296,0.812673
 57,-1.24411121\C,0,1.06525782,0.78748279,-0.96985011\C,0,1.53465278,-0
 .40901551,-0.20098382\O,0,0.70530531,-0.85558523,0.86248014\C,0,-0.626
 61299,-0.97493524,0.48291637\H,0,-1.06688805,1.0033258,1.31503874\H,0,
 -2.57291535,-0.01738226,1.0835201\H,0,-1.84591826,-0.45230456,-1.31564

 Normal termination of Gaussian 16 at Wed Apr  9 19:31:20 2025.
