 Gaussian 16, Revision C.01,

 ----------------------------------------------------------------------
 #t hf aug-cc-pvdz symm=none int=(grid=ultrafine) guess=(read,tcheck) s
 table=(opt,rrhf)
 ----------------------------------------------------------------------
 -----
 title
 -----
 Symbolic Z-matrix:
 Charge =  0 Multiplicity = 1

 SCF Done:  E(RHF) =  -306.520113035     A.U. after   15 cycles
 Normal termination of Gaussian 16 at Wed Apr  9 19:14:04 2025.
 Gaussian 16:  ES64L-G16RevC.01  3-Jul-2019

 ----------------------------------------------------------------------
 #t hf aug-cc-pvdz iop(5/13=1,5/36=2,99/5=2) pseudo=read geom=check gue
 ss=(read,tcheck) scf=(maxcycle=1)
 ----------------------------------------------------------------------
 -----
 title
 -----
 Structure from the checkpoint file:  "Grambow2020_wb97xd3_008455_reverse_mol2.chk"
 Charge =  0 Multiplicity = 1

                         Standard orientation:
 ---------------------------------------------------------------------
 Center     Atomic      Atomic             Coordinates (Angstroms)
 Number     Number       Type             X           Y           Z
 ---------------------------------------------------------------------
      1          6           0       -1.895388   -0.098524   -0.898000
      2          6           0       -1.752135   -0.266452    0.581169
      3          6           0        0.699807   -0.931468    0.109877
      4          8           0        1.864780   -0.473579   -0.219227
      5          6           0        2.312725    0.744005   -0.125773
      6          6           0       -1.151125    0.904265   -0.087168
      7          6           0       -0.287178   -0.039452    0.718650
      8          1           0       -1.353338   -0.756429   -1.571853
      9          1           0       -2.876014    0.201600   -1.252293
     10          1           0       -2.509893   -0.299445    1.345391
     11          1           0        0.579324   -1.989267   -0.059814
     12          1           0        3.323094    0.876387   -0.470860
     13          1           0        1.669415    1.534389    0.226196
     14          1           0       -1.342702    1.952369    0.070956
     15          1           0        0.031632    0.394783    1.673563
 ---------------------------------------------------------------------

 SCF Done:  E(RHF) =  -307.997709578     A.U. after    2 cycles

 The electronic state is 1-A.
 Alpha  occ. eigenvalues --  -21.18509 -11.47514 -11.44412 -11.41931 -11.40843
 Alpha  occ. eigenvalues --  -11.39259 -11.38134  -1.87090  -1.41413  -1.06743
 Alpha  occ. eigenvalues --   -0.98231  -0.87469  -0.82629  -0.76169  -0.73191
 Alpha  occ. eigenvalues --   -0.68704  -0.61825  -0.59957  -0.56750  -0.54406
 Alpha  occ. eigenvalues --   -0.48880  -0.44450  -0.43211  -0.41436  -0.33271
 Alpha  occ. eigenvalues --   -0.25395
 Alpha virt. eigenvalues --    0.03854   0.04869   0.05303   0.05565   0.05736
 Alpha virt. eigenvalues --    0.06378   0.07318   0.07594   0.10464   0.11016
 Alpha virt. eigenvalues --    0.11563   0.12904   0.13171   0.13731   0.14129

 Mulliken charges:
               1
     1  C   -3.162550
     2  C   -0.880411
     3  C    1.220790
     4  O   -3.977483
     5  C   -1.996357
     6  C   -0.459289
     7  C   -2.112613
     8  H    1.359997
     9  H    1.350559
    10  H    1.147400
    11  H    1.643252
    12  H    1.463756
    13  H    1.703411
    14  H    1.218240
    15  H    1.481298
 Sum of Mulliken charges =  -0.00000

 Dipole moment (field-independent basis, Debye):
    X=             -1.1778    Y=              0.3642    Z=              0.3078  Tot=              1.2706

 Test job not archived.
 1\1\GINC-SE232\SP\RHF\Aug-CC-pVDZ\C6H8O1\OHZDE\09-Apr-2025\0\\#t hf au
 g-cc-pvdz iop(5/13=1,5/36=2,99/5=2) pseudo=read geom=check guess=(read
 ,tcheck) scf=(maxcycle=1)\\title\\0,1\C,0,1.47461619,1.27360114,0.1318
 1005\C,0,1.44496566,0.20333475,-0.91236984\C,0,-0.00272813,-1.15297575
 ,0.74322238\O,0,-1.18431354,-1.25508658,1.26145329\C,0,-2.30984216,-0.
 78312325,0.81163499\C,0,0.24597981,1.03021923,-0.67328595\C,0,0.172386
 21,-0.47424753,-0.54094999\H,0,1.49231632,1.00223858,1.18384817\H,0,2.
 04172099,2.16542007,-0.11370565\H,0,2.03375323,0.10087185,-1.80799906\

 Normal termination of Gaussian 16 at Wed Apr  9 19:14:09 2025.
