 Gaussian 16, Revision C.01,

 ----------------------------------------------------------------------
 #t hf aug-cc-pvdz symm=none int=(grid=ultrafine) guess=(read,tcheck) s
 table=(opt,rrhf)
 ----------------------------------------------------------------------
 -----
 title
 -----
 Symbolic Z-matrix:
 Charge =  0 Multiplicity = 1

 SCF Done:  E(RHF) =  -306.551299225     A.U. after   16 cycles
 Normal termination of Gaussian 16 at Wed Apr  9 03:51:42 2025.
 Gaussian 16:  ES64L-G16RevC.01  3-Jul-2019

 ----------------------------------------------------------------------
 #t hf aug-cc-pvdz iop(5/13=1,5/36=2,99/5=2) pseudo=read geom=check gue
 ss=(read,tcheck) scf=(maxcycle=1)
 ----------------------------------------------------------------------
 -----
 title
 -----
 Structure from the checkpoint file:  "Grambow2020_wb97xd3_008208_reverse_mol2.chk"
 Charge =  0 Multiplicity = 1

                         Standard orientation:
 ---------------------------------------------------------------------
 Center     Atomic      Atomic             Coordinates (Angstroms)
 Number     Number       Type             X           Y           Z
 ---------------------------------------------------------------------
      1          6           0       -1.554535    0.353316   -0.807469
      2          8           0       -1.907082   -0.831631   -0.197640
      3          6           0       -1.090102   -0.663785    0.828051
      4          6           0        2.621043   -0.648847   -0.071003
      5          6           0        1.569124    0.019889   -0.515424
      6          6           0        0.803302    1.030601    0.284705
      7          6           0       -0.674881    0.687618    0.393660
      8          1           0        3.007655   -0.498598    0.932330
      9          1           0       -2.397392    0.935740   -1.176250
     10          1           0       -0.622325   -1.514387    1.305718
     11          1           0        3.136959   -1.371000   -0.691763
     12          1           0        1.197713   -0.155154   -1.522343
     13          1           0        1.229600    1.119248    1.287412
     14          1           0        0.889308    2.014718   -0.185944
     15          1           0       -1.228568    1.449729    0.956839
 ---------------------------------------------------------------------

 SCF Done:  E(RHF) =  -308.003817709     A.U. after    2 cycles

 The electronic state is 1-A.
 Alpha  occ. eigenvalues --  -21.15884 -11.47878 -11.44974 -11.41995 -11.40316
 Alpha  occ. eigenvalues --  -11.37798 -11.36757  -1.87748  -1.25520  -1.11161
 Alpha  occ. eigenvalues --   -0.97310  -0.96300  -0.80366  -0.74375  -0.69471
 Alpha  occ. eigenvalues --   -0.65679  -0.63091  -0.59232  -0.54796  -0.53937
 Alpha  occ. eigenvalues --   -0.49301  -0.45460  -0.42132  -0.40007  -0.34821
 Alpha  occ. eigenvalues --   -0.26238
 Alpha virt. eigenvalues --    0.03648   0.04943   0.05341   0.05551   0.06007
 Alpha virt. eigenvalues --    0.06086   0.07069   0.07868   0.09310   0.09809
 Alpha virt. eigenvalues --    0.11612   0.11759   0.12456   0.13287   0.14245

 Mulliken charges:
               1
     1  C   -0.156340
     2  O   -2.641872
     3  C    0.463136
     4  C   -3.395154
     5  C   -0.078240
     6  C   -4.225287
     7  C   -0.981623
     8  H    1.383665
     9  H    1.442915
    10  H    1.457714
    11  H    1.359036
    12  H    1.578488
    13  H    1.341431
    14  H    1.298616
    15  H    1.153516
 Sum of Mulliken charges =  -0.00000

 Dipole moment (field-independent basis, Debye):
    X=              0.1568    Y=              0.0632    Z=              1.0000  Tot=              1.0142

 Test job not archived.
 1\1\GINC-SE016\SP\RHF\Aug-CC-pVDZ\C6H8O1\OHZDE\09-Apr-2025\0\\#t hf au
 g-cc-pvdz iop(5/13=1,5/36=2,99/5=2) pseudo=read geom=check guess=(read
 ,tcheck) scf=(maxcycle=1)\\title\\0,1\C,0,-1.84373387,-0.92511869,0.16
 107353\O,0,-1.48132337,-1.29777817,1.43781275\C,0,-0.70281206,-0.24712
 799,1.63204071\C,0,2.35150365,-0.07735491,-0.65344734\C,0,1.05381141,-
 0.22085757,-0.86943949\C,0,0.02608138,0.84023998,-0.61239563\C,0,-1.06
 515609,0.37489485,0.34006948\H,0,2.76427204,0.84948876,-0.26704827\H,0
 ,-2.90800117,-1.02014744,-0.04852298\H,0,0.18458715,-0.32402423,2.2461

 Normal termination of Gaussian 16 at Wed Apr  9 03:51:47 2025.
