 Gaussian 16, Revision C.01,

 ----------------------------------------------------------------------
 #t hf aug-cc-pvdz symm=none int=(grid=ultrafine) guess=(read,tcheck) s
 table=(opt,rrhf)
 ----------------------------------------------------------------------
 -----
 title
 -----
 Symbolic Z-matrix:
 Charge =  0 Multiplicity = 1

 SCF Done:  E(RHF) =  -343.577226803     A.U. after   16 cycles
 Normal termination of Gaussian 16 at Wed Apr  9 19:08:02 2025.
 Gaussian 16:  ES64L-G16RevC.01  3-Jul-2019

 ----------------------------------------------------------------------
 #t hf aug-cc-pvdz iop(5/13=1,5/36=2,99/5=2) pseudo=read geom=check gue
 ss=(read,tcheck) scf=(maxcycle=1)
 ----------------------------------------------------------------------
 -----
 title
 -----
 Structure from the checkpoint file:  "Grambow2020_wb97xd3_008132_forward_mol1.chk"
 Charge =  0 Multiplicity = 1

                         Standard orientation:
 ---------------------------------------------------------------------
 Center     Atomic      Atomic             Coordinates (Angstroms)
 Number     Number       Type             X           Y           Z
 ---------------------------------------------------------------------
      1          6           0        1.453749   -0.010102   -0.620947
      2          8           0        0.244523   -0.671071   -0.971943
      3          6           0       -1.023748    0.308006   -0.556859
      4          6           0       -0.233793    1.314395    0.310873
      5          6           0        0.926156    0.406814    0.738128
      6          6           0        0.293862   -0.923867    1.033943
      7          8           0       -1.789025   -0.463618    0.093731
      8          1           0        1.715007    0.793827   -1.313555
      9          1           0        2.268282   -0.737726   -0.582154
     10          1           0       -1.338580    0.660758   -1.552838
     11          1           0       -0.874746    1.631873    1.131260
     12          1           0        0.140935    2.192417   -0.219787
     13          1           0        1.576753    0.802146    1.521074
     14          1           0        0.876866   -1.819358    0.858746
     15          1           0       -0.505867   -1.017894    1.752123
 ---------------------------------------------------------------------

 SCF Done:  E(RHF) =  -345.156993320     A.U. after    2 cycles

 The electronic state is 1-A.
 Alpha  occ. eigenvalues --  -21.03363 -20.95078 -11.54624 -11.48063 -11.46549
 Alpha  occ. eigenvalues --  -11.42867 -11.38240  -1.78108  -1.59443  -1.24754
 Alpha  occ. eigenvalues --   -1.06386  -0.99527  -0.84510  -0.80554  -0.72420
 Alpha  occ. eigenvalues --   -0.71006  -0.66199  -0.57495  -0.56025  -0.51428
 Alpha  occ. eigenvalues --   -0.48450  -0.47114  -0.42355  -0.37907  -0.34068
 Alpha  occ. eigenvalues --   -0.23147  -0.22203
 Alpha virt. eigenvalues --    0.02978   0.03998   0.04503   0.04746   0.05186
 Alpha virt. eigenvalues --    0.05891   0.06838   0.08381   0.08645   0.10872
 Alpha virt. eigenvalues --    0.11531   0.12668   0.13356   0.13788   0.14378

 Mulliken charges:
               1
     1  C   -1.138215
     2  O   -2.331966
     3  C    3.054309
     4  C   -3.292806
     5  C   -2.738523
     6  C   -2.049311
     7  O   -3.212207
     8  H    1.522466
     9  H    1.403193
    10  H    1.587529
    11  H    1.315561
    12  H    1.436366
    13  H    1.775539
    14  H    1.256532
    15  H    1.411534
 Sum of Mulliken charges =  -0.00000

 Dipole moment (field-independent basis, Debye):
    X=              3.6305    Y=              0.2328    Z=              1.1691  Tot=              3.8211

 Test job not archived.
 1\1\GINC-SE098\SP\RHF\Aug-CC-pVDZ\C5H8O2\OHZDE\09-Apr-2025\0\\#t hf au
 g-cc-pvdz iop(5/13=1,5/36=2,99/5=2) pseudo=read geom=check guess=(read
 ,tcheck) scf=(maxcycle=1)\\title\\0,1\C,0,-1.21053428,0.59813959,0.442
 3924\O,0,-0.18020984,1.3399961,-0.19822097\C,0,0.58891851,0.34288097,-
 1.27227943\C,0,-0.01055984,-0.99434334,-0.7800774\C,0,-0.31431727,-0.6
 0337388,0.67133711\C,0,0.86801095,0.21216325,1.11294188\O,0,1.81456612
 ,0.50533566,-0.9971127\H,0,-2.0835695,0.44435806,-0.19668837\H,0,-1.51
 409652,1.11238914,1.35770905\H,0,0.196755,0.73471268,-2.22527686\H,0,0

 Normal termination of Gaussian 16 at Wed Apr  9 19:08:07 2025.
