 Gaussian 16, Revision C.01,

 ----------------------------------------------------------------------
 #t hf aug-cc-pvdz symm=none int=(grid=ultrafine) guess=(read,tcheck) s
 table=(opt,rrhf)
 ----------------------------------------------------------------------
 -----
 title
 -----
 Symbolic Z-matrix:
 Charge =  0 Multiplicity = 1

 SCF Done:  E(RHF) =  -286.090752077     A.U. after   13 cycles
 Normal termination of Gaussian 16 at Wed Apr  9 03:21:06 2025.
 Gaussian 16:  ES64L-G16RevC.01  3-Jul-2019

 ----------------------------------------------------------------------
 #t hf aug-cc-pvdz iop(5/13=1,5/36=2,99/5=2) pseudo=read geom=check gue
 ss=(read,tcheck) scf=(maxcycle=1)
 ----------------------------------------------------------------------
 -----
 title
 -----
 Structure from the checkpoint file:  "Grambow2020_wb97xd3_006063_forward_mol2.chk"
 Charge =  0 Multiplicity = 1

                         Standard orientation:
 ---------------------------------------------------------------------
 Center     Atomic      Atomic             Coordinates (Angstroms)
 Number     Number       Type             X           Y           Z
 ---------------------------------------------------------------------
      1          6           0        2.720012   -0.198487    0.029818
      2          6           0        1.341940    0.372238   -0.273134
      3          6           0        0.218895   -0.518335    0.240399
      4          6           0       -1.153392    0.104800    0.056590
      5          8           0       -1.343010    1.300985    0.110050
      6          7           0       -2.169914   -0.775466   -0.146382
      7          1           0        3.508864    0.447180   -0.359184
      8          1           0        2.851927   -1.187077   -0.418130
      9          1           0        2.877871   -0.301405    1.106467
     10          1           0        1.229580    1.361819    0.172546
     11          1           0        1.222558    0.511182   -1.351399
     12          1           0        0.257834   -1.503053   -0.235571
     13          1           0        0.343783   -0.688314    1.315868
     14          1           0       -3.104948   -0.416530   -0.220874
     15          1           0       -2.018721   -1.764711   -0.187483
 ---------------------------------------------------------------------

 SCF Done:  E(RHF) =  -287.439089474     A.U. after    2 cycles

 The electronic state is 1-A.
 Alpha  occ. eigenvalues --  -21.01646 -15.77623 -11.50197 -11.41939 -11.38926
 Alpha  occ. eigenvalues --  -11.35239  -1.70180  -1.34740  -1.21499  -1.03556
 Alpha  occ. eigenvalues --   -0.87266  -0.78777  -0.71182  -0.65799  -0.62329
 Alpha  occ. eigenvalues --   -0.58030  -0.56664  -0.50211  -0.49560  -0.46216
 Alpha  occ. eigenvalues --   -0.45498  -0.44793  -0.32076  -0.28180
 Alpha virt. eigenvalues --    0.03413   0.04675   0.05235   0.05667   0.06287
 Alpha virt. eigenvalues --    0.06563   0.07286   0.08000   0.08861   0.10882
 Alpha virt. eigenvalues --    0.12161   0.13340   0.14196   0.14804   0.15329

 Mulliken charges:
               1
     1  C   -3.885476
     2  C   -2.582433
     3  C   -3.548789
     4  C    5.345520
     5  O   -3.254720
     6  N   -3.065912
     7  H    1.073698
     8  H    1.274431
     9  H    1.251615
    10  H    1.509626
    11  H    1.401535
    12  H    1.522399
    13  H    1.482103
    14  H    0.740128
    15  H    0.736274
 Sum of Mulliken charges =  -0.00000

 Dipole moment (field-independent basis, Debye):
    X=             -0.2082    Y=             -2.2754    Z=             -0.1871  Tot=              2.2926

 Test job not archived.
 1\1\GINC-SE284\SP\RHF\Aug-CC-pVDZ\C4H9N1O1\OHZDE\09-Apr-2025\0\\#t hf
 aug-cc-pvdz iop(5/13=1,5/36=2,99/5=2) pseudo=read geom=check guess=(re
 ad,tcheck) scf=(maxcycle=1)\\title\\0,1\C,0,2.23697135,-0.0389046,-0.3
 732508\C,0,0.79632578,0.3518492,-0.6706421\C,0,-0.16939812,-0.12931897
 ,0.40356439\C,0,-1.58732024,0.36578679,0.18080366\O,0,-1.83534758,1.43
 669067,-0.33039118\N,0,-2.56984909,-0.46513145,0.62079716\H,0,2.909355
 99,0.30250966,-1.16181311\H,0,2.34937185,-1.12327915,-0.29039004\H,0,2
 .58017303,0.4002422,0.5669874\H,0,0.70272398,1.43531349,-0.75936067\H,

 Normal termination of Gaussian 16 at Wed Apr  9 03:21:11 2025.
