 Gaussian 16, Revision C.01,

 ----------------------------------------------------------------------
 #t hf aug-cc-pvdz symm=none int=(grid=ultrafine) guess=(read,tcheck) s
 table=(opt,rrhf)
 ----------------------------------------------------------------------
 -----
 title
 -----
 Symbolic Z-matrix:
 Charge =  0 Multiplicity = 1

 SCF Done:  E(RHF) =  -307.034134178     A.U. after   12 cycles

 1\1\GINC-SE112\Stability\RHF\Aug-CC-pVDZ\C4H10O2\OHZDE\09-Apr-2025\0\\
 #t hf aug-cc-pvdz symm=none int=(grid=ultrafine) guess=(read,tcheck) s
 table=(opt,rrhf)\\title\\0,1\C,0,0.82692491,-1.64494147,-0.09048498\O,
 0,1.62996773,1.71298778,0.26481224\C,0,0.42573399,1.38248259,-0.407007
 9\C,0,-0.4057426,0.39248711,0.42305149\C,0,-1.66643616,-0.08181329,-0.
 2980632\O,0,0.45081856,-0.6768106,0.88642677\H,0,-0.03216603,-2.244648
 52,-0.43169664\H,0,1.31622432,-1.19822848,-0.97195987\H,0,1.54215803,-
 2.31055767,0.40760753\H,0,0.62108704,0.95392372,-1.41078939\H,0,-0.147

 Normal termination of Gaussian 16 at Wed Apr  9 03:07:28 2025.
 Gaussian 16:  ES64L-G16RevC.01  3-Jul-2019

 ----------------------------------------------------------------------
 #t hf aug-cc-pvdz iop(5/13=1,5/36=2,99/5=2) pseudo=read geom=check gue
 ss=(read,tcheck) scf=(maxcycle=1)
 ----------------------------------------------------------------------
 -----
 title
 -----
 Structure from the checkpoint file:  "Grambow2020_b97d3_006568_reverse_mol2.chk"
 Charge =  0 Multiplicity = 1

                         Standard orientation:
 ---------------------------------------------------------------------
 Center     Atomic      Atomic             Coordinates (Angstroms)
 Number     Number       Type             X           Y           Z
 ---------------------------------------------------------------------
      1          6           0        1.210223   -1.411157    0.414462
      2          8           0       -2.083223   -0.418194   -0.048184
      3          6           0       -1.159232    0.541163    0.438261
      4          6           0        0.098768    0.579813   -0.442865
      5          6           0        1.176069    1.521245    0.093274
      6          8           0        0.555835   -0.771864   -0.679234
      7          1           0        2.176926   -0.938902    0.652306
      8          1           0        0.595242   -1.433618    1.329480
      9          1           0        1.395175   -2.442634    0.091126
     10          1           0       -0.871066    0.336128    1.489129
     11          1           0       -1.649422    1.525427    0.421034
     12          1           0       -0.201454    0.905109   -1.448963
     13          1           0        2.084818    1.460912   -0.520064
     14          1           0        1.440612    1.295768    1.135635
     15          1           0        0.808392    2.556403    0.060577
     16          1           0       -1.515074   -1.130513   -0.409711
 ---------------------------------------------------------------------

 SCF Done:  E(RHF) =  -308.460842636     A.U. after    2 cycles

 The electronic state is 1-A.
 Alpha  occ. eigenvalues --  -21.05549 -21.04933 -11.45819 -11.42173 -11.40960
 Alpha  occ. eigenvalues --  -11.37527  -1.76162  -1.68232  -1.15955  -1.00223
 Alpha  occ. eigenvalues --   -0.97201  -0.81372  -0.68945  -0.64572  -0.59958
 Alpha  occ. eigenvalues --   -0.58733  -0.57817  -0.55403  -0.53255  -0.52721
 Alpha  occ. eigenvalues --   -0.47263  -0.39702  -0.36778  -0.32444  -0.29456
 Alpha virt. eigenvalues --    0.03558   0.05046   0.05150   0.05542   0.05778
 Alpha virt. eigenvalues --    0.06176   0.06342   0.07236   0.07771   0.09541
 Alpha virt. eigenvalues --    0.11803   0.12563   0.14205   0.14887   0.15268

 Mulliken charges:
               1
     1  C   -3.040350
     2  O   -2.927530
     3  C   -0.684519
     4  C    0.535642
     5  C   -3.853930
     6  O   -3.206994
     7  H    1.392106
     8  H    1.430201
     9  H    1.197941
    10  H    1.465076
    11  H    1.390868
    12  H    1.705440
    13  H    1.232608
    14  H    1.292130
    15  H    1.153932
    16  H    0.917379
 Sum of Mulliken charges =  -0.00000

 Dipole moment (field-independent basis, Debye):
    X=              1.2344    Y=              0.3211    Z=              0.1838  Tot=              1.2886

 Test job not archived.
 1\1\GINC-SE112\SP\RHF\Aug-CC-pVDZ\C4H10O2\OHZDE\09-Apr-2025\0\\#t hf a
 ug-cc-pvdz iop(5/13=1,5/36=2,99/5=2) pseudo=read geom=check guess=(rea
 d,tcheck) scf=(maxcycle=1)\\title\\0,1\C,0,0.82692491,-1.64494147,-0.0
 9048498\O,0,1.62996773,1.71298778,0.26481224\C,0,0.42573399,1.38248259
 ,-0.4070079\C,0,-0.4057426,0.39248711,0.42305149\C,0,-1.66643616,-0.08
 181329,-0.2980632\O,0,0.45081856,-0.6768106,0.88642677\H,0,-0.03216603
 ,-2.24464852,-0.43169664\H,0,1.31622432,-1.19822848,-0.97195987\H,0,1.
 54215803,-2.31055767,0.40760753\H,0,0.62108704,0.95392372,-1.41078939\

 Normal termination of Gaussian 16 at Wed Apr  9 03:07:33 2025.
