 Gaussian 16, Revision C.01,

 ----------------------------------------------------------------------
 #t hf aug-cc-pvdz symm=none int=(grid=ultrafine) guess=(read,tcheck) s
 table=(opt,rrhf)
 ----------------------------------------------------------------------
 -----
 title
 -----
 Symbolic Z-matrix:
 Charge =  0 Multiplicity = 1

 SCF Done:  E(RHF) =  -333.572090632     A.U. after   19 cycles
 Normal termination of Gaussian 16 at Wed Apr  9 03:33:07 2025.
 Gaussian 16:  ES64L-G16RevC.01  3-Jul-2019

 ----------------------------------------------------------------------
 #t hf aug-cc-pvdz iop(5/13=1,5/36=2,99/5=2) pseudo=read geom=check gue
 ss=(read,tcheck) scf=(maxcycle=1)
 ----------------------------------------------------------------------
 -----
 title
 -----
 Structure from the checkpoint file:  "Grambow2020_wb97xd3_006998_forward_mol1.chk"
 Charge =  0 Multiplicity = 1

                         Standard orientation:
 ---------------------------------------------------------------------
 Center     Atomic      Atomic             Coordinates (Angstroms)
 Number     Number       Type             X           Y           Z
 ---------------------------------------------------------------------
      1          7           0       -2.328436    0.226801   -0.059047
      2          6           0       -1.057158   -0.084764   -0.288589
      3          6           0       -0.448320   -1.201543    0.185886
      4          7           0        0.898559   -1.249603   -0.032399
      5          6           0        1.862526   -0.546353   -0.089694
      6          7           0        1.379023    1.322355    0.135103
      7          7           0        0.273967    1.539638    0.100436
      8          1           0       -2.895822   -0.229645    0.640635
      9          1           0       -2.745568    1.014022   -0.521042
     10          1           0       -0.885104   -2.106345    0.602212
     11          1           0        2.822414   -0.556418   -0.576074
 ---------------------------------------------------------------------

 SCF Done:  E(RHF) =  -335.113711986     A.U. after    2 cycles

 The electronic state is 1-A.
 Alpha  occ. eigenvalues --  -15.85240 -15.82630 -15.82009 -15.76257 -11.48275
 Alpha  occ. eigenvalues --  -11.40555 -11.35716  -1.55071  -1.44042  -1.34236
 Alpha  occ. eigenvalues --   -1.07971  -0.88144  -0.83561  -0.74290  -0.69899
 Alpha  occ. eigenvalues --   -0.67295  -0.62086  -0.59804  -0.55728  -0.55007
 Alpha  occ. eigenvalues --   -0.50475  -0.44444  -0.44089  -0.28763  -0.25843
 Alpha virt. eigenvalues --    0.03707   0.04902   0.05843   0.06731   0.09063
 Alpha virt. eigenvalues --    0.09688   0.09794   0.11325   0.12475   0.12959
 Alpha virt. eigenvalues --    0.13787   0.14189   0.14541   0.15532   0.16005

 Mulliken charges:
               1
     1  N   -3.164716
     2  C    0.964573
     3  C    0.749159
     4  N   -2.696507
     5  C    0.009664
     6  N   -0.401655
     7  N    0.252436
     8  H    0.612563
     9  H    0.759692
    10  H    1.374749
    11  H    1.540042
 Sum of Mulliken charges =  -0.00000

 Dipole moment (field-independent basis, Debye):
    X=              0.0299    Y=             -0.6168    Z=              0.3246  Tot=              0.6976

 Test job not archived.
 1\1\GINC-SE049\SP\RHF\Aug-CC-pVDZ\C3H4N4\OHZDE\09-Apr-2025\0\\#t hf au
 g-cc-pvdz iop(5/13=1,5/36=2,99/5=2) pseudo=read geom=check guess=(read
 ,tcheck) scf=(maxcycle=1)\\title\\0,1\N,0,1.96932509,-0.05202321,-0.67
 89674\C,0,0.68367794,0.1832415,-0.4388156\C,0,0.21475678,0.77501901,0.
 68942117\N,0,-1.14560328,0.7772964,0.80542778\C,0,-2.10695395,0.114391
 97,0.55355922\N,0,-1.61106523,-1.49837293,-0.41052734\N,0,-0.54618554,
 -1.52985657,-0.77740893\H,0,2.68765234,0.00727148,0.02836159\H,0,2.259
 06065,-0.40047406,-1.57439495\H,0,0.74757186,1.34566036,1.44655403\H,0

 Normal termination of Gaussian 16 at Wed Apr  9 03:33:11 2025.
