 Gaussian 16, Revision C.01,

 ----------------------------------------------------------------------
 #t hf aug-cc-pvdz symm=none int=(grid=ultrafine) guess=(read,tcheck) s
 table=(opt,rrhf)
 ----------------------------------------------------------------------
 -----
 title
 -----
 Symbolic Z-matrix:
 Charge =  0 Multiplicity = 1

 SCF Done:  E(RHF) =  -306.574645618     A.U. after   14 cycles
 Normal termination of Gaussian 16 at Wed Apr  9 19:14:03 2025.
 Gaussian 16:  ES64L-G16RevC.01  3-Jul-2019

 ----------------------------------------------------------------------
 #t hf aug-cc-pvdz iop(5/13=1,5/36=2,99/5=2) pseudo=read geom=check gue
 ss=(read,tcheck) scf=(maxcycle=1)
 ----------------------------------------------------------------------
 -----
 title
 -----
 Structure from the checkpoint file:  "Grambow2020_wb97xd3_008434_reverse_mol1.chk"
 Charge =  0 Multiplicity = 1

                         Standard orientation:
 ---------------------------------------------------------------------
 Center     Atomic      Atomic             Coordinates (Angstroms)
 Number     Number       Type             X           Y           Z
 ---------------------------------------------------------------------
      1          6           0        1.140716   -0.820243   -0.640172
      2          6           0        1.540172    0.618182   -0.238951
      3          6           0       -0.300255    1.238426   -0.070763
      4          8           0       -1.358103    0.458009   -0.528535
      5          6           0       -1.296604   -0.824809    0.102385
      6          6           0        0.144961   -0.958607    0.534281
      7          6           0        0.562911    0.473934    0.911780
      8          1           0        0.780946   -1.004412   -1.654065
      9          1           0        2.048728   -1.409555   -0.490520
     10          1           0        0.442362    1.462678   -0.952821
     11          1           0       -0.579470    2.237975    0.254637
     12          1           0       -1.603607   -1.570978   -0.633152
     13          1           0       -1.987457   -0.855815    0.953761
     14          1           0        0.325868   -1.760683    1.247254
     15          1           0        0.686037    0.875423    1.911830
 ---------------------------------------------------------------------

 SCF Done:  E(RHF) =  -308.019720679     A.U. after    2 cycles

 The electronic state is 1-A.
 Alpha  occ. eigenvalues --  -21.05793 -11.50256 -11.45801 -11.44213 -11.41553
 Alpha  occ. eigenvalues --  -11.40044 -11.36193  -1.79440  -1.36612  -1.12236
 Alpha  occ. eigenvalues --   -0.99966  -0.87891  -0.86278  -0.76592  -0.71645
 Alpha  occ. eigenvalues --   -0.65812  -0.61219  -0.54558  -0.54134  -0.52579
 Alpha  occ. eigenvalues --   -0.50231  -0.45865  -0.40604  -0.37291  -0.33835
 Alpha  occ. eigenvalues --   -0.27513
 Alpha virt. eigenvalues --    0.03714   0.04514   0.05074   0.05455   0.05671
 Alpha virt. eigenvalues --    0.06203   0.06858   0.07887   0.10176   0.10816
 Alpha virt. eigenvalues --    0.12407   0.12838   0.13687   0.13783   0.14586

 Mulliken charges:
               1
     1  C   -2.882374
     2  C   -0.422024
     3  C    0.546962
     4  O   -3.392094
     5  C   -1.583308
     6  C   -2.189928
     7  C   -1.484178
     8  H    1.438836
     9  H    1.408566
    10  H    1.151763
    11  H    1.452810
    12  H    1.478879
    13  H    1.497152
    14  H    1.613034
    15  H    1.365905
 Sum of Mulliken charges =  -0.00000

 Dipole moment (field-independent basis, Debye):
    X=             -1.9148    Y=             -1.4205    Z=              1.1265  Tot=              2.6369

 Test job not archived.
 1\1\GINC-SE145\SP\RHF\Aug-CC-pVDZ\C6H8O1\OHZDE\09-Apr-2025\0\\#t hf au
 g-cc-pvdz iop(5/13=1,5/36=2,99/5=2) pseudo=read geom=check guess=(read
 ,tcheck) scf=(maxcycle=1)\\title\\0,1\C,0,0.735355,1.25875562,0.160937
 47\C,0,1.61048989,0.16511174,-0.4930452\C,0,0.50865104,-1.30781338,0.1
 5240169\O,0,-0.48217967,-1.08984055,1.10549722\C,0,-1.37942781,-0.0854
 6481,0.62213677\C,0,-0.57386258,0.66766694,-0.41053059\C,0,0.32198052,
 -0.40748307,-1.05153086\H,0,0.80915028,1.4193275,1.2380183\H,0,1.03079
 259,2.18361199,-0.34058705\H,0,1.55109025,-0.96854618,0.57431652\H,0,0

 Normal termination of Gaussian 16 at Wed Apr  9 19:14:09 2025.
