 Gaussian 16, Revision C.01,

 ----------------------------------------------------------------------
 #t hf aug-cc-pvdz symm=none int=(grid=ultrafine) guess=(read,tcheck) s
 table=(opt,rrhf)
 ----------------------------------------------------------------------
 -----
 title
 -----
 Symbolic Z-matrix:
 Charge =  0 Multiplicity = 1

 SCF Done:  E(RHF) =  -265.001622483     A.U. after   15 cycles
 Normal termination of Gaussian 16 at Wed Apr  9 03:08:55 2025.
 Gaussian 16:  ES64L-G16RevC.01  3-Jul-2019

 ----------------------------------------------------------------------
 #t hf aug-cc-pvdz iop(5/13=1,5/36=2,99/5=2) pseudo=read geom=check gue
 ss=(read,tcheck) scf=(maxcycle=1)
 ----------------------------------------------------------------------
 -----
 title
 -----
 Structure from the checkpoint file:  "Grambow2020_b97d3_006636_reverse_mol2.chk"
 Charge =  0 Multiplicity = 1

                         Standard orientation:
 ---------------------------------------------------------------------
 Center     Atomic      Atomic             Coordinates (Angstroms)
 Number     Number       Type             X           Y           Z
 ---------------------------------------------------------------------
      1          6           0        1.917205   -0.859977    0.022494
      2          6           0        1.281297    0.532242   -0.046738
      3          6           0       -0.232029    0.539870   -0.006580
      4          7           0       -0.838808    1.836411   -0.071032
      5          6           0       -0.944522   -0.580974    0.066630
      6          7           0       -1.627242   -1.604897   -0.142150
      7          1           0        1.582513   -1.487562   -0.814527
      8          1           0        1.648669   -1.372233    0.957077
      9          1           0        3.011939   -0.784948   -0.022549
     10          1           0        1.658724    1.151548    0.787777
     11          1           0        1.590123    1.048852   -0.969816
     12          1           0       -1.873002   -2.111575    0.724788
     13          1           0       -1.853329    1.769836   -0.160089
     14          1           0       -0.635002    2.378523    0.774781
 ---------------------------------------------------------------------

 SCF Done:  E(RHF) =  -266.274463738     A.U. after    2 cycles

 The electronic state is 1-A.
 Alpha  occ. eigenvalues --  -15.76559 -15.75557 -11.47445 -11.44247 -11.40226
 Alpha  occ. eigenvalues --  -11.36660  -1.39263  -1.30500  -1.16555  -0.99695
 Alpha  occ. eigenvalues --   -0.89732  -0.72165  -0.66293  -0.64568  -0.62094
 Alpha  occ. eigenvalues --   -0.59053  -0.51804  -0.49633  -0.48753  -0.48287
 Alpha  occ. eigenvalues --   -0.42583  -0.40873  -0.27887
 Alpha virt. eigenvalues --    0.03434   0.05057   0.05316   0.05929   0.06504
 Alpha virt. eigenvalues --    0.06925   0.06966   0.07939   0.10457   0.12106
 Alpha virt. eigenvalues --    0.12446   0.13083   0.14318   0.14593   0.15327

 Mulliken charges:
               1
     1  C   -3.659665
     2  C   -2.864641
     3  C    3.350322
     4  N   -3.394336
     5  C    1.389548
     6  N   -3.108293
     7  H    1.296848
     8  H    1.243108
     9  H    1.085937
    10  H    1.420136
    11  H    1.348869
    12  H    0.743835
    13  H    0.672792
    14  H    0.475541
 Sum of Mulliken charges =  -0.00000

 Dipole moment (field-independent basis, Debye):
    X=              0.3471    Y=              0.7851    Z=              1.8262  Tot=              2.0179

 Test job not archived.
 1\1\GINC-SE419\SP\RHF\Aug-CC-pVDZ\C4H8N2\OHZDE\09-Apr-2025\0\\#t hf au
 g-cc-pvdz iop(5/13=1,5/36=2,99/5=2) pseudo=read geom=check guess=(read
 ,tcheck) scf=(maxcycle=1)\\title\\0,1\C,0,-1.80713649,0.09508025,0.073
 33674\C,0,-0.62616348,-0.79309502,-0.33150209\C,0,0.73304292,-0.140809
 76,-0.19399728\N,0,1.84588784,-0.96150181,-0.57002035\C,0,0.87832054,1
 .11139816,0.23046361\N,0,1.0218435,2.34500859,0.35584216\H,0,-1.839501
 25,1.00855047,-0.53576864\H,0,-1.73405679,0.39499712,1.12816975\H,0,-2
 .75572341,-0.44116217,-0.06351484\H,0,-0.6358423,-1.71772463,0.2746099

 Normal termination of Gaussian 16 at Wed Apr  9 03:08:59 2025.
