 Gaussian 16, Revision C.01,

 ----------------------------------------------------------------------
 #t hf aug-cc-pvdz symm=none int=(grid=ultrafine) guess=(read,tcheck) s
 table=(opt,rrhf)
 ----------------------------------------------------------------------
 -----
 title
 -----
 Symbolic Z-matrix:
 Charge =  0 Multiplicity = 1

 SCF Done:  E(RHF) =  -324.963878305     A.U. after   15 cycles
 Normal termination of Gaussian 16 at Wed Apr  9 19:11:16 2025.
 Gaussian 16:  ES64L-G16RevC.01  3-Jul-2019

 ----------------------------------------------------------------------
 #t hf aug-cc-pvdz iop(5/13=1,5/36=2,99/5=2) pseudo=read geom=check gue
 ss=(read,tcheck) scf=(maxcycle=1)
 ----------------------------------------------------------------------
 -----
 title
 -----
 Structure from the checkpoint file:  "Grambow2020_wb97xd3_008237_forward_mol1.chk"
 Charge =  0 Multiplicity = 1

                         Standard orientation:
 ---------------------------------------------------------------------
 Center     Atomic      Atomic             Coordinates (Angstroms)
 Number     Number       Type             X           Y           Z
 ---------------------------------------------------------------------
      1          6           0       -1.760306    1.322138   -0.191563
      2          6           0       -2.332544   -0.014609    0.187720
      3          6           0       -0.683211   -1.485798   -0.141337
      4          7           0        0.357177   -0.733239   -0.617698
      5          6           0        1.268636   -0.090773    0.213254
      6          8           0        1.147168   -0.072102    1.410673
      7          6           0        2.383400    0.617762   -0.519288
      8          1           0       -2.545588    2.081348   -0.238950
      9          1           0       -1.021109    1.655502    0.538998
     10          1           0       -1.280299    1.296032   -1.172224
     11          1           0       -2.799644   -0.009791    1.175629
     12          1           0       -3.024916   -0.435106   -0.536095
     13          1           0       -1.451497   -0.904927    0.628454
     14          1           0       -1.242782   -1.932865   -0.961314
     15          1           0        0.466406   -0.554882   -1.605615
     16          1           0        2.022484    1.581702   -0.885914
     17          1           0        2.744059    0.040957   -1.372295
     18          1           0        3.199449    0.799202    0.175115
 ---------------------------------------------------------------------

 SCF Done:  E(RHF) =  -326.525179490     A.U. after    2 cycles

 The electronic state is 1-A.
 Alpha  occ. eigenvalues --  -21.03143 -15.77582 -11.50284 -11.41887 -11.40055
 Alpha  occ. eigenvalues --  -11.39184 -11.36663  -1.71319  -1.40746  -1.16749
 Alpha  occ. eigenvalues --   -1.10965  -0.96420  -0.87612  -0.77803  -0.68693
 Alpha  occ. eigenvalues --   -0.64718  -0.62318  -0.61793  -0.59608  -0.54474
 Alpha  occ. eigenvalues --   -0.52963  -0.50536  -0.50268  -0.49074  -0.47212
 Alpha  occ. eigenvalues --   -0.36436  -0.29016  -0.26303
 Alpha virt. eigenvalues --    0.03257   0.04536   0.04860   0.05327   0.05670
 Alpha virt. eigenvalues --    0.05823   0.06706   0.07129   0.07856   0.08398
 Alpha virt. eigenvalues --    0.09822   0.10793   0.12435   0.13110   0.13190

 Mulliken charges:
               1
     1  C   -4.002003
     2  C   -3.581294
     3  C   -2.679768
     4  N   -2.413851
     5  C    5.457918
     6  O   -3.406970
     7  C   -4.314339
     8  H    1.088893
     9  H    1.445943
    10  H    1.471848
    11  H    1.033457
    12  H    1.255416
    13  H    2.878987
    14  H    1.274541
    15  H    0.797129
    16  H    1.247086
    17  H    1.270272
    18  H    1.176737
 Sum of Mulliken charges =  -0.00000

 Dipole moment (field-independent basis, Debye):
    X=             -0.7040    Y=              1.4970    Z=             -2.6947  Tot=              3.1620

 Test job not archived.
 1\1\GINC-SE207\SP\RHF\Aug-CC-pVDZ\C5H11N1O1\OHZDE\09-Apr-2025\0\\#t hf
  aug-cc-pvdz iop(5/13=1,5/36=2,99/5=2) pseudo=read geom=check guess=(r
 ead,tcheck) scf=(maxcycle=1)\\title\\0,1\C,0,-1.57615183,0.15127347,-0
 .9138287\C,0,-1.91047602,0.91075124,0.33901834\C,0,-0.22885882,0.50173
 074,1.75246845\N,0,0.5992448,-0.34440343,1.06401177\C,0,1.59803229,0.1
 0576685,0.20740642\O,0,1.738705,1.27026418,-0.06291181\C,0,2.44715211,
 -0.99293536,-0.38688977\H,0,-2.42728496,0.14017832,-1.59994959\H,0,-0.
 73435523,0.60739627,-1.43784561\H,0,-1.32092486,-0.8895065,-0.70307062

 Normal termination of Gaussian 16 at Wed Apr  9 19:11:23 2025.
