 Gaussian 16, Revision C.01,

 ----------------------------------------------------------------------
 #t hf aug-cc-pvdz symm=none int=(grid=ultrafine) guess=(read,tcheck) s
 table=(opt,rrhf)
 ----------------------------------------------------------------------
 -----
 title
 -----
 Symbolic Z-matrix:
 Charge =  0 Multiplicity = 1

 SCF Done:  E(RHF) =  -321.402157760     A.U. after   18 cycles
 Normal termination of Gaussian 16 at Wed Apr  9 03:51:22 2025.
 Gaussian 16:  ES64L-G16RevC.01  3-Jul-2019

 ----------------------------------------------------------------------
 #t hf aug-cc-pvdz iop(5/13=1,5/36=2,99/5=2) pseudo=read geom=check gue
 ss=(read,tcheck) scf=(maxcycle=1)
 ----------------------------------------------------------------------
 -----
 title
 -----
 Structure from the checkpoint file:  "Grambow2020_wb97xd3_008194_reverse_mol2.chk"
 Charge =  0 Multiplicity = 1

                         Standard orientation:
 ---------------------------------------------------------------------
 Center     Atomic      Atomic             Coordinates (Angstroms)
 Number     Number       Type             X           Y           Z
 ---------------------------------------------------------------------
      1          8           0       -0.191151   -0.266494    0.687374
      2          6           0        0.600155   -1.238005    0.023255
      3          6           0        1.901036   -0.897655   -0.526295
      4          6           0        2.435204    0.320931   -0.242771
      5          6           0        2.955494    1.399186   -0.012596
      6          6           0       -3.142237    0.314828   -0.012319
      7          7           0       -4.222805    0.525282   -0.325659
      8          1           0        0.385460    0.409643    1.055433
      9          1           0        0.841194   -2.079248    0.700977
     10          1           0       -0.015101   -1.691495   -0.760449
     11          1           0       -2.121314    0.116728    0.277028
     12          1           0        3.500696    2.303636    0.131990
 ---------------------------------------------------------------------

 SCF Done:  E(RHF) =  -322.828242126     A.U. after    2 cycles

 The electronic state is 1-A.
 Alpha  occ. eigenvalues --  -21.10470 -15.76252 -11.48008 -11.47755 -11.45272
 Alpha  occ. eigenvalues --  -11.43611 -11.42042  -1.75315  -1.29649  -1.22320
 Alpha  occ. eigenvalues --   -1.08263  -0.91955  -0.80291  -0.75687  -0.67227
 Alpha  occ. eigenvalues --   -0.63701  -0.60035  -0.53153  -0.50182  -0.45476
 Alpha  occ. eigenvalues --   -0.45136  -0.45089  -0.44652  -0.36576  -0.32047
 Alpha virt. eigenvalues --    0.01700   0.02181   0.04293   0.05785   0.06175
 Alpha virt. eigenvalues --    0.07152   0.07950   0.09716   0.10257   0.10437
 Alpha virt. eigenvalues --    0.10674   0.12177   0.12738   0.12870   0.14032

 Mulliken charges:
               1
     1  O   -3.010765
     2  C   -0.472615
     3  C   -2.244119
     4  C    4.746558
     5  C   -3.608721
     6  C    0.694850
     7  N   -2.620455
     8  H    0.948889
     9  H    1.218858
    10  H    1.371727
    11  H    2.147275
    12  H    0.828519
 Sum of Mulliken charges =  -0.00000

 Dipole moment (field-independent basis, Debye):
    X=              4.0645    Y=              1.1313    Z=              1.7885  Tot=              4.5825

 Test job not archived.
 1\1\GINC-SE038\SP\RHF\Aug-CC-pVDZ\C5H5N1O1\OHZDE\09-Apr-2025\0\\#t hf
 aug-cc-pvdz iop(5/13=1,5/36=2,99/5=2) pseudo=read geom=check guess=(re
 ad,tcheck) scf=(maxcycle=1)\\title\\0,1\O,0,-0.23476416,-0.43015554,-0
 .60621988\C,0,-1.00562686,-0.41752655,0.58401699\C,0,-1.06646812,0.764
 8013,1.42576161\C,0,-0.5187293,1.92384644,0.97049073\C,0,-0.04544836,2
 .98561575,0.60311302\C,0,1.85719951,-2.60125706,-1.27436976\N,0,2.6486
 8267,-3.4049608,-1.46857345\H,0,-0.15670433,0.46884476,-0.93910694\H,0
 ,-2.07349533,-0.60721152,0.36317051\H,0,-0.69937345,-1.27632288,1.1898

 Normal termination of Gaussian 16 at Wed Apr  9 03:51:27 2025.
