 Gaussian 16, Revision C.01,

 ----------------------------------------------------------------------
 #t hf aug-cc-pvdz symm=none int=(grid=ultrafine) guess=(read,tcheck) s
 table=(opt,rrhf)
 ----------------------------------------------------------------------
 -----
 title
 -----
 Symbolic Z-matrix:
 Charge =  0 Multiplicity = 1

 SCF Done:  E(RHF) =  -343.709101098     A.U. after   13 cycles
 Normal termination of Gaussian 16 at Wed Apr  9 18:27:23 2025.
 Gaussian 16:  ES64L-G16RevC.01  3-Jul-2019

 ----------------------------------------------------------------------
 #t hf aug-cc-pvdz iop(5/13=1,5/36=2,99/5=2) pseudo=read geom=check gue
 ss=(read,tcheck) scf=(maxcycle=1)
 ----------------------------------------------------------------------
 -----
 title
 -----
 Structure from the checkpoint file:  "Grambow2020_wb97xd3_007143_reverse_mol2.chk"
 Charge =  0 Multiplicity = 1

                         Standard orientation:
 ---------------------------------------------------------------------
 Center     Atomic      Atomic             Coordinates (Angstroms)
 Number     Number       Type             X           Y           Z
 ---------------------------------------------------------------------
      1          8           0        1.310562   -0.864278   -1.015056
      2          6           0        1.199653    0.001524    0.019660
      3          6           0       -1.773597    1.206290   -0.400578
      4          6           0       -1.884340   -0.099559   -0.207257
      5          8           0       -1.009265   -0.933026    0.414331
      6          6           0        2.022566    1.030444    0.163799
      7          6           0        0.134681   -0.358669    1.026093
      8          1           0        0.527260   -1.424913   -1.025987
      9          1           0       -2.576442    1.720174   -0.909024
     10          1           0       -0.913908    1.786926   -0.097690
     11          1           0       -2.743664   -0.664183   -0.549760
     12          1           0        1.910404    1.699671    1.005055
     13          1           0        2.820553    1.211338   -0.542798
     14          1           0        0.512387   -1.140759    1.687414
     15          1           0       -0.140745    0.510000    1.628284
 ---------------------------------------------------------------------

 SCF Done:  E(RHF) =  -345.269019470     A.U. after    2 cycles

 The electronic state is 1-A.
 Alpha  occ. eigenvalues --  -21.09644 -21.09090 -11.47595 -11.45619 -11.42944
 Alpha  occ. eigenvalues --  -11.37941 -11.36665  -1.81977  -1.74276  -1.15792
 Alpha  occ. eigenvalues --   -1.11583  -0.99881  -0.81519  -0.77304  -0.70391
 Alpha  occ. eigenvalues --   -0.68712  -0.62975  -0.59821  -0.56799  -0.54117
 Alpha  occ. eigenvalues --   -0.51737  -0.48222  -0.46156  -0.42874  -0.39489
 Alpha  occ. eigenvalues --   -0.29551  -0.28359
 Alpha virt. eigenvalues --    0.03454   0.04946   0.05492   0.05672   0.05859
 Alpha virt. eigenvalues --    0.06539   0.07056   0.07819   0.10784   0.11434
 Alpha virt. eigenvalues --    0.12134   0.13183   0.13770   0.14252   0.14800

 Mulliken charges:
               1
     1  O   -3.958247
     2  C    4.139279
     3  C   -3.085372
     4  C    0.481126
     5  O   -3.305399
     6  C   -3.515250
     7  C   -2.314453
     8  H    1.039473
     9  H    1.253895
    10  H    1.733246
    11  H    1.624326
    12  H    1.484204
    13  H    1.475423
    14  H    1.295597
    15  H    1.652151
 Sum of Mulliken charges =   0.00000

 Dipole moment (field-independent basis, Debye):
    X=             -0.8385    Y=             -0.8513    Z=              0.4137  Tot=              1.2645

 Test job not archived.
 1\1\GINC-SE045\SP\RHF\Aug-CC-pVDZ\C5H8O2\OHZDE\09-Apr-2025\0\\#t hf au
 g-cc-pvdz iop(5/13=1,5/36=2,99/5=2) pseudo=read geom=check guess=(read
 ,tcheck) scf=(maxcycle=1)\\title\\0,1\O,0,-0.30130181,-0.72203772,-1.8
 4395937\C,0,-0.92280005,-0.24175963,-0.74140596\C,0,1.3964375,-0.44531
 262,1.50536578\C,0,1.81879739,0.37379623,0.55376021\O,0,1.07396619,1.0
 8325845,-0.33431832\C,0,-2.00567671,-0.81855629,-0.24008577\C,0,-0.337
 82414,1.03995209,-0.20119178\H,0,0.54353263,-0.26860831,-1.93696506\H,
 0,2.13231317,-0.92334919,2.1355417\H,0,0.35565668,-0.68159184,1.675341

 Normal termination of Gaussian 16 at Wed Apr  9 18:27:28 2025.
