 Gaussian 16, Revision C.01,

 ----------------------------------------------------------------------
 #t hf aug-cc-pvdz symm=none int=(grid=ultrafine) guess=(read,tcheck) s
 table=(opt,rrhf)
 ----------------------------------------------------------------------
 -----
 title
 -----
 Symbolic Z-matrix:
 Charge =  0 Multiplicity = 1

 SCF Done:  E(RHF) =  -302.761034191     A.U. after   15 cycles
 Normal termination of Gaussian 16 at Wed Apr  9 19:03:58 2025.
 Gaussian 16:  ES64L-G16RevC.01  3-Jul-2019

 ----------------------------------------------------------------------
 #t hf aug-cc-pvdz iop(5/13=1,5/36=2,99/5=2) pseudo=read geom=check gue
 ss=(read,tcheck) scf=(maxcycle=1)
 ----------------------------------------------------------------------
 -----
 title
 -----
 Structure from the checkpoint file:  "Grambow2020_wb97xd3_008035_reverse_mol1.chk"
 Charge =  0 Multiplicity = 1

                         Standard orientation:
 ---------------------------------------------------------------------
 Center     Atomic      Atomic             Coordinates (Angstroms)
 Number     Number       Type             X           Y           Z
 ---------------------------------------------------------------------
      1          6           0        1.250099    1.409473    0.135738
      2          6           0       -0.058678    1.108258    0.473840
      3          6           0       -1.127397    0.838808   -0.567942
      4          7           0       -1.665861   -0.421304   -0.077783
      5          6           0       -0.560006   -1.015223    0.618254
      6          6           0        0.604096   -1.338118   -0.006629
      7          7           0        1.675953   -1.131812   -0.480814
      8          1           0        1.451479    1.733512   -0.882907
      9          1           0        1.908417    1.821402    0.892650
     10          1           0        1.753839    0.096847   -0.158110
     11          1           0       -0.416302    1.275965    1.483198
     12          1           0       -0.654161    0.759949   -1.556131
     13          1           0       -1.888731    1.623600   -0.622766
     14          1           0       -2.125213   -1.008777   -0.759458
     15          1           0       -0.748649   -1.449870    1.594132
 ---------------------------------------------------------------------

 SCF Done:  E(RHF) =  -304.250829129     A.U. after    2 cycles

 The electronic state is 1-A.
 Alpha  occ. eigenvalues --  -15.74891 -15.74226 -11.47583 -11.45422 -11.42160
 Alpha  occ. eigenvalues --  -11.41846 -11.37327  -1.45855  -1.32616  -1.16599
 Alpha  occ. eigenvalues --   -1.03980  -0.96198  -0.82340  -0.72642  -0.69963
 Alpha  occ. eigenvalues --   -0.65798  -0.63705  -0.58945  -0.56285  -0.53467
 Alpha  occ. eigenvalues --   -0.51135  -0.47479  -0.43249  -0.35652  -0.34391
 Alpha  occ. eigenvalues --   -0.32414
 Alpha virt. eigenvalues --    0.03804   0.05143   0.05317   0.05620   0.05945
 Alpha virt. eigenvalues --    0.06390   0.07038   0.08233   0.08898   0.11411
 Alpha virt. eigenvalues --    0.11996   0.12413   0.13088   0.13465   0.14001

 Mulliken charges:
               1
     1  C   -3.563338
     2  C   -1.220851
     3  C   -2.314202
     4  N   -2.374348
     5  C   -0.861527
     6  C    2.668622
     7  N   -2.821791
     8  H    1.140266
     9  H    1.234862
    10  H    1.853940
    11  H    1.271988
    12  H    1.556255
    13  H    1.343003
    14  H    0.585002
    15  H    1.502118
 Sum of Mulliken charges =   0.00000

 Dipole moment (field-independent basis, Debye):
    X=             -1.6615    Y=              1.2529    Z=              0.2543  Tot=              2.0964

 Test job not archived.
 1\1\GINC-SE162\SP\RHF\Aug-CC-pVDZ\C5H8N2\OHZDE\09-Apr-2025\0\\#t hf au
 g-cc-pvdz iop(5/13=1,5/36=2,99/5=2) pseudo=read geom=check guess=(read
 ,tcheck) scf=(maxcycle=1)\\title\\0,1\C,0,1.50904227,-0.30939149,-0.71
 975868\C,0,0.76975604,0.50192996,0.12472609\C,0,-0.4859802,1.22068251,
 -0.32979877\N,0,-1.41436156,0.82424976,0.71854789\C,0,-0.90875611,-0.4
 4530839,1.15753425\C,0,-0.82018403,-1.51938401,0.32784222\N,0,-0.33808
 859,-2.19849744,-0.52226326\H,0,1.35051174,-0.20833615,-1.7911358\H,0,
 2.5098993,-0.60435332,-0.42434697\H,0,0.7168737,-1.50723123,-0.6925916

 Normal termination of Gaussian 16 at Wed Apr  9 19:04:03 2025.
