 Gaussian 16, Revision C.01,

 ----------------------------------------------------------------------
 #t hf aug-cc-pvdz symm=none int=(grid=ultrafine) guess=(read,tcheck) s
 table=(opt,rrhf)
 ----------------------------------------------------------------------
 -----
 title
 -----
 Symbolic Z-matrix:
 Charge =  0 Multiplicity = 1

 SCF Done:  E(RHF) =  -284.847701837     A.U. after   15 cycles
 Normal termination of Gaussian 16 at Wed Apr  9 03:21:02 2025.
 Gaussian 16:  ES64L-G16RevC.01  3-Jul-2019

 ----------------------------------------------------------------------
 #t hf aug-cc-pvdz iop(5/13=1,5/36=2,99/5=2) pseudo=read geom=check gue
 ss=(read,tcheck) scf=(maxcycle=1)
 ----------------------------------------------------------------------
 -----
 title
 -----
 Structure from the checkpoint file:  "Grambow2020_wb97xd3_006082_forward_mol2.chk"
 Charge =  0 Multiplicity = 1

                         Standard orientation:
 ---------------------------------------------------------------------
 Center     Atomic      Atomic             Coordinates (Angstroms)
 Number     Number       Type             X           Y           Z
 ---------------------------------------------------------------------
      1          6           0        1.630582   -1.173431   -0.053738
      2          6           0        1.148921    0.166442    0.430203
      3          7           0        0.779227    1.156473   -0.557524
      4          6           0       -0.265433    0.635778    0.324876
      5          6           0       -1.308657   -0.195681   -0.329745
      6          8           0       -2.375085   -0.429882    0.170401
      7          1           0        1.150881   -1.452834   -0.990894
      8          1           0        1.429025   -1.948701    0.687761
      9          1           0        2.707671   -1.141186   -0.227686
     10          1           0        1.655581    0.530266    1.320824
     11          1           0        1.046641    2.093428   -0.286394
     12          1           0       -0.638601    1.252350    1.136020
     13          1           0       -1.037585   -0.588226   -1.329757
 ---------------------------------------------------------------------

 SCF Done:  E(RHF) =  -286.151514321     A.U. after    2 cycles

 The electronic state is 1-A.
 Alpha  occ. eigenvalues --  -21.06238 -15.75421 -11.51404 -11.48301 -11.41890
 Alpha  occ. eigenvalues --  -11.38968  -1.71290  -1.48018  -1.10074  -1.01177
 Alpha  occ. eigenvalues --   -0.88019  -0.80371  -0.73160  -0.63454  -0.59040
 Alpha  occ. eigenvalues --   -0.57255  -0.53635  -0.50976  -0.49422  -0.45037
 Alpha  occ. eigenvalues --   -0.41920  -0.36026  -0.29253
 Alpha virt. eigenvalues --    0.03559   0.05082   0.05172   0.05691   0.06109
 Alpha virt. eigenvalues --    0.06487   0.07546   0.10762   0.11078   0.12493
 Alpha virt. eigenvalues --    0.13001   0.13876   0.14140   0.14867   0.15549

 Mulliken charges:
               1
     1  C   -3.955927
     2  C    0.232757
     3  N   -1.958389
     4  C   -0.964373
     5  C    1.240167
     6  O   -2.956429
     7  H    1.295435
     8  H    1.255293
     9  H    1.063027
    10  H    1.386457
    11  H    0.614986
    12  H    1.335489
    13  H    1.411506
 Sum of Mulliken charges =   0.00000

 Dipole moment (field-independent basis, Debye):
    X=              1.9810    Y=              0.8115    Z=              0.8436  Tot=              2.3010

 Test job not archived.
 1\1\GINC-SE456\SP\RHF\Aug-CC-pVDZ\C4H7N1O1\OHZDE\09-Apr-2025\0\\#t hf
 aug-cc-pvdz iop(5/13=1,5/36=2,99/5=2) pseudo=read geom=check guess=(re
 ad,tcheck) scf=(maxcycle=1)\\title\\0,1\C,0,-0.94362106,-0.39930983,1.
 23401942\C,0,-0.39166189,-0.73543712,-0.12385165\N,0,-0.68221137,0.162
 34164,-1.22021548\C,0,0.7096123,0.02211481,-0.79099414\C,0,1.31464344,
 1.22304673,-0.15864066\O,0,2.49945929,1.38029948,-0.04138786\H,0,-1.00
 966708,0.67807738,1.38001629\H,0,-0.31785887,-0.82195063,2.02223588\H,
 0,-1.94860614,-0.81188473,1.33987281\H,0,-0.37993662,-1.79834985,-0.35

 Normal termination of Gaussian 16 at Wed Apr  9 03:21:05 2025.
