 Gaussian 16, Revision C.01,

 ----------------------------------------------------------------------
 #t hf aug-cc-pvdz symm=none int=(grid=ultrafine) guess=(read,tcheck) s
 table=(opt,rrhf)
 ----------------------------------------------------------------------
 -----
 title
 -----
 Symbolic Z-matrix:
 Charge =  0 Multiplicity = 1

 SCF Done:  E(RHF) =  -322.674430939     A.U. after   14 cycles
 Normal termination of Gaussian 16 at Wed Apr  9 18:38:26 2025.
 Gaussian 16:  ES64L-G16RevC.01  3-Jul-2019

 ----------------------------------------------------------------------
 #t hf aug-cc-pvdz iop(5/13=1,5/36=2,99/5=2) pseudo=read geom=check gue
 ss=(read,tcheck) scf=(maxcycle=1)
 ----------------------------------------------------------------------
 -----
 title
 -----
 Structure from the checkpoint file:  "Grambow2020_wb97xd3_007346_reverse_mol2.chk"
 Charge =  0 Multiplicity = 1

                         Standard orientation:
 ---------------------------------------------------------------------
 Center     Atomic      Atomic             Coordinates (Angstroms)
 Number     Number       Type             X           Y           Z
 ---------------------------------------------------------------------
      1          8           0       -3.296703   -0.930335    0.440312
      2          6           0       -2.724368   -0.009372    0.035345
      3          6           0       -2.068550    1.024642   -0.419228
      4          7           0        1.134753    0.606120    0.276371
      5          6           0        2.543700    0.375901    0.689417
      6          6           0        2.641895   -0.743495   -0.376708
      7          6           0        1.221929   -0.318850   -0.601376
      8          1           0       -1.089373    1.244519   -0.006801
      9          1           0       -2.515978    1.635134   -1.188150
     10          1           0        2.628167    0.056011    1.728456
     11          1           0        3.175376    1.249749    0.526130
     12          1           0        2.785253   -1.757485   -0.001781
     13          1           0        3.330285   -0.564087   -1.203302
     14          1           0        0.428988   -0.636951   -1.276342
 ---------------------------------------------------------------------

 SCF Done:  E(RHF) =  -324.153286699     A.U. after    2 cycles

 The electronic state is 1-A.
 Alpha  occ. eigenvalues --  -21.12511 -15.73487 -11.53272 -11.45591 -11.43163
 Alpha  occ. eigenvalues --  -11.38304 -11.37915  -1.76322  -1.47332  -1.11096
 Alpha  occ. eigenvalues --   -1.04317  -0.96652  -0.75772  -0.71372  -0.67659
 Alpha  occ. eigenvalues --   -0.66681  -0.62291  -0.57497  -0.55005  -0.54725
 Alpha  occ. eigenvalues --   -0.52630  -0.46188  -0.44893  -0.39912  -0.36844
 Alpha  occ. eigenvalues --   -0.28128
 Alpha virt. eigenvalues --    0.03443   0.04772   0.05541   0.05792   0.06186
 Alpha virt. eigenvalues --    0.06563   0.07944   0.09122   0.09528   0.11040
 Alpha virt. eigenvalues --    0.11672   0.12603   0.13286   0.13641   0.13757

 Mulliken charges:
               1
     1  O   -2.384939
     2  C    1.713848
     3  C   -2.310290
     4  N   -2.260987
     5  C   -2.191663
     6  C   -3.340074
     7  C    1.115901
     8  H    1.638325
     9  H    1.251477
    10  H    1.458290
    11  H    1.446083
    12  H    1.141560
    13  H    1.132798
    14  H    1.589672
 Sum of Mulliken charges =  -0.00000

 Dipole moment (field-independent basis, Debye):
    X=              1.7073    Y=             -1.4725    Z=             -0.5648  Tot=              2.3242

 Test job not archived.
 1\1\GINC-SE035\SP\RHF\Aug-CC-pVDZ\C5H7N1O1\OHZDE\09-Apr-2025\0\\#t hf
 aug-cc-pvdz iop(5/13=1,5/36=2,99/5=2) pseudo=read geom=check guess=(re
 ad,tcheck) scf=(maxcycle=1)\\title\\0,1\O,0,3.23139413,2.31501311,0.80
 612031\C,0,2.9667077,1.19164073,0.89395027\C,0,2.65744082,-0.07375095,
 0.98911932\N,0,-0.5812154,-0.39365228,0.41559344\C,0,-2.05328282,-0.44
 2512,0.21717207\C,0,-1.83134243,-0.12877811,-1.28336932\C,0,-0.4046029
 9,-0.13466878,-0.82349561\H,0,1.62328499,-0.34622752,1.17216776\H,0,3.
 43518295,-0.81466383,0.88763274\H,0,-2.57862388,0.3200692,0.79297778\H

 Normal termination of Gaussian 16 at Wed Apr  9 18:38:30 2025.
