 Gaussian 16, Revision C.01,

 ----------------------------------------------------------------------
 #t hf aug-cc-pvdz symm=none int=(grid=ultrafine) guess=(read,tcheck) s
 table=(opt,rrhf)
 ----------------------------------------------------------------------
 -----
 title
 -----
 Symbolic Z-matrix:
 Charge =  0 Multiplicity = 1

 SCF Done:  E(RHF) =  -320.399330243     A.U. after   16 cycles
 Normal termination of Gaussian 16 at Wed Apr  9 18:46:19 2025.
 Gaussian 16:  ES64L-G16RevC.01  3-Jul-2019

 ----------------------------------------------------------------------
 #t hf aug-cc-pvdz iop(5/13=1,5/36=2,99/5=2) pseudo=read geom=check gue
 ss=(read,tcheck) scf=(maxcycle=1)
 ----------------------------------------------------------------------
 -----
 title
 -----
 Structure from the checkpoint file:  "Grambow2020_wb97xd3_007650_forward_mol2.chk"
 Charge =  0 Multiplicity = 1

                         Standard orientation:
 ---------------------------------------------------------------------
 Center     Atomic      Atomic             Coordinates (Angstroms)
 Number     Number       Type             X           Y           Z
 ---------------------------------------------------------------------
      1          7           0       -2.930152    0.022012    0.000437
      2          6           0       -1.781730    0.013088   -0.000236
      3          6           0       -0.359690    0.012395   -0.000622
      4          6           0        0.441875   -1.083169   -0.000515
      5          8           0        1.728868   -0.712940    0.000120
      6          6           0        1.763140    0.642818    0.000378
      7          6           0        0.515297    1.149800   -0.000021
      8          1           0        0.234099   -2.139637    0.001927
      9          1           0        2.742097    1.090994    0.000151
     10          1           0        0.230576    2.188490   -0.000008
 ---------------------------------------------------------------------

 SCF Done:  E(RHF) =  -321.824671285     A.U. after    2 cycles

 The electronic state is 1-A.
 Alpha  occ. eigenvalues --  -21.15284 -15.76510 -11.52087 -11.47759 -11.46775
 Alpha  occ. eigenvalues --  -11.44781 -11.41290  -1.89244  -1.33281  -1.22970
 Alpha  occ. eigenvalues --   -1.10303  -0.89812  -0.84066  -0.79930  -0.62054
 Alpha  occ. eigenvalues --   -0.62001  -0.59380  -0.57371  -0.52068  -0.48959
 Alpha  occ. eigenvalues --   -0.48190  -0.42979  -0.36159  -0.34128
 Alpha virt. eigenvalues --    0.02695   0.04682   0.06061   0.08267   0.08882
 Alpha virt. eigenvalues --    0.09480   0.09627   0.10795   0.12398   0.12737
 Alpha virt. eigenvalues --    0.13003   0.13245   0.14004   0.14524   0.15593

 Mulliken charges:
               1
     1  N   -2.513599
     2  C    2.080537
     3  C    3.794517
     4  C   -0.434893
     5  O   -3.900200
     6  C    0.103144
     7  C   -3.145305
     8  H    1.398380
     9  H    1.395590
    10  H    1.221829
 Sum of Mulliken charges =  -0.00000

 Dipole moment (field-independent basis, Debye):
    X=              4.1486    Y=             -0.0487    Z=              0.0017  Tot=              4.1488

 Test job not archived.
 1\1\GINC-SE454\SP\RHF\Aug-CC-pVDZ\C5H3N1O1\OHZDE\09-Apr-2025\0\\#t hf
 aug-cc-pvdz iop(5/13=1,5/36=2,99/5=2) pseudo=read geom=check guess=(re
 ad,tcheck) scf=(maxcycle=1)\\title\\0,1\N,0,3.13189449,-0.58395226,-0.
 16319079\C,0,2.01347673,-0.3326492,-0.0928938\C,0,0.6263144,-0.0312871
 4,-0.00828295\C,0,0.08493083,1.16306301,0.34271406\O,0,-1.25194828,1.0
 8857863,0.31763106\C,0,-1.58313638,-0.17260829,-0.055166\C,0,-0.477106
 73,-0.9105751,-0.27021335\H,0,0.51964887,2.10681251,0.62495241\H,0,-2.
 6366174,-0.38488614,-0.12100694\H,0,-0.42745654,-1.94249604,-0.5745437

 Normal termination of Gaussian 16 at Wed Apr  9 18:46:22 2025.
