 Gaussian 16, Revision C.01,

 ----------------------------------------------------------------------
 #t hf aug-cc-pvdz symm=none int=(grid=ultrafine) guess=(read,tcheck) s
 table=(opt,rrhf)
 ----------------------------------------------------------------------
 -----
 title
 -----
 Symbolic Z-matrix:
 Charge =  0 Multiplicity = 1

 SCF Done:  E(RHF) =  -306.714713946     A.U. after   15 cycles
 Normal termination of Gaussian 16 at Wed Apr  9 19:10:00 2025.
 Gaussian 16:  ES64L-G16RevC.01  3-Jul-2019

 ----------------------------------------------------------------------
 #t hf aug-cc-pvdz iop(5/13=1,5/36=2,99/5=2) pseudo=read geom=check gue
 ss=(read,tcheck) scf=(maxcycle=1)
 ----------------------------------------------------------------------
 -----
 title
 -----
 Structure from the checkpoint file:  "Grambow2020_wb97xd3_008213_reverse_mol2.chk"
 Charge =  0 Multiplicity = 1

                         Standard orientation:
 ---------------------------------------------------------------------
 Center     Atomic      Atomic             Coordinates (Angstroms)
 Number     Number       Type             X           Y           Z
 ---------------------------------------------------------------------
      1          6           0       -2.916036   -0.306068   -0.316185
      2          8           0        1.663053   -1.359378    0.181090
      3          6           0        2.161624   -0.311097   -0.151027
      4          6           0        1.440004    0.956663   -0.359358
      5          6           0        0.195701    1.215740    0.049094
      6          6           0       -0.739887    0.292363    0.771860
      7          6           0       -1.604845   -0.450883   -0.211150
      8          1           0       -3.465611    0.374319    0.326245
      9          1           0       -3.489764   -0.868896   -1.042296
     10          1           0        3.254547   -0.254349   -0.329266
     11          1           0        2.003832    1.735586   -0.862437
     12          1           0       -0.205513    2.200142   -0.179014
     13          1           0       -0.173021   -0.430484    1.359697
     14          1           0       -1.372280    0.877719    1.442866
     15          1           0       -1.075983   -1.139318   -0.863915
 ---------------------------------------------------------------------

 SCF Done:  E(RHF) =  -308.143581899     A.U. after    2 cycles

 The electronic state is 1-A.
 Alpha  occ. eigenvalues --  -21.05783 -11.49189 -11.46397 -11.43283 -11.40412
 Alpha  occ. eigenvalues --  -11.39100 -11.37022  -1.70953  -1.26949  -1.14374
 Alpha  occ. eigenvalues --   -1.01834  -0.90077  -0.79677  -0.74901  -0.69223
 Alpha  occ. eigenvalues --   -0.63585  -0.59601  -0.57180  -0.53505  -0.51528
 Alpha  occ. eigenvalues --   -0.49057  -0.47667  -0.46439  -0.35662  -0.33334
 Alpha  occ. eigenvalues --   -0.29241
 Alpha virt. eigenvalues --    0.03472   0.05019   0.05215   0.05606   0.05829
 Alpha virt. eigenvalues --    0.06434   0.07750   0.07845   0.08763   0.10128
 Alpha virt. eigenvalues --    0.11791   0.12136   0.12856   0.13431   0.13995

 Mulliken charges:
               1
     1  C   -3.534874
     2  O   -2.943708
     3  C    0.718985
     4  C   -1.484825
     5  C    0.274537
     6  C   -4.233589
     7  C   -0.024542
     8  H    1.431546
     9  H    1.357743
    10  H    1.466235
    11  H    1.464248
    12  H    1.366915
    13  H    1.548439
    14  H    1.121656
    15  H    1.471233
 Sum of Mulliken charges =  -0.00000

 Dipole moment (field-independent basis, Debye):
    X=             -0.3389    Y=              1.1258    Z=              0.0018  Tot=              1.1757

 Test job not archived.
 1\1\GINC-SE115\SP\RHF\Aug-CC-pVDZ\C6H8O1\OHZDE\09-Apr-2025\0\\#t hf au
 g-cc-pvdz iop(5/13=1,5/36=2,99/5=2) pseudo=read geom=check guess=(read
 ,tcheck) scf=(maxcycle=1)\\title\\0,1\C,0,-1.96835411,1.10171049,-1.45
 887615\O,0,0.02978974,-0.99532613,2.27403984\C,0,1.01794045,-1.4577749
 7,1.75686911\C,0,1.50246279,-1.15008252,0.39969653\C,0,1.09865399,-0.1
 2391013,-0.35273396\C,0,0.06712873,0.91011057,-0.01053744\C,0,-1.28797
 927,0.48208804,-0.50788449\H,0,-1.58061549,1.98923863,-1.94839333\H,0,
 -2.94206581,0.74981837,-1.77704829\H,0,1.6418338,-2.1844399,2.31560451

 Normal termination of Gaussian 16 at Wed Apr  9 19:10:05 2025.
