 Gaussian 16, Revision C.01,

 ----------------------------------------------------------------------
 #t hf aug-cc-pvdz symm=none int=(grid=ultrafine) guess=(read,tcheck) s
 table=(opt,rrhf)
 ----------------------------------------------------------------------
 -----
 title
 -----
 Symbolic Z-matrix:
 Charge =  0 Multiplicity = 1

 SCF Done:  E(RHF) =  -337.381447311     A.U. after   13 cycles
 Normal termination of Gaussian 16 at Wed Apr  9 19:33:57 2025.
 Gaussian 16:  ES64L-G16RevC.01  3-Jul-2019

 ----------------------------------------------------------------------
 #t hf aug-cc-pvdz iop(5/13=1,5/36=2,99/5=2) pseudo=read geom=check gue
 ss=(read,tcheck) scf=(maxcycle=1)
 ----------------------------------------------------------------------
 -----
 title
 -----
 Structure from the checkpoint file:  "Grambow2020_wb97xd3_009446_reverse_mol2.chk"
 Charge =  0 Multiplicity = 1

                         Standard orientation:
 ---------------------------------------------------------------------
 Center     Atomic      Atomic             Coordinates (Angstroms)
 Number     Number       Type             X           Y           Z
 ---------------------------------------------------------------------
      1          7           0        1.051284    0.000101   -1.108078
      2          6           0        0.750897    0.758889   -0.000374
      3          6           0       -0.709716    1.235303    0.004479
      4          8           0       -1.426813    0.000785   -0.006175
      5          6           0       -0.711234   -1.234337    0.004057
      6          6           0        0.749681   -0.759689   -0.002091
      7          7           0        1.055070   -0.001285    1.104613
      8          1           0       -0.952122    1.803668   -0.891943
      9          1           0       -0.949077    1.789784    0.910463
     10          1           0       -0.949989   -1.789213    0.910093
     11          1           0       -0.956545   -1.803223   -0.891391
 ---------------------------------------------------------------------

 SCF Done:  E(RHF) =  -338.858996436     A.U. after    2 cycles

 The electronic state is 1-A.
 Alpha  occ. eigenvalues --  -21.08156 -15.76293 -15.76175 -11.55133 -11.52394
 Alpha  occ. eigenvalues --  -11.47948 -11.45521  -1.82264  -1.61674  -1.22689
 Alpha  occ. eigenvalues --   -1.13816  -0.98681  -0.84838  -0.78172  -0.67496
 Alpha  occ. eigenvalues --   -0.67115  -0.64949  -0.56985  -0.52876  -0.48736
 Alpha  occ. eigenvalues --   -0.47522  -0.43148  -0.42010  -0.33668  -0.30395
 Alpha virt. eigenvalues --    0.03428   0.05219   0.05901   0.06545   0.07139
 Alpha virt. eigenvalues --    0.08685   0.09088   0.10418   0.10755   0.10870
 Alpha virt. eigenvalues --    0.12464   0.13042   0.13087   0.14357   0.16502

 Mulliken charges:
               1
     1  N   -2.239281
     2  C    1.683519
     3  C   -0.969198
     4  O   -2.761442
     5  C   -0.966502
     6  C    1.684146
     7  N   -2.236278
     8  H    1.452186
     9  H    1.450545
    10  H    1.450146
    11  H    1.452158
 Sum of Mulliken charges =   0.00000

 Dipole moment (field-independent basis, Debye):
    X=             -2.0763    Y=              0.0017    Z=              0.0134  Tot=              2.0764

 Test job not archived.
 1\1\GINC-SE220\SP\RHF\Aug-CC-pVDZ\C4H4N2O1\OHZDE\09-Apr-2025\0\\#t hf
 aug-cc-pvdz iop(5/13=1,5/36=2,99/5=2) pseudo=read geom=check guess=(re
 ad,tcheck) scf=(maxcycle=1)\\title\\0,1\N,0,0.82138292,-0.21661465,1.4
 9150904\C,0,0.76906859,0.8132032,0.58060994\C,0,0.93601656,0.32420095,
 -0.86624421\O,0,-0.16790232,-0.56989615,-1.00882323\C,0,-1.07079199,-0
 .76015137,0.08034147\C,0,-0.46413601,0.14519376,1.16289442\N,0,-0.4260
 1461,1.46509333,0.77605557\H,0,1.86690648,-0.22375224,-1.00249024\H,0,
 0.84043541,1.14051452,-1.58042113\H,0,-2.06777115,-0.43012481,-0.20759

 Normal termination of Gaussian 16 at Wed Apr  9 19:34:01 2025.
