 Gaussian 16, Revision C.01,

 ----------------------------------------------------------------------
 #t hf aug-cc-pvdz symm=none int=(grid=ultrafine) guess=(read,tcheck) s
 table=(opt,rrhf)
 ----------------------------------------------------------------------
 -----
 title
 -----
 Symbolic Z-matrix:
 Charge =  0 Multiplicity = 1

 SCF Done:  E(RHF) =  -358.583721989     A.U. after   15 cycles
 Normal termination of Gaussian 16 at Wed Apr  9 04:04:32 2025.
 Gaussian 16:  ES64L-G16RevC.01  3-Jul-2019

 ----------------------------------------------------------------------
 #t hf aug-cc-pvdz iop(5/13=1,5/36=2,99/5=2) pseudo=read geom=check gue
 ss=(read,tcheck) scf=(maxcycle=1)
 ----------------------------------------------------------------------
 -----
 title
 -----
 Structure from the checkpoint file:  "Grambow2020_wb97xd3_009147_reverse_mol2.chk"
 Charge =  0 Multiplicity = 1

                         Standard orientation:
 ---------------------------------------------------------------------
 Center     Atomic      Atomic             Coordinates (Angstroms)
 Number     Number       Type             X           Y           Z
 ---------------------------------------------------------------------
      1          6           0        1.761159   -1.152652   -0.756273
      2          6           0        1.149480   -0.192436    0.222037
      3          6           0        0.849591    1.186643   -0.332062
      4          8           0       -0.079644    1.859056    0.005423
      5          6           0       -2.075129   -0.658640   -0.504686
      6          8           0       -3.003214   -0.399541    0.071048
      7          7           0        0.875188   -0.398844    1.437407
      8          1           0        2.691022   -0.748807   -1.164043
      9          1           0        1.970323   -2.114169   -0.288890
     10          1           0        1.079330   -1.311428   -1.595947
     11          1           0        1.558513    1.540997   -1.110799
     12          1           0        1.126756   -1.348296    1.711968
 ---------------------------------------------------------------------

 SCF Done:  E(RHF) =  -360.143353246     A.U. after    2 cycles

 The electronic state is 1-A.
 Alpha  occ. eigenvalues --  -21.16973 -21.07997 -15.75999 -11.50149 -11.49702
 Alpha  occ. eigenvalues --  -11.46025 -11.40211  -1.79780  -1.72614  -1.37427
 Alpha  occ. eigenvalues --   -1.10915  -0.95505  -0.77816  -0.71383  -0.65485
 Alpha  occ. eigenvalues --   -0.62592  -0.61211  -0.57840  -0.52262  -0.52112
 Alpha  occ. eigenvalues --   -0.51692  -0.51130  -0.47406  -0.40585  -0.40270
 Alpha  occ. eigenvalues --   -0.30241
 Alpha virt. eigenvalues --    0.02950   0.05004   0.05338   0.05668   0.06895
 Alpha virt. eigenvalues --    0.08597   0.09754   0.10027   0.11003   0.11582
 Alpha virt. eigenvalues --    0.12662   0.13838   0.14078   0.15088   0.15369

 Mulliken charges:
               1
     1  C   -3.882801
     2  C    2.358895
     3  C    1.691715
     4  O   -2.709583
     5  C    0.938955
     6  O   -1.090467
     7  N   -3.357795
     8  H    1.200236
     9  H    1.300702
    10  H    1.370621
    11  H    1.497173
    12  H    0.682350
 Sum of Mulliken charges =  -0.00000

 Dipole moment (field-independent basis, Debye):
    X=              0.2106    Y=             -1.3812    Z=             -0.6231  Tot=              1.5298

 Test job not archived.
 1\1\GINC-SE041\SP\RHF\Aug-CC-pVDZ\C4H5N1O2\OHZDE\09-Apr-2025\0\\#t hf
 aug-cc-pvdz iop(5/13=1,5/36=2,99/5=2) pseudo=read geom=check guess=(re
 ad,tcheck) scf=(maxcycle=1)\\title\\0,1\C,0,-1.33683585,-0.43252685,-0
 .46475077\C,0,0.09965729,-0.03280376,-0.63785667\C,0,0.40350544,1.4216
 1011,-0.33590461\O,0,1.42846306,1.80871513,0.14276449\C,0,1.14916479,-
 0.40569612,2.50905691\O,0,2.18486323,-0.49239019,2.93303414\N,0,1.0626
 9236,-0.75809244,-1.01399985\H,0,-1.98691056,0.18042755,-1.09379884\H,
 0,-1.48907431,-1.48104053,-0.71803802\H,0,-1.64365596,-0.27383357,0.57

 Normal termination of Gaussian 16 at Wed Apr  9 04:04:37 2025.
