 Gaussian 16, Revision C.01,

 ----------------------------------------------------------------------
 #t hf aug-cc-pvdz symm=none int=(grid=ultrafine) guess=(read,tcheck) s
 table=(opt,rrhf)
 ----------------------------------------------------------------------
 -----
 title
 -----
 Symbolic Z-matrix:
 Charge =  0 Multiplicity = 1

 SCF Done:  E(RHF) =  -269.897076398     A.U. after   14 cycles

 1\1\GINC-SE229\Stability\RHF\Aug-CC-pVDZ\C5H10O1\OHZDE\09-Apr-2025\0\\
 #t hf aug-cc-pvdz symm=none int=(grid=ultrafine) guess=(read,tcheck) s
 table=(opt,rrhf)\\title\\0,1\C,0,-2.28668225,0.09331485,0.05272936\C,0
 ,-1.19637648,-0.55100167,-0.78695167\O,0,-0.25421829,0.4818288,-1.1863
 4676\C,0,0.5605559,-0.09179851,-0.17096135\C,0,1.78658582,-0.75202614,
 -0.7813526\C,0,0.77837838,0.792146,1.04017687\H,0,-3.01151766,0.421270
 86,-0.71539383\H,0,-2.02073586,0.99006101,0.63535608\H,0,-2.80024089,-
 0.64718045,0.68031145\H,0,-0.15785025,-1.04715633,0.10295041\H,0,1.467

 Normal termination of Gaussian 16 at Wed Apr  9 17:12:26 2025.
 Gaussian 16:  ES64L-G16RevC.01  3-Jul-2019

 ----------------------------------------------------------------------
 #t hf aug-cc-pvdz iop(5/13=1,5/36=2,99/5=2) pseudo=read geom=check gue
 ss=(read,tcheck) scf=(maxcycle=1)
 ----------------------------------------------------------------------
 -----
 title
 -----
 Structure from the checkpoint file:  "Grambow2020_b97d3_007063_reverse_mol1.chk"
 Charge =  0 Multiplicity = 1

                         Standard orientation:
 ---------------------------------------------------------------------
 Center     Atomic      Atomic             Coordinates (Angstroms)
 Number     Number       Type             X           Y           Z
 ---------------------------------------------------------------------
      1          6           0        2.221302    0.138552   -0.222249
      2          6           0        1.056961   -0.836427   -0.274211
      3          8           0        0.198583   -0.587478    0.872580
      4          6           0       -0.636128    0.044919   -0.090356
      5          6           0       -1.930953   -0.732488   -0.265554
      6          6           0       -0.743637    1.549152    0.055882
      7          1           0        2.951489   -0.401316    0.408881
      8          1           0        2.050367    1.113904    0.261284
      9          1           0        2.684498    0.263480   -1.210064
     10          1           0        0.002897   -0.256871   -1.092560
     11          1           0       -1.696719   -1.773849   -0.518542
     12          1           0       -2.476664   -0.721358    0.688617
     13          1           0       -2.565896   -0.296838   -1.048269
     14          1           0       -1.340106    1.972567   -0.764024
     15          1           0        0.239540    2.032972    0.065961
     16          1           0       -1.243346    1.784895    1.007008
 ---------------------------------------------------------------------

 SCF Done:  E(RHF) =  -271.213758508     A.U. after    2 cycles

 The electronic state is 1-A.
 Alpha  occ. eigenvalues --  -21.05471 -11.50128 -11.44577 -11.40852 -11.38047
 Alpha  occ. eigenvalues --  -11.37538  -1.77695  -1.17636  -1.09866  -1.02995
 Alpha  occ. eigenvalues --   -0.87640  -0.78739  -0.64107  -0.62171  -0.61095
 Alpha  occ. eigenvalues --   -0.56788  -0.55570  -0.55085  -0.51780  -0.49104
 Alpha  occ. eigenvalues --   -0.45744  -0.41960  -0.37250  -0.25650
 Alpha virt. eigenvalues --    0.03657   0.05163   0.05266   0.05620   0.05901
 Alpha virt. eigenvalues --    0.06270   0.06632   0.07510   0.08069   0.09336
 Alpha virt. eigenvalues --    0.11299   0.12469   0.13501   0.13538   0.14362

 Mulliken charges:
               1
     1  C   -3.742674
     2  C   -0.342562
     3  O   -2.874508
     4  C    1.297405
     5  C   -4.011019
     6  C   -4.218307
     7  H    1.249802
     8  H    1.480288
     9  H    1.269697
    10  H    2.472359
    11  H    1.239060
    12  H    1.215140
    13  H    1.182686
    14  H    1.156862
    15  H    1.409795
    16  H    1.215975
 Sum of Mulliken charges =   0.00000

 Dipole moment (field-independent basis, Debye):
    X=             -1.2529    Y=              1.9113    Z=              0.4876  Tot=              2.3368

 Test job not archived.
 1\1\GINC-SE229\SP\RHF\Aug-CC-pVDZ\C5H10O1\OHZDE\09-Apr-2025\0\\#t hf a
 ug-cc-pvdz iop(5/13=1,5/36=2,99/5=2) pseudo=read geom=check guess=(rea
 d,tcheck) scf=(maxcycle=1)\\title\\0,1\C,0,-2.28668225,0.09331485,0.05
 272936\C,0,-1.19637648,-0.55100167,-0.78695167\O,0,-0.25421829,0.48182
 88,-1.18634676\C,0,0.5605559,-0.09179851,-0.17096135\C,0,1.78658582,-0
 .75202614,-0.7813526\C,0,0.77837838,0.792146,1.04017687\H,0,-3.0115176
 6,0.42127086,-0.71539383\H,0,-2.02073586,0.99006101,0.63535608\H,0,-2.
 80024089,-0.64718045,0.68031145\H,0,-0.15785025,-1.04715633,0.10295041

 Normal termination of Gaussian 16 at Wed Apr  9 17:12:31 2025.
