 Gaussian 16, Revision C.01,

 ----------------------------------------------------------------------
 #t hf aug-cc-pvdz symm=none int=(grid=ultrafine) guess=(read,tcheck) s
 table=(opt,rrhf)
 ----------------------------------------------------------------------
 -----
 title
 -----
 Symbolic Z-matrix:
 Charge =  0 Multiplicity = 1

 SCF Done:  E(RHF) =  -302.911040141     A.U. after   14 cycles
 Normal termination of Gaussian 16 at Wed Apr  9 19:24:11 2025.
 Gaussian 16:  ES64L-G16RevC.01  3-Jul-2019

 ----------------------------------------------------------------------
 #t hf aug-cc-pvdz iop(5/13=1,5/36=2,99/5=2) pseudo=read geom=check gue
 ss=(read,tcheck) scf=(maxcycle=1)
 ----------------------------------------------------------------------
 -----
 title
 -----
 Structure from the checkpoint file:  "Grambow2020_wb97xd3_008877_reverse_mol2.chk"
 Charge =  0 Multiplicity = 1

                         Standard orientation:
 ---------------------------------------------------------------------
 Center     Atomic      Atomic             Coordinates (Angstroms)
 Number     Number       Type             X           Y           Z
 ---------------------------------------------------------------------
      1          6           0        0.305753    1.912449   -0.428347
      2          7           0       -1.517673    0.442631    0.301976
      3          6           0       -1.598888   -0.772819   -0.097324
      4          6           0       -0.328891   -1.457623   -0.267680
      5          6           0        0.613913   -0.552993    0.070276
      6          7           0        1.974782   -0.649329    0.048040
      7          6           0       -0.095964    0.726846    0.440439
      8          1           0       -0.277027    2.788771   -0.147479
      9          1           0        1.367194    2.144786   -0.320147
     10          1           0        0.107375    1.685187   -1.476807
     11          1           0       -2.567572   -1.230334   -0.281675
     12          1           0       -0.186760   -2.476610   -0.596814
     13          1           0        2.382409   -1.563998   -0.026203
     14          1           0        2.502220    0.002325    0.599892
     15          1           0        0.096853    0.961600    1.494931
 ---------------------------------------------------------------------

 SCF Done:  E(RHF) =  -304.364094685     A.U. after    2 cycles

 The electronic state is 1-A.
 Alpha  occ. eigenvalues --  -15.77862 -15.69402 -11.49014 -11.42726 -11.41939
 Alpha  occ. eigenvalues --  -11.38873 -11.35671  -1.47673  -1.34184  -1.12144
 Alpha  occ. eigenvalues --   -1.07609  -0.94230  -0.78802  -0.78295  -0.70267
 Alpha  occ. eigenvalues --   -0.66958  -0.62322  -0.57175  -0.54125  -0.52730
 Alpha  occ. eigenvalues --   -0.48540  -0.46256  -0.44775  -0.41010  -0.35292
 Alpha  occ. eigenvalues --   -0.27178
 Alpha virt. eigenvalues --    0.03263   0.04853   0.05060   0.05868   0.06154
 Alpha virt. eigenvalues --    0.06823   0.07241   0.08172   0.10741   0.11621
 Alpha virt. eigenvalues --    0.11939   0.12089   0.12847   0.13492   0.14065

 Mulliken charges:
               1
     1  C   -3.795654
     2  N   -3.192423
     3  C    0.028516
     4  C   -2.886974
     5  C    5.186136
     6  N   -3.755207
     7  C   -0.924108
     8  H    1.177740
     9  H    1.188250
    10  H    1.226937
    11  H    1.498677
    12  H    1.336697
    13  H    0.714343
    14  H    0.766667
    15  H    1.430404
 Sum of Mulliken charges =   0.00000

 Dipole moment (field-independent basis, Debye):
    X=              3.1706    Y=             -1.1371    Z=              0.3424  Tot=              3.3857

 Test job not archived.
 1\1\GINC-SE026\SP\RHF\Aug-CC-pVDZ\C5H8N2\OHZDE\09-Apr-2025\0\\#t hf au
 g-cc-pvdz iop(5/13=1,5/36=2,99/5=2) pseudo=read geom=check guess=(read
 ,tcheck) scf=(maxcycle=1)\\title\\0,1\C,0,1.36790294,1.10916324,0.4818
 9349\N,0,1.22691208,-1.0171136,-0.73370809\C,0,0.36731682,-1.91386264,
 -0.4170175\C,0,-0.91973758,-1.41073264,0.03156093\C,0,-0.81878576,-0.0
 6617739,-0.02698864\N,0,-1.71543526,0.90029769,0.32470028\C,0,0.573689
 54,0.26473149,-0.50703597\H,0,2.37658866,1.26847408,0.10290273\H,0,0.8
 9548618,2.07963374,0.64728427\H,0,1.43479754,0.59029048,1.43926866\H,0

 Normal termination of Gaussian 16 at Wed Apr  9 19:24:16 2025.
