 Gaussian 16, Revision C.01,

 ----------------------------------------------------------------------
 #t hf aug-cc-pvdz symm=none int=(grid=ultrafine) guess=(read,tcheck) s
 table=(opt,rrhf)
 ----------------------------------------------------------------------
 -----
 title
 -----
 Symbolic Z-matrix:
 Charge =  0 Multiplicity = 1

 SCF Done:  E(RHF) =  -306.756771456     A.U. after   13 cycles
 Normal termination of Gaussian 16 at Wed Apr  9 03:59:40 2025.
 Gaussian 16:  ES64L-G16RevC.01  3-Jul-2019

 ----------------------------------------------------------------------
 #t hf aug-cc-pvdz iop(5/13=1,5/36=2,99/5=2) pseudo=read geom=check gue
 ss=(read,tcheck) scf=(maxcycle=1)
 ----------------------------------------------------------------------
 -----
 title
 -----
 Structure from the checkpoint file:  "Grambow2020_wb97xd3_008778_reverse_mol2.chk"
 Charge =  0 Multiplicity = 1

                         Standard orientation:
 ---------------------------------------------------------------------
 Center     Atomic      Atomic             Coordinates (Angstroms)
 Number     Number       Type             X           Y           Z
 ---------------------------------------------------------------------
      1          8           0       -2.228556   -0.078427   -0.362393
      2          6           0       -1.092733   -0.000979    0.032425
      3          6           0       -0.291072   -1.206494    0.458749
      4          6           0        1.080013   -1.237353   -0.221213
      5          6           0        1.762522    0.098640   -0.156823
      6          6           0        1.111178    1.238606    0.029173
      7          6           0       -0.382437    1.332288    0.155197
      8          1           0       -0.142819   -1.123011    1.541679
      9          1           0       -0.873105   -2.106125    0.262681
     10          1           0        1.705529   -1.999500    0.249098
     11          1           0        0.971368   -1.543577   -1.267725
     12          1           0       -0.657627    1.756423    1.128916
     13          1           0        2.840769    0.115729   -0.277609
     14          1           0        1.663277    2.171952    0.070204
     15          1           0       -0.803768    2.007277   -0.593153
 ---------------------------------------------------------------------

 SCF Done:  E(RHF) =  -308.194225991     A.U. after    2 cycles

 The electronic state is 1-A.
 Alpha  occ. eigenvalues --  -21.04740 -11.50063 -11.45475 -11.43141 -11.41046
 Alpha  occ. eigenvalues --  -11.39818 -11.36861  -1.70757  -1.30628  -1.12538
 Alpha  occ. eigenvalues --   -1.06712  -0.92072  -0.81283  -0.71742  -0.66989
 Alpha  occ. eigenvalues --   -0.63412  -0.61310  -0.56985  -0.55273  -0.53182
 Alpha  occ. eigenvalues --   -0.51907  -0.46529  -0.43672  -0.39839  -0.34627
 Alpha  occ. eigenvalues --   -0.27283
 Alpha virt. eigenvalues --    0.03127   0.04938   0.05055   0.05304   0.05688
 Alpha virt. eigenvalues --    0.06730   0.07106   0.07277   0.10670   0.12411
 Alpha virt. eigenvalues --    0.12483   0.12940   0.13101   0.13711   0.14008

 Mulliken charges:
               1
     1  O   -3.595844
     2  C    4.915364
     3  C   -3.702191
     4  C   -3.650788
     5  C   -0.053767
     6  C    0.156869
     7  C   -4.617684
     8  H    1.441863
     9  H    1.316284
    10  H    1.144605
    11  H    1.299777
    12  H    1.235923
    13  H    1.450350
    14  H    1.346829
    15  H    1.312410
 Sum of Mulliken charges =  -0.00000

 Dipole moment (field-independent basis, Debye):
    X=              1.6411    Y=             -0.0769    Z=              0.4476  Tot=              1.7028

 Test job not archived.
 1\1\GINC-SE398\SP\RHF\Aug-CC-pVDZ\C6H8O1\OHZDE\09-Apr-2025\0\\#t hf au
 g-cc-pvdz iop(5/13=1,5/36=2,99/5=2) pseudo=read geom=check guess=(read
 ,tcheck) scf=(maxcycle=1)\\title\\0,1\O,0,0.61623962,-2.43842841,0.605
 94552\C,0,0.37342294,-1.35724738,0.13259426\C,0,-1.03062235,-0.8930043
 7,-0.16875791\C,0,-1.30130801,0.49382368,0.41997949\C,0,-0.18323209,1.
 45136013,0.1235434\C,0,1.04673397,1.05989381,-0.1802723\C,0,1.47511195
 ,-0.37893106,-0.22289958\H,0,-1.11847196,-0.83322486,-1.25980984\H,0,-
 1.73573977,-1.64199941,0.18951017\H,0,-2.24176556,0.88333286,0.0235563

 Normal termination of Gaussian 16 at Wed Apr  9 03:59:45 2025.
