 Gaussian 16, Revision C.01,

 ----------------------------------------------------------------------
 #t hf aug-cc-pvdz symm=none int=(grid=ultrafine) guess=(read,tcheck) s
 table=(opt,rrhf)
 ----------------------------------------------------------------------
 -----
 title
 -----
 Symbolic Z-matrix:
 Charge =  0 Multiplicity = 1

 SCF Done:  E(RHF) =  -380.590324640     A.U. after   16 cycles
 Normal termination of Gaussian 16 at Wed Apr  9 19:15:05 2025.
 Gaussian 16:  ES64L-G16RevC.01  3-Jul-2019

 ----------------------------------------------------------------------
 #t hf aug-cc-pvdz iop(5/13=1,5/36=2,99/5=2) pseudo=read geom=check gue
 ss=(read,tcheck) scf=(maxcycle=1)
 ----------------------------------------------------------------------
 -----
 title
 -----
 Structure from the checkpoint file:  "Grambow2020_wb97xd3_008484_reverse_mol1.chk"
 Charge =  0 Multiplicity = 1

                         Standard orientation:
 ---------------------------------------------------------------------
 Center     Atomic      Atomic             Coordinates (Angstroms)
 Number     Number       Type             X           Y           Z
 ---------------------------------------------------------------------
      1          6           0        2.516730    0.891029   -0.121603
      2          8           0        2.029705   -0.394667   -0.549133
      3          6           0        0.972686   -0.916484    0.057404
      4          8           0        0.440755   -0.197101    0.971484
      5          6           0       -0.885420   -0.672137   -0.171514
      6          6           0       -1.775214    0.485146    0.259577
      7          8           0       -2.990388    0.383361   -0.454347
      8          1           0        2.762909    0.885252    0.939538
      9          1           0        3.410183    1.069559   -0.713762
     10          1           0        1.776475    1.668684   -0.310638
     11          1           0       -0.765128   -0.655939   -1.253971
     12          1           0       -1.207032   -1.643901    0.179858
     13          1           0       -1.929184    0.476211    1.340570
     14          1           0       -1.327148    1.439179   -0.014797
     15          1           0       -3.534334   -0.297118   -0.054010
 ---------------------------------------------------------------------

 SCF Done:  E(RHF) =  -382.276565424     A.U. after    2 cycles

 The electronic state is 1-A.
 Alpha  occ. eigenvalues --  -21.09145 -21.07510 -21.07152 -11.50803 -11.43965
 Alpha  occ. eigenvalues --  -11.42392 -11.40512  -1.84335  -1.73586  -1.67310
 Alpha  occ. eigenvalues --   -1.11892  -1.01292  -0.91735  -0.75175  -0.69812
 Alpha  occ. eigenvalues --   -0.65037  -0.63514  -0.60969  -0.58558  -0.56403
 Alpha  occ. eigenvalues --   -0.54871  -0.51546  -0.47575  -0.43081  -0.36639
 Alpha  occ. eigenvalues --   -0.35611  -0.31460  -0.24872
 Alpha virt. eigenvalues --    0.03368   0.04957   0.05332   0.05682   0.06043
 Alpha virt. eigenvalues --    0.06503   0.06997   0.08148   0.09311   0.10527
 Alpha virt. eigenvalues --    0.12328   0.12938   0.14013   0.14855   0.15009

 Mulliken charges:
               1
     1  C   -2.997188
     2  O   -2.709753
     3  C    2.684843
     4  O   -1.619140
     5  C   -1.988022
     6  C   -1.164368
     7  O   -2.555186
     8  H    1.374373
     9  H    1.200998
    10  H    1.324906
    11  H    1.512049
    12  H    1.382542
    13  H    1.433806
    14  H    1.413225
    15  H    0.706916
 Sum of Mulliken charges =  -0.00000

 Dipole moment (field-independent basis, Debye):
    X=             -1.5333    Y=              1.7623    Z=              0.7775  Tot=              2.4620

 Test job not archived.
 1\1\GINC-SE174\SP\RHF\Aug-CC-pVDZ\C4H8O3\OHZDE\09-Apr-2025\0\\#t hf au
 g-cc-pvdz iop(5/13=1,5/36=2,99/5=2) pseudo=read geom=check guess=(read
 ,tcheck) scf=(maxcycle=1)\\title\\0,1\C,0,-2.60301802,0.30295835,-0.42
 688959\O,0,-2.04690239,-0.23002605,0.7895201\C,0,-0.90583742,-0.902658
 1,0.73469836\O,0,-0.36451083,-0.99225871,-0.42069808\C,0,0.90186582,-0
 .35823194,0.71294287\C,0,1.7244336,0.24025943,-0.41934169\O,0,2.883646
 96,0.81574085,0.14788096\H,0,-2.76327247,-0.48334727,-1.16357051\H,0,-
 3.55213431,0.74575712,-0.13725099\H,0,-1.94668946,1.06161354,-0.853661

 Normal termination of Gaussian 16 at Wed Apr  9 19:15:10 2025.
