 Gaussian 16, Revision C.01,

 ----------------------------------------------------------------------
 #t hf aug-cc-pvdz symm=none int=(grid=ultrafine) guess=(read,tcheck) s
 table=(opt,rrhf)
 ----------------------------------------------------------------------
 -----
 title
 -----
 Symbolic Z-matrix:
 Charge =  0 Multiplicity = 1

 SCF Done:  E(RHF) =  -337.600473654     A.U. after   15 cycles
 Normal termination of Gaussian 16 at Wed Apr  9 03:57:56 2025.
 Gaussian 16:  ES64L-G16RevC.01  3-Jul-2019

 ----------------------------------------------------------------------
 #t hf aug-cc-pvdz iop(5/13=1,5/36=2,99/5=2) pseudo=read geom=check gue
 ss=(read,tcheck) scf=(maxcycle=1)
 ----------------------------------------------------------------------
 -----
 title
 -----
 Structure from the checkpoint file:  "Grambow2020_wb97xd3_008689_forward_mol2.chk"
 Charge =  0 Multiplicity = 1

                         Standard orientation:
 ---------------------------------------------------------------------
 Center     Atomic      Atomic             Coordinates (Angstroms)
 Number     Number       Type             X           Y           Z
 ---------------------------------------------------------------------
      1          8           0        2.489141   -0.415905   -0.000787
      2          6           0        1.689261    0.491228    0.000790
      3          6           0        0.254625    0.284611   -0.000151
      4          6           0       -0.815958    1.145854   -0.000380
      5          7           0       -1.985514    0.453843   -0.000242
      6          6           0       -1.635316   -0.813771    0.000225
      7          7           0       -0.300497   -0.970603   -0.000059
      8          1           0        2.014601    1.547431    0.004182
      9          1           0       -0.792446    2.225212   -0.001244
     10          1           0       -2.318472   -1.649675    0.002061
     11          1           0        0.229594   -1.825943    0.000498
 ---------------------------------------------------------------------

 SCF Done:  E(RHF) =  -339.095763156     A.U. after    2 cycles

 The electronic state is 1-A.
 Alpha  occ. eigenvalues --  -21.06531 -15.81789 -15.73692 -11.50625 -11.46360
 Alpha  occ. eigenvalues --  -11.44764 -11.41086  -1.72166  -1.58752  -1.29477
 Alpha  occ. eigenvalues --   -1.13446  -0.93993  -0.85059  -0.83734  -0.74429
 Alpha  occ. eigenvalues --   -0.63135  -0.62357  -0.57958  -0.56720  -0.51995
 Alpha  occ. eigenvalues --   -0.47871  -0.41057  -0.38858  -0.31273  -0.30566
 Alpha virt. eigenvalues --    0.03138   0.05023   0.05829   0.06315   0.09250
 Alpha virt. eigenvalues --    0.09461   0.10175   0.10978   0.11308   0.11948
 Alpha virt. eigenvalues --    0.12897   0.14158   0.14203   0.14449   0.15172

 Mulliken charges:
               1
     1  O   -2.876795
     2  C    0.789902
     3  C    3.550356
     4  C   -0.701558
     5  N   -3.184226
     6  C    1.209353
     7  N   -3.606297
     8  H    1.292751
     9  H    1.181072
    10  H    1.540389
    11  H    0.805052
 Sum of Mulliken charges =  -0.00000

 Dipole moment (field-independent basis, Debye):
    X=              0.5004    Y=             -1.7236    Z=              0.0039  Tot=              1.7948

 Test job not archived.
 1\1\GINC-SE222\SP\RHF\Aug-CC-pVDZ\C4H4N2O1\OHZDE\09-Apr-2025\0\\#t hf
 aug-cc-pvdz iop(5/13=1,5/36=2,99/5=2) pseudo=read geom=check guess=(re
 ad,tcheck) scf=(maxcycle=1)\\title\\0,1\O,0,-2.2227708,-1.41424827,0.0
 8267314\C,0,-1.83060018,-0.27282357,0.00487404\C,0,-0.42604633,0.08483
 842,-0.00847477\C,0,0.23377793,1.28750098,-0.08670654\N,0,1.5790373,1.
 09650376,-0.0635333\C,0,1.74022419,-0.20550089,0.02749346\N,0,0.566875
 69,-0.85989441,0.06437798\H,0,-2.53508303,0.57603739,-0.06266299\H,0,-
 0.20071366,2.27328951,-0.15745292\H,0,2.69110895,-0.7150217,0.06810299

 Normal termination of Gaussian 16 at Wed Apr  9 03:58:00 2025.
