 Gaussian 16, Revision C.01,

 ----------------------------------------------------------------------
 #t hf aug-cc-pvdz symm=none int=(grid=ultrafine) guess=(read,tcheck) s
 table=(opt,rrhf)
 ----------------------------------------------------------------------
 -----
 title
 -----
 Symbolic Z-matrix:
 Charge =  0 Multiplicity = 1

 SCF Done:  E(RHF) =  -271.919997971     A.U. after   15 cycles
 Normal termination of Gaussian 16 at Wed Apr  9 03:39:51 2025.
 Gaussian 16:  ES64L-G16RevC.01  3-Jul-2019

 ----------------------------------------------------------------------
 #t hf aug-cc-pvdz iop(5/13=1,5/36=2,99/5=2) pseudo=read geom=check gue
 ss=(read,tcheck) scf=(maxcycle=1)
 ----------------------------------------------------------------------
 -----
 title
 -----
 Structure from the checkpoint file:  "Grambow2020_wb97xd3_007423_forward_mol1.chk"
 Charge =  0 Multiplicity = 1

                         Standard orientation:
 ---------------------------------------------------------------------
 Center     Atomic      Atomic             Coordinates (Angstroms)
 Number     Number       Type             X           Y           Z
 ---------------------------------------------------------------------
      1          6           0       -2.328608   -0.869662   -0.598695
      2          6           0       -1.082927    0.436266    0.777846
      3          6           0        0.088693   -0.466622    1.117791
      4          6           0        1.314021    0.045934    0.322828
      5          6           0        1.959050   -0.973341   -0.615151
      6          6           0        0.742589    1.226503   -0.409669
      7          6           0       -0.577438    1.358317   -0.227658
      8          1           0       -1.443928   -1.094387   -1.181722
      9          1           0       -2.760417   -1.767310   -0.156791
     10          1           0       -3.056788   -0.307620   -1.180323
     11          1           0       -2.180162   -0.153468    0.437401
     12          1           0        0.266368   -0.400240    2.194163
     13          1           0       -0.129571   -1.517477    0.917174
     14          1           0        2.077422    0.390781    1.028235
     15          1           0        1.228182   -1.357553   -1.331090
     16          1           0        2.358070   -1.820186   -0.052902
     17          1           0        2.781119   -0.529820   -1.181533
     18          1           0        1.359958    1.894433   -1.001423
     19          1           0       -1.192537    2.118480   -0.694941
 ---------------------------------------------------------------------

 SCF Done:  E(RHF) =  -273.320356161     A.U. after    2 cycles

 The electronic state is 1-A.
 Alpha  occ. eigenvalues --  -11.46142 -11.45125 -11.39595 -11.38576 -11.38346
 Alpha  occ. eigenvalues --  -11.37728 -11.34634  -1.34770  -1.11456  -1.05344
 Alpha  occ. eigenvalues --   -1.00864  -0.92318  -0.78813  -0.74250  -0.68798
 Alpha  occ. eigenvalues --   -0.62999  -0.57529  -0.57220  -0.56069  -0.54343
 Alpha  occ. eigenvalues --   -0.51907  -0.47682  -0.46891  -0.44605  -0.43528
 Alpha  occ. eigenvalues --   -0.37627  -0.25107
 Alpha virt. eigenvalues --    0.03796   0.04528   0.04951   0.05172   0.06004
 Alpha virt. eigenvalues --    0.06178   0.06333   0.06662   0.07408   0.08226
 Alpha virt. eigenvalues --    0.08923   0.09948   0.10394   0.11305   0.12363

 Mulliken charges:
               1
     1  C   -5.091505
     2  C   -2.890037
     3  C   -3.368706
     4  C   -2.159616
     5  C   -3.936658
     6  C   -0.476095
     7  C    0.056699
     8  H    1.851257
     9  H    0.880964
    10  H    0.974740
    11  H    2.880110
    12  H    1.221488
    13  H    1.766249
    14  H    1.432337
    15  H    1.400805
    16  H    1.257510
    17  H    1.158225
    18  H    1.496185
    19  H    1.546049
 Sum of Mulliken charges =  -0.00000

 Dipole moment (field-independent basis, Debye):
    X=              0.8752    Y=             -0.7194    Z=             -1.1974  Tot=              1.6484

 Test job not archived.
 1\1\GINC-SE393\SP\RHF\Aug-CC-pVDZ\C7H12\OHZDE\09-Apr-2025\0\\#t hf aug
 -cc-pvdz iop(5/13=1,5/36=2,99/5=2) pseudo=read geom=check guess=(read,
 tcheck) scf=(maxcycle=1)\\title\\0,1\C,0,-2.34513507,-0.72514519,-0.11
 311075\C,0,-1.03132114,1.10803101,0.14260166\C,0,0.04430904,0.61291101
 ,1.0919899\C,0,1.33430946,0.40498294,0.26206666\C,0,1.9147703,-1.00804
 008,0.2970187\C,0,0.89301062,0.81587467,-1.11388782\C,0,-0.41504855,1.
 09549606,-1.1752704\H,0,-1.46637928,-1.32233061,-0.32343742\H,0,-2.868
 49376,-1.07519423,0.77631112\H,0,-3.00214956,-0.66471062,-0.97862119\H

 Normal termination of Gaussian 16 at Wed Apr  9 03:39:58 2025.
