 Gaussian 16, Revision C.01,

 ----------------------------------------------------------------------
 #t hf aug-cc-pvdz symm=none int=(grid=ultrafine) guess=(read,tcheck) s
 table=(opt,rrhf)
 ----------------------------------------------------------------------
 -----
 title
 -----
 Symbolic Z-matrix:
 Charge =  0 Multiplicity = 1

 SCF Done:  E(RHF) =  -304.543646561     A.U. after   16 cycles
 Normal termination of Gaussian 16 at Wed Apr  9 03:14:26 2025.
 Gaussian 16:  ES64L-G16RevC.01  3-Jul-2019

 ----------------------------------------------------------------------
 #t hf aug-cc-pvdz iop(5/13=1,5/36=2,99/5=2) pseudo=read geom=check gue
 ss=(read,tcheck) scf=(maxcycle=1)
 ----------------------------------------------------------------------
 -----
 title
 -----
 Structure from the checkpoint file:  "Grambow2020_b97d3_006925_forward_mol1.chk"
 Charge =  0 Multiplicity = 1

                         Standard orientation:
 ---------------------------------------------------------------------
 Center     Atomic      Atomic             Coordinates (Angstroms)
 Number     Number       Type             X           Y           Z
 ---------------------------------------------------------------------
      1          8           0        1.549329   -0.822567    0.464229
      2          6           0        0.609518   -0.014786   -0.117452
      3          6           0        0.876719    1.285037   -0.510448
      4          6           0       -1.022658    0.367456    1.034995
      5          8           0       -1.661248   -0.058799   -0.084670
      6          6           0       -0.560137   -0.804314   -0.688284
      7          1           0        2.362229   -0.296613    0.600357
      8          1           0        1.696329    1.845636   -0.060536
      9          1           0        0.188957    1.820391   -1.157398
     10          1           0       -1.572432    1.281162    1.381671
     11          1           0       -0.655677   -0.757842   -1.779809
     12          1           0       -0.544702   -1.842162   -0.333619
 ---------------------------------------------------------------------

 SCF Done:  E(RHF) =  -305.904398652     A.U. after    2 cycles

 The electronic state is 1-A.
 Alpha  occ. eigenvalues --  -21.10681 -21.09557 -11.49616 -11.44478 -11.42533
 Alpha  occ. eigenvalues --  -11.37522  -1.81601  -1.74344  -1.13969  -1.01448
 Alpha  occ. eigenvalues --   -0.87581  -0.77393  -0.68064  -0.66726  -0.62651
 Alpha  occ. eigenvalues --   -0.56518  -0.53536  -0.48719  -0.45417  -0.43833
 Alpha  occ. eigenvalues --   -0.40308  -0.32717  -0.25535
 Alpha virt. eigenvalues --    0.03723   0.05413   0.05620   0.05923   0.06164
 Alpha virt. eigenvalues --    0.06709   0.08615   0.10052   0.11043   0.12133
 Alpha virt. eigenvalues --    0.13249   0.13947   0.15108   0.15198   0.16277

 Mulliken charges:
               1
     1  O   -3.701774
     2  C    3.171017
     3  C   -3.510778
     4  C   -0.597555
     5  O   -2.253433
     6  C   -1.375228
     7  H    0.830046
     8  H    1.425301
     9  H    1.410541
    10  H    1.585664
    11  H    1.537156
    12  H    1.479044
 Sum of Mulliken charges =   0.00000

 Dipole moment (field-independent basis, Debye):
    X=             -0.3223    Y=             -0.5411    Z=             -0.8250  Tot=              1.0379

 Test job not archived.
 1\1\GINC-SE095\SP\RHF\Aug-CC-pVDZ\C4H6O2\OHZDE\09-Apr-2025\0\\#t hf au
 g-cc-pvdz iop(5/13=1,5/36=2,99/5=2) pseudo=read geom=check guess=(read
 ,tcheck) scf=(maxcycle=1)\\title\\0,1\O,0,0.31689622,-1.49816518,-1.01
 95278\C,0,0.01907166,-0.52636941,-0.10245543\C,0,-1.13458662,-0.543912
 72,0.6618388\C,0,-0.1797212,1.34592572,-0.87267204\O,0,0.71397491,1.62
 566225,0.11028008\C,0,1.24408573,0.27923119,0.30698907\H,0,-0.43975046
 ,-2.11556622,-1.06713544\H,0,-2.01386722,-1.09667921,0.33052621\H,0,-1
 .23880741,0.1095944,1.52220612\H,0,-0.95174502,2.15828018,-0.83588933\

 Normal termination of Gaussian 16 at Wed Apr  9 03:14:30 2025.
