 Gaussian 16, Revision C.01,

 ----------------------------------------------------------------------
 #t hf aug-cc-pvdz symm=none int=(grid=ultrafine) guess=(read,tcheck) s
 table=(opt,rrhf)
 ----------------------------------------------------------------------
 -----
 title
 -----
 Symbolic Z-matrix:
 Charge =  0 Multiplicity = 1

 SCF Done:  E(RHF) =  -270.021715289     A.U. after   12 cycles

 1\1\GINC-SE219\Stability\RHF\Aug-CC-pVDZ\C5H10O1\OHZDE\09-Apr-2025\0\\
 #t hf aug-cc-pvdz symm=none int=(grid=ultrafine) guess=(read,tcheck) s
 table=(opt,rrhf)\\title\\0,1\C,0,-2.12673782,-0.03463707,0.16450782\C,
 0,-0.85662348,-0.36986767,-0.58185952\O,0,-0.20654877,0.69422197,-1.30
 892472\C,0,0.50568338,0.07328736,-0.20766628\C,0,1.69152713,-0.7762800
 8,-0.63048275\C,0,0.76467127,0.96721394,0.99042737\H,0,-2.96403477,0.0
 6434261,-0.5413965\H,0,-2.04049736,0.90743141,0.71740907\H,0,-2.375233
 29,-0.83776259,0.87403572\H,0,-0.91320804,-1.30951835,-1.14837924\H,0,

 Normal termination of Gaussian 16 at Wed Apr  9 17:12:24 2025.
 Gaussian 16:  ES64L-G16RevC.01  3-Jul-2019

 ----------------------------------------------------------------------
 #t hf aug-cc-pvdz iop(5/13=1,5/36=2,99/5=2) pseudo=read geom=check gue
 ss=(read,tcheck) scf=(maxcycle=1)
 ----------------------------------------------------------------------
 -----
 title
 -----
 Structure from the checkpoint file:  "Grambow2020_b97d3_007066_forward_mol2.chk"
 Charge =  0 Multiplicity = 1

                         Standard orientation:
 ---------------------------------------------------------------------
 Center     Atomic      Atomic             Coordinates (Angstroms)
 Number     Number       Type             X           Y           Z
 ---------------------------------------------------------------------
      1          6           0        2.098117    0.106746   -0.366513
      2          6           0        0.782037   -0.612193   -0.182948
      3          8           0        0.163564   -0.554437    1.119997
      4          6           0       -0.537065    0.036347   -0.005036
      5          6           0       -1.784729   -0.718276   -0.430055
      6          6           0       -0.696880    1.544247    0.042975
      7          1           0        2.910341   -0.468075    0.101500
      8          1           0        2.087181    1.103719    0.087972
      9          1           0        2.329855    0.210344   -1.436912
     10          1           0        0.762972   -1.616972   -0.626957
     11          1           0       -1.604873   -1.800811   -0.428964
     12          1           0       -2.613450   -0.506399    0.261368
     13          1           0       -2.098385   -0.415157   -1.439787
     14          1           0       -0.937716    1.938023   -0.955331
     15          1           0        0.209112    2.039993    0.407132
     16          1           0       -1.522431    1.809606    0.719460
 ---------------------------------------------------------------------

 SCF Done:  E(RHF) =  -271.326355208     A.U. after    2 cycles

 The electronic state is 1-A.
 Alpha  occ. eigenvalues --  -21.04199 -11.53250 -11.42308 -11.40077 -11.38650
 Alpha  occ. eigenvalues --  -11.36619  -1.76153  -1.16189  -1.10032  -1.01709
 Alpha  occ. eigenvalues --   -0.88322  -0.78061  -0.65952  -0.61620  -0.59302
 Alpha  occ. eigenvalues --   -0.56837  -0.54816  -0.53729  -0.52381  -0.50546
 Alpha  occ. eigenvalues --   -0.45434  -0.40365  -0.33721  -0.29553
 Alpha virt. eigenvalues --    0.03696   0.05106   0.05438   0.05701   0.06026
 Alpha virt. eigenvalues --    0.06118   0.06236   0.06991   0.09142   0.09582
 Alpha virt. eigenvalues --    0.11652   0.12726   0.13452   0.13836   0.14724

 Mulliken charges:
               1
     1  C   -3.858509
     2  C   -0.550385
     3  O   -3.035361
     4  C    3.849487
     5  C   -4.628658
     6  C   -4.406799
     7  H    1.103270
     8  H    1.303284
     9  H    1.267736
    10  H    1.599385
    11  H    1.264385
    12  H    1.126380
    13  H    1.251091
    14  H    1.189449
    15  H    1.396289
    16  H    1.128955
 Sum of Mulliken charges =   0.00000

 Dipole moment (field-independent basis, Debye):
    X=             -0.0173    Y=              0.2151    Z=             -0.4523  Tot=              0.5011

 Test job not archived.
 1\1\GINC-SE219\SP\RHF\Aug-CC-pVDZ\C5H10O1\OHZDE\09-Apr-2025\0\\#t hf a
 ug-cc-pvdz iop(5/13=1,5/36=2,99/5=2) pseudo=read geom=check guess=(rea
 d,tcheck) scf=(maxcycle=1)\\title\\0,1\C,0,-2.12673782,-0.03463707,0.1
 6450782\C,0,-0.85662348,-0.36986767,-0.58185952\O,0,-0.20654877,0.6942
 2197,-1.30892472\C,0,0.50568338,0.07328736,-0.20766628\C,0,1.69152713,
 -0.77628008,-0.63048275\C,0,0.76467127,0.96721394,0.99042737\H,0,-2.96
 403477,0.06434261,-0.5413965\H,0,-2.04049736,0.90743141,0.71740907\H,0
 ,-2.37523329,-0.83776259,0.87403572\H,0,-0.91320804,-1.30951835,-1.148

 Normal termination of Gaussian 16 at Wed Apr  9 17:12:29 2025.
