 Gaussian 16, Revision C.01,

 ----------------------------------------------------------------------
 #t hf aug-cc-pvdz symm=none int=(grid=ultrafine) guess=(read,tcheck) s
 table=(opt,rrhf)
 ----------------------------------------------------------------------
 -----
 title
 -----
 Symbolic Z-matrix:
 Charge =  0 Multiplicity = 1

 SCF Done:  E(RHF) =  -344.772536456     A.U. after   15 cycles

 1\1\GINC-SE072\Stability\RHF\Aug-CC-pVDZ\C5H10O2\OHZDE\09-Apr-2025\0\\
 #t hf aug-cc-pvdz symm=none int=(grid=ultrafine) guess=(read,tcheck) s
 table=(opt,rrhf)\\title\\0,1\C,0,2.22927291,0.56700411,-0.75435145\C,0
 ,1.12839216,-0.2956583,-0.19363297\C,0,0.32268537,-0.30380141,1.864581
 66\O,0,-0.83076537,0.22140543,1.39528351\C,0,-1.17302447,-0.29687325,0
 .1238957\C,0,-2.43772384,0.32376611,-0.39110004\O,0,-0.09314358,0.0686
 941,-0.70255122\H,0,2.29133263,0.43281644,-1.83630638\H,0,3.188513,0.2
 8858344,-0.31740777\H,0,2.03396444,1.61924642,-0.54619482\H,0,1.328872

 Normal termination of Gaussian 16 at Wed Apr  9 03:34:36 2025.
 Gaussian 16:  ES64L-G16RevC.01  3-Jul-2019

 ----------------------------------------------------------------------
 #t hf aug-cc-pvdz iop(5/13=1,5/36=2,99/5=2) pseudo=read geom=check gue
 ss=(read,tcheck) scf=(maxcycle=1)
 ----------------------------------------------------------------------
 -----
 title
 -----
 Structure from the checkpoint file:  "Grambow2020_wb97xd3_007113_reverse_mol1.chk"
 Charge =  0 Multiplicity = 1

                         Standard orientation:
 ---------------------------------------------------------------------
 Center     Atomic      Atomic             Coordinates (Angstroms)
 Number     Number       Type             X           Y           Z
 ---------------------------------------------------------------------
      1          6           0        2.460261   -0.625748   -0.325284
      2          6           0        1.261825   -0.062446    0.393724
      3          6           0        0.159116    1.799899   -0.054808
      4          8           0       -0.894734    1.056603   -0.459088
      5          6           0       -1.060123   -0.105947    0.330409
      6          6           0       -2.214152   -0.931232   -0.156417
      7          8           0        0.141548   -0.818765    0.155267
      8          1           0        2.678321   -1.629110    0.046468
      9          1           0        3.334678    0.002410   -0.153845
     10          1           0        2.269135   -0.687066   -1.396918
     11          1           0        1.437044    0.136171    1.453500
     12          1           0        1.196892    1.105814   -0.243758
     13          1           0        0.124786    1.919412    1.045636
     14          1           0       -1.161718    0.198523    1.384180
     15          1           0       -2.059091   -1.195446   -1.201916
     16          1           0       -2.299957   -1.841993    0.435264
     17          1           0       -3.136167   -0.358573   -0.063787
 ---------------------------------------------------------------------

 SCF Done:  E(RHF) =  -346.376191284     A.U. after    2 cycles

 The electronic state is 1-A.
 Alpha  occ. eigenvalues --  -21.07602 -21.07085 -11.48903 -11.47875 -11.41183
 Alpha  occ. eigenvalues --  -11.39129 -11.38123  -1.87958  -1.71157  -1.18780
 Alpha  occ. eigenvalues --   -1.09588  -0.96357  -0.87518  -0.83923  -0.72347
 Alpha  occ. eigenvalues --   -0.66613  -0.62532  -0.61733  -0.57185  -0.55800
 Alpha  occ. eigenvalues --   -0.53740  -0.52894  -0.49048  -0.45388  -0.40005
 Alpha  occ. eigenvalues --   -0.34748  -0.34060  -0.29374
 Alpha virt. eigenvalues --    0.03841   0.04820   0.04963   0.05049   0.05712
 Alpha virt. eigenvalues --    0.06066   0.06342   0.06781   0.08459   0.09208
 Alpha virt. eigenvalues --    0.11709   0.12352   0.13146   0.13891   0.14329

 Mulliken charges:
               1
     1  C   -3.735798
     2  C   -0.628632
     3  C   -1.771749
     4  O   -2.890391
     5  C    2.034029
     6  C   -3.770260
     7  O   -3.585877
     8  H    1.241652
     9  H    1.092677
    10  H    1.202007
    11  H    1.585684
    12  H    2.728454
    13  H    0.994614
    14  H    1.877564
    15  H    1.242346
    16  H    1.217327
    17  H    1.166352
 Sum of Mulliken charges =  -0.00000

 Dipole moment (field-independent basis, Debye):
    X=              0.2832    Y=             -2.8988    Z=              1.2717  Tot=              3.1781

 Test job not archived.
 1\1\GINC-SE072\SP\RHF\Aug-CC-pVDZ\C5H10O2\OHZDE\09-Apr-2025\0\\#t hf a
 ug-cc-pvdz iop(5/13=1,5/36=2,99/5=2) pseudo=read geom=check guess=(rea
 d,tcheck) scf=(maxcycle=1)\\title\\0,1\C,0,2.22927291,0.56700411,-0.75
 435145\C,0,1.12839216,-0.2956583,-0.19363297\C,0,0.32268537,-0.3038014
 1,1.86458166\O,0,-0.83076537,0.22140543,1.39528351\C,0,-1.17302447,-0.
 29687325,0.1238957\C,0,-2.43772384,0.32376611,-0.39110004\O,0,-0.09314
 358,0.0686941,-0.70255122\H,0,2.29133263,0.43281644,-1.83630638\H,0,3.
 188513,0.28858344,-0.31740777\H,0,2.03396444,1.61924642,-0.54619482\H,

 Normal termination of Gaussian 16 at Wed Apr  9 03:34:42 2025.
