 Gaussian 16, Revision C.01,

 ----------------------------------------------------------------------
 #t hf aug-cc-pvdz symm=none int=(grid=ultrafine) guess=(read,tcheck) s
 table=(opt,rrhf)
 ----------------------------------------------------------------------
 -----
 title
 -----
 Symbolic Z-matrix:
 Charge =  0 Multiplicity = 1

 SCF Done:  E(RHF) =  -231.693213415     A.U. after   15 cycles
 Normal termination of Gaussian 16 at Wed Apr  9 16:57:12 2025.
 Gaussian 16:  ES64L-G16RevC.01  3-Jul-2019

 ----------------------------------------------------------------------
 #t hf aug-cc-pvdz iop(5/13=1,5/36=2,99/5=2) pseudo=read geom=check gue
 ss=(read,tcheck) scf=(maxcycle=1)
 ----------------------------------------------------------------------
 -----
 title
 -----
 Structure from the checkpoint file:  "Grambow2020_b97d3_006877_forward_mol1.chk"
 Charge =  0 Multiplicity = 1

                         Standard orientation:
 ---------------------------------------------------------------------
 Center     Atomic      Atomic             Coordinates (Angstroms)
 Number     Number       Type             X           Y           Z
 ---------------------------------------------------------------------
      1          6           0        1.231729   -0.436279   -0.522305
      2          6           0        0.620038    0.936455   -0.231221
      3          6           0       -0.920435    0.798502   -0.292053
      4          6           0       -1.162308   -0.716442   -0.279852
      5          6           0        0.159773   -0.941471    0.479013
      6          6           0        0.260360    0.507058    1.187792
      7          1           0        2.244271   -0.501875   -0.103537
      8          1           0        1.225521   -0.840918   -1.546846
      9          1           0        1.049522    1.909536   -0.484043
     10          1           0       -1.477673    1.545756   -0.866593
     11          1           0       -2.042688   -0.985579    0.318940
     12          1           0       -1.227461   -1.204207   -1.264443
     13          1           0        0.286067   -1.863706    1.054819
     14          1           0       -1.192502    1.054048    0.843452
 ---------------------------------------------------------------------

 SCF Done:  E(RHF) =  -232.858219307     A.U. after    2 cycles

 The electronic state is 1-A.
 Alpha  occ. eigenvalues --  -11.49456 -11.44530 -11.41552 -11.41084 -11.40217
 Alpha  occ. eigenvalues --  -11.35513  -1.46312  -1.06694  -1.02662  -0.90102
 Alpha  occ. eigenvalues --   -0.80961  -0.73863  -0.70898  -0.62480  -0.59088
 Alpha  occ. eigenvalues --   -0.51754  -0.50025  -0.47744  -0.44676  -0.41993
 Alpha  occ. eigenvalues --   -0.38084  -0.30176
 Alpha virt. eigenvalues --    0.03959   0.04959   0.05234   0.05578   0.05713
 Alpha virt. eigenvalues --    0.06197   0.06575   0.07901   0.10135   0.11543
 Alpha virt. eigenvalues --    0.12017   0.12886   0.13213   0.13917   0.14669

 Mulliken charges:
               1
     1  C   -2.478076
     2  C   -1.654545
     3  C   -1.604354
     4  C   -2.996702
     5  C   -1.567378
     6  C   -0.095251
     7  H    1.212872
     8  H    1.248803
     9  H    1.441370
    10  H    1.237770
    11  H    1.228664
    12  H    1.336045
    13  H    1.526484
    14  H    1.164299
 Sum of Mulliken charges =   0.00000

 Dipole moment (field-independent basis, Debye):
    X=             -0.6686    Y=             -0.6309    Z=             -2.4381  Tot=              2.6057

 Test job not archived.
 1\1\GINC-SE226\SP\RHF\Aug-CC-pVDZ\C6H8\OHZDE\09-Apr-2025\0\\#t hf aug-
 cc-pvdz iop(5/13=1,5/36=2,99/5=2) pseudo=read geom=check guess=(read,t
 check) scf=(maxcycle=1)\\title\\0,1\C,0,-1.13958419,-0.23512474,0.7846
 4744\C,0,-0.5583703,1.04898557,0.18753209\C,0,0.92998191,0.79088599,-0
 .15007554\C,0,1.077487,-0.7332299,-0.05509976\C,0,-0.4121413,-0.919004
 13,-0.40282125\C,0,-0.62531554,0.45966685,-1.21801747\H,0,-2.23015989,
 -0.25619808,0.66171504\H,0,-0.8743387,-0.54059407,1.80923978\H,0,-0.84
 911789,2.07362467,0.43419524\H,0,1.66274411,1.54045385,0.16647881\H,0,

 Normal termination of Gaussian 16 at Wed Apr  9 16:57:18 2025.
