 Gaussian 16, Revision C.01,

 ----------------------------------------------------------------------
 #t hf aug-cc-pvdz symm=none int=(grid=ultrafine) guess=(read,tcheck) s
 table=(opt,rrhf)
 ----------------------------------------------------------------------
 -----
 title
 -----
 Symbolic Z-matrix:
 Charge =  0 Multiplicity = 1

 SCF Done:  E(RHF) =  -234.058460420     A.U. after   14 cycles
 Normal termination of Gaussian 16 at Wed Apr  9 16:24:11 2025.
 Gaussian 16:  ES64L-G16RevC.01  3-Jul-2019

 ----------------------------------------------------------------------
 #t hf aug-cc-pvdz iop(5/13=1,5/36=2,99/5=2) pseudo=read geom=check gue
 ss=(read,tcheck) scf=(maxcycle=1)
 ----------------------------------------------------------------------
 -----
 title
 -----
 Structure from the checkpoint file:  "Grambow2020_b97d3_006794_reverse_mol2.chk"
 Charge =  0 Multiplicity = 1

                         Standard orientation:
 ---------------------------------------------------------------------
 Center     Atomic      Atomic             Coordinates (Angstroms)
 Number     Number       Type             X           Y           Z
 ---------------------------------------------------------------------
      1          6           0       -3.406078   -0.026426    0.383071
      2          6           0       -0.412855    0.072743   -0.917927
      3          6           0        0.250309    1.125889   -0.122661
      4          6           0        1.362525    0.008974   -0.384971
      5          6           0        2.465058   -0.062459    0.680821
      6          6           0        0.202463   -1.075722   -0.221251
      7          1           0       -2.791309   -0.193543    1.276111
      8          1           0       -4.106895   -0.861290    0.259861
      9          1           0       -3.965426    0.910713    0.492905
     10          1           0       -2.755423    0.037371   -0.501058
     11          1           0        0.137727    1.165036    0.974186
     12          1           0        0.336854    2.126283   -0.560975
     13          1           0        1.806074    0.043227   -1.381826
     14          1           0        3.073686   -0.963992    0.524176
     15          1           0        3.117003    0.818561    0.599714
     16          1           0        2.046796   -0.095345    1.693635
     17          1           0        0.245421   -2.035962   -0.747278
     18          1           0        0.086956   -1.209049    0.868060
 ---------------------------------------------------------------------

 SCF Done:  E(RHF) =  -235.271000550     A.U. after    2 cycles

 The electronic state is 1-A.
 Alpha  occ. eigenvalues --  -11.45297 -11.41580 -11.41514 -11.39811 -11.36427
 Alpha  occ. eigenvalues --  -11.35195  -1.36952  -1.07182  -1.01992  -0.96866
 Alpha  occ. eigenvalues --   -0.82824  -0.75527  -0.67693  -0.58555  -0.56699
 Alpha  occ. eigenvalues --   -0.55921  -0.53769  -0.52997  -0.52895  -0.48636
 Alpha  occ. eigenvalues --   -0.48148  -0.46233  -0.41629  -0.30127
 Alpha virt. eigenvalues --    0.03650   0.04864   0.05152   0.05575   0.05760
 Alpha virt. eigenvalues --    0.05915   0.06058   0.06109   0.07448   0.07790
 Alpha virt. eigenvalues --    0.09045   0.09391   0.11566   0.12580   0.13855

 Mulliken charges:
               1
     1  C   -5.368259
     2  C   -0.474692
     3  C   -2.963556
     4  C    0.338957
     5  C   -4.369332
     6  C   -2.992173
     7  H    1.347017
     8  H    1.216076
     9  H    1.216220
    10  H    1.568222
    11  H    1.451097
    12  H    1.416737
    13  H    1.116227
    14  H    1.202000
    15  H    1.199243
    16  H    1.210410
    17  H    1.414938
    18  H    1.470868
 Sum of Mulliken charges =  -0.00000

 Dipole moment (field-independent basis, Debye):
    X=              1.8354    Y=             -0.1288    Z=              1.9697  Tot=              2.6954

 Test job not archived.
 1\1\GINC-SE057\SP\RHF\Aug-CC-pVDZ\C6H12\OHZDE\09-Apr-2025\0\\#t hf aug
 -cc-pvdz iop(5/13=1,5/36=2,99/5=2) pseudo=read geom=check guess=(read,
 tcheck) scf=(maxcycle=1)\\title\\0,1\C,0,-3.26282163,0.36766216,0.3644
 5787\C,0,-0.31931684,0.26741602,-1.04534403\C,0,0.49666709,1.11225306,
 -0.14992732\C,0,1.44690855,-0.0889538,-0.60541968\C,0,2.56003563,-0.44
 091533,0.39140809\C,0,0.16095921,-1.03244982,-0.53287179\H,0,-2.650356
 88,0.00589875,1.19956464\H,0,-4.06914955,-0.3487974,0.16484936\H,0,-3.
 69263136,1.34376777,0.62067316\H,0,-2.63419663,0.46870224,-0.53205102\

 Normal termination of Gaussian 16 at Wed Apr  9 16:24:17 2025.
