 Gaussian 16, Revision C.01,

 ----------------------------------------------------------------------
 #t hf aug-cc-pvdz symm=none int=(grid=ultrafine) guess=(read,tcheck) s
 table=(opt,rrhf)
 ----------------------------------------------------------------------
 -----
 title
 -----
 Symbolic Z-matrix:
 Charge =  0 Multiplicity = 1

 SCF Done:  E(RHF) =  -316.506019482     A.U. after   16 cycles
 Normal termination of Gaussian 16 at Wed Apr  9 18:33:07 2025.
 Gaussian 16:  ES64L-G16RevC.01  3-Jul-2019

 ----------------------------------------------------------------------
 #t hf aug-cc-pvdz iop(5/13=1,5/36=2,99/5=2) pseudo=read geom=check gue
 ss=(read,tcheck) scf=(maxcycle=1)
 ----------------------------------------------------------------------
 -----
 title
 -----
 Structure from the checkpoint file:  "Grambow2020_wb97xd3_007264_reverse_mol2.chk"
 Charge =  0 Multiplicity = 1

                         Standard orientation:
 ---------------------------------------------------------------------
 Center     Atomic      Atomic             Coordinates (Angstroms)
 Number     Number       Type             X           Y           Z
 ---------------------------------------------------------------------
      1          7           0       -2.860676   -0.037080    0.000638
      2          6           0       -1.710941   -0.023167   -0.000151
      3          6           0       -0.298985    0.012512   -0.000727
      4          7           0        0.503335    1.091166   -0.000250
      5          6           0        1.854416    0.798860    0.000268
      6          6           0        1.811398   -0.590441    0.000494
      7          7           0        0.515008   -1.042542   -0.000292
      8          1           0        0.141725    2.030909   -0.000129
      9          1           0        2.622336   -1.300266    0.001446
     10          1           0        0.196935   -1.998044   -0.001296
 ---------------------------------------------------------------------

 SCF Done:  E(RHF) =  -317.927995610     A.U. after    2 cycles

 The electronic state is 1-A.
 Alpha  occ. eigenvalues --  -15.86267 -15.83607 -15.80529 -11.53884 -11.47382
 Alpha  occ. eigenvalues --  -11.41451 -11.35306  -1.63528  -1.35273  -1.34546
 Alpha  occ. eigenvalues --   -1.13521  -0.95064  -0.86830  -0.82787  -0.67239
 Alpha  occ. eigenvalues --   -0.66797  -0.64918  -0.56062  -0.54671  -0.50434
 Alpha  occ. eigenvalues --   -0.48719  -0.43638  -0.33488  -0.31193
 Alpha virt. eigenvalues --    0.02415   0.05283   0.05592   0.07889   0.08896
 Alpha virt. eigenvalues --    0.09539   0.10224   0.11567   0.11876   0.12213
 Alpha virt. eigenvalues --    0.12938   0.13521   0.13700   0.14213   0.15327

 Mulliken charges:
               1
     1  N   -2.673059
     2  C    2.043973
     3  C    3.699738
     4  N   -2.685796
     5  C   -1.211962
     6  C    0.829074
     7  N   -3.110699
     8  H    0.734833
     9  H    1.598158
    10  H    0.775740
 Sum of Mulliken charges =   0.00000

 Dipole moment (field-independent basis, Debye):
    X=             -1.2725    Y=             -2.8640    Z=             -0.0026  Tot=              3.1340

 Test job not archived.
 1\1\GINC-SE340\SP\RHF\Aug-CC-pVDZ\C4H3N3\OHZDE\09-Apr-2025\0\\#t hf au
 g-cc-pvdz iop(5/13=1,5/36=2,99/5=2) pseudo=read geom=check guess=(read
 ,tcheck) scf=(maxcycle=1)\\title\\0,1\N,0,3.08628483,-0.65938717,0.311
 69613\C,0,1.95974357,-0.45383665,0.20806858\C,0,0.57235626,-0.2185408,
 0.08688293\N,0,-0.4382376,-1.06711563,0.34346101\C,0,-1.69729943,-0.53
 856964,0.12836881\C,0,-1.36357332,0.74305981,-0.29360326\N,0,-0.001661
 16,0.91589431,-0.31222334\H,0,-0.28214123,-2.00826613,0.6655606\H,0,-2
 .00710306,1.55658887,-0.5860287\H,0,0.50983413,1.74209402,-0.57665076\

 Normal termination of Gaussian 16 at Wed Apr  9 18:33:10 2025.
