 Gaussian 16, Revision C.01,

 ----------------------------------------------------------------------
 #t hf aug-cc-pvdz symm=none int=(grid=ultrafine) guess=(read,tcheck) s
 table=(opt,rrhf)
 ----------------------------------------------------------------------
 -----
 title
 -----
 Symbolic Z-matrix:
 Charge =  0 Multiplicity = 1

 SCF Done:  E(RHF) =  -323.720075024     A.U. after   17 cycles
 Normal termination of Gaussian 16 at Wed Apr  9 18:33:40 2025.
 Gaussian 16:  ES64L-G16RevC.01  3-Jul-2019

 ----------------------------------------------------------------------
 #t hf aug-cc-pvdz iop(5/13=1,5/36=2,99/5=2) pseudo=read geom=check gue
 ss=(read,tcheck) scf=(maxcycle=1)
 ----------------------------------------------------------------------
 -----
 title
 -----
 Structure from the checkpoint file:  "Grambow2020_wb97xd3_007257_reverse_mol1.chk"
 Charge =  0 Multiplicity = 1

                         Standard orientation:
 ---------------------------------------------------------------------
 Center     Atomic      Atomic             Coordinates (Angstroms)
 Number     Number       Type             X           Y           Z
 ---------------------------------------------------------------------
      1          6           0       -1.576379   -1.009036    0.526975
      2          6           0       -0.559135   -0.022095   -0.033105
      3          6           0       -1.240149    1.251321   -0.558705
      4          6           0        0.498554    0.430877    0.948908
      5          8           0        1.624675    0.670499    0.293204
      6          6           0        1.402244   -0.686198   -0.380876
      7          7           0        0.261029   -0.692910   -1.021410
      8          1           0       -2.262411   -1.301680   -0.266866
      9          1           0       -2.147778   -0.561165    1.343527
     10          1           0       -1.073540   -1.903204    0.897316
     11          1           0       -1.839551    1.730841    0.216817
     12          1           0       -0.500398    1.955975   -0.937665
     13          1           0       -1.896231    0.969236   -1.381864
     14          1           0        0.297270    1.022251    1.843605
     15          1           0        1.094552   -1.147426    0.811788
     16          1           0        2.352681   -1.067656   -0.741608
 ---------------------------------------------------------------------

 SCF Done:  E(RHF) =  -325.273623866     A.U. after    2 cycles

 The electronic state is 1-A.
 Alpha  occ. eigenvalues --  -21.08643 -15.67330 -11.55524 -11.48809 -11.45184
 Alpha  occ. eigenvalues --  -11.40534 -11.37517  -1.83910  -1.39119  -1.17280
 Alpha  occ. eigenvalues --   -1.02372  -0.98134  -0.88649  -0.80008  -0.72079
 Alpha  occ. eigenvalues --   -0.67764  -0.60455  -0.59471  -0.55453  -0.54118
 Alpha  occ. eigenvalues --   -0.52531  -0.48781  -0.45499  -0.43294  -0.38420
 Alpha  occ. eigenvalues --   -0.33945  -0.26195
 Alpha virt. eigenvalues --    0.03664   0.04217   0.04966   0.05318   0.05946
 Alpha virt. eigenvalues --    0.06239   0.06651   0.07305   0.07594   0.08638
 Alpha virt. eigenvalues --    0.10811   0.11860   0.12514   0.13116   0.14303

 Mulliken charges:
               1
     1  C   -3.738957
     2  C    2.566251
     3  C   -3.789181
     4  C    0.550347
     5  O   -2.820276
     6  C   -0.074795
     7  N   -3.274357
     8  H    1.201733
     9  H    1.190921
    10  H    1.325603
    11  H    1.173104
    12  H    1.135270
    13  H    1.172072
    14  H    1.235767
    15  H    0.939565
    16  H    1.206932
 Sum of Mulliken charges =  -0.00000

 Dipole moment (field-independent basis, Debye):
    X=             -0.0246    Y=              1.7716    Z=              1.6360  Tot=              2.4116

 Test job not archived.
 1\1\GINC-SE131\SP\RHF\Aug-CC-pVDZ\C5H9N1O1\OHZDE\09-Apr-2025\0\\#t hf
 aug-cc-pvdz iop(5/13=1,5/36=2,99/5=2) pseudo=read geom=check guess=(re
 ad,tcheck) scf=(maxcycle=1)\\title\\0,1\C,0,1.00151469,1.06452712,0.74
 418826\C,0,0.20704748,0.08175009,-0.10757309\C,0,1.13254128,-0.8826393
 3,-0.86588729\C,0,-0.77454696,-0.77798216,0.65765361\O,0,-1.81466295,-
 1.04419623,-0.11875158\C,0,-1.8333373,0.45377824,-0.43530867\N,0,-0.69
 541136,0.8190382,-0.96860972\H,0,1.64311284,1.65959096,0.09556323\H,0,
 1.62271837,0.53799068,1.47268522\H,0,0.32742713,1.73703611,1.27604575\

 Normal termination of Gaussian 16 at Wed Apr  9 18:33:45 2025.
