 Gaussian 16, Revision C.01,

 ----------------------------------------------------------------------
 #t hf aug-cc-pvdz symm=none int=(grid=ultrafine) guess=(read,tcheck) s
 table=(opt,rrhf)
 ----------------------------------------------------------------------
 -----
 title
 -----
 Symbolic Z-matrix:
 Charge =  0 Multiplicity = 1

 SCF Done:  E(RHF) =  -344.864281552     A.U. after   13 cycles

 1\1\GINC-SE220\Stability\RHF\Aug-CC-pVDZ\C5H10O2\OHZDE\09-Apr-2025\0\\
 #t hf aug-cc-pvdz symm=none int=(grid=ultrafine) guess=(read,tcheck) s
 table=(opt,rrhf)\\title\\0,1\C,0,-1.62899997,-1.48595744,0.40212976\C,
 0,-0.58093517,-0.52886225,-0.0436839\C,0,0.93559281,-0.72905833,-0.096
 96327\C,0,0.99192597,0.32136575,-1.24646785\O,0,1.35993602,2.13068079,
 1.60448821\C,0,-0.52013355,0.46529953,-1.1205426\O,0,-0.79316161,0.861
 71668,0.2263878\H,0,-1.51082398,-2.44472727,-0.10515092\H,0,-1.5516586
 9,-1.65853295,1.47790896\H,0,-2.62224787,-1.09255935,0.18539358\H,0,1.

 Normal termination of Gaussian 16 at Wed Apr  9 18:44:46 2025.
 Gaussian 16:  ES64L-G16RevC.01  3-Jul-2019

 ----------------------------------------------------------------------
 #t hf aug-cc-pvdz iop(5/13=1,5/36=2,99/5=2) pseudo=read geom=check gue
 ss=(read,tcheck) scf=(maxcycle=1)
 ----------------------------------------------------------------------
 -----
 title
 -----
 Structure from the checkpoint file:  "Grambow2020_wb97xd3_007597_reverse_mol2.chk"
 Charge =  0 Multiplicity = 1

                         Standard orientation:
 ---------------------------------------------------------------------
 Center     Atomic      Atomic             Coordinates (Angstroms)
 Number     Number       Type             X           Y           Z
 ---------------------------------------------------------------------
      1          6           0        2.112616   -1.036027    0.304174
      2          6           0        0.913940   -0.179841    0.095991
      3          6           0        0.183758    0.704678    1.109517
      4          6           0       -0.284563    1.602852   -0.074495
      5          8           0       -2.721586   -0.739721    0.257579
      6          6           0        0.462908    0.665029   -1.015065
      7          8           0       -0.081917   -0.643511   -0.823231
      8          1           0        2.913581   -0.463323    0.774284
      9          1           0        1.868465   -1.877722    0.956099
     10          1           0        2.471453   -1.428273   -0.647486
     11          1           0        0.867684    1.223387    1.781381
     12          1           0       -0.594502    0.203826    1.684736
     13          1           0        0.147076    2.602647   -0.039427
     14          1           0       -1.358958    1.667974   -0.243590
     15          1           0       -1.866533   -0.813212   -0.192589
     16          1           0        0.907074    0.863131   -1.982227
     17          1           0       -3.259273   -1.452725   -0.086698
 ---------------------------------------------------------------------

 SCF Done:  E(RHF) =  -346.464493699     A.U. after    2 cycles

 The electronic state is 1-A.
 Alpha  occ. eigenvalues --  -21.06343 -21.05947 -11.53980 -11.44929 -11.44203
 Alpha  occ. eigenvalues --  -11.39897 -11.36159  -1.81083  -1.63131  -1.23818
 Alpha  occ. eigenvalues --   -1.10098  -0.95085  -0.89122  -0.77950  -0.68701
 Alpha  occ. eigenvalues --   -0.62903  -0.62370  -0.60216  -0.58035  -0.52994
 Alpha  occ. eigenvalues --   -0.51946  -0.47259  -0.43826  -0.43537  -0.40762
 Alpha  occ. eigenvalues --   -0.35435  -0.32581  -0.30133
 Alpha virt. eigenvalues --    0.03793   0.04786   0.05290   0.05379   0.05773
 Alpha virt. eigenvalues --    0.06216   0.06552   0.07176   0.08110   0.10630
 Alpha virt. eigenvalues --    0.11058   0.12581   0.12956   0.13129   0.14254

 Mulliken charges:
               1
     1  C   -5.542494
     2  C    5.226386
     3  C   -3.442701
     4  C   -2.659611
     5  O   -2.070661
     6  C   -0.581975
     7  O   -3.320443
     8  H    1.144658
     9  H    1.198348
    10  H    1.099741
    11  H    1.311796
    12  H    1.284013
    13  H    1.320388
    14  H    1.323553
    15  H    1.542031
    16  H    1.361673
    17  H    0.805295
 Sum of Mulliken charges =  -0.00000

 Dipole moment (field-independent basis, Debye):
    X=              1.3767    Y=             -0.0708    Z=             -0.4236  Tot=              1.4422

 Test job not archived.
 1\1\GINC-SE220\SP\RHF\Aug-CC-pVDZ\C5H10O2\OHZDE\09-Apr-2025\0\\#t hf a
 ug-cc-pvdz iop(5/13=1,5/36=2,99/5=2) pseudo=read geom=check guess=(rea
 d,tcheck) scf=(maxcycle=1)\\title\\0,1\C,0,-1.62899997,-1.48595744,0.4
 0212976\C,0,-0.58093517,-0.52886225,-0.0436839\C,0,0.93559281,-0.72905
 833,-0.09696327\C,0,0.99192597,0.32136575,-1.24646785\O,0,1.35993602,2
 .13068079,1.60448821\C,0,-0.52013355,0.46529953,-1.1205426\O,0,-0.7931
 6161,0.86171668,0.2263878\H,0,-1.51082398,-2.44472727,-0.10515092\H,0,
 -1.55165869,-1.65853295,1.47790896\H,0,-2.62224787,-1.09255935,0.18539

 Normal termination of Gaussian 16 at Wed Apr  9 18:44:52 2025.
