 Gaussian 16, Revision C.01,

 ----------------------------------------------------------------------
 #t hf aug-cc-pvdz symm=none int=(grid=ultrafine) guess=(read,tcheck) s
 table=(opt,rrhf)
 ----------------------------------------------------------------------
 -----
 title
 -----
 Symbolic Z-matrix:
 Charge =  0 Multiplicity = 1

 SCF Done:  E(RHF) =  -307.874423947     A.U. after   13 cycles

 1\1\GINC-SE224\Stability\RHF\Aug-CC-pVDZ\C6H10O1\OHZDE\09-Apr-2025\0\\
 #t hf aug-cc-pvdz symm=none int=(grid=ultrafine) guess=(read,tcheck) s
 table=(opt,rrhf)\\title\\0,1\C,0,2.056611,0.03434252,-1.39408409\C,0,1
 .06932687,-0.1063429,-0.26389156\C,0,0.2704056,1.13538148,0.15471951\C
 ,0,-0.96346212,0.28478693,-0.20508351\O,0,-0.13540413,-0.78981858,-0.6
 6676882\C,0,-1.93221059,-1.28903856,1.47088023\C,0,-1.8620001,-0.08410
 25,0.93020774\H,0,2.38846463,-0.94790502,-1.73495753\H,0,2.93288762,0.
 59725014,-1.06370326\H,0,1.60196441,0.55548686,-2.2388932\H,0,1.529844

 Normal termination of Gaussian 16 at Wed Apr  9 19:16:10 2025.
 Gaussian 16:  ES64L-G16RevC.01  3-Jul-2019

 ----------------------------------------------------------------------
 #t hf aug-cc-pvdz iop(5/13=1,5/36=2,99/5=2) pseudo=read geom=check gue
 ss=(read,tcheck) scf=(maxcycle=1)
 ----------------------------------------------------------------------
 -----
 title
 -----
 Structure from the checkpoint file:  "Grambow2020_wb97xd3_008502_reverse_mol2.chk"
 Charge =  0 Multiplicity = 1

                         Standard orientation:
 ---------------------------------------------------------------------
 Center     Atomic      Atomic             Coordinates (Angstroms)
 Number     Number       Type             X           Y           Z
 ---------------------------------------------------------------------
      1          6           0       -2.574564   -0.361465   -0.000062
      2          6           0       -1.139365   -0.221753   -0.438857
      3          6           0       -0.494553    1.168967   -0.364666
      4          6           0        0.511221    0.492886    0.587559
      5          8           0       -0.212221   -0.743050    0.535555
      6          6           0        2.488186   -0.718858   -0.333062
      7          6           0        1.918805    0.395006    0.096169
      8          1           0       -2.839403   -1.414697    0.108080
      9          1           0       -3.242217    0.086229   -0.740120
     10          1           0       -2.732582    0.132754    0.960550
     11          1           0       -0.985430   -0.717608   -1.403645
     12          1           0       -0.075541    1.552598   -1.292919
     13          1           0       -1.121867    1.928292    0.100753
     14          1           0        0.507546    0.901097    1.604964
     15          1           0        3.514628   -0.729938   -0.677490
     16          1           0        1.938921   -1.652706   -0.339123
     17          1           0        2.475339    1.329674    0.112024
 ---------------------------------------------------------------------

 SCF Done:  E(RHF) =  -309.341923671     A.U. after    2 cycles

 The electronic state is 1-A.
 Alpha  occ. eigenvalues --  -21.02662 -11.48493 -11.44446 -11.40689 -11.39324
 Alpha  occ. eigenvalues --  -11.37420 -11.35943  -1.77200  -1.18094  -1.14735
 Alpha  occ. eigenvalues --   -1.05445  -0.93200  -0.81988  -0.74258  -0.68602
 Alpha  occ. eigenvalues --   -0.65828  -0.62233  -0.58802  -0.55436  -0.53086
 Alpha  occ. eigenvalues --   -0.50074  -0.48683  -0.47311  -0.41440  -0.35174
 Alpha  occ. eigenvalues --   -0.33358  -0.28831
 Alpha virt. eigenvalues --    0.03854   0.05015   0.05218   0.05335   0.05495
 Alpha virt. eigenvalues --    0.05957   0.06404   0.06761   0.07685   0.08278
 Alpha virt. eigenvalues --    0.10975   0.11912   0.12358   0.13640   0.13959

 Mulliken charges:
               1
     1  C   -3.977739
     2  C    0.518665
     3  C   -3.438568
     4  C    0.027123
     5  O   -3.130742
     6  C   -3.138893
     7  C   -0.519919
     8  H    1.171289
     9  H    1.190794
    10  H    1.231001
    11  H    1.641021
    12  H    1.384625
    13  H    1.310245
    14  H    1.493936
    15  H    1.380750
    16  H    1.513107
    17  H    1.343306
 Sum of Mulliken charges =  -0.00000

 Dipole moment (field-independent basis, Debye):
    X=             -0.3279    Y=              0.6299    Z=             -0.3410  Tot=              0.7877

 Test job not archived.
 1\1\GINC-SE224\SP\RHF\Aug-CC-pVDZ\C6H10O1\OHZDE\09-Apr-2025\0\\#t hf a
 ug-cc-pvdz iop(5/13=1,5/36=2,99/5=2) pseudo=read geom=check guess=(rea
 d,tcheck) scf=(maxcycle=1)\\title\\0,1\C,0,2.056611,0.03434252,-1.3940
 8409\C,0,1.06932687,-0.1063429,-0.26389156\C,0,0.2704056,1.13538148,0.
 15471951\C,0,-0.96346212,0.28478693,-0.20508351\O,0,-0.13540413,-0.789
 81858,-0.66676882\C,0,-1.93221059,-1.28903856,1.47088023\C,0,-1.862000
 1,-0.0841025,0.93020774\H,0,2.38846463,-0.94790502,-1.73495753\H,0,2.9
 3288762,0.59725014,-1.06370326\H,0,1.60196441,0.55548686,-2.2388932\H,

 Normal termination of Gaussian 16 at Wed Apr  9 19:16:16 2025.
