 Gaussian 16, Revision C.01,

 ----------------------------------------------------------------------
 #t hf aug-cc-pvdz symm=none int=(grid=ultrafine) guess=(read,tcheck) s
 table=(opt,rrhf)
 ----------------------------------------------------------------------
 -----
 title
 -----
 Symbolic Z-matrix:
 Charge =  0 Multiplicity = 1

 SCF Done:  E(RHF) =  -324.933157975     A.U. after   15 cycles
 Normal termination of Gaussian 16 at Wed Apr  9 19:11:17 2025.
 Gaussian 16:  ES64L-G16RevC.01  3-Jul-2019

 ----------------------------------------------------------------------
 #t hf aug-cc-pvdz iop(5/13=1,5/36=2,99/5=2) pseudo=read geom=check gue
 ss=(read,tcheck) scf=(maxcycle=1)
 ----------------------------------------------------------------------
 -----
 title
 -----
 Structure from the checkpoint file:  "Grambow2020_wb97xd3_008231_reverse_mol1.chk"
 Charge =  0 Multiplicity = 1

                         Standard orientation:
 ---------------------------------------------------------------------
 Center     Atomic      Atomic             Coordinates (Angstroms)
 Number     Number       Type             X           Y           Z
 ---------------------------------------------------------------------
      1          6           0        1.464801   -1.382142   -0.299365
      2          6           0        2.234569   -0.297488   -0.006438
      3          6           0        0.719132    1.550893    0.059979
      4          7           0       -0.313624    1.036748   -0.533905
      5          6           0       -0.946247   -0.144952    0.139305
      6          8           0       -0.809644   -0.164070    1.387132
      7          6           0       -2.293392   -0.471726   -0.495020
      8          1           0        1.459288   -1.798524   -1.301389
      9          1           0        1.107080   -2.023450    0.497880
     10          1           0       -0.096127   -0.875235   -0.415244
     11          1           0        2.490017   -0.071591    1.019676
     12          1           0        2.830239    0.177665   -0.776788
     13          1           0        0.715957    1.475334    1.139206
     14          1           0        1.360905    2.238379   -0.472207
     15          1           0       -0.375728    1.092432   -1.541600
     16          1           0       -2.570880   -1.481411   -0.196902
     17          1           0       -2.272120   -0.422903   -1.587619
     18          1           0       -3.049281    0.217124   -0.115495
 ---------------------------------------------------------------------

 SCF Done:  E(RHF) =  -326.522938781     A.U. after    2 cycles

 The electronic state is 1-A.
 Alpha  occ. eigenvalues --  -20.93781 -15.80773 -11.46929 -11.45487 -11.43366
 Alpha  occ. eigenvalues --  -11.37660 -11.36555  -1.64139  -1.42193  -1.14769
 Alpha  occ. eigenvalues --   -1.09338  -0.96108  -0.84595  -0.81844  -0.72622
 Alpha  occ. eigenvalues --   -0.65527  -0.65258  -0.62159  -0.56960  -0.55675
 Alpha  occ. eigenvalues --   -0.54019  -0.50331  -0.49943  -0.43670  -0.41251
 Alpha  occ. eigenvalues --   -0.34820  -0.24314  -0.22425
 Alpha virt. eigenvalues --    0.03006   0.04061   0.04929   0.05262   0.05494
 Alpha virt. eigenvalues --    0.06015   0.06651   0.07268   0.07889   0.08529
 Alpha virt. eigenvalues --    0.09850   0.10459   0.11663   0.12413   0.13345

 Mulliken charges:
               1
     1  C   -3.366926
     2  C   -2.959760
     3  C   -2.012457
     4  N   -2.489442
     5  C    3.188887
     6  O   -3.228472
     7  C   -4.784492
     8  H    1.175293
     9  H    1.163051
    10  H    3.389074
    11  H    1.438627
    12  H    1.310259
    13  H    1.517663
    14  H    1.449850
    15  H    0.802887
    16  H    1.066438
    17  H    1.175300
    18  H    1.164221
 Sum of Mulliken charges =   0.00000

 Dipole moment (field-independent basis, Debye):
    X=              1.7533    Y=              1.9969    Z=             -3.2052  Tot=              4.1636

 Test job not archived.
 1\1\GINC-SE108\SP\RHF\Aug-CC-pVDZ\C5H11N1O1\OHZDE\09-Apr-2025\0\\#t hf
  aug-cc-pvdz iop(5/13=1,5/36=2,99/5=2) pseudo=read geom=check guess=(r
 ead,tcheck) scf=(maxcycle=1)\\title\\0,1\C,0,-1.48127966,0.22648814,-1
 .00437908\C,0,-1.98478951,0.81362945,0.11658684\C,0,-0.28816931,0.5517
 7014,1.78103361\N,0,0.4515702,-0.36027887,1.22914455\C,0,1.09290408,0.
 00576888,-0.07643433\O,0,1.32316625,1.23220683,-0.21400899\C,0,2.14335
 058,-1.02607114,-0.47117482\H,0,-1.82116023,-0.75761721,-1.31011394\H,
 0,-0.99419673,0.83154028,-1.76035598\H,0,0.03089057,-0.31753893,-0.651

 Normal termination of Gaussian 16 at Wed Apr  9 19:11:24 2025.
