 Gaussian 16, Revision C.01,

 ----------------------------------------------------------------------
 #t hf aug-cc-pvdz symm=none int=(grid=ultrafine) guess=(read,tcheck) s
 table=(opt,rrhf)
 ----------------------------------------------------------------------
 -----
 title
 -----
 Symbolic Z-matrix:
 Charge =  0 Multiplicity = 1

 SCF Done:  E(RHF) =  -359.530785252     A.U. after   16 cycles
 Normal termination of Gaussian 16 at Wed Apr  9 03:46:33 2025.
 Gaussian 16:  ES64L-G16RevC.01  3-Jul-2019

 ----------------------------------------------------------------------
 #t hf aug-cc-pvdz iop(5/13=1,5/36=2,99/5=2) pseudo=read geom=check gue
 ss=(read,tcheck) scf=(maxcycle=1)
 ----------------------------------------------------------------------
 -----
 title
 -----
 Structure from the checkpoint file:  "Grambow2020_wb97xd3_007900_forward_mol1.chk"
 Charge =  0 Multiplicity = 1

                         Standard orientation:
 ---------------------------------------------------------------------
 Center     Atomic      Atomic             Coordinates (Angstroms)
 Number     Number       Type             X           Y           Z
 ---------------------------------------------------------------------
      1          6           0       -0.890747    1.568521    0.045949
      2          6           0       -0.360364    0.175107    0.167684
      3          7           0       -1.054930   -0.880474    0.057838
      4          8           0       -2.385702   -0.597543   -0.185453
      5          6           0        1.084559   -0.024491    0.493427
      6          6           0        1.870531   -1.147891   -0.043608
      7          8           0        2.006324    0.560460   -0.448811
      8          1           0       -1.624364    1.766875    0.829996
      9          1           0       -0.084172    2.297213    0.115516
     10          1           0       -1.402215    1.695719   -0.908874
     11          1           0       -2.780063   -1.468235   -0.268698
     12          1           0        1.345473    0.352878    1.482669
     13          1           0        2.744304   -1.330913    0.591035
     14          1           0        1.996698   -0.281032   -1.153110
 ---------------------------------------------------------------------

 SCF Done:  E(RHF) =  -361.146073117     A.U. after    2 cycles

 The electronic state is 1-A.
 Alpha  occ. eigenvalues --  -21.10597 -21.10188 -15.77957 -11.49539 -11.44057
 Alpha  occ. eigenvalues --  -11.41327 -11.38330  -1.81327  -1.78678  -1.29860
 Alpha  occ. eigenvalues --   -1.07223  -1.03875  -0.91114  -0.76558  -0.69164
 Alpha  occ. eigenvalues --   -0.65000  -0.61383  -0.60491  -0.56498  -0.53654
 Alpha  occ. eigenvalues --   -0.51252  -0.49814  -0.42835  -0.37834  -0.35530
 Alpha  occ. eigenvalues --   -0.32426  -0.30064
 Alpha virt. eigenvalues --    0.03881   0.05198   0.05867   0.05938   0.06358
 Alpha virt. eigenvalues --    0.06743   0.07044   0.09849   0.11420   0.12018
 Alpha virt. eigenvalues --    0.12995   0.13121   0.14046   0.14855   0.15637

 Mulliken charges:
               1
     1  C   -4.536681
     2  C    2.634579
     3  N   -0.780388
     4  O   -2.629760
     5  C    1.054765
     6  C   -2.208868
     7  O   -2.395463
     8  H    1.262064
     9  H    1.382613
    10  H    1.252661
    11  H    0.916749
    12  H    1.600739
    13  H    1.186544
    14  H    1.260444
 Sum of Mulliken charges =  -0.00000

 Dipole moment (field-independent basis, Debye):
    X=             -0.4155    Y=              2.4781    Z=              0.6798  Tot=              2.6031

 Test job not archived.
 1\1\GINC-SE094\SP\RHF\Aug-CC-pVDZ\C4H7N1O2\OHZDE\09-Apr-2025\0\\#t hf
 aug-cc-pvdz iop(5/13=1,5/36=2,99/5=2) pseudo=read geom=check guess=(re
 ad,tcheck) scf=(maxcycle=1)\\title\\0,1\C,0,-1.22970069,-1.12641206,-0
 .11838324\C,0,-0.38701805,0.10578601,-0.02194139\N,0,-0.76781594,1.211
 67682,0.46870984\O,0,-2.07688826,1.1557168,0.90847199\C,0,0.99812784,0
 .08224402,-0.58280573\C,0,2.11254665,0.8281431,0.02538077\O,0,1.868358
 15,-0.91545627,-0.01103392\H,0,-2.09551212,-0.94677839,-0.75898455\H,0
 ,-0.65308465,-1.95942307,-0.51838623\H,0,-1.61235043,-1.40006123,0.865

 Normal termination of Gaussian 16 at Wed Apr  9 03:46:37 2025.
