 Gaussian 16, Revision C.01,

 ----------------------------------------------------------------------
 #t hf aug-cc-pvdz symm=none int=(grid=ultrafine) guess=(read,tcheck) s
 table=(opt,rrhf)
 ----------------------------------------------------------------------
 -----
 title
 -----
 Symbolic Z-matrix:
 Charge =  0 Multiplicity = 1

 SCF Done:  E(RHF) =  -343.725385198     A.U. after   15 cycles
 Normal termination of Gaussian 16 at Wed Apr  9 18:48:43 2025.
 Gaussian 16:  ES64L-G16RevC.01  3-Jul-2019

 ----------------------------------------------------------------------
 #t hf aug-cc-pvdz iop(5/13=1,5/36=2,99/5=2) pseudo=read geom=check gue
 ss=(read,tcheck) scf=(maxcycle=1)
 ----------------------------------------------------------------------
 -----
 title
 -----
 Structure from the checkpoint file:  "Grambow2020_wb97xd3_007675_reverse_mol2.chk"
 Charge =  0 Multiplicity = 1

                         Standard orientation:
 ---------------------------------------------------------------------
 Center     Atomic      Atomic             Coordinates (Angstroms)
 Number     Number       Type             X           Y           Z
 ---------------------------------------------------------------------
      1          6           0       -1.746735   -1.427383   -0.262944
      2          6           0       -0.683651   -0.683486    0.500450
      3          6           0        0.453242   -0.019931   -0.263747
      4          8           0        2.821473   -0.106577   -0.386012
      5          6           0        1.819457   -0.068018    0.277705
      6          6           0       -0.601306    0.790412    0.475028
      7          8           0       -1.549563    1.478382   -0.268180
      8          1           0       -1.396858   -2.424328   -0.534839
      9          1           0       -2.019496   -0.894284   -1.172693
     10          1           0       -2.647726   -1.533554    0.343521
     11          1           0       -0.391743   -1.137020    1.442613
     12          1           0        0.377622   -0.026022   -1.344499
     13          1           0        1.881782   -0.062786    1.389685
     14          1           0       -0.281696    1.288778    1.387374
     15          1           0       -1.143217    2.265215   -0.636583
 ---------------------------------------------------------------------

 SCF Done:  E(RHF) =  -345.279152563     A.U. after    2 cycles

 The electronic state is 1-A.
 Alpha  occ. eigenvalues --  -21.09485 -21.05780 -11.49167 -11.47869 -11.43935
 Alpha  occ. eigenvalues --  -11.39678 -11.38100  -1.75123  -1.70502  -1.32045
 Alpha  occ. eigenvalues --   -1.06986  -0.94581  -0.82910  -0.81996  -0.70442
 Alpha  occ. eigenvalues --   -0.65240  -0.59483  -0.57486  -0.56191  -0.53634
 Alpha  occ. eigenvalues --   -0.50137  -0.49779  -0.47445  -0.40254  -0.38793
 Alpha  occ. eigenvalues --   -0.32118  -0.28453
 Alpha virt. eigenvalues --    0.03577   0.04780   0.05193   0.05512   0.05827
 Alpha virt. eigenvalues --    0.06254   0.06490   0.07341   0.10701   0.11439
 Alpha virt. eigenvalues --    0.12769   0.13262   0.13534   0.14148   0.14251

 Mulliken charges:
               1
     1  C   -4.455008
     2  C   -0.757242
     3  C   -1.337579
     4  O   -2.945370
     5  C    0.882741
     6  C    2.095594
     7  O   -3.273708
     8  H    1.207209
     9  H    1.300136
    10  H    1.176560
    11  H    1.370375
    12  H    1.310456
    13  H    1.261491
    14  H    1.496352
    15  H    0.667992
 Sum of Mulliken charges =   0.00000

 Dipole moment (field-independent basis, Debye):
    X=             -1.6726    Y=              0.2585    Z=              0.4849  Tot=              1.7606

 Test job not archived.
 1\1\GINC-SE220\SP\RHF\Aug-CC-pVDZ\C5H8O2\OHZDE\09-Apr-2025\0\\#t hf au
 g-cc-pvdz iop(5/13=1,5/36=2,99/5=2) pseudo=read geom=check guess=(read
 ,tcheck) scf=(maxcycle=1)\\title\\0,1\C,0,1.82512709,-0.35877842,0.471
 18989\C,0,0.38030834,0.01996405,0.6592206\C,0,-0.41005382,0.54900262,-
 0.52917033\O,0,-1.61524367,2.49415647,-1.1575555\C,0,-1.36221947,1.652
 76726,-0.33652824\C,0,-0.71336082,-0.80116393,0.10294725\O,0,-0.369155
 94,-1.95109124,-0.59278245\H,0,2.4597996,0.52836982,0.49112274\H,0,1.9
 74019,-0.87180031,-0.47795485\H,0,2.14974697,-1.03079829,1.26734854\H,

 Normal termination of Gaussian 16 at Wed Apr  9 18:48:48 2025.
