 Gaussian 16, Revision C.01,

 ----------------------------------------------------------------------
 #t hf aug-cc-pvdz symm=none int=(grid=ultrafine) guess=(read,tcheck) s
 table=(opt,rrhf)
 ----------------------------------------------------------------------
 -----
 title
 -----
 Symbolic Z-matrix:
 Charge =  0 Multiplicity = 1

 SCF Done:  E(RHF) =  -304.524598117     A.U. after   14 cycles
 Normal termination of Gaussian 16 at Wed Apr  9 03:14:22 2025.
 Gaussian 16:  ES64L-G16RevC.01  3-Jul-2019

 ----------------------------------------------------------------------
 #t hf aug-cc-pvdz iop(5/13=1,5/36=2,99/5=2) pseudo=read geom=check gue
 ss=(read,tcheck) scf=(maxcycle=1)
 ----------------------------------------------------------------------
 -----
 title
 -----
 Structure from the checkpoint file:  "Grambow2020_b97d3_006922_forward_mol1.chk"
 Charge =  0 Multiplicity = 1

                         Standard orientation:
 ---------------------------------------------------------------------
 Center     Atomic      Atomic             Coordinates (Angstroms)
 Number     Number       Type             X           Y           Z
 ---------------------------------------------------------------------
      1          8           0       -1.732015   -0.566339   -0.319197
      2          6           0       -0.538975   -0.045489    0.170177
      3          6           0       -0.416544    1.304011    0.683927
      4          6           0        0.551718    0.672996   -0.671885
      5          8           0        1.576834   -0.201739   -0.231889
      6          6           0        0.590419   -1.058743    0.446794
      7          1           0       -2.398804    0.138445   -0.191693
      8          1           0        0.492689    1.824729   -0.301339
      9          1           0        0.344566    1.385369    1.474238
     10          1           0        0.362110    0.798646   -1.740823
     11          1           0        0.843419   -1.240328    1.499507
     12          1           0        0.477759   -1.998886   -0.105282
 ---------------------------------------------------------------------

 SCF Done:  E(RHF) =  -305.880019303     A.U. after    2 cycles

 The electronic state is 1-A.
 Alpha  occ. eigenvalues --  -21.09223 -21.07224 -11.50610 -11.49094 -11.44069
 Alpha  occ. eigenvalues --  -11.39620  -1.81261  -1.71810  -1.23939  -1.03748
 Alpha  occ. eigenvalues --   -0.87758  -0.82337  -0.66774  -0.65535  -0.63326
 Alpha  occ. eigenvalues --   -0.60427  -0.54864  -0.48512  -0.43943  -0.39849
 Alpha  occ. eigenvalues --   -0.36038  -0.32192  -0.29292
 Alpha virt. eigenvalues --    0.03790   0.05190   0.05926   0.06187   0.06371
 Alpha virt. eigenvalues --    0.06940   0.09707   0.09840   0.10339   0.12690
 Alpha virt. eigenvalues --    0.13928   0.14365   0.14755   0.15392   0.15499

 Mulliken charges:
               1
     1  O   -3.653554
     2  C    3.454862
     3  C   -2.534408
     4  C   -0.006725
     5  O   -2.813750
     6  C   -1.553293
     7  H    0.770503
     8  H    1.157035
     9  H    1.077084
    10  H    1.404144
    11  H    1.358613
    12  H    1.339488
 Sum of Mulliken charges =   0.00000

 Dipole moment (field-independent basis, Debye):
    X=              0.9673    Y=             -1.1723    Z=             -0.5083  Tot=              1.6026

 Test job not archived.
 1\1\GINC-SE092\SP\RHF\Aug-CC-pVDZ\C4H6O2\OHZDE\09-Apr-2025\0\\#t hf au
 g-cc-pvdz iop(5/13=1,5/36=2,99/5=2) pseudo=read geom=check guess=(read
 ,tcheck) scf=(maxcycle=1)\\title\\0,1\O,0,0.366883,-1.49191061,-1.1149
 6351\C,0,0.07788975,-0.55140804,-0.13208291\C,0,-1.14562815,-0.5687590
 9,0.6443059\C,0,-0.63392096,0.81108949,-0.35974107\O,0,0.41607524,1.54
 789464,0.24378732\C,0,1.24927675,0.33720385,0.33370141\H,0,-0.3816517,
 -2.12212399,-1.10440956\H,0,-1.70858486,0.67114517,0.18136056\H,0,-1.0
 0625861,-0.16292606,1.65740765\H,0,-0.95376585,1.04907929,-1.37730061\

 Normal termination of Gaussian 16 at Wed Apr  9 03:14:26 2025.
