 Gaussian 16, Revision C.01,

 ----------------------------------------------------------------------
 #t hf aug-cc-pvdz symm=none int=(grid=ultrafine) guess=(read,tcheck) s
 table=(opt,rrhf)
 ----------------------------------------------------------------------
 -----
 title
 -----
 Symbolic Z-matrix:
 Charge =  0 Multiplicity = 1

 SCF Done:  E(RHF) =  -308.918197982     A.U. after   16 cycles

 1\1\GINC-SE459\Stability\RHF\Aug-CC-pVDZ\C6H12O1\OHZDE\09-Apr-2025\0\\
 #t hf aug-cc-pvdz symm=none int=(grid=ultrafine) guess=(read,tcheck) s
 table=(opt,rrhf)\\title\\0,1\C,0,-1.258555,-1.56123225,-1.04010948\C,0
 ,-0.47914064,-0.4689676,-0.35527292\C,0,-0.93029462,0.21480909,0.90684
 198\C,0,-0.37278768,1.69264424,0.70337857\O,0,0.22688011,1.77463939,-0
 .54311893\C,0,0.89456787,-0.23857267,-0.61001238\C,0,2.0141073,-0.0830
 7682,0.35643423\H,0,-2.31151948,-1.28708129,-1.12582898\H,0,-0.8781922
 3,-1.75143694,-2.04670732\H,0,-1.20920804,-2.50311917,-0.48661214\H,0,

 Normal termination of Gaussian 16 at Wed Apr  9 03:28:39 2025.
 Gaussian 16:  ES64L-G16RevC.01  3-Jul-2019

 ----------------------------------------------------------------------
 #t hf aug-cc-pvdz iop(5/13=1,5/36=2,99/5=2) pseudo=read geom=check gue
 ss=(read,tcheck) scf=(maxcycle=1)
 ----------------------------------------------------------------------
 -----
 title
 -----
 Structure from the checkpoint file:  "Grambow2020_wb97xd3_006724_forward_mol1.chk"
 Charge =  0 Multiplicity = 1

                         Standard orientation:
 ---------------------------------------------------------------------
 Center     Atomic      Atomic             Coordinates (Angstroms)
 Number     Number       Type             X           Y           Z
 ---------------------------------------------------------------------
      1          6           0        2.362075    0.012513   -0.159889
      2          6           0        0.865905   -0.028364    0.011383
      3          6           0        0.150758   -1.027518    0.879875
      4          6           0       -1.210567   -1.248075    0.083409
      5          8           0       -1.166488   -0.507947   -1.087209
      6          6           0        0.030969    1.066560   -0.318879
      7          6           0       -1.032668    1.713346    0.494701
      8          1           0        2.755421   -0.987924   -0.348689
      9          1           0        2.650033    0.650324   -0.999157
     10          1           0        2.862292    0.398177    0.732855
     11          1           0        0.236530   -0.414881   -1.030602
     12          1           0       -0.049854   -0.679686    1.895643
     13          1           0        0.729445   -1.950072    0.961442
     14          1           0       -2.067693   -0.963640    0.709000
     15          1           0       -1.319951   -2.314514   -0.143593
     16          1           0        0.374795    1.671636   -1.158427
     17          1           0       -1.476215    1.048209    1.230807
     18          1           0       -0.547050    2.536099    1.035702
     19          1           0       -1.814681    2.139077   -0.130910
 ---------------------------------------------------------------------

 SCF Done:  E(RHF) =  -310.451919265     A.U. after    2 cycles

 The electronic state is 1-A.
 Alpha  occ. eigenvalues --  -20.95822 -11.51774 -11.44593 -11.40964 -11.40423
 Alpha  occ. eigenvalues --  -11.37571 -11.35932  -1.64111  -1.27774  -1.12103
 Alpha  occ. eigenvalues --   -1.04832  -0.97345  -0.85021  -0.76143  -0.67726
 Alpha  occ. eigenvalues --   -0.64705  -0.61058  -0.59508  -0.56813  -0.56521
 Alpha  occ. eigenvalues --   -0.53922  -0.50936  -0.48735  -0.45211  -0.42369
 Alpha  occ. eigenvalues --   -0.36755  -0.26746  -0.21575
 Alpha virt. eigenvalues --    0.03173   0.04487   0.04664   0.05258   0.05455
 Alpha virt. eigenvalues --    0.05665   0.06490   0.06718   0.07809   0.08485
 Alpha virt. eigenvalues --    0.09300   0.09639   0.09982   0.12705   0.12995

 Mulliken charges:
               1
     1  C   -5.131229
     2  C    1.751228
     3  C   -4.252687
     4  C   -1.266173
     5  O   -2.427483
     6  C   -0.024681
     7  C   -4.827819
     8  H    1.186887
     9  H    1.162399
    10  H    1.211208
    11  H    2.649454
    12  H    1.185695
    13  H    1.248159
    14  H    1.400075
    15  H    1.134917
    16  H    1.258275
    17  H    1.401084
    18  H    1.119602
    19  H    1.221089
 Sum of Mulliken charges =  -0.00000

 Dipole moment (field-independent basis, Debye):
    X=              0.8493    Y=              1.9086    Z=              0.5087  Tot=              2.1501

 Test job not archived.
 1\1\GINC-SE459\SP\RHF\Aug-CC-pVDZ\C6H12O1\OHZDE\09-Apr-2025\0\\#t hf a
 ug-cc-pvdz iop(5/13=1,5/36=2,99/5=2) pseudo=read geom=check guess=(rea
 d,tcheck) scf=(maxcycle=1)\\title\\0,1\C,0,-1.258555,-1.56123225,-1.04
 010948\C,0,-0.47914064,-0.4689676,-0.35527292\C,0,-0.93029462,0.214809
 09,0.90684198\C,0,-0.37278768,1.69264424,0.70337857\O,0,0.22688011,1.7
 7463939,-0.54311893\C,0,0.89456787,-0.23857267,-0.61001238\C,0,2.01410
 73,-0.08307682,0.35643423\H,0,-2.31151948,-1.28708129,-1.12582898\H,0,
 -0.87819223,-1.75143694,-2.04670732\H,0,-1.20920804,-2.50311917,-0.486

 Normal termination of Gaussian 16 at Wed Apr  9 03:28:45 2025.
