 Gaussian 16, Revision C.01,

 ----------------------------------------------------------------------
 #t hf aug-cc-pvdz symm=none int=(grid=ultrafine) guess=(read,tcheck) s
 table=(opt,rrhf)
 ----------------------------------------------------------------------
 -----
 title
 -----
 Symbolic Z-matrix:
 Charge =  0 Multiplicity = 1

 SCF Done:  E(RHF) =  -308.893446731     A.U. after   15 cycles

 1\1\GINC-SE226\Stability\RHF\Aug-CC-pVDZ\C6H12O1\OHZDE\09-Apr-2025\0\\
 #t hf aug-cc-pvdz symm=none int=(grid=ultrafine) guess=(read,tcheck) s
 table=(opt,rrhf)\\title\\0,1\C,0,1.8436875,-0.12047643,-1.48876711\C,0
 ,1.0749084,0.33454011,0.52503565\O,0,0.82898268,1.67323755,0.44524979\
 C,0,-0.57392208,1.48056105,0.16764916\C,0,-0.41954088,-0.02555707,0.45
 27029\C,0,-0.88656501,-0.40429586,1.85719277\C,0,-0.97274036,-0.997288
 31,-0.57145321\H,0,2.8875087,0.15669117,-1.63819506\H,0,1.65108838,-1.
 14902415,-1.78603919\H,0,1.18955948,0.58552336,-1.99028459\H,0,1.98213

 Normal termination of Gaussian 16 at Wed Apr  9 18:05:07 2025.
 Gaussian 16:  ES64L-G16RevC.01  3-Jul-2019

 ----------------------------------------------------------------------
 #t hf aug-cc-pvdz iop(5/13=1,5/36=2,99/5=2) pseudo=read geom=check gue
 ss=(read,tcheck) scf=(maxcycle=1)
 ----------------------------------------------------------------------
 -----
 title
 -----
 Structure from the checkpoint file:  "Grambow2020_wb97xd3_006577_reverse_mol1.chk"
 Charge =  0 Multiplicity = 1

                         Standard orientation:
 ---------------------------------------------------------------------
 Center     Atomic      Atomic             Coordinates (Angstroms)
 Number     Number       Type             X           Y           Z
 ---------------------------------------------------------------------
      1          6           0        2.317386    0.588723   -0.232527
      2          6           0        0.474521   -0.481219   -0.791578
      3          8           0        0.501098   -1.558969    0.043110
      4          6           0       -0.383077   -0.940201    1.001071
      5          6           0       -0.632405    0.218458    0.016782
      6          6           0       -1.947925    0.064171   -0.744632
      7          6           0       -0.484772    1.633413    0.541467
      8          1           0        3.225019    0.162453   -0.660556
      9          1           0        2.248776    1.659392   -0.412347
     10          1           0        2.243196    0.339629    0.821175
     11          1           0        1.492766   -0.035016   -1.200258
     12          1           0        0.163109   -0.662733    1.907488
     13          1           0       -1.224121   -1.589739    1.251188
     14          1           0       -2.064630   -0.948004   -1.135159
     15          1           0       -1.976938    0.754385   -1.589708
     16          1           0       -2.796932    0.284248   -0.092006
     17          1           0       -0.397258    2.344965   -0.282371
     18          1           0        0.386379    1.752754    1.184090
     19          1           0       -1.370521    1.909358    1.120089
 ---------------------------------------------------------------------

 SCF Done:  E(RHF) =  -310.418324536     A.U. after    2 cycles

 The electronic state is 1-A.
 Alpha  occ. eigenvalues --  -21.06692 -11.46117 -11.45155 -11.40716 -11.39635
 Alpha  occ. eigenvalues --  -11.36746 -11.36609  -1.80951  -1.24208  -1.05155
 Alpha  occ. eigenvalues --   -1.01529  -0.98278  -0.92432  -0.74682  -0.66085
 Alpha  occ. eigenvalues --   -0.65427  -0.62610  -0.56785  -0.55765  -0.55129
 Alpha  occ. eigenvalues --   -0.54165  -0.53165  -0.52611  -0.46448  -0.43960
 Alpha  occ. eigenvalues --   -0.38206  -0.35371  -0.23785
 Alpha virt. eigenvalues --    0.03760   0.04934   0.05093   0.05186   0.05286
 Alpha virt. eigenvalues --    0.05793   0.06172   0.06955   0.07543   0.08929
 Alpha virt. eigenvalues --    0.09248   0.09702   0.10682   0.12541   0.13247

 Mulliken charges:
               1
     1  C   -4.671101
     2  C    0.324568
     3  O   -2.757959
     4  C   -1.739165
     5  C    0.772535
     6  C   -4.541792
     7  C   -4.370669
     8  H    0.941733
     9  H    1.232900
    10  H    1.583696
    11  H    2.614932
    12  H    1.646658
    13  H    1.492317
    14  H    1.243817
    15  H    1.249422
    16  H    1.214950
    17  H    1.169696
    18  H    1.471345
    19  H    1.122117
 Sum of Mulliken charges =  -0.00000

 Dipole moment (field-independent basis, Debye):
    X=             -0.8678    Y=              0.4201    Z=              1.2194  Tot=              1.5545

 Test job not archived.
 1\1\GINC-SE226\SP\RHF\Aug-CC-pVDZ\C6H12O1\OHZDE\09-Apr-2025\0\\#t hf a
 ug-cc-pvdz iop(5/13=1,5/36=2,99/5=2) pseudo=read geom=check guess=(rea
 d,tcheck) scf=(maxcycle=1)\\title\\0,1\C,0,1.8436875,-0.12047643,-1.48
 876711\C,0,1.0749084,0.33454011,0.52503565\O,0,0.82898268,1.67323755,0
 .44524979\C,0,-0.57392208,1.48056105,0.16764916\C,0,-0.41954088,-0.025
 55707,0.4527029\C,0,-0.88656501,-0.40429586,1.85719277\C,0,-0.97274036
 ,-0.99728831,-0.57145321\H,0,2.8875087,0.15669117,-1.63819506\H,0,1.65
 108838,-1.14902415,-1.78603919\H,0,1.18955948,0.58552336,-1.99028459\H

 Normal termination of Gaussian 16 at Wed Apr  9 18:05:14 2025.
