 Gaussian 16, Revision C.01,

 ----------------------------------------------------------------------
 #t hf aug-cc-pvdz symm=none int=(grid=ultrafine) guess=(read,tcheck) s
 table=(opt,rrhf)
 ----------------------------------------------------------------------
 -----
 title
 -----
 Symbolic Z-matrix:
 Charge =  0 Multiplicity = 1

 SCF Done:  E(RHF) =  -322.473797235     A.U. after   15 cycles
 Normal termination of Gaussian 16 at Wed Apr  9 03:27:02 2025.
 Gaussian 16:  ES64L-G16RevC.01  3-Jul-2019

 ----------------------------------------------------------------------
 #t hf aug-cc-pvdz iop(5/13=1,5/36=2,99/5=2) pseudo=read geom=check gue
 ss=(read,tcheck) scf=(maxcycle=1)
 ----------------------------------------------------------------------
 -----
 title
 -----
 Structure from the checkpoint file:  "Grambow2020_wb97xd3_006645_forward_mol1.chk"
 Charge =  0 Multiplicity = 1

                         Standard orientation:
 ---------------------------------------------------------------------
 Center     Atomic      Atomic             Coordinates (Angstroms)
 Number     Number       Type             X           Y           Z
 ---------------------------------------------------------------------
      1          6           0        1.908143    0.696807   -0.018013
      2          7           0        1.745894   -0.765515   -0.151846
      3          6           0        0.607777    0.037997   -0.093483
      4          6           0       -0.599248   -0.033973    0.815953
      5          6           0       -1.390527    1.039367    0.083751
      6          6           0       -1.233520   -0.074226   -0.966794
      7          8           0       -1.301927   -1.055386    0.076071
      8          1           0        2.208268    1.106726    0.942461
      9          1           0        2.345144    1.180450   -0.883108
     10          1           0        1.916066   -1.306535    0.688141
     11          1           0       -0.517047   -0.197068    1.903054
     12          1           0       -0.933204    2.011630   -0.089830
     13          1           0       -2.428568    1.112524    0.401439
     14          1           0       -0.152253   -0.101866   -1.436289
 ---------------------------------------------------------------------

 SCF Done:  E(RHF) =  -323.981798236     A.U. after    2 cycles

 The electronic state is 1-A.
 Alpha  occ. eigenvalues --  -21.04985 -15.76890 -11.53140 -11.48726 -11.45936
 Alpha  occ. eigenvalues --  -11.44272 -11.39348  -1.81640  -1.48330  -1.17513
 Alpha  occ. eigenvalues --   -0.96878  -0.96199  -0.92673  -0.77429  -0.69823
 Alpha  occ. eigenvalues --   -0.68000  -0.65070  -0.58009  -0.53813  -0.50472
 Alpha  occ. eigenvalues --   -0.49263  -0.46919  -0.41073  -0.37474  -0.30752
 Alpha  occ. eigenvalues --   -0.25879
 Alpha virt. eigenvalues --    0.03363   0.04903   0.05074   0.05173   0.05702
 Alpha virt. eigenvalues --    0.06199   0.07970   0.09163   0.10435   0.11409
 Alpha virt. eigenvalues --    0.11982   0.12419   0.13668   0.13766   0.14172

 Mulliken charges:
               1
     1  C   -2.020605
     2  N   -2.733825
     3  C    3.759372
     4  C   -1.404423
     5  C   -2.774964
     6  C   -0.648849
     7  O   -2.658091
     8  H    1.249557
     9  H    1.287626
    10  H    0.607016
    11  H    1.294344
    12  H    1.333044
    13  H    1.296859
    14  H    1.412940
 Sum of Mulliken charges =   0.00000

 Dipole moment (field-independent basis, Debye):
    X=              2.1850    Y=              1.1372    Z=              2.7817  Tot=              3.7156

 Test job not archived.
 1\1\GINC-SE195\SP\RHF\Aug-CC-pVDZ\C5H7N1O1\OHZDE\09-Apr-2025\0\\#t hf
 aug-cc-pvdz iop(5/13=1,5/36=2,99/5=2) pseudo=read geom=check guess=(re
 ad,tcheck) scf=(maxcycle=1)\\title\\0,1\C,0,-1.555012,-0.88225839,-0.2
 9847258\N,0,-1.82812234,0.55272794,-0.07745852\C,0,-0.50447432,0.12021
 039,-0.14979624\C,0,0.64635176,0.3159926,0.81271802\C,0,1.70179735,-0.
 27730512,-0.10833238\C,0,1.20744207,0.96180418,-0.87553915\O,0,1.00701
 528,1.64211058,0.37022719\H,0,-1.70448492,-1.578364,0.52232731\H,0,-1.
 84861652,-1.24942578,-1.27430717\H,0,-2.13245297,0.80480387,0.85585755

 Normal termination of Gaussian 16 at Wed Apr  9 03:27:10 2025.
