 Gaussian 16, Revision C.01,

 ----------------------------------------------------------------------
 #t hf aug-cc-pvdz symm=none int=(grid=ultrafine) guess=(read,tcheck) s
 table=(opt,rrhf)
 ----------------------------------------------------------------------
 -----
 title
 -----
 Symbolic Z-matrix:
 Charge =  0 Multiplicity = 1

 SCF Done:  E(RHF) =  -344.704170656     A.U. after   15 cycles

 1\1\GINC-SE345\Stability\RHF\Aug-CC-pVDZ\C5H10O2\OHZDE\09-Apr-2025\0\\
 #t hf aug-cc-pvdz symm=none int=(grid=ultrafine) guess=(read,tcheck) s
 table=(opt,rrhf)\\title\\0,1\C,0,1.90763973,0.86828456,-0.47680994\C,0
 ,0.91077305,-0.85988291,-0.00698679\C,0,0.59867999,-0.69742655,1.40745
 336\O,0,-0.6738222,-0.03414068,1.30468243\C,0,-1.2783549,-0.47876916,0
 .14343413\C,0,-2.19866814,0.55118334,-0.44472915\O,0,-0.16551192,-0.74
 879996,-0.78071979\H,0,1.99428706,0.56140839,-1.51554182\H,0,2.9050284
 7,1.05992051,-0.07184985\H,0,1.2613548,1.74266363,-0.39924275\H,0,1.71

 Normal termination of Gaussian 16 at Wed Apr  9 03:34:34 2025.
 Gaussian 16:  ES64L-G16RevC.01  3-Jul-2019

 ----------------------------------------------------------------------
 #t hf aug-cc-pvdz iop(5/13=1,5/36=2,99/5=2) pseudo=read geom=check gue
 ss=(read,tcheck) scf=(maxcycle=1)
 ----------------------------------------------------------------------
 -----
 title
 -----
 Structure from the checkpoint file:  "Grambow2020_wb97xd3_007110_reverse_mol1.chk"
 Charge =  0 Multiplicity = 1

                         Standard orientation:
 ---------------------------------------------------------------------
 Center     Atomic      Atomic             Coordinates (Angstroms)
 Number     Number       Type             X           Y           Z
 ---------------------------------------------------------------------
      1          6           0        2.014573   -1.066329   -0.523296
      2          6           0        1.020592    0.275975    0.664670
      3          6           0        0.714391    1.372449   -0.245507
      4          8           0       -0.558876    0.928505   -0.746980
      5          6           0       -1.168078    0.201822    0.259229
      6          6           0       -2.091399   -0.850363   -0.283080
      7          8           0       -0.059009   -0.428419    0.992822
      8          1           0        2.096991   -1.768422    0.301881
      9          1           0        3.013564   -0.835925   -0.903339
     10          1           0        1.368170   -1.477141   -1.298948
     11          1           0        1.820518    0.331898    1.392091
     12          1           0        1.627186    0.241386   -0.624473
     13          1           0        0.700462    2.367092    0.199940
     14          1           0       -1.660523    0.852250    0.997028
     15          1           0       -1.549629   -1.498164   -0.971961
     16          1           0       -2.506256   -1.447782    0.528566
     17          1           0       -2.907883   -0.367205   -0.819609
 ---------------------------------------------------------------------

 SCF Done:  E(RHF) =  -346.320292298     A.U. after    2 cycles

 The electronic state is 1-A.
 Alpha  occ. eigenvalues --  -21.09270 -21.04457 -11.52105 -11.48593 -11.38774
 Alpha  occ. eigenvalues --  -11.37700 -11.36845  -1.89166  -1.68424  -1.19481
 Alpha  occ. eigenvalues --   -1.09054  -0.99102  -0.86548  -0.82585  -0.73495
 Alpha  occ. eigenvalues --   -0.66927  -0.64474  -0.59047  -0.57766  -0.55586
 Alpha  occ. eigenvalues --   -0.53413  -0.51728  -0.49107  -0.44102  -0.38996
 Alpha  occ. eigenvalues --   -0.34826  -0.33303  -0.24311
 Alpha virt. eigenvalues --    0.03643   0.04527   0.05119   0.05494   0.05668
 Alpha virt. eigenvalues --    0.06203   0.06281   0.06908   0.08703   0.09639
 Alpha virt. eigenvalues --    0.11101   0.11500   0.12447   0.13736   0.13888

 Mulliken charges:
               1
     1  C   -4.779084
     2  C   -0.490044
     3  C   -1.209549
     4  O   -3.202223
     5  C    1.250351
     6  C   -3.113961
     7  O   -3.217034
     8  H    1.328488
     9  H    0.641629
    10  H    0.962958
    11  H    1.484085
    12  H    3.484514
    13  H    1.307506
    14  H    1.811584
    15  H    1.300079
    16  H    1.257144
    17  H    1.183557
 Sum of Mulliken charges =   0.00000

 Dipole moment (field-independent basis, Debye):
    X=             -0.1200    Y=             -1.5659    Z=              2.0431  Tot=              2.5770

 Test job not archived.
 1\1\GINC-SE345\SP\RHF\Aug-CC-pVDZ\C5H10O2\OHZDE\09-Apr-2025\0\\#t hf a
 ug-cc-pvdz iop(5/13=1,5/36=2,99/5=2) pseudo=read geom=check guess=(rea
 d,tcheck) scf=(maxcycle=1)\\title\\0,1\C,0,1.90763973,0.86828456,-0.47
 680994\C,0,0.91077305,-0.85988291,-0.00698679\C,0,0.59867999,-0.697426
 55,1.40745336\O,0,-0.6738222,-0.03414068,1.30468243\C,0,-1.2783549,-0.
 47876916,0.14343413\C,0,-2.19866814,0.55118334,-0.44472915\O,0,-0.1655
 1192,-0.74879996,-0.78071979\H,0,1.99428706,0.56140839,-1.51554182\H,0
 ,2.90502847,1.05992051,-0.07184985\H,0,1.2613548,1.74266363,-0.3992427

 Normal termination of Gaussian 16 at Wed Apr  9 03:34:39 2025.
