 Gaussian 16, Revision C.01,

 ----------------------------------------------------------------------
 #t hf aug-cc-pvdz symm=none int=(grid=ultrafine) guess=(read,tcheck) s
 table=(opt,rrhf)
 ----------------------------------------------------------------------
 -----
 title
 -----
 Symbolic Z-matrix:
 Charge =  0 Multiplicity = 1

 SCF Done:  E(RHF) =  -325.048444593     A.U. after   13 cycles
 Normal termination of Gaussian 16 at Wed Apr  9 19:08:09 2025.
 Gaussian 16:  ES64L-G16RevC.01  3-Jul-2019

 ----------------------------------------------------------------------
 #t hf aug-cc-pvdz iop(5/13=1,5/36=2,99/5=2) pseudo=read geom=check gue
 ss=(read,tcheck) scf=(maxcycle=1)
 ----------------------------------------------------------------------
 -----
 title
 -----
 Structure from the checkpoint file:  "Grambow2020_wb97xd3_008121_reverse_mol2.chk"
 Charge =  0 Multiplicity = 1

                         Standard orientation:
 ---------------------------------------------------------------------
 Center     Atomic      Atomic             Coordinates (Angstroms)
 Number     Number       Type             X           Y           Z
 ---------------------------------------------------------------------
      1          6           0        2.516569   -0.164669    0.010137
      2          7           0        1.286062   -0.190439   -0.753220
      3          6           0        0.107238    0.151010   -0.027163
      4          8           0       -0.077951    1.526636    0.119902
      5          6           0       -1.126111   -0.651653   -0.244976
      6          6           0       -0.406488   -0.725677    1.089007
      7          6           0       -2.476985    0.001537   -0.353588
      8          1           0        3.346576   -0.471338   -0.626594
      9          1           0        2.502340   -0.809813    0.901439
     10          1           0        2.726218    0.856497    0.337071
     11          1           0        1.169199   -1.054750   -1.257578
     12          1           0       -0.995587   -1.522247   -0.881423
     13          1           0        0.143448   -1.628035    1.326316
     14          1           0       -0.891355   -0.247596    1.932102
     15          1           0        0.408548    1.820537    0.891731
     16          1           0       -3.263588   -0.680895   -0.024932
     17          1           0       -2.522390    0.901546    0.259087
     18          1           0       -2.687575    0.292798   -1.384402
 ---------------------------------------------------------------------

 SCF Done:  E(RHF) =  -326.604165207     A.U. after    2 cycles

 The electronic state is 1-A.
 Alpha  occ. eigenvalues --  -21.06691 -15.71677 -11.47538 -11.42600 -11.38535
 Alpha  occ. eigenvalues --  -11.38013 -11.35695  -1.73310  -1.38637  -1.24623
 Alpha  occ. eigenvalues --   -1.04120  -0.97192  -0.83970  -0.79613  -0.69364
 Alpha  occ. eigenvalues --   -0.64387  -0.61795  -0.57808  -0.55979  -0.55795
 Alpha  occ. eigenvalues --   -0.55221  -0.50745  -0.47623  -0.46517  -0.40422
 Alpha  occ. eigenvalues --   -0.37004  -0.31919  -0.30265
 Alpha virt. eigenvalues --    0.03752   0.04996   0.05397   0.05518   0.05752
 Alpha virt. eigenvalues --    0.05884   0.06321   0.06912   0.07716   0.08783
 Alpha virt. eigenvalues --    0.08937   0.11954   0.12987   0.13377   0.13533

 Mulliken charges:
               1
     1  C   -3.643300
     2  N   -3.425262
     3  C    6.760476
     4  O   -3.572752
     5  C   -1.308734
     6  C   -3.036472
     7  C   -4.564340
     8  H    1.276789
     9  H    1.301089
    10  H    1.353257
    11  H    0.516786
    12  H    1.450332
    13  H    1.319305
    14  H    1.356876
    15  H    0.566138
    16  H    1.134701
    17  H    1.269794
    18  H    1.245316
 Sum of Mulliken charges =  -0.00000

 Dipole moment (field-independent basis, Debye):
    X=              0.2617    Y=             -0.9952    Z=              0.5465  Tot=              1.1651

 Test job not archived.
 1\1\GINC-SE056\SP\RHF\Aug-CC-pVDZ\C5H11N1O1\OHZDE\09-Apr-2025\0\\#t hf
  aug-cc-pvdz iop(5/13=1,5/36=2,99/5=2) pseudo=read geom=check guess=(r
 ead,tcheck) scf=(maxcycle=1)\\title\\0,1\C,0,2.53411808,-0.2936211,-0.
 09165407\N,0,1.4166998,0.60801161,-0.28128402\C,0,0.17726779,0.1729985
 1,0.27364298\O,0,0.06579872,0.41203546,1.64430163\C,0,-1.06677919,0.35
 455337,-0.52149632\C,0,-0.53686775,-1.04372688,-0.26293793\C,0,-2.3450
 4026,0.8220652,0.11943575\H,0,3.41904863,0.11562766,-0.57929826\H,0,2.
 35912054,-1.3086742,-0.47879115\H,0,2.76578705,-0.37470378,0.97294616\

 Normal termination of Gaussian 16 at Wed Apr  9 19:08:16 2025.
