 Gaussian 16, Revision C.01,

 ----------------------------------------------------------------------
 #t hf aug-cc-pvdz symm=none int=(grid=ultrafine) guess=(read,tcheck) s
 table=(opt,rrhf)
 ----------------------------------------------------------------------
 -----
 title
 -----
 Symbolic Z-matrix:
 Charge =  0 Multiplicity = 1

 SCF Done:  E(RHF) =  -344.776625898     A.U. after   16 cycles

 1\1\GINC-SE116\Stability\RHF\Aug-CC-pVDZ\C5H10O2\OHZDE\09-Apr-2025\0\\
 #t hf aug-cc-pvdz symm=none int=(grid=ultrafine) guess=(read,tcheck) s
 table=(opt,rrhf)\\title\\0,1\C,0,-2.19767571,-0.1808494,-0.46711243\C,
 0,-0.69687335,-0.33547461,-0.65543759\O,0,-0.15579209,0.74859389,-1.39
 165658\C,0,0.0243234,-0.53166451,0.6766937\C,0,1.54223149,-0.57243299,
 0.54023976\C,0,2.23908997,0.74458176,0.55489377\O,0,1.54388993,1.81391
 737,0.82354118\H,0,-2.62612338,-1.05863497,0.02185633\H,0,-2.41873635,
 0.69297414,0.15227212\H,0,-2.6868178,-0.04917407,-1.43243622\H,0,-0.50

 Normal termination of Gaussian 16 at Wed Apr  9 03:34:41 2025.
 Gaussian 16:  ES64L-G16RevC.01  3-Jul-2019

 ----------------------------------------------------------------------
 #t hf aug-cc-pvdz iop(5/13=1,5/36=2,99/5=2) pseudo=read geom=check gue
 ss=(read,tcheck) scf=(maxcycle=1)
 ----------------------------------------------------------------------
 -----
 title
 -----
 Structure from the checkpoint file:  "Grambow2020_wb97xd3_007087_forward_mol1.chk"
 Charge =  0 Multiplicity = 1

                         Standard orientation:
 ---------------------------------------------------------------------
 Center     Atomic      Atomic             Coordinates (Angstroms)
 Number     Number       Type             X           Y           Z
 ---------------------------------------------------------------------
      1          6           0       -2.482307   -0.077072   -0.489336
      2          6           0       -1.235519    0.132827    0.355203
      3          8           0       -0.705601   -1.102091    0.807039
      4          6           0       -0.186249    0.964474   -0.380042
      5          6           0        1.124262    1.097070    0.387620
      6          6           0        2.112295   -0.001771    0.196063
      7          8           0        1.865357   -0.911175   -0.704470
      8          1           0       -2.939054    0.877010   -0.761872
      9          1           0       -2.235618   -0.609793   -1.412064
     10          1           0       -3.215325   -0.666910    0.061322
     11          1           0       -1.513378    0.658686    1.274975
     12          1           0       -0.275410   -1.538754    0.065803
     13          1           0        0.009029    0.514801   -1.359836
     14          1           0       -0.600772    1.956663   -0.572409
     15          1           0        0.969679    1.198197    1.466493
     16          1           0        1.675931    2.000625    0.098419
     17          1           0        2.851971   -0.977566   -0.098426
 ---------------------------------------------------------------------

 SCF Done:  E(RHF) =  -346.371149350     A.U. after    2 cycles

 The electronic state is 1-A.
 Alpha  occ. eigenvalues --  -21.09522 -21.05670 -11.47786 -11.44826 -11.42018
 Alpha  occ. eigenvalues --  -11.39107 -11.35945  -1.76804  -1.71052  -1.22421
 Alpha  occ. eigenvalues --   -1.09960  -0.96663  -0.83989  -0.75021  -0.70758
 Alpha  occ. eigenvalues --   -0.64232  -0.62819  -0.60925  -0.54971  -0.53735
 Alpha  occ. eigenvalues --   -0.52913  -0.48743  -0.46961  -0.44592  -0.43914
 Alpha  occ. eigenvalues --   -0.38405  -0.30870  -0.26745
 Alpha virt. eigenvalues --    0.03976   0.04950   0.05334   0.05622   0.05906
 Alpha virt. eigenvalues --    0.06041   0.06651   0.07298   0.08058   0.08893
 Alpha virt. eigenvalues --    0.11031   0.11769   0.12561   0.13238   0.14371

 Mulliken charges:
               1
     1  C   -3.993777
     2  C    1.454709
     3  O   -3.192077
     4  C   -3.081574
     5  C   -3.027970
     6  C    0.567765
     7  O   -2.064348
     8  H    1.229750
     9  H    1.212565
    10  H    1.126034
    11  H    1.714782
    12  H    0.843187
    13  H    1.693386
    14  H    1.248246
    15  H    1.656324
    16  H    1.408200
    17  H    1.204797
 Sum of Mulliken charges =   0.00000

 Dipole moment (field-independent basis, Debye):
    X=             -0.9697    Y=              0.2454    Z=             -1.2330  Tot=              1.5877

 Test job not archived.
 1\1\GINC-SE116\SP\RHF\Aug-CC-pVDZ\C5H10O2\OHZDE\09-Apr-2025\0\\#t hf a
 ug-cc-pvdz iop(5/13=1,5/36=2,99/5=2) pseudo=read geom=check guess=(rea
 d,tcheck) scf=(maxcycle=1)\\title\\0,1\C,0,-2.19767571,-0.1808494,-0.4
 6711243\C,0,-0.69687335,-0.33547461,-0.65543759\O,0,-0.15579209,0.7485
 9389,-1.39165658\C,0,0.0243234,-0.53166451,0.6766937\C,0,1.54223149,-0
 .57243299,0.54023976\C,0,2.23908997,0.74458176,0.55489377\O,0,1.543889
 93,1.81391737,0.82354118\H,0,-2.62612338,-1.05863497,0.02185633\H,0,-2
 .41873635,0.69297414,0.15227212\H,0,-2.6868178,-0.04917407,-1.43243622

 Normal termination of Gaussian 16 at Wed Apr  9 03:34:47 2025.
