 Gaussian 16, Revision C.01,

 ----------------------------------------------------------------------
 #t hf aug-cc-pvdz symm=none int=(grid=ultrafine) guess=(read,tcheck) s
 table=(opt,rrhf)
 ----------------------------------------------------------------------
 -----
 title
 -----
 Symbolic Z-matrix:
 Charge =  0 Multiplicity = 1

 SCF Done:  E(RHF) =  -301.626578495     A.U. after   14 cycles
 Normal termination of Gaussian 16 at Wed Apr  9 03:46:27 2025.
 Gaussian 16:  ES64L-G16RevC.01  3-Jul-2019

 ----------------------------------------------------------------------
 #t hf aug-cc-pvdz iop(5/13=1,5/36=2,99/5=2) pseudo=read geom=check gue
 ss=(read,tcheck) scf=(maxcycle=1)
 ----------------------------------------------------------------------
 -----
 title
 -----
 Structure from the checkpoint file:  "Grambow2020_wb97xd3_007930_reverse_mol2.chk"
 Charge =  0 Multiplicity = 1

                         Standard orientation:
 ---------------------------------------------------------------------
 Center     Atomic      Atomic             Coordinates (Angstroms)
 Number     Number       Type             X           Y           Z
 ---------------------------------------------------------------------
      1          6           0        1.614370    0.782588    0.001802
      2          6           0        1.661594   -0.780876   -0.000865
      3          6           0        0.154461   -0.652662   -0.001103
      4          7           0       -1.107338   -1.079004    0.001009
      5          6           0       -2.016332    0.005445    0.000874
      6          6           0       -1.181788    1.105631   -0.000412
      7          7           0        0.139245    0.657367   -0.001911
      8          1           0        2.007210    1.267092   -0.890777
      9          1           0        2.002515    1.260478    0.899976
     10          1           0        2.097801   -1.226187   -0.893915
     11          1           0        2.099593   -1.228432    0.890240
     12          1           0       -1.402848   -2.037634    0.000908
     13          1           0       -1.421455    2.155386   -0.001890
 ---------------------------------------------------------------------

 SCF Done:  E(RHF) =  -303.053772691     A.U. after    2 cycles

 The electronic state is 1-A.
 Alpha  occ. eigenvalues --  -15.79036 -15.78161 -11.52714 -11.46872 -11.42268
 Alpha  occ. eigenvalues --  -11.36847 -11.31349  -1.62496  -1.36658  -1.17856
 Alpha  occ. eigenvalues --   -0.99730  -0.97787  -0.82047  -0.77008  -0.71676
 Alpha  occ. eigenvalues --   -0.71457  -0.57576  -0.56927  -0.56491  -0.53671
 Alpha  occ. eigenvalues --   -0.49541  -0.49073  -0.37913  -0.29211  -0.28012
 Alpha virt. eigenvalues --    0.02631   0.04549   0.05056   0.05334   0.05392
 Alpha virt. eigenvalues --    0.06653   0.08097   0.09786   0.11190   0.11653
 Alpha virt. eigenvalues --    0.11734   0.12583   0.13438   0.14402   0.14492

 Mulliken charges:
               1
     1  C   -1.816564
     2  C   -3.418619
     3  C    3.904155
     4  N   -3.272492
     5  C   -1.187199
     6  C    0.617312
     7  N   -2.686401
     8  H    1.490157
     9  H    1.489330
    10  H    1.285095
    11  H    1.284544
    12  H    0.798810
    13  H    1.511873
 Sum of Mulliken charges =   0.00000

 Dipole moment (field-independent basis, Debye):
    X=              6.7380    Y=             -1.0776    Z=             -0.0005  Tot=              6.8236

 Test job not archived.
 1\1\GINC-SE462\SP\RHF\Aug-CC-pVDZ\C5H6N2\OHZDE\09-Apr-2025\0\\#t hf au
 g-cc-pvdz iop(5/13=1,5/36=2,99/5=2) pseudo=read geom=check guess=(read
 ,tcheck) scf=(maxcycle=1)\\title\\0,1\C,0,-1.38088503,-0.50791054,0.00
 727023\C,0,-1.13059753,1.0318004,0.12261864\C,0,0.32386855,0.62529815,
 0.03792047\N,0,1.64293818,0.8072737,0.00878995\C,0,2.32903395,-0.42390
 597,-0.11678531\C,0,1.3013353,-1.34532541,-0.15793453\N,0,0.09015006,-
 0.66003749,-0.06054935\H,0,-1.88945454,-0.83580049,-0.89805243\H,0,-1.
 82107189,-0.97708705,0.88582703\H,0,-1.50527262,1.62235561,-0.71223412

 Normal termination of Gaussian 16 at Wed Apr  9 03:46:31 2025.
