 Gaussian 16, Revision C.01,

 ----------------------------------------------------------------------
 #t hf aug-cc-pvdz symm=none int=(grid=ultrafine) guess=(read,tcheck) s
 table=(opt,rrhf)
 ----------------------------------------------------------------------
 -----
 title
 -----
 Symbolic Z-matrix:
 Charge =  0 Multiplicity = 1

 SCF Done:  E(RHF) =  -231.641956033     A.U. after   17 cycles
 Normal termination of Gaussian 16 at Wed Apr  9 16:54:12 2025.
 Gaussian 16:  ES64L-G16RevC.01  3-Jul-2019

 ----------------------------------------------------------------------
 #t hf aug-cc-pvdz iop(5/13=1,5/36=2,99/5=2) pseudo=read geom=check gue
 ss=(read,tcheck) scf=(maxcycle=1)
 ----------------------------------------------------------------------
 -----
 title
 -----
 Structure from the checkpoint file:  "Grambow2020_b97d3_006870_forward_mol1.chk"
 Charge =  0 Multiplicity = 1

                         Standard orientation:
 ---------------------------------------------------------------------
 Center     Atomic      Atomic             Coordinates (Angstroms)
 Number     Number       Type             X           Y           Z
 ---------------------------------------------------------------------
      1          6           0        0.635525    1.286481   -0.068878
      2          6           0       -0.778190    0.770749   -0.391507
      3          6           0       -0.774571   -0.774332   -0.391203
      4          6           0        0.641725   -1.283751   -0.068804
      5          6           0        1.314829    0.003214    0.294579
      6          6           0       -1.333484   -0.002830    0.695484
      7          1           0        0.560735    2.015551    0.754314
      8          1           0        1.166037    1.811921   -0.896242
      9          1           0       -1.383809    1.336724   -1.107912
     10          1           0       -1.377410   -1.343397   -1.107497
     11          1           0        0.570872   -2.014432    0.753520
     12          1           0        1.175000   -1.806381   -0.896328
     13          1           0        2.412006    0.005876    0.301543
     14          1           0       -1.358433   -0.003045    1.780577
 ---------------------------------------------------------------------

 SCF Done:  E(RHF) =  -232.791336874     A.U. after    2 cycles

 The electronic state is 1-A.
 Alpha  occ. eigenvalues --  -11.46334 -11.46044 -11.41834 -11.40142 -11.39786
 Alpha  occ. eigenvalues --  -11.36561  -1.39086  -1.10663  -1.05335  -0.83656
 Alpha  occ. eigenvalues --   -0.79957  -0.77926  -0.70112  -0.61491  -0.58038
 Alpha  occ. eigenvalues --   -0.57594  -0.50594  -0.47764  -0.45734  -0.39535
 Alpha  occ. eigenvalues --   -0.37196  -0.21154
 Alpha virt. eigenvalues --    0.03274   0.03906   0.05352   0.05399   0.05675
 Alpha virt. eigenvalues --    0.05716   0.06626   0.06712   0.06883   0.09677
 Alpha virt. eigenvalues --    0.12241   0.13013   0.14141   0.14514   0.14724

 Mulliken charges:
               1
     1  C   -4.008538
     2  C   -0.673164
     3  C   -0.672561
     4  C   -4.008716
     5  C   -0.230111
     6  C   -0.815410
     7  H    1.375906
     8  H    1.277466
     9  H    1.295802
    10  H    1.295727
    11  H    1.375170
    12  H    1.277413
    13  H    1.425478
    14  H    1.085538
 Sum of Mulliken charges =  -0.00000

 Dipole moment (field-independent basis, Debye):
    X=              0.9549    Y=              0.0028    Z=             -0.7324  Tot=              1.2034

 Test job not archived.
 1\1\GINC-SE173\SP\RHF\Aug-CC-pVDZ\C6H8\OHZDE\09-Apr-2025\0\\#t hf aug-
 cc-pvdz iop(5/13=1,5/36=2,99/5=2) pseudo=read geom=check guess=(read,t
 check) scf=(maxcycle=1)\\title\\0,1\C,0,-1.23028203,-0.25871164,0.5979
 0229\C,0,-0.51875821,1.07234341,0.29676463\C,0,0.9243401,0.78854092,-0
 .17674763\C,0,1.17043561,-0.73087401,-0.18933711\C,0,-0.21401792,-1.23
 042495,0.08476496\C,0,-0.12663074,1.17495176,-1.09033095\H,0,-2.190604
 31,-0.27029005,0.05713508\H,0,-1.4785355,-0.45056771,1.66730575\H,0,-0
 .74865448,1.93614388,0.93027536\H,0,1.7545938,1.44376787,0.10905209\H,

 Normal termination of Gaussian 16 at Wed Apr  9 16:54:16 2025.
