 Gaussian 16, Revision C.01,

 ----------------------------------------------------------------------
 #t hf aug-cc-pvdz symm=none int=(grid=ultrafine) guess=(read,tcheck) s
 table=(opt,rrhf)
 ----------------------------------------------------------------------
 -----
 title
 -----
 Symbolic Z-matrix:
 Charge =  0 Multiplicity = 1

 SCF Done:  E(RHF) =  -355.780341018     A.U. after   14 cycles
 Normal termination of Gaussian 16 at Wed Apr  9 19:28:11 2025.
 Gaussian 16:  ES64L-G16RevC.01  3-Jul-2019

 ----------------------------------------------------------------------
 #t hf aug-cc-pvdz iop(5/13=1,5/36=2,99/5=2) pseudo=read geom=check gue
 ss=(read,tcheck) scf=(maxcycle=1)
 ----------------------------------------------------------------------
 -----
 title
 -----
 Structure from the checkpoint file:  "Grambow2020_wb97xd3_009000_reverse_mol2.chk"
 Charge =  0 Multiplicity = 1

                         Standard orientation:
 ---------------------------------------------------------------------
 Center     Atomic      Atomic             Coordinates (Angstroms)
 Number     Number       Type             X           Y           Z
 ---------------------------------------------------------------------
      1          6           0        2.281647   -0.426960    0.358286
      2          7           0        1.389779    0.465268   -0.358678
      3          6           0        0.034644    0.274675   -0.179155
      4          8           0       -0.533739   -0.880487   -0.802501
      5          7           0       -0.890485    1.354745   -0.141519
      6          6           0       -1.067160    0.283250    0.822311
      7          7           0       -1.658871   -0.862531    0.134193
      8          1           0        2.043870   -1.457080    0.094164
      9          1           0        2.213259   -0.321855    1.448629
     10          1           0        3.308533   -0.233559    0.049998
     11          1           0        1.630948    1.440822   -0.297893
     12          1           0       -1.572782    1.335814   -0.894731
     13          1           0       -1.224490    0.486136    1.872465
     14          1           0       -1.507178   -1.694543    0.700751
 ---------------------------------------------------------------------

 SCF Done:  E(RHF) =  -357.381167299     A.U. after    2 cycles

 The electronic state is 1-A.
 Alpha  occ. eigenvalues --  -21.06398 -15.77618 -15.74349 -15.74317 -11.55334
 Alpha  occ. eigenvalues --  -11.45597 -11.39639  -1.85928  -1.44505  -1.37089
 Alpha  occ. eigenvalues --   -1.20517  -0.99906  -0.93417  -0.80172  -0.73736
 Alpha  occ. eigenvalues --   -0.70980  -0.62545  -0.60956  -0.60410  -0.54183
 Alpha  occ. eigenvalues --   -0.50766  -0.48778  -0.42698  -0.40179  -0.37757
 Alpha  occ. eigenvalues --   -0.30341  -0.28442
 Alpha virt. eigenvalues --    0.03666   0.04942   0.05517   0.05965   0.06290
 Alpha virt. eigenvalues --    0.06457   0.07370   0.10416   0.10790   0.12152
 Alpha virt. eigenvalues --    0.12889   0.14483   0.15002   0.15439   0.15751

 Mulliken charges:
               1
     1  C   -3.486369
     2  N   -3.527571
     3  C    6.922912
     4  O   -2.720487
     5  N   -2.448833
     6  C   -0.430640
     7  N   -1.063225
     8  H    1.265221
     9  H    1.251110
    10  H    1.280649
    11  H    0.507873
    12  H    0.524563
    13  H    1.194157
    14  H    0.730641
 Sum of Mulliken charges =   0.00000

 Dipole moment (field-independent basis, Debye):
    X=              1.2478    Y=             -0.2668    Z=              1.3614  Tot=              1.8658

 Test job not archived.
 1\1\GINC-SE125\SP\RHF\Aug-CC-pVDZ\C3H7N3O1\OHZDE\09-Apr-2025\0\\#t hf
 aug-cc-pvdz iop(5/13=1,5/36=2,99/5=2) pseudo=read geom=check guess=(re
 ad,tcheck) scf=(maxcycle=1)\\title\\0,1\C,0,1.99439713,0.17405078,-0.4
 9318976\N,0,1.0192419,0.30060037,0.5738588\C,0,-0.30885032,0.14705519,
 0.23101878\O,0,-0.9025736,1.21653721,-0.51041176\N,0,-1.25330354,-0.47
 659056,1.09293943\C,0,-1.31509015,-0.80156623,-0.32086964\N,0,-1.93814
 917,0.31806501,-1.02419414\H,0,1.75930703,0.89218107,-1.27834463\H,0,2
 .02265567,-0.82984261,-0.93587609\H,0,2.98394105,0.41615779,-0.1070197

 Normal termination of Gaussian 16 at Wed Apr  9 19:28:17 2025.
