 Gaussian 16, Revision C.01,

 ----------------------------------------------------------------------
 #t hf aug-cc-pvdz symm=none int=(grid=ultrafine) guess=(read,tcheck) s
 table=(opt,rrhf)
 ----------------------------------------------------------------------
 -----
 title
 -----
 Symbolic Z-matrix:
 Charge =  0 Multiplicity = 1

 SCF Done:  E(RHF) =  -359.578873379     A.U. after   17 cycles
 Normal termination of Gaussian 16 at Wed Apr  9 19:33:53 2025.
 Gaussian 16:  ES64L-G16RevC.01  3-Jul-2019

 ----------------------------------------------------------------------
 #t hf aug-cc-pvdz iop(5/13=1,5/36=2,99/5=2) pseudo=read geom=check gue
 ss=(read,tcheck) scf=(maxcycle=1)
 ----------------------------------------------------------------------
 -----
 title
 -----
 Structure from the checkpoint file:  "Grambow2020_wb97xd3_009396_forward_mol1.chk"
 Charge =  0 Multiplicity = 1

                         Standard orientation:
 ---------------------------------------------------------------------
 Center     Atomic      Atomic             Coordinates (Angstroms)
 Number     Number       Type             X           Y           Z
 ---------------------------------------------------------------------
      1          8           0        0.965879   -0.828815    0.984686
      2          6           0       -1.026003    0.459523    0.706257
      3          6           0       -0.219919    1.492907    0.006783
      4          8           0        1.051058    0.936549   -0.361670
      5          6           0        0.887033   -0.459156   -0.418366
      6          7           0       -0.297948   -0.872714   -1.022538
      7          6           0       -1.410392   -0.646884   -0.134782
      8          1           0        0.802836   -1.776329    1.031400
      9          1           0       -1.166882    0.491012    1.781174
     10          1           0       -0.755659    1.762414   -0.915583
     11          1           0       -0.034212    2.375093    0.616360
     12          1           0        1.754568   -0.863586   -0.945899
     13          1           0       -2.240226   -0.311840   -0.780703
     14          1           0       -1.794600   -1.507970    0.427526
 ---------------------------------------------------------------------

 SCF Done:  E(RHF) =  -361.178618205     A.U. after    2 cycles

 The electronic state is 1-A.
 Alpha  occ. eigenvalues --  -21.07073 -21.04994 -15.63728 -11.54995 -11.46749
 Alpha  occ. eigenvalues --  -11.44858 -11.41993  -1.82762  -1.66069  -1.34228
 Alpha  occ. eigenvalues --   -1.16972  -0.98060  -0.91481  -0.77784  -0.74265
 Alpha  occ. eigenvalues --   -0.68351  -0.64317  -0.58891  -0.55952  -0.53402
 Alpha  occ. eigenvalues --   -0.51803  -0.47333  -0.42051  -0.36556  -0.32690
 Alpha  occ. eigenvalues --   -0.28428  -0.23604
 Alpha virt. eigenvalues --    0.02483   0.03620   0.04851   0.05059   0.05444
 Alpha virt. eigenvalues --    0.05715   0.06866   0.07762   0.10116   0.11141
 Alpha virt. eigenvalues --    0.12596   0.13067   0.13578   0.13835   0.14525

 Mulliken charges:
               1
     1  O   -2.695604
     2  C   -1.410480
     3  C   -1.634278
     4  O   -3.027116
     5  C    4.441567
     6  N   -2.502045
     7  C   -2.236347
     8  H    0.645431
     9  H    1.298691
    10  H    1.350707
    11  H    1.351543
    12  H    1.872609
    13  H    1.206826
    14  H    1.338496
 Sum of Mulliken charges =   0.00000

 Dipole moment (field-independent basis, Debye):
    X=             -1.3237    Y=              1.6590    Z=              3.3801  Tot=              3.9912

 Test job not archived.
 1\1\GINC-SE173\SP\RHF\Aug-CC-pVDZ\C4H7N1O2\OHZDE\09-Apr-2025\0\\#t hf
 aug-cc-pvdz iop(5/13=1,5/36=2,99/5=2) pseudo=read geom=check guess=(re
 ad,tcheck) scf=(maxcycle=1)\\title\\0,1\O,0,0.2301515,-0.73066823,1.56
 136679\C,0,-1.06363287,0.18573403,-0.22504279\C,0,-0.2774048,1.4405830
 8,-0.1062241\O,0,0.90269105,1.19114906,0.67212691\C,0,1.1645428,-0.188
 25299,0.58970914\N,0,0.99754961,-0.72806784,-0.68345557\C,0,-0.4055112
 6,-0.84330923,-0.9913213\H,0,0.31170114,-1.68887007,1.51958246\H,0,-1.
 97373263,0.03813512,0.34611222\H,0,0.03650507,1.73180122,-1.11966519\H

 Normal termination of Gaussian 16 at Wed Apr  9 19:33:58 2025.
