 Gaussian 16, Revision C.01,

 ----------------------------------------------------------------------
 #t hf aug-cc-pvdz symm=none int=(grid=ultrafine) guess=(read,tcheck) s
 table=(opt,rrhf)
 ----------------------------------------------------------------------
 -----
 title
 -----
 Symbolic Z-matrix:
 Charge =  0 Multiplicity = 1

 SCF Done:  E(RHF) =  -344.759681557     A.U. after   14 cycles

 1\1\GINC-SE222\Stability\RHF\Aug-CC-pVDZ\C5H10O2\OHZDE\09-Apr-2025\0\\
 #t hf aug-cc-pvdz symm=none int=(grid=ultrafine) guess=(read,tcheck) s
 table=(opt,rrhf)\\title\\0,1\C,0,1.77174773,-0.09398324,-1.03273584\C,
 0,0.91082989,0.20225292,0.17777798\O,0,0.24366702,1.44643652,0.0262667
 4\C,0,-1.15180156,1.29916354,0.25457397\C,0,-1.4661105,-0.14090004,-0.
 10275865\C,0,-0.19902781,-0.85818189,0.32064393\O,0,0.02737958,-2.1307
 0049,0.07026271\H,0,2.5149421,0.69447988,-1.15058402\H,0,1.16603386,-0
 .13474608,-1.93915596\H,0,2.27354421,-1.05320335,-0.90904018\H,0,1.529

 Normal termination of Gaussian 16 at Wed Apr  9 03:39:42 2025.
 Gaussian 16:  ES64L-G16RevC.01  3-Jul-2019

 ----------------------------------------------------------------------
 #t hf aug-cc-pvdz iop(5/13=1,5/36=2,99/5=2) pseudo=read geom=check gue
 ss=(read,tcheck) scf=(maxcycle=1)
 ----------------------------------------------------------------------
 -----
 title
 -----
 Structure from the checkpoint file:  "Grambow2020_wb97xd3_007408_forward_mol1.chk"
 Charge =  0 Multiplicity = 1

                         Standard orientation:
 ---------------------------------------------------------------------
 Center     Atomic      Atomic             Coordinates (Angstroms)
 Number     Number       Type             X           Y           Z
 ---------------------------------------------------------------------
      1          6           0        1.364838    1.429173   -0.419234
      2          6           0        0.369024    0.726423    0.480086
      3          8           0       -0.952922    1.164344    0.203071
      4          6           0       -1.812909    0.054787   -0.021545
      5          6           0       -0.913651   -1.049519   -0.543181
      6          6           0        0.377410   -0.791182    0.208940
      7          8           0        1.495995   -1.441681   -0.033699
      8          1           0        1.306071    2.504892   -0.254081
      9          1           0        1.147561    1.229496   -1.469505
     10          1           0        2.374475    1.081193   -0.203025
     11          1           0        0.609809    0.922812    1.530022
     12          1           0       -2.582185    0.364469   -0.728172
     13          1           0       -2.305174   -0.243940    0.913585
     14          1           0       -1.287051   -2.063133   -0.418050
     15          1           0       -0.663777   -0.897681   -1.597792
     16          1           0       -0.035137   -1.265778    1.512209
     17          1           0        0.782557   -1.631730    1.129429
 ---------------------------------------------------------------------

 SCF Done:  E(RHF) =  -346.379295636     A.U. after    2 cycles

 The electronic state is 1-A.
 Alpha  occ. eigenvalues --  -21.05079 -21.00280 -11.55793 -11.46406 -11.45377
 Alpha  occ. eigenvalues --  -11.40414 -11.37394  -1.79035  -1.68577  -1.18461
 Alpha  occ. eigenvalues --   -1.15112  -0.98522  -0.88098  -0.82412  -0.75873
 Alpha  occ. eigenvalues --   -0.66735  -0.62092  -0.61590  -0.58564  -0.54121
 Alpha  occ. eigenvalues --   -0.51560  -0.50123  -0.48326  -0.45308  -0.40616
 Alpha  occ. eigenvalues --   -0.31029  -0.29821  -0.26433
 Alpha virt. eigenvalues --    0.03666   0.04555   0.04672   0.05171   0.05535
 Alpha virt. eigenvalues --    0.06202   0.06476   0.07130   0.08468   0.09521
 Alpha virt. eigenvalues --    0.11208   0.12522   0.12712   0.13355   0.13735

 Mulliken charges:
               1
     1  C   -3.561846
     2  C    0.786542
     3  O   -3.483501
     4  C   -1.324503
     5  C   -3.521876
     6  C    2.865388
     7  O   -3.168635
     8  H    1.171808
     9  H    1.207768
    10  H    1.235295
    11  H    1.581029
    12  H    1.367211
    13  H    1.477594
    14  H    1.274804
    15  H    1.295589
    16  H   -0.082374
    17  H    0.879707
 Sum of Mulliken charges =   0.00000

 Dipole moment (field-independent basis, Debye):
    X=             -1.0786    Y=              0.1699    Z=             -0.1543  Tot=              1.1027

 Test job not archived.
 1\1\GINC-SE222\SP\RHF\Aug-CC-pVDZ\C5H10O2\OHZDE\09-Apr-2025\0\\#t hf a
 ug-cc-pvdz iop(5/13=1,5/36=2,99/5=2) pseudo=read geom=check guess=(rea
 d,tcheck) scf=(maxcycle=1)\\title\\0,1\C,0,1.77174773,-0.09398324,-1.0
 3273584\C,0,0.91082989,0.20225292,0.17777798\O,0,0.24366702,1.44643652
 ,0.02626674\C,0,-1.15180156,1.29916354,0.25457397\C,0,-1.4661105,-0.14
 090004,-0.10275865\C,0,-0.19902781,-0.85818189,0.32064393\O,0,0.027379
 58,-2.13070049,0.07026271\H,0,2.5149421,0.69447988,-1.15058402\H,0,1.1
 6603386,-0.13474608,-1.93915596\H,0,2.27354421,-1.05320335,-0.90904018

 Normal termination of Gaussian 16 at Wed Apr  9 03:39:48 2025.
