 Gaussian 16, Revision C.01,

 ----------------------------------------------------------------------
 #t hf aug-cc-pvdz symm=none int=(grid=ultrafine) guess=(read,tcheck) s
 table=(opt,rrhf)
 ----------------------------------------------------------------------
 -----
 title
 -----
 Symbolic Z-matrix:
 Charge =  0 Multiplicity = 1

 SCF Done:  E(RHF) =  -191.823649742     A.U. after   14 cycles
 Normal termination of Gaussian 16 at Wed Apr  9 03:21:19 2025.
 Gaussian 16:  ES64L-G16RevC.01  3-Jul-2019

 ----------------------------------------------------------------------
 #t hf aug-cc-pvdz iop(5/13=1,5/36=2,99/5=2) pseudo=read geom=check gue
 ss=(read,tcheck) scf=(maxcycle=1)
 ----------------------------------------------------------------------
 -----
 title
 -----
 Structure from the checkpoint file:  "Grambow2020_wb97xd3_006095_reverse_mol2.chk"
 Charge =  0 Multiplicity = 1

                         Standard orientation:
 ---------------------------------------------------------------------
 Center     Atomic      Atomic             Coordinates (Angstroms)
 Number     Number       Type             X           Y           Z
 ---------------------------------------------------------------------
      1          6           0       -1.801126   -0.161410    0.001105
      2          6           0       -0.457520    0.466542   -0.002801
      3          6           0        1.844994   -0.017434    0.001817
      4          8           0        0.573080   -0.301417   -0.001420
      5          1           0       -1.698993   -1.246537   -0.028724
      6          1           0       -2.399053    0.146392   -0.862927
      7          1           0       -2.375029    0.098713    0.897096
      8          1           0       -0.287879    1.538396    0.003622
      9          1           0        2.500443   -0.869068   -0.000250
     10          1           0        2.157782    1.017248    0.001821
 ---------------------------------------------------------------------

 SCF Done:  E(RHF) =  -192.757890328     A.U. after    2 cycles

 The electronic state is 1-A.
 Alpha  occ. eigenvalues --  -21.18778 -11.43871 -11.38033 -11.38013  -1.87149
 Alpha  occ. eigenvalues --   -1.13243  -0.96105  -0.82042  -0.67110  -0.64653
 Alpha  occ. eigenvalues --   -0.59240  -0.53941  -0.53409  -0.51385  -0.41910
 Alpha  occ. eigenvalues --   -0.25178
 Alpha virt. eigenvalues --    0.03649   0.05289   0.06075   0.06136   0.06168
 Alpha virt. eigenvalues --    0.07002   0.09684   0.11233   0.13839   0.14330
 Alpha virt. eigenvalues --    0.14689   0.15533   0.16435   0.17237   0.17957

 Mulliken charges:
               1
     1  C   -3.945025
     2  C    0.942012
     3  C   -1.705112
     4  O   -3.453895
     5  H    1.287315
     6  H    1.242156
     7  H    1.246289
     8  H    1.538011
     9  H    1.441174
    10  H    1.407075
 Sum of Mulliken charges =  -0.00000

 Dipole moment (field-independent basis, Debye):
    X=             -0.8160    Y=              0.3299    Z=              0.0033  Tot=              0.8801

 Test job not archived.
 1\1\GINC-SE222\SP\RHF\Aug-CC-pVDZ\C3H6O1\OHZDE\09-Apr-2025\0\\#t hf au
 g-cc-pvdz iop(5/13=1,5/36=2,99/5=2) pseudo=read geom=check guess=(read
 ,tcheck) scf=(maxcycle=1)\\title\\0,1\C,0,-1.58610926,0.10566905,0.322
 86986\C,0,-0.25016202,0.28623235,-0.29540051\C,0,2.00405212,-0.3665327
 9,-0.12734269\O,0,0.74555292,-0.34957557,0.21076118\H,0,-1.51683303,-0
 .60827183,1.1440345\H,0,-2.32104719,-0.27363279,-0.39462966\H,0,-1.984
 63142,1.04366184,0.72433829\H,0,-0.05659035,0.93203498,-1.14578832\H,0
 ,2.62812972,-0.99920016,0.47694018\H,0,2.33640151,0.22913292,-0.965870

 Normal termination of Gaussian 16 at Wed Apr  9 03:21:21 2025.
