 Gaussian 16, Revision C.01,

 ----------------------------------------------------------------------
 #t hf aug-cc-pvdz symm=none int=(grid=ultrafine) guess=(read,tcheck) s
 table=(opt,rrhf)
 ----------------------------------------------------------------------
 -----
 title
 -----
 Symbolic Z-matrix:
 Charge =  0 Multiplicity = 1

 SCF Done:  E(RHF) =  -308.868846493     A.U. after   17 cycles

 1\1\GINC-SE229\Stability\RHF\Aug-CC-pVDZ\C6H12O1\OHZDE\09-Apr-2025\0\\
 #t hf aug-cc-pvdz symm=none int=(grid=ultrafine) guess=(read,tcheck) s
 table=(opt,rrhf)\\title\\0,1\C,0,2.21842219,0.01437575,-0.26432174\C,0
 ,1.1457757,-0.41190835,0.59377216\O,0,1.39850872,-0.27382731,1.9708215
 1\C,0,-0.12109411,0.64959994,0.23032035\C,0,0.026307,0.91339175,-1.242
 09197\C,0,-1.46628221,0.2857636,0.42605487\C,0,-2.11502929,-0.92415279
 ,-0.15641129\H,0,1.31558062,0.7641925,-1.18170837\H,0,2.64447266,-0.68
 505669,-0.97266456\H,0,2.9035198,0.75435008,0.13715856\H,0,0.7818923,-

 Normal termination of Gaussian 16 at Wed Apr  9 18:44:09 2025.
 Gaussian 16:  ES64L-G16RevC.01  3-Jul-2019

 ----------------------------------------------------------------------
 #t hf aug-cc-pvdz iop(5/13=1,5/36=2,99/5=2) pseudo=read geom=check gue
 ss=(read,tcheck) scf=(maxcycle=1)
 ----------------------------------------------------------------------
 -----
 title
 -----
 Structure from the checkpoint file:  "Grambow2020_wb97xd3_007568_forward_mol1.chk"
 Charge =  0 Multiplicity = 1

                         Standard orientation:
 ---------------------------------------------------------------------
 Center     Atomic      Atomic             Coordinates (Angstroms)
 Number     Number       Type             X           Y           Z
 ---------------------------------------------------------------------
      1          6           0       -1.921967    0.787561    0.459661
      2          6           0       -1.034244   -0.341569    0.384652
      3          8           0       -1.583513   -1.487600   -0.218773
      4          6           0        0.215362    0.181711   -0.629506
      5          6           0        0.370901    1.641001   -0.304557
      6          6           0        1.506796   -0.372027   -0.553384
      7          6           0        2.336185   -0.432624    0.684550
      8          1           0       -0.890179    1.752696   -0.012434
      9          1           0       -2.144075    1.227893    1.423638
     10          1           0       -2.720022    0.833986   -0.274546
     11          1           0       -0.567679   -0.579509    1.346710
     12          1           0       -0.852050   -2.047053   -0.500181
     13          1           0       -0.219038    0.065840   -1.624177
     14          1           0        0.871883    1.865904    0.637082
     15          1           0        0.732952    2.278504   -1.110142
     16          1           0        1.916881   -0.887441   -1.418975
     17          1           0        1.845979    0.031810    1.540653
     18          1           0        3.308035    0.051281    0.552953
     19          1           0        2.547219   -1.477422    0.941095
 ---------------------------------------------------------------------

 SCF Done:  E(RHF) =  -310.412529291     A.U. after    2 cycles

 The electronic state is 1-A.
 Alpha  occ. eigenvalues --  -21.06260 -11.46203 -11.45578 -11.41724 -11.39688
 Alpha  occ. eigenvalues --  -11.37592 -11.35838  -1.71159  -1.28588  -1.12227
 Alpha  occ. eigenvalues --   -1.03358  -0.93725  -0.83987  -0.77107  -0.68142
 Alpha  occ. eigenvalues --   -0.65057  -0.62566  -0.58306  -0.55868  -0.54486
 Alpha  occ. eigenvalues --   -0.53790  -0.50760  -0.50384  -0.45952  -0.42666
 Alpha  occ. eigenvalues --   -0.38289  -0.30411  -0.21779
 Alpha virt. eigenvalues --    0.03543   0.04540   0.05115   0.05294   0.05540
 Alpha virt. eigenvalues --    0.05759   0.05896   0.06772   0.07305   0.07434
 Alpha virt. eigenvalues --    0.08356   0.09081   0.09273   0.12568   0.13691

 Mulliken charges:
               1
     1  C   -3.544706
     2  C    1.020174
     3  O   -3.283680
     4  C   -1.437384
     5  C   -3.409801
     6  C   -0.664838
     7  C   -4.614557
     8  H    1.836227
     9  H    1.104928
    10  H    1.259830
    11  H    1.683936
    12  H    0.778529
    13  H    1.405682
    14  H    1.309142
    15  H    1.180322
    16  H    1.319817
    17  H    1.583154
    18  H    1.225551
    19  H    1.247674
 Sum of Mulliken charges =   0.00000

 Dipole moment (field-independent basis, Debye):
    X=              1.6273    Y=             -0.1754    Z=              0.0415  Tot=              1.6373

 Test job not archived.
 1\1\GINC-SE229\SP\RHF\Aug-CC-pVDZ\C6H12O1\OHZDE\09-Apr-2025\0\\#t hf a
 ug-cc-pvdz iop(5/13=1,5/36=2,99/5=2) pseudo=read geom=check guess=(rea
 d,tcheck) scf=(maxcycle=1)\\title\\0,1\C,0,2.21842219,0.01437575,-0.26
 432174\C,0,1.1457757,-0.41190835,0.59377216\O,0,1.39850872,-0.27382731
 ,1.97082151\C,0,-0.12109411,0.64959994,0.23032035\C,0,0.026307,0.91339
 175,-1.24209197\C,0,-1.46628221,0.2857636,0.42605487\C,0,-2.11502929,-
 0.92415279,-0.15641129\H,0,1.31558062,0.7641925,-1.18170837\H,0,2.6444
 7266,-0.68505669,-0.97266456\H,0,2.9035198,0.75435008,0.13715856\H,0,0

 Normal termination of Gaussian 16 at Wed Apr  9 18:44:17 2025.
