 Gaussian 16, Revision C.01,

 ----------------------------------------------------------------------
 #t hf aug-cc-pvdz symm=none int=(grid=ultrafine) guess=(read,tcheck) s
 table=(opt,rrhf)
 ----------------------------------------------------------------------
 -----
 title
 -----
 Symbolic Z-matrix:
 Charge =  0 Multiplicity = 1

 SCF Done:  E(RHF) =  -359.619890452     A.U. after   16 cycles
 Normal termination of Gaussian 16 at Wed Apr  9 18:07:12 2025.
 Gaussian 16:  ES64L-G16RevC.01  3-Jul-2019

 ----------------------------------------------------------------------
 #t hf aug-cc-pvdz iop(5/13=1,5/36=2,99/5=2) pseudo=read geom=check gue
 ss=(read,tcheck) scf=(maxcycle=1)
 ----------------------------------------------------------------------
 -----
 title
 -----
 Structure from the checkpoint file:  "Grambow2020_wb97xd3_006598_reverse_mol2.chk"
 Charge =  0 Multiplicity = 1

                         Standard orientation:
 ---------------------------------------------------------------------
 Center     Atomic      Atomic             Coordinates (Angstroms)
 Number     Number       Type             X           Y           Z
 ---------------------------------------------------------------------
      1          6           0        2.574783   -0.239938    0.099703
      2          7           0        1.478766    0.621461   -0.277548
      3          6           0        0.298441    0.225759   -0.181402
      4          6           0       -0.924370    1.024633   -0.537156
      5          8           0       -1.903710    0.224776   -0.273217
      6          6           0       -1.479674   -1.076105    0.238472
      7          8           0       -0.100329   -1.025475    0.274457
      8          1           0        3.196382   -0.407719   -0.781970
      9          1           0        3.192594    0.290362    0.826123
     10          1           0        2.273516   -1.204009    0.515600
     11          1           0       -1.030005    3.254348    1.094915
     12          1           0       -1.015145    3.549442    1.780972
     13          1           0       -1.841717   -1.837168   -0.454399
     14          1           0       -1.909746   -1.195984    1.233980
 ---------------------------------------------------------------------

 SCF Done:  E(RHF) =  -361.214300508     A.U. after    2 cycles

 The electronic state is 1-A.
 Alpha  occ. eigenvalues --  -21.14578 -21.11026 -15.75086 -11.49195 -11.48391
 Alpha  occ. eigenvalues --  -11.43434 -11.39445  -1.93903  -1.74663  -1.38719
 Alpha  occ. eigenvalues --   -1.09949  -0.99966  -0.87801  -0.76021  -0.72219
 Alpha  occ. eigenvalues --   -0.69750  -0.60919  -0.60332  -0.59997  -0.59120
 Alpha  occ. eigenvalues --   -0.51324  -0.50321  -0.45906  -0.42950  -0.38120
 Alpha  occ. eigenvalues --   -0.35149  -0.32182
 Alpha virt. eigenvalues --    0.03100   0.04880   0.04935   0.06055   0.06439
 Alpha virt. eigenvalues --    0.06841   0.08826   0.09282   0.09544   0.09766
 Alpha virt. eigenvalues --    0.12206   0.12330   0.13155   0.13627   0.14078

 Mulliken charges:
               1
     1  C   -3.388786
     2  N   -3.137258
     3  C    5.978520
     4  C   -0.234137
     5  O   -2.455399
     6  C   -0.531877
     7  O   -3.454705
     8  H    1.353918
     9  H    1.356187
    10  H    1.336344
    11  H   -0.201681
    12  H    0.125545
    13  H    1.600422
    14  H    1.652906
 Sum of Mulliken charges =   0.00000

 Dipole moment (field-independent basis, Debye):
    X=             -0.7391    Y=             -4.1028    Z=              1.4212  Tot=              4.4044

 Test job not archived.
 1\1\GINC-SE113\SP\RHF\Aug-CC-pVDZ\C4H7N1O2\OHZDE\09-Apr-2025\0\\#t hf
 aug-cc-pvdz iop(5/13=1,5/36=2,99/5=2) pseudo=read geom=check guess=(re
 ad,tcheck) scf=(maxcycle=1)\\title\\0,1\C,0,2.31845947,-0.42096866,-0.
 7544088\N,0,1.24176101,0.54028435,-0.80228985\C,0,0.05728875,0.1744486
 6,-0.65336192\C,0,-1.14663738,1.07441831,-0.67875476\O,0,-2.13774794,0
 .27052434,-0.4787611\C,0,-1.73960778,-1.12541912,-0.31521085\O,0,-0.36
 405325,-1.13208531,-0.43460956\H,0,2.82881606,-0.41046698,-1.71945218\
 H,0,3.04274483,-0.08691054,-0.00982053\H,0,2.0068145,-1.44220364,-0.52

 Normal termination of Gaussian 16 at Wed Apr  9 18:07:17 2025.
