 Gaussian 16, Revision C.01,

 ----------------------------------------------------------------------
 #t hf aug-cc-pvdz symm=none int=(grid=ultrafine) guess=(read,tcheck) s
 table=(opt,rrhf)
 ----------------------------------------------------------------------
 -----
 title
 -----
 Symbolic Z-matrix:
 Charge =  0 Multiplicity = 1

 SCF Done:  E(RHF) =  -266.635183191     A.U. after   15 cycles
 Normal termination of Gaussian 16 at Wed Apr  9 03:04:21 2025.
 Gaussian 16:  ES64L-G16RevC.01  3-Jul-2019

 ----------------------------------------------------------------------
 #t hf aug-cc-pvdz iop(5/13=1,5/36=2,99/5=2) pseudo=read geom=check gue
 ss=(read,tcheck) scf=(maxcycle=1)
 ----------------------------------------------------------------------
 -----
 title
 -----
 Structure from the checkpoint file:  "Grambow2020_b97d3_006474_forward_mol1.chk"
 Charge =  0 Multiplicity = 1

                         Standard orientation:
 ---------------------------------------------------------------------
 Center     Atomic      Atomic             Coordinates (Angstroms)
 Number     Number       Type             X           Y           Z
 ---------------------------------------------------------------------
      1          8           0       -2.065037   -0.396799   -0.309774
      2          6           0       -0.758029    0.866254    0.331122
      3          6           0        0.283168    0.033335   -0.183459
      4          6           0        1.702884    0.178092   -0.487610
      5          8           0        1.267767   -0.608717    0.644772
      6          1           0       -2.257818   -1.006574    0.440041
      7          1           0       -1.161085    1.680788   -0.266897
      8          1           0       -1.031596    0.857095    1.389273
      9          1           0       -0.905603   -0.668022   -0.650486
     10          1           0        2.236911    1.098253   -0.226611
     11          1           0        2.129214   -0.383496   -1.325620
 ---------------------------------------------------------------------

 SCF Done:  E(RHF) =  -267.849981469     A.U. after    2 cycles

 The electronic state is 1-A.
 Alpha  occ. eigenvalues --  -21.05631 -21.05325 -11.51963 -11.46075 -11.39644
 Alpha  occ. eigenvalues --   -1.76138  -1.63793  -1.11026  -0.95773  -0.82252
 Alpha  occ. eigenvalues --   -0.68505  -0.65317  -0.64752  -0.55675  -0.47063
 Alpha  occ. eigenvalues --   -0.45420  -0.39754  -0.36784  -0.33663  -0.22908
 Alpha virt. eigenvalues --    0.03291   0.05152   0.05389   0.05800   0.06289
 Alpha virt. eigenvalues --    0.08146   0.09347   0.10397   0.11639   0.12256
 Alpha virt. eigenvalues --    0.13730   0.14578   0.15205   0.17227   0.18006

 Mulliken charges:
               1
     1  O   -1.793675
     2  C   -2.901885
     3  C    1.364120
     4  C   -1.758001
     5  O   -2.406766
     6  H    0.806948
     7  H    1.169655
     8  H    1.223133
     9  H    1.502503
    10  H    1.384967
    11  H    1.409002
 Sum of Mulliken charges =   0.00000

 Dipole moment (field-independent basis, Debye):
    X=             -0.9952    Y=              1.0784    Z=              0.8516  Tot=              1.6967

 Test job not archived.
 1\1\GINC-SE159\SP\RHF\Aug-CC-pVDZ\C3H6O2\OHZDE\09-Apr-2025\0\\#t hf au
 g-cc-pvdz iop(5/13=1,5/36=2,99/5=2) pseudo=read geom=check guess=(read
 ,tcheck) scf=(maxcycle=1)\\title\\0,1\O,0,-0.8454775,1.19941918,-1.504
 41823\C,0,-0.77932449,0.64476188,0.34011429\C,0,0.31756898,-0.21743379
 ,0.03014547\C,0,1.34598698,-0.93381923,0.77727629\O,0,0.25877706,-1.64
 93598,0.14746781\H,0,-1.50227398,0.61531687,-1.95012431\H,0,-0.6031567
 1,1.65544981,0.70208468\H,0,-1.80061515,0.2660529,0.43040794\H,0,0.113
 0325,0.45964396,-1.2437934\H,0,1.32931665,-0.94897758,1.87249071\H,0,2

 Normal termination of Gaussian 16 at Wed Apr  9 03:04:24 2025.
