 Gaussian 16, Revision C.01,

 ----------------------------------------------------------------------
 #t hf aug-cc-pvdz symm=none int=(grid=ultrafine) guess=(read,tcheck) s
 table=(opt,rrhf)
 ----------------------------------------------------------------------
 -----
 title
 -----
 Symbolic Z-matrix:
 Charge =  0 Multiplicity = 1

 SCF Done:  E(RHF) =  -269.807779753     A.U. after   17 cycles

 1\1\GINC-SE220\Stability\RHF\Aug-CC-pVDZ\C5H10O1\OHZDE\09-Apr-2025\0\\
 #t hf aug-cc-pvdz symm=none int=(grid=ultrafine) guess=(read,tcheck) s
 table=(opt,rrhf)\\title\\0,1\C,0,-1.24421391,-1.19237428,-0.15749268\C
 ,0,-0.38750091,0.05645315,-0.11412722\C,0,-1.16078622,1.34522183,0.057
 43816\C,0,0.99216261,-0.0249714,0.64959712\C,0,1.56069833,-0.1218115,-
 0.67820349\O,0,0.4506536,0.10755481,-1.41285408\H,0,-1.993077,-1.12874
 502,-0.95863527\H,0,-1.77171662,-1.29567882,0.80108248\H,0,-0.62868272
 ,-2.08721219,-0.31181461\H,0,-1.97242934,1.42587472,-0.67846689\H,0,-0

 Normal termination of Gaussian 16 at Wed Apr  9 16:13:07 2025.
 Gaussian 16:  ES64L-G16RevC.01  3-Jul-2019

 ----------------------------------------------------------------------
 #t hf aug-cc-pvdz iop(5/13=1,5/36=2,99/5=2) pseudo=read geom=check gue
 ss=(read,tcheck) scf=(maxcycle=1)
 ----------------------------------------------------------------------
 -----
 title
 -----
 Structure from the checkpoint file:  "Grambow2020_b97d3_006760_forward_mol1.chk"
 Charge =  0 Multiplicity = 1

                         Standard orientation:
 ---------------------------------------------------------------------
 Center     Atomic      Atomic             Coordinates (Angstroms)
 Number     Number       Type             X           Y           Z
 ---------------------------------------------------------------------
      1          6           0        1.136681    1.316954    0.315371
      2          6           0        0.433362   -0.005337    0.086687
      3          6           0        1.356743   -1.197535   -0.033149
      4          6           0       -0.922056   -0.259456    0.855870
      5          6           0       -1.538856    0.055137   -0.415450
      6          8           0       -0.432914    0.127103   -1.187610
      7          1           0        1.862679    1.520334   -0.483527
      8          1           0        1.677950    1.271722    1.270765
      9          1           0        0.416418    2.142924    0.364600
     10          1           0        2.149069   -1.017285   -0.772442
     11          1           0        0.801341   -2.099034   -0.320316
     12          1           0        1.830937   -1.379404    0.942542
     13          1           0       -1.440211    0.308280    1.687850
     14          1           0       -0.949657   -1.299187    1.198945
     15          1           0       -2.495933    0.411421   -0.776032
     16          1           0       -3.184528   -0.335159    1.532523
 ---------------------------------------------------------------------

 SCF Done:  E(RHF) =  -271.103959774     A.U. after    2 cycles

 The electronic state is 1-A.
 Alpha  occ. eigenvalues --  -21.16239 -11.57899 -11.53937 -11.45332 -11.44085
 Alpha  occ. eigenvalues --  -11.41183  -1.87202  -1.25351  -1.14314  -1.06344
 Alpha  occ. eigenvalues --   -0.94161  -0.79703  -0.73114  -0.68744  -0.66839
 Alpha  occ. eigenvalues --   -0.63558  -0.58923  -0.57079  -0.54940  -0.51017
 Alpha  occ. eigenvalues --   -0.48385  -0.44690  -0.42981  -0.23116
 Alpha virt. eigenvalues --    0.02136   0.03420   0.04247   0.04539   0.04938
 Alpha virt. eigenvalues --    0.05350   0.05901   0.06504   0.07115   0.09455
 Alpha virt. eigenvalues --    0.10461   0.10684   0.11088   0.12249   0.12755

 Mulliken charges:
               1
     1  C   -4.165107
     2  C    2.209900
     3  C   -3.821332
     4  C   -2.999422
     5  C    0.640771
     6  O   -2.895399
     7  H    1.226818
     8  H    1.201714
     9  H    1.281150
    10  H    1.213925
    11  H    1.250603
    12  H    1.180600
    13  H    1.388526
    14  H    1.473838
    15  H    1.594933
    16  H   -0.781515
 Sum of Mulliken charges =  -0.00000

 Dipole moment (field-independent basis, Debye):
    X=              8.9235    Y=              1.2746    Z=             -5.3651  Tot=             10.4899

 Test job not archived.
 1\1\GINC-SE220\SP\RHF\Aug-CC-pVDZ\C5H10O1\OHZDE\09-Apr-2025\0\\#t hf a
 ug-cc-pvdz iop(5/13=1,5/36=2,99/5=2) pseudo=read geom=check guess=(rea
 d,tcheck) scf=(maxcycle=1)\\title\\0,1\C,0,-1.24421391,-1.19237428,-0.
 15749268\C,0,-0.38750091,0.05645315,-0.11412722\C,0,-1.16078622,1.3452
 2183,0.05743816\C,0,0.99216261,-0.0249714,0.64959712\C,0,1.56069833,-0
 .1218115,-0.67820349\O,0,0.4506536,0.10755481,-1.41285408\H,0,-1.99307
 7,-1.12874502,-0.95863527\H,0,-1.77171662,-1.29567882,0.80108248\H,0,-
 0.62868272,-2.08721219,-0.31181461\H,0,-1.97242934,1.42587472,-0.67846

 Normal termination of Gaussian 16 at Wed Apr  9 16:13:12 2025.
