 Gaussian 16, Revision C.01,

 ----------------------------------------------------------------------
 #t hf aug-cc-pvdz symm=none int=(grid=ultrafine) guess=(read,tcheck) s
 table=(opt,rrhf)
 ----------------------------------------------------------------------
 -----
 title
 -----
 Symbolic Z-matrix:
 Charge =  0 Multiplicity = 1

 SCF Done:  E(RHF) =  -353.260158228     A.U. after   18 cycles
 Normal termination of Gaussian 16 at Wed Apr  9 18:53:27 2025.
 Gaussian 16:  ES64L-G16RevC.01  3-Jul-2019

 ----------------------------------------------------------------------
 #t hf aug-cc-pvdz iop(5/13=1,5/36=2,99/5=2) pseudo=read geom=check gue
 ss=(read,tcheck) scf=(maxcycle=1)
 ----------------------------------------------------------------------
 -----
 title
 -----
 Structure from the checkpoint file:  "Grambow2020_wb97xd3_007761_forward_mol1.chk"
 Charge =  0 Multiplicity = 1

                         Standard orientation:
 ---------------------------------------------------------------------
 Center     Atomic      Atomic             Coordinates (Angstroms)
 Number     Number       Type             X           Y           Z
 ---------------------------------------------------------------------
      1          8           0       -1.573338    1.089911   -0.042145
      2          6           0       -2.052609   -1.058050   -0.234061
      3          7           0       -0.798803   -0.898324    0.137317
      4          6           0        2.684444   -0.650992   -0.197315
      5          7           0        1.767055    0.117246   -0.003010
      6          6           0        0.755181    0.875645    0.040419
      7          7           0       -0.542628    0.328118    0.066923
      8          1           0       -2.727460   -1.419721    0.557094
      9          1           0        3.207531   -1.080399    0.658974
     10          1           0        0.805171    1.951945    0.058221
 ---------------------------------------------------------------------

 SCF Done:  E(RHF) =  -354.803866169     A.U. after    2 cycles

 The electronic state is 1-A.
 Alpha  occ. eigenvalues --  -21.04358 -15.92032 -15.86718 -15.83208 -11.51372
 Alpha  occ. eigenvalues --  -11.46581 -11.45206  -1.88500  -1.50236  -1.45618
 Alpha  occ. eigenvalues --   -1.21350  -1.02543  -0.87858  -0.75887  -0.72062
 Alpha  occ. eigenvalues --   -0.71442  -0.69500  -0.62130  -0.56604  -0.52349
 Alpha  occ. eigenvalues --   -0.47917  -0.42273  -0.32968  -0.32700  -0.26409
 Alpha virt. eigenvalues --    0.03096   0.04732   0.05312   0.06773   0.07794
 Alpha virt. eigenvalues --    0.08575   0.09902   0.10684   0.11123   0.11714
 Alpha virt. eigenvalues --    0.11989   0.13727   0.14326   0.15216   0.15756

 Mulliken charges:
               1
     1  O   -2.682074
     2  C   -1.004452
     3  N   -1.405085
     4  C   -1.039653
     5  N   -2.418874
     6  C    1.734326
     7  N    1.750769
     8  H    1.650289
     9  H    1.648714
    10  H    1.766040
 Sum of Mulliken charges =  -0.00000

 Dipole moment (field-independent basis, Debye):
    X=              1.7467    Y=              1.0069    Z=              2.7685  Tot=              3.4248

 Test job not archived.
 1\1\GINC-SE220\SP\RHF\Aug-CC-pVDZ\C3H3N3O1\OHZDE\09-Apr-2025\0\\#t hf
 aug-cc-pvdz iop(5/13=1,5/36=2,99/5=2) pseudo=read geom=check guess=(re
 ad,tcheck) scf=(maxcycle=1)\\title\\0,1\O,0,0.43548389,-2.00446177,0.1
 2492008\C,0,2.30193126,-0.82271582,0.11400479\N,0,1.25740106,-0.030894
 33,0.24605341\C,0,-1.29099288,2.17721596,-0.72146916\N,0,-1.21935238,1
 .01119755,-0.39771858\C,0,-1.05109582,-0.22791783,-0.20477379\N,0,0.23
 234923,-0.7351404,0.07857995\H,0,2.90017093,-0.9565394,1.02852975\H,0,
 -1.4908435,2.9292204,0.04390015\H,0,-1.84136679,-0.95957537,-0.2420166

 Normal termination of Gaussian 16 at Wed Apr  9 18:53:30 2025.
