 Gaussian 16, Revision C.01,

 ----------------------------------------------------------------------
 #t hf aug-cc-pvdz symm=none int=(grid=ultrafine) guess=(read,tcheck) s
 table=(opt,rrhf)
 ----------------------------------------------------------------------
 -----
 title
 -----
 Symbolic Z-matrix:
 Charge =  0 Multiplicity = 1

 SCF Done:  E(RHF) =  -321.494944783     A.U. after   14 cycles
 Normal termination of Gaussian 16 at Wed Apr  9 19:09:41 2025.
 Gaussian 16:  ES64L-G16RevC.01  3-Jul-2019

 ----------------------------------------------------------------------
 #t hf aug-cc-pvdz iop(5/13=1,5/36=2,99/5=2) pseudo=read geom=check gue
 ss=(read,tcheck) scf=(maxcycle=1)
 ----------------------------------------------------------------------
 -----
 title
 -----
 Structure from the checkpoint file:  "Grambow2020_wb97xd3_008183_reverse_mol2.chk"
 Charge =  0 Multiplicity = 1

                         Standard orientation:
 ---------------------------------------------------------------------
 Center     Atomic      Atomic             Coordinates (Angstroms)
 Number     Number       Type             X           Y           Z
 ---------------------------------------------------------------------
      1          8           0        3.170153    0.065417   -0.219743
      2          6           0        1.946223   -0.632802   -0.165354
      3          6           0        0.924249    0.098211    0.668360
      4          6           0       -0.257208    0.420137    0.240828
      5          6           0       -1.434790    0.752249   -0.214735
      6          6           0       -3.499451   -0.731189   -0.026770
      7          7           0       -2.540418   -0.071758   -0.098707
      8          1           0        3.029538    0.896632   -0.677717
      9          1           0        1.540988   -0.831129   -1.162841
     10          1           0        2.170841   -1.592849    0.303230
     11          1           0        1.219616    0.366416    1.679683
     12          1           0       -1.613426    1.700265   -0.707439
 ---------------------------------------------------------------------

 SCF Done:  E(RHF) =  -322.936560004     A.U. after    2 cycles

 The electronic state is 1-A.
 Alpha  occ. eigenvalues --  -21.08845 -15.79284 -11.48849 -11.47432 -11.44903
 Alpha  occ. eigenvalues --  -11.44146 -11.42078  -1.73246  -1.43080  -1.21748
 Alpha  occ. eigenvalues --   -1.08884  -0.94893  -0.81242  -0.72387  -0.69669
 Alpha  occ. eigenvalues --   -0.63687  -0.59452  -0.57914  -0.53915  -0.47452
 Alpha  occ. eigenvalues --   -0.46791  -0.44035  -0.38843  -0.36375  -0.33028
 Alpha virt. eigenvalues --    0.02661   0.04934   0.05433   0.05735   0.06238
 Alpha virt. eigenvalues --    0.09111   0.09283   0.09543   0.10133   0.10542
 Alpha virt. eigenvalues --    0.10998   0.12275   0.12580   0.13393   0.14066

 Mulliken charges:
               1
     1  O   -2.448730
     2  C   -1.788479
     3  C   -1.996408
     4  C    2.574521
     5  C   -0.529289
     6  C   -0.643659
     7  N   -1.181131
     8  H    0.764847
     9  H    1.310368
    10  H    1.268764
    11  H    1.336045
    12  H    1.333152
 Sum of Mulliken charges =  -0.00000

 Dipole moment (field-independent basis, Debye):
    X=              3.3779    Y=              1.9464    Z=             -0.3401  Tot=              3.9134

 Test job not archived.
 1\1\GINC-SE226\SP\RHF\Aug-CC-pVDZ\C5H5N1O1\OHZDE\09-Apr-2025\0\\#t hf
 aug-cc-pvdz iop(5/13=1,5/36=2,99/5=2) pseudo=read geom=check guess=(re
 ad,tcheck) scf=(maxcycle=1)\\title\\0,1\O,0,-2.72350286,-0.05123949,-0
 .42386225\C,0,-1.55199208,-0.6855701,0.03837154\C,0,-0.34137623,-0.269
 07322,-0.75839127\C,0,0.73670912,0.21971873,-0.22822562\C,0,1.80555993
 ,0.72789604,0.3229984\C,0,3.78713461,-0.66184119,1.1234589\N,0,2.86849
 734,-0.0494534,0.74815359\H,0,-2.64249767,0.89246492,-0.2712428\H,0,-1
 .37823623,-0.50300977,1.10373996\H,0,-1.71908927,-1.75590959,-0.096409

 Normal termination of Gaussian 16 at Wed Apr  9 19:09:45 2025.
