 Gaussian 16, Revision C.01,

 ----------------------------------------------------------------------
 #t hf aug-cc-pvdz symm=none int=(grid=ultrafine) guess=(read,tcheck) s
 table=(opt,rrhf)
 ----------------------------------------------------------------------
 -----
 title
 -----
 Symbolic Z-matrix:
 Charge =  0 Multiplicity = 1

 SCF Done:  E(RHF) =  -302.215987226     A.U. after   17 cycles
 Normal termination of Gaussian 16 at Wed Apr  9 16:04:37 2025.
 Gaussian 16:  ES64L-G16RevC.01  3-Jul-2019

 ----------------------------------------------------------------------
 #t hf aug-cc-pvdz iop(5/13=1,5/36=2,99/5=2) pseudo=read geom=check gue
 ss=(read,tcheck) scf=(maxcycle=1)
 ----------------------------------------------------------------------
 -----
 title
 -----
 Structure from the checkpoint file:  "Grambow2020_b97d3_006711_forward_mol1.chk"
 Charge =  0 Multiplicity = 1

                         Standard orientation:
 ---------------------------------------------------------------------
 Center     Atomic      Atomic             Coordinates (Angstroms)
 Number     Number       Type             X           Y           Z
 ---------------------------------------------------------------------
      1          8           0       -1.791075   -0.806608    0.095486
      2          6           0       -1.427360    0.343667   -0.060983
      3          6           0       -0.041566    0.831721    0.002952
      4          6           0        0.956707    1.625955   -0.158736
      5          6           0        1.207585   -0.280639    0.380854
      6          8           0        1.334753   -1.209870   -0.359186
      7          1           0       -2.133084    1.178146   -0.272585
      8          1           0        1.611468   -0.170538    1.397667
 ---------------------------------------------------------------------

 SCF Done:  E(RHF) =  -303.495894658     A.U. after    2 cycles

 The electronic state is 1-A.
 Alpha  occ. eigenvalues --  -21.13184 -21.10420 -11.55189 -11.54411 -11.47332
 Alpha  occ. eigenvalues --  -11.44607  -1.76803  -1.73676  -1.23829  -0.97169
 Alpha  occ. eigenvalues --   -0.86830  -0.75476  -0.64866  -0.57916  -0.56148
 Alpha  occ. eigenvalues --   -0.52592  -0.50712  -0.47202  -0.38827  -0.34303
 Alpha  occ. eigenvalues --   -0.33411
 Alpha virt. eigenvalues --    0.02523   0.04375   0.06158   0.07552   0.08289
 Alpha virt. eigenvalues --    0.09495   0.10200   0.10751   0.11657   0.12214
 Alpha virt. eigenvalues --    0.13080   0.13906   0.14516   0.15520   0.16375

 Mulliken charges:
               1
     1  O   -2.595886
     2  C    0.882793
     3  C    2.189587
     4  C   -1.839413
     5  C    0.796558
     6  O   -2.327368
     7  H    1.418995
     8  H    1.474733
 Sum of Mulliken charges =  -0.00000

 Dipole moment (field-independent basis, Debye):
    X=             -0.9123    Y=             -1.3846    Z=              0.6446  Tot=              1.7790

 Test job not archived.
 1\1\GINC-SE026\SP\RHF\Aug-CC-pVDZ\C4H2O2\OHZDE\09-Apr-2025\0\\#t hf au
 g-cc-pvdz iop(5/13=1,5/36=2,99/5=2) pseudo=read geom=check guess=(read
 ,tcheck) scf=(maxcycle=1)\\title\\0,1\O,0,-1.61852282,0.27184205,1.120
 65038\C,0,-1.39928049,-0.27508518,0.0563636\C,0,-0.10157148,-0.3452604
 5,-0.63192176\C,0,0.79210167,-0.74848223,-1.46394315\C,0,1.24755426,0.
 4474126,0.06954822\O,0,1.56057084,0.09481919,1.16727333\H,0,-2.1891125
 3,-0.79510102,-0.53094084\H,0,1.54426055,1.36958304,-0.45075778\\Versi
 on=ES64L-G16RevC.01\State=1-A\HF=-303.4958947\RMSD=3.489e-01\Dipole=-0

 Normal termination of Gaussian 16 at Wed Apr  9 16:04:40 2025.
