 Gaussian 16, Revision C.01,

 ----------------------------------------------------------------------
 #t hf aug-cc-pvdz symm=none int=(grid=ultrafine) guess=(read,tcheck) s
 table=(opt,rrhf)
 ----------------------------------------------------------------------
 -----
 title
 -----
 Symbolic Z-matrix:
 Charge =  0 Multiplicity = 1

 SCF Done:  E(RHF) =  -321.500824401     A.U. after   14 cycles
 Normal termination of Gaussian 16 at Wed Apr  9 03:45:45 2025.
 Gaussian 16:  ES64L-G16RevC.01  3-Jul-2019

 ----------------------------------------------------------------------
 #t hf aug-cc-pvdz iop(5/13=1,5/36=2,99/5=2) pseudo=read geom=check gue
 ss=(read,tcheck) scf=(maxcycle=1)
 ----------------------------------------------------------------------
 -----
 title
 -----
 Structure from the checkpoint file:  "Grambow2020_wb97xd3_007884_forward_mol2.chk"
 Charge =  0 Multiplicity = 1

                         Standard orientation:
 ---------------------------------------------------------------------
 Center     Atomic      Atomic             Coordinates (Angstroms)
 Number     Number       Type             X           Y           Z
 ---------------------------------------------------------------------
      1          8           0       -2.093773   -0.446008    0.000357
      2          6           0       -0.982184   -0.061758    0.000463
      3          6           0        0.158534    0.335927   -1.016664
      4          7           0        0.450868    1.377572   -0.002154
      5          6           0        0.158039    0.339153    1.015734
      6          6           0        1.092933   -0.801270    0.671502
      7          6           0        1.093143   -0.803308   -0.669077
      8          1           0       -0.011937    0.633287   -2.046518
      9          1           0        1.439117    1.627288   -0.002455
     10          1           0       -0.011747    0.640340    2.044461
     11          1           0        1.527888   -1.511815    1.358198
     12          1           0        1.528003   -1.516502   -1.353203
 ---------------------------------------------------------------------

 SCF Done:  E(RHF) =  -322.974201209     A.U. after    2 cycles

 The electronic state is 1-A.
 Alpha  occ. eigenvalues --  -21.07396 -15.74007 -11.53140 -11.51093 -11.45066
 Alpha  occ. eigenvalues --  -11.44036 -11.39297  -1.73362  -1.53516  -1.15775
 Alpha  occ. eigenvalues --   -1.03309  -0.97567  -0.79177  -0.76937  -0.72406
 Alpha  occ. eigenvalues --   -0.64030  -0.58188  -0.54547  -0.52728  -0.51219
 Alpha  occ. eigenvalues --   -0.48133  -0.44005  -0.38898  -0.32414  -0.28746
 Alpha virt. eigenvalues --    0.03563   0.04551   0.05447   0.05715   0.05743
 Alpha virt. eigenvalues --    0.09007   0.09372   0.11245   0.11993   0.12744
 Alpha virt. eigenvalues --    0.13221   0.13322   0.13925   0.14136   0.15390

 Mulliken charges:
               1
     1  O   -3.514302
     2  C    4.851887
     3  C   -2.683515
     4  N   -1.537886
     5  C   -2.685908
     6  C   -0.205937
     7  C   -0.205301
     8  H    1.388488
     9  H    0.717546
    10  H    1.388548
    11  H    1.243083
    12  H    1.243297
 Sum of Mulliken charges =  -0.00000

 Dipole moment (field-independent basis, Debye):
    X=              1.6207    Y=             -0.5762    Z=              0.0019  Tot=              1.7201

 Test job not archived.
 1\1\GINC-SE454\SP\RHF\Aug-CC-pVDZ\C5H5N1O1\OHZDE\09-Apr-2025\0\\#t hf
 aug-cc-pvdz iop(5/13=1,5/36=2,99/5=2) pseudo=read geom=check guess=(re
 ad,tcheck) scf=(maxcycle=1)\\title\\0,1\O,0,0.14443852,-1.59967575,1.9
 0742107\C,0,-0.07085361,-0.94706939,0.9529406\C,0,0.32320636,-0.874202
 06,-0.57458898\N,0,-1.09298483,-0.463585,-0.73430732\C,0,-0.91343306,0
 .31415099,0.51591153\C,0,0.27161531,1.21376958,0.23407358\C,0,1.087228
 05,0.4298084,-0.48518837\H,0,0.69986441,-1.71169108,-1.15322814\H,0,-1
 .21149787,0.15105991,-1.53877088\H,0,-1.789694,0.68096522,1.04073004\H

 Normal termination of Gaussian 16 at Wed Apr  9 03:45:49 2025.
