 Gaussian 16, Revision C.01,

 ----------------------------------------------------------------------
 #t hf aug-cc-pvdz symm=none int=(grid=ultrafine) guess=(read,tcheck) s
 table=(opt,rrhf)
 ----------------------------------------------------------------------
 -----
 title
 -----
 Symbolic Z-matrix:
 Charge =  0 Multiplicity = 1

 SCF Done:  E(RHF) =  -322.656305224     A.U. after   16 cycles
 Normal termination of Gaussian 16 at Wed Apr  9 18:18:16 2025.
 Gaussian 16:  ES64L-G16RevC.01  3-Jul-2019

 ----------------------------------------------------------------------
 #t hf aug-cc-pvdz iop(5/13=1,5/36=2,99/5=2) pseudo=read geom=check gue
 ss=(read,tcheck) scf=(maxcycle=1)
 ----------------------------------------------------------------------
 -----
 title
 -----
 Structure from the checkpoint file:  "Grambow2020_wb97xd3_006859_reverse_mol2.chk"
 Charge =  0 Multiplicity = 1

                         Standard orientation:
 ---------------------------------------------------------------------
 Center     Atomic      Atomic             Coordinates (Angstroms)
 Number     Number       Type             X           Y           Z
 ---------------------------------------------------------------------
      1          6           0        2.509485   -0.381631   -0.157952
      2          6           0        1.053054   -0.194425    0.010824
      3          6           0        0.012533   -0.984428    0.190146
      4          6           0       -1.193029   -0.105544    0.343093
      5          7           0       -2.369084   -0.438247   -0.433434
      6          6           0       -0.677358    1.292439    0.078302
      7          8           0        0.617004    1.167137   -0.034240
      8          1           0        2.842072    0.057723   -1.100268
      9          1           0        2.754083   -1.442380   -0.155883
     10          1           0        3.057496    0.108439    0.649029
     11          1           0        0.034352   -2.060499    0.257702
     12          1           0       -2.969642   -1.085361    0.056404
     13          1           0       -2.897457    0.405033   -0.616939
     14          1           0       -1.401461   -0.010791    1.431441
 ---------------------------------------------------------------------

 SCF Done:  E(RHF) =  -324.142809240     A.U. after    2 cycles

 The electronic state is 1-A.
 Alpha  occ. eigenvalues --  -21.11953 -15.74127 -11.47613 -11.45490 -11.42059
 Alpha  occ. eigenvalues --  -11.41100 -11.37931  -1.84630  -1.35366  -1.18586
 Alpha  occ. eigenvalues --   -1.10143  -0.96741  -0.79605  -0.76615  -0.66740
 Alpha  occ. eigenvalues --   -0.65810  -0.62151  -0.59293  -0.57947  -0.50175
 Alpha  occ. eigenvalues --   -0.49534  -0.48133  -0.43148  -0.35972  -0.34203
 Alpha  occ. eigenvalues --   -0.32683
 Alpha virt. eigenvalues --    0.03223   0.04812   0.05054   0.05429   0.06392
 Alpha virt. eigenvalues --    0.06792   0.07660   0.09767   0.09957   0.11098
 Alpha virt. eigenvalues --    0.11298   0.13222   0.13456   0.14432   0.14667

 Mulliken charges:
               1
     1  C   -4.521847
     2  C    6.084161
     3  C   -2.727235
     4  C    0.114324
     5  N   -2.593029
     6  C   -0.288559
     7  O   -3.522874
     8  H    1.132808
     9  H    1.072510
    10  H    1.098364
    11  H    1.273663
    12  H    0.536209
    13  H    0.578718
    14  H    1.762786
 Sum of Mulliken charges =   0.00000

 Dipole moment (field-independent basis, Debye):
    X=              1.2777    Y=             -2.6124    Z=              0.8994  Tot=              3.0440

 Test job not archived.
 1\1\GINC-SE104\SP\RHF\Aug-CC-pVDZ\C5H7N1O1\OHZDE\09-Apr-2025\0\\#t hf
 aug-cc-pvdz iop(5/13=1,5/36=2,99/5=2) pseudo=read geom=check guess=(re
 ad,tcheck) scf=(maxcycle=1)\\title\\0,1\C,0,2.41444705,-0.018987,-0.07
 341609\C,0,0.94374383,0.10408481,0.00786884\C,0,-0.06230891,-0.7154874
 9,0.2426097\C,0,-1.31762118,0.10502851,0.23017672\N,0,-2.43512116,-0.3
 8958305,-0.54657626\C,0,-0.86215952,1.48589092,-0.18953911\O,0,0.44091
 887,1.42190032,-0.22993628\H,0,2.77018054,0.3167585,-1.04929262\H,0,2.
 71294502,-1.05526516,0.07506943\H,0,2.89589551,0.59927849,0.68662227\H

 Normal termination of Gaussian 16 at Wed Apr  9 18:18:20 2025.
