 Gaussian 16, Revision C.01,

 ----------------------------------------------------------------------
 #t hf aug-cc-pvdz symm=none int=(grid=ultrafine) guess=(read,tcheck) s
 table=(opt,rrhf)
 ----------------------------------------------------------------------
 -----
 title
 -----
 Symbolic Z-matrix:
 Charge =  0 Multiplicity = 1

 SCF Done:  E(RHF) =  -310.200479989     A.U. after   12 cycles

 1\1\GINC-SE135\Stability\RHF\Aug-CC-pVDZ\C6H14O1\OHZDE\09-Apr-2025\0\\
 #t hf aug-cc-pvdz symm=none int=(grid=ultrafine) guess=(read,tcheck) s
 table=(opt,rrhf)\\title\\0,1\C,0,-2.06493536,1.08697731,-0.52309407\C,
 0,-1.74292815,1.71795083,0.82420697\C,0,0.59106915,-1.8948269,-1.11272
 63\C,0,0.41006582,-2.14554671,0.36369451\C,0,1.45580271,-1.20265586,-0
 .10369413\O,0,1.23895317,0.14322557,0.15765764\C,0,1.82408446,0.988481
 36,-0.80260604\H,0,-2.98516986,1.49282493,-0.94862376\H,0,-2.19321526,
 0.00592442,-0.43310712\H,0,-1.26197033,1.26217327,-1.24216605\H,0,-1.6

 Normal termination of Gaussian 16 at Wed Apr  9 18:52:10 2025.
 Gaussian 16:  ES64L-G16RevC.01  3-Jul-2019

 ----------------------------------------------------------------------
 #t hf aug-cc-pvdz iop(5/13=1,5/36=2,99/5=2) pseudo=read geom=check gue
 ss=(read,tcheck) scf=(maxcycle=1)
 ----------------------------------------------------------------------
 -----
 title
 -----
 Structure from the checkpoint file:  "Grambow2020_wb97xd3_007723_reverse_mol2.chk"
 Charge =  0 Multiplicity = 1

                         Standard orientation:
 ---------------------------------------------------------------------
 Center     Atomic      Atomic             Coordinates (Angstroms)
 Number     Number       Type             X           Y           Z
 ---------------------------------------------------------------------
      1          6           0        2.379956   -0.622708    0.735841
      2          6           0        2.761946   -0.103021   -0.642944
      3          6           0       -1.644156   -0.924869    0.827515
      4          6           0       -1.490755   -1.401614   -0.595377
      5          6           0       -1.653058    0.045935   -0.313743
      6          8           0       -0.539319    0.847303   -0.523791
      7          6           0       -0.504867    1.969626    0.323645
      8          1           0        3.259886   -0.900711    1.319840
      9          1           0        1.741423   -1.505978    0.662767
     10          1           0        1.830707    0.131736    1.302984
     11          1           0        3.408072    0.774613   -0.570137
     12          1           0        3.300088   -0.859446   -1.217949
     13          1           0       -2.570577   -1.124593    1.349445
     14          1           0       -0.754988   -0.941520    1.444699
     15          1           0       -2.311220   -1.931246   -1.060427
     16          1           0       -0.503326   -1.720437   -0.902044
     17          1           0       -2.598941    0.520152   -0.570869
     18          1           0        1.872953    0.182139   -1.207319
     19          1           0       -1.364537    2.628779    0.150000
     20          1           0        0.411190    2.515363    0.100582
     21          1           0       -0.500567    1.672629    1.379127
 ---------------------------------------------------------------------

 SCF Done:  E(RHF) =  -311.737388104     A.U. after    2 cycles

 The electronic state is 1-A.
 Alpha  occ. eigenvalues --  -21.04625 -11.43549 -11.41718 -11.40130 -11.38069
 Alpha  occ. eigenvalues --  -11.36200 -11.33908  -1.76522  -1.26832  -1.13507
 Alpha  occ. eigenvalues --   -0.98664  -0.87468  -0.86588  -0.82358  -0.68851
 Alpha  occ. eigenvalues --   -0.64484  -0.60588  -0.58742  -0.58688  -0.57644
 Alpha  occ. eigenvalues --   -0.53600  -0.50856  -0.47826  -0.46738  -0.46648
 Alpha  occ. eigenvalues --   -0.44738  -0.40622  -0.36086  -0.29320
 Alpha virt. eigenvalues --    0.04199   0.04930   0.05212   0.05249   0.05518
 Alpha virt. eigenvalues --    0.05737   0.05847   0.06466   0.07823   0.08004
 Alpha virt. eigenvalues --    0.08461   0.08807   0.09700   0.11001   0.12895

 Mulliken charges:
               1
     1  C   -4.517386
     2  C   -3.969087
     3  C   -2.802534
     4  C   -2.913944
     5  C    1.639557
     6  O   -3.634185
     7  C   -3.184215
     8  H    1.130199
     9  H    1.562094
    10  H    1.700672
    11  H    1.283153
    12  H    1.229748
    13  H    1.156952
    14  H    1.488419
    15  H    1.259620
    16  H    1.383268
    17  H    1.472948
    18  H    1.533167
    19  H    1.315097
    20  H    1.334984
    21  H    1.531474
 Sum of Mulliken charges =   0.00000

 Dipole moment (field-independent basis, Debye):
    X=             -0.5632    Y=              0.1087    Z=              0.1988  Tot=              0.6070

 Test job not archived.
 1\1\GINC-SE135\SP\RHF\Aug-CC-pVDZ\C6H14O1\OHZDE\09-Apr-2025\0\\#t hf a
 ug-cc-pvdz iop(5/13=1,5/36=2,99/5=2) pseudo=read geom=check guess=(rea
 d,tcheck) scf=(maxcycle=1)\\title\\0,1\C,0,-2.06493536,1.08697731,-0.5
 2309407\C,0,-1.74292815,1.71795083,0.82420697\C,0,0.59106915,-1.894826
 9,-1.1127263\C,0,0.41006582,-2.14554671,0.36369451\C,0,1.45580271,-1.2
 0265586,-0.10369413\O,0,1.23895317,0.14322557,0.15765764\C,0,1.8240844
 6,0.98848136,-0.80260604\H,0,-2.98516986,1.49282493,-0.94862376\H,0,-2
 .19321526,0.00592442,-0.43310712\H,0,-1.26197033,1.26217327,-1.2421660

 Normal termination of Gaussian 16 at Wed Apr  9 18:52:18 2025.
