 Gaussian 16, Revision C.01,

 ----------------------------------------------------------------------
 #t hf aug-cc-pvdz symm=none int=(grid=ultrafine) guess=(read,tcheck) s
 table=(opt,rrhf)
 ----------------------------------------------------------------------
 -----
 title
 -----
 Symbolic Z-matrix:
 Charge =  0 Multiplicity = 1

 SCF Done:  E(RHF) =  -302.744646939     A.U. after   16 cycles
 Normal termination of Gaussian 16 at Wed Apr  9 19:04:00 2025.
 Gaussian 16:  ES64L-G16RevC.01  3-Jul-2019

 ----------------------------------------------------------------------
 #t hf aug-cc-pvdz iop(5/13=1,5/36=2,99/5=2) pseudo=read geom=check gue
 ss=(read,tcheck) scf=(maxcycle=1)
 ----------------------------------------------------------------------
 -----
 title
 -----
 Structure from the checkpoint file:  "Grambow2020_wb97xd3_008038_reverse_mol1.chk"
 Charge =  0 Multiplicity = 1

                         Standard orientation:
 ---------------------------------------------------------------------
 Center     Atomic      Atomic             Coordinates (Angstroms)
 Number     Number       Type             X           Y           Z
 ---------------------------------------------------------------------
      1          6           0       -0.212480    1.889926   -0.342083
      2          6           0       -0.718131    0.771187    0.539981
      3          6           0       -1.964011   -0.699811   -0.223774
      4          7           0       -0.697201   -1.315976   -0.460247
      5          6           0        0.090394   -0.555669    0.493973
      6          6           0        1.510560   -0.404167    0.143982
      7          7           0        2.611428   -0.254103   -0.140537
      8          1           0       -0.047333    1.545324   -1.365631
      9          1           0       -0.915773    2.722226   -0.367922
     10          1           0        0.743377    2.259493    0.037609
     11          1           0       -0.980950    1.101608    1.542755
     12          1           0       -1.803668    0.544165   -0.160876
     13          1           0       -2.293762   -0.965878    0.788985
     14          1           0       -0.383691   -1.178138   -1.412360
     15          1           0        0.044219   -1.047045    1.470452
 ---------------------------------------------------------------------

 SCF Done:  E(RHF) =  -304.194493950     A.U. after    2 cycles

 The electronic state is 1-A.
 Alpha  occ. eigenvalues --  -15.77552 -15.75449 -11.53353 -11.47115 -11.44542
 Alpha  occ. eigenvalues --  -11.41830 -11.40234  -1.49210  -1.31445  -1.19114
 Alpha  occ. eigenvalues --   -1.06038  -0.98184  -0.83512  -0.74857  -0.70553
 Alpha  occ. eigenvalues --   -0.66224  -0.60805  -0.57384  -0.56149  -0.54659
 Alpha  occ. eigenvalues --   -0.53787  -0.50036  -0.45676  -0.45272  -0.36787
 Alpha  occ. eigenvalues --   -0.30956
 Alpha virt. eigenvalues --    0.03008   0.04729   0.05025   0.05592   0.05875
 Alpha virt. eigenvalues --    0.06387   0.07094   0.07661   0.09453   0.10223
 Alpha virt. eigenvalues --    0.11616   0.12329   0.12652   0.13148   0.13731

 Mulliken charges:
               1
     1  C   -3.542849
     2  C   -2.800118
     3  C   -2.400795
     4  N   -1.980374
     5  C   -0.058788
     6  C    2.345576
     7  N   -2.435129
     8  H    1.190892
     9  H    1.107539
    10  H    1.314563
    11  H    1.361606
    12  H    2.469760
    13  H    1.173394
    14  H    0.679067
    15  H    1.575656
 Sum of Mulliken charges =  -0.00000

 Dipole moment (field-independent basis, Debye):
    X=             -0.9243    Y=              2.0214    Z=              1.7185  Tot=              2.8096

 Test job not archived.
 1\1\GINC-SE105\SP\RHF\Aug-CC-pVDZ\C5H8N2\OHZDE\09-Apr-2025\0\\#t hf au
 g-cc-pvdz iop(5/13=1,5/36=2,99/5=2) pseudo=read geom=check guess=(read
 ,tcheck) scf=(maxcycle=1)\\title\\0,1\C,0,1.32588148,-0.50074073,-0.84
 887191\C,0,0.69163008,0.28681228,0.27486476\C,0,-0.68080117,1.78837329
 ,-0.12653132\N,0,-1.57304503,0.68056557,0.00404147\C,0,-0.70217374,-0.
 20641444,0.7548793\C,0,-0.95543681,-1.64072353,0.552561\N,0,-1.1261823
 1,-2.76052045,0.37289441\H,0,0.63033598,-0.63753276,-1.68024305\H,0,2.
 21956662,-0.00327336,-1.22552314\H,0,1.61001432,-1.49401356,-0.4923820

 Normal termination of Gaussian 16 at Wed Apr  9 19:04:05 2025.
