 Gaussian 16, Revision C.01,

 ----------------------------------------------------------------------
 #t hf aug-cc-pvdz symm=none int=(grid=ultrafine) guess=(read,tcheck) s
 table=(opt,rrhf)
 ----------------------------------------------------------------------
 -----
 title
 -----
 Symbolic Z-matrix:
 Charge =  0 Multiplicity = 1

 SCF Done:  E(RHF) =  -266.825239263     A.U. after   13 cycles
 Normal termination of Gaussian 16 at Wed Apr  9 03:09:40 2025.
 Gaussian 16:  ES64L-G16RevC.01  3-Jul-2019

 ----------------------------------------------------------------------
 #t hf aug-cc-pvdz iop(5/13=1,5/36=2,99/5=2) pseudo=read geom=check gue
 ss=(read,tcheck) scf=(maxcycle=1)
 ----------------------------------------------------------------------
 -----
 title
 -----
 Structure from the checkpoint file:  "Grambow2020_b97d3_006691_reverse_mol2.chk"
 Charge =  0 Multiplicity = 1

                         Standard orientation:
 ---------------------------------------------------------------------
 Center     Atomic      Atomic             Coordinates (Angstroms)
 Number     Number       Type             X           Y           Z
 ---------------------------------------------------------------------
      1          6           0        1.618388   -0.392897   -0.035192
      2          6           0        1.471539    1.105244    0.036094
      3          8           0       -2.005701    0.779842   -0.068650
      4          6           0       -1.908025   -0.425840    0.054616
      5          8           0        0.704316   -1.201773   -0.005284
      6          1           0        2.674051   -0.751380   -0.122777
      7          1           0        1.912517    1.554092   -0.868670
      8          1           0        2.059076    1.486962    0.886571
      9          1           0        0.425184    1.408604    0.131647
     10          1           0       -1.811663   -0.921534    1.047167
     11          1           0       -1.939506   -1.120335   -0.815575
 ---------------------------------------------------------------------

 SCF Done:  E(RHF) =  -267.990530540     A.U. after    2 cycles

 The electronic state is 1-A.
 Alpha  occ. eigenvalues --  -21.07230 -21.06013 -11.49301 -11.46509 -11.39277
 Alpha  occ. eigenvalues --   -1.71298  -1.69144  -1.11778  -0.88450  -0.82218
 Alpha  occ. eigenvalues --   -0.64759  -0.64483  -0.59334  -0.56299  -0.52318
 Alpha  occ. eigenvalues --   -0.50337  -0.43472  -0.42982  -0.30385  -0.29351
 Alpha virt. eigenvalues --    0.03212   0.05181   0.05479   0.05628   0.06695
 Alpha virt. eigenvalues --    0.08498   0.10737   0.10849   0.11483   0.12755
 Alpha virt. eigenvalues --    0.13195   0.14429   0.15891   0.16121   0.17051

 Mulliken charges:
               1
     1  C    1.256717
     2  C   -3.795631
     3  O   -2.021303
     4  C   -0.852486
     5  O   -2.724074
     6  H    1.542036
     7  H    1.280301
     8  H    1.248301
     9  H    1.293060
    10  H    1.384353
    11  H    1.388726
 Sum of Mulliken charges =  -0.00000

 Dipole moment (field-independent basis, Debye):
    X=              1.3169    Y=             -0.0920    Z=              0.1018  Tot=              1.3241

 Test job not archived.
 1\1\GINC-SE340\SP\RHF\Aug-CC-pVDZ\C3H6O2\OHZDE\09-Apr-2025\0\\#t hf au
 g-cc-pvdz iop(5/13=1,5/36=2,99/5=2) pseudo=read geom=check guess=(read
 ,tcheck) scf=(maxcycle=1)\\title\\0,1\C,0,0.48691929,1.33733263,0.1269
 0298\C,0,1.50593468,0.22719928,0.1100821\O,0,-1.05965288,-2.139559,-0.
 04570962\C,0,-1.87905596,-1.25707178,-0.2136377\O,0,-0.71943649,1.2007
 0907,-0.00249239\H,0,0.91717603,2.35910022,0.27345158\H,0,2.06069854,0
 .23270427,1.06230627\H,0,2.24789931,0.42819993,-0.67941544\H,0,1.04162
 529,-0.75057102,-0.04612517\H,0,-2.10371256,-0.83012406,-1.21733103\H,

 Normal termination of Gaussian 16 at Wed Apr  9 03:09:42 2025.
