 Gaussian 16, Revision C.01,

 ----------------------------------------------------------------------
 #t hf aug-cc-pvdz symm=none int=(grid=ultrafine) guess=(read,tcheck) s
 table=(opt,rrhf)
 ----------------------------------------------------------------------
 -----
 title
 -----
 Symbolic Z-matrix:
 Charge =  0 Multiplicity = 1

 SCF Done:  E(RHF) =  -322.740092292     A.U. after   15 cycles
 Normal termination of Gaussian 16 at Wed Apr  9 18:18:15 2025.
 Gaussian 16:  ES64L-G16RevC.01  3-Jul-2019

 ----------------------------------------------------------------------
 #t hf aug-cc-pvdz iop(5/13=1,5/36=2,99/5=2) pseudo=read geom=check gue
 ss=(read,tcheck) scf=(maxcycle=1)
 ----------------------------------------------------------------------
 -----
 title
 -----
 Structure from the checkpoint file:  "Grambow2020_wb97xd3_006853_forward_mol2.chk"
 Charge =  0 Multiplicity = 1

                         Standard orientation:
 ---------------------------------------------------------------------
 Center     Atomic      Atomic             Coordinates (Angstroms)
 Number     Number       Type             X           Y           Z
 ---------------------------------------------------------------------
      1          6           0        2.520010   -0.443795    0.004240
      2          6           0        1.064530   -0.159254    0.001110
      3          6           0       -0.027695   -0.958901   -0.012236
      4          6           0       -1.169394   -0.091474   -0.007797
      5          7           0       -2.500408   -0.511515   -0.086441
      6          6           0       -0.674371    1.168620    0.008007
      7          8           0        0.693213    1.135417    0.007470
      8          1           0        3.002068   -0.026744   -0.882116
      9          1           0        2.685839   -1.520145    0.012610
     10          1           0        3.001482   -0.011773    0.883672
     11          1           0       -0.031893   -2.037635   -0.033584
     12          1           0       -2.683042   -1.347252    0.445952
     13          1           0       -3.165122    0.206200    0.153801
     14          1           0       -1.130657    2.143440    0.005049
 ---------------------------------------------------------------------

 SCF Done:  E(RHF) =  -324.238616615     A.U. after    2 cycles

 The electronic state is 1-A.
 Alpha  occ. eigenvalues --  -21.09428 -15.75434 -11.47311 -11.44708 -11.40802
 Alpha  occ. eigenvalues --  -11.39614 -11.35942  -1.83787  -1.35966  -1.16266
 Alpha  occ. eigenvalues --   -1.10891  -0.97502  -0.78863  -0.77473  -0.69124
 Alpha  occ. eigenvalues --   -0.64946  -0.60860  -0.58668  -0.54432  -0.52360
 Alpha  occ. eigenvalues --   -0.50120  -0.48364  -0.44245  -0.40974  -0.31111
 Alpha  occ. eigenvalues --   -0.26420
 Alpha virt. eigenvalues --    0.03361   0.04972   0.05132   0.05541   0.06602
 Alpha virt. eigenvalues --    0.06829   0.08339   0.09882   0.11468   0.11711
 Alpha virt. eigenvalues --    0.12923   0.13515   0.13861   0.14979   0.15222

 Mulliken charges:
               1
     1  C   -4.639387
     2  C    6.322174
     3  C   -4.645146
     4  C    3.331756
     5  N   -3.582531
     6  C    0.003027
     7  O   -4.350147
     8  H    1.117589
     9  H    1.108009
    10  H    1.119984
    11  H    1.442126
    12  H    0.548354
    13  H    0.736872
    14  H    1.487318
 Sum of Mulliken charges =  -0.00000

 Dipole moment (field-independent basis, Debye):
    X=             -0.2746    Y=             -0.3208    Z=              0.8549  Tot=              0.9535

 Test job not archived.
 1\1\GINC-SE131\SP\RHF\Aug-CC-pVDZ\C5H7N1O1\OHZDE\09-Apr-2025\0\\#t hf
 aug-cc-pvdz iop(5/13=1,5/36=2,99/5=2) pseudo=read geom=check guess=(re
 ad,tcheck) scf=(maxcycle=1)\\title\\0,1\C,0,2.42148239,-0.00120271,0.0
 4789609\C,0,0.94420245,0.12233218,0.00572184\C,0,-0.05074337,-0.788254
 99,-0.11038657\C,0,-1.28179656,-0.05339883,-0.08986238\N,0,-2.55420992
 ,-0.60880022,-0.2532969\C,0,-0.93154673,1.24822017,0.03760451\O,0,0.43
 045497,1.36447664,0.09075304\H,0,2.88264773,0.53262036,-0.78534952\H,0
 ,2.70624913,-1.05050916,-0.01504572\H,0,2.82258234,0.41206741,0.975357

 Normal termination of Gaussian 16 at Wed Apr  9 18:18:19 2025.
