 Gaussian 16, Revision C.01,

 ----------------------------------------------------------------------
 #t hf aug-cc-pvdz symm=none int=(grid=ultrafine) guess=(read,tcheck) s
 table=(opt,rrhf)
 ----------------------------------------------------------------------
 -----
 title
 -----
 Symbolic Z-matrix:
 Charge =  0 Multiplicity = 1

 SCF Done:  E(RHF) =  -344.821697507     A.U. after   15 cycles

 1\1\GINC-SE035\Stability\RHF\Aug-CC-pVDZ\C5H10O2\OHZDE\09-Apr-2025\0\\
 #t hf aug-cc-pvdz symm=none int=(grid=ultrafine) guess=(read,tcheck) s
 table=(opt,rrhf)\\title\\0,1\C,0,-1.20237165,-1.11248792,0.49193891\C,
 0,-0.59241931,-0.11943097,-0.47353327\C,0,0.90141033,-0.28100672,-0.71
 379407\C,0,1.79626137,-0.11021079,0.51022716\O,0,1.92663615,1.22710366
 ,0.93110082\C,0,-1.72761614,2.02858921,-0.35291241\O,0,-0.82079723,1.2
 2460889,0.07838453\H,0,-1.0214022,-2.13081136,0.1445144\H,0,-0.7750193
 4,-1.00779592,1.48944135\H,0,-2.27996957,-0.96078435,0.56509323\H,0,1.

 Normal termination of Gaussian 16 at Wed Apr  9 18:44:59 2025.
 Gaussian 16:  ES64L-G16RevC.01  3-Jul-2019

 ----------------------------------------------------------------------
 #t hf aug-cc-pvdz iop(5/13=1,5/36=2,99/5=2) pseudo=read geom=check gue
 ss=(read,tcheck) scf=(maxcycle=1)
 ----------------------------------------------------------------------
 -----
 title
 -----
 Structure from the checkpoint file:  "Grambow2020_wb97xd3_007600_reverse_mol2.chk"
 Charge =  0 Multiplicity = 1

                         Standard orientation:
 ---------------------------------------------------------------------
 Center     Atomic      Atomic             Coordinates (Angstroms)
 Number     Number       Type             X           Y           Z
 ---------------------------------------------------------------------
      1          6           0       -1.015722    1.545114   -0.689269
      2          6           0       -0.716746    0.533484    0.395884
      3          6           0        0.703873    0.565712    0.940091
      4          6           0        1.811201    0.272662   -0.067928
      5          8           0        1.895929   -1.084378   -0.433724
      6          6           0       -2.004493   -1.504511    0.071083
      7          8           0       -0.954966   -0.801839   -0.172777
      8          1           0       -0.812913    2.553726   -0.325942
      9          1           0       -0.403954    1.368247   -1.574176
     10          1           0       -2.064558    1.490256   -0.983403
     11          1           0        0.786642   -0.148401    1.763517
     12          1           0        0.862253    1.562787    1.362509
     13          1           0        2.771613    0.520234    0.387396
     14          1           0        1.705980    0.915519   -0.952433
     15          1           0        1.029119   -1.379120   -0.726273
     16          1           0       -1.432148    0.636241    1.218418
     17          1           0       -2.638421   -0.904516    0.783234
 ---------------------------------------------------------------------

 SCF Done:  E(RHF) =  -346.408010247     A.U. after    2 cycles

 The electronic state is 1-A.
 Alpha  occ. eigenvalues --  -21.12302 -21.05809 -11.48825 -11.44744 -11.42404
 Alpha  occ. eigenvalues --  -11.41362 -11.38214  -1.83035  -1.70516  -1.22904
 Alpha  occ. eigenvalues --   -1.07936  -0.95325  -0.87434  -0.82586  -0.68804
 Alpha  occ. eigenvalues --   -0.66091  -0.61756  -0.60944  -0.58213  -0.56224
 Alpha  occ. eigenvalues --   -0.52706  -0.51061  -0.49983  -0.45506  -0.42612
 Alpha  occ. eigenvalues --   -0.38891  -0.32808  -0.30875
 Alpha virt. eigenvalues --    0.03439   0.04708   0.04781   0.05031   0.05357
 Alpha virt. eigenvalues --    0.05509   0.07056   0.07102   0.08305   0.08901
 Alpha virt. eigenvalues --    0.10322   0.11892   0.12857   0.12958   0.13684

 Mulliken charges:
               1
     1  C   -3.776021
     2  C    0.115254
     3  C   -2.950642
     4  C   -0.692746
     5  O   -2.934041
     6  C   -1.195930
     7  O   -2.182558
     8  H    1.208266
     9  H    1.405716
    10  H    1.229542
    11  H    1.367246
    12  H    1.300432
    13  H    1.240637
    14  H    1.527919
    15  H    1.052946
    16  H    1.691840
    17  H    1.592139
 Sum of Mulliken charges =  -0.00000

 Dipole moment (field-independent basis, Debye):
    X=              0.5862    Y=              3.7164    Z=              0.9504  Tot=              3.8805

 Test job not archived.
 1\1\GINC-SE035\SP\RHF\Aug-CC-pVDZ\C5H10O2\OHZDE\09-Apr-2025\0\\#t hf a
 ug-cc-pvdz iop(5/13=1,5/36=2,99/5=2) pseudo=read geom=check guess=(rea
 d,tcheck) scf=(maxcycle=1)\\title\\0,1\C,0,-1.20237165,-1.11248792,0.4
 9193891\C,0,-0.59241931,-0.11943097,-0.47353327\C,0,0.90141033,-0.2810
 0672,-0.71379407\C,0,1.79626137,-0.11021079,0.51022716\O,0,1.92663615,
 1.22710366,0.93110082\C,0,-1.72761614,2.02858921,-0.35291241\O,0,-0.82
 079723,1.22460889,0.07838453\H,0,-1.0214022,-2.13081136,0.1445144\H,0,
 -0.77501934,-1.00779592,1.48944135\H,0,-2.27996957,-0.96078435,0.56509

 Normal termination of Gaussian 16 at Wed Apr  9 18:45:05 2025.
