 Gaussian 16, Revision C.01,

 ----------------------------------------------------------------------
 #t hf aug-cc-pvdz symm=none int=(grid=ultrafine) guess=(read,tcheck) s
 table=(opt,rrhf)
 ----------------------------------------------------------------------
 -----
 title
 -----
 Symbolic Z-matrix:
 Charge =  0 Multiplicity = 1

 SCF Done:  E(RHF) =  -323.807542676     A.U. after   16 cycles
 Normal termination of Gaussian 16 at Wed Apr  9 18:33:37 2025.
 Gaussian 16:  ES64L-G16RevC.01  3-Jul-2019

 ----------------------------------------------------------------------
 #t hf aug-cc-pvdz iop(5/13=1,5/36=2,99/5=2) pseudo=read geom=check gue
 ss=(read,tcheck) scf=(maxcycle=1)
 ----------------------------------------------------------------------
 -----
 title
 -----
 Structure from the checkpoint file:  "Grambow2020_wb97xd3_007252_reverse_mol2.chk"
 Charge =  0 Multiplicity = 1

                         Standard orientation:
 ---------------------------------------------------------------------
 Center     Atomic      Atomic             Coordinates (Angstroms)
 Number     Number       Type             X           Y           Z
 ---------------------------------------------------------------------
      1          6           0       -1.347388    1.599197    0.096593
      2          6           0       -0.246690    0.704527   -0.367691
      3          6           0       -1.511470   -1.426993   -0.006287
      4          6           0        1.160979    1.049847    0.032537
      5          8           0        1.842594   -0.228718   -0.045731
      6          6           0        0.887774   -1.151403    0.147906
      7          7           0       -0.297919   -0.641008   -0.043259
      8          1           0       -2.336429    1.233668   -0.187215
      9          1           0       -1.241509    2.585209   -0.359081
     10          1           0       -1.344742    1.751035    1.193940
     11          1           0       -2.033976   -1.311668   -0.955078
     12          1           0       -1.260810   -2.473640    0.153517
     13          1           0       -2.154966   -1.084755    0.803514
     14          1           0        1.686543    1.752217   -0.613520
     15          1           0        1.236667    1.413495    1.086556
     16          1           0        1.134677   -2.199815    0.127683
 ---------------------------------------------------------------------

 SCF Done:  E(RHF) =  -325.327287300     A.U. after    2 cycles

 The electronic state is 1-A.
 Alpha  occ. eigenvalues --  -21.07674 -15.81787 -11.46187 -11.43616 -11.42804
 Alpha  occ. eigenvalues --  -11.38093 -11.32866  -1.82612  -1.46980  -1.14978
 Alpha  occ. eigenvalues --   -1.06078  -0.99494  -0.87422  -0.76622  -0.71572
 Alpha  occ. eigenvalues --   -0.67555  -0.62150  -0.60808  -0.56384  -0.54560
 Alpha  occ. eigenvalues --   -0.52518  -0.50743  -0.49123  -0.48170  -0.39308
 Alpha  occ. eigenvalues --   -0.35745  -0.18947
 Alpha virt. eigenvalues --    0.03336   0.05017   0.05393   0.05673   0.06429
 Alpha virt. eigenvalues --    0.06541   0.06775   0.07904   0.08362   0.09880
 Alpha virt. eigenvalues --    0.10763   0.12003   0.12420   0.13730   0.14340

 Mulliken charges:
               1
     1  C   -3.252118
     2  C    0.351658
     3  C   -3.249533
     4  C   -1.758370
     5  O   -3.041597
     6  C    1.219506
     7  N   -2.827131
     8  H    1.266206
     9  H    1.229071
    10  H    1.112981
    11  H    1.437700
    12  H    1.441664
    13  H    1.552849
    14  H    1.363780
    15  H    1.378030
    16  H    1.775304
 Sum of Mulliken charges =  -0.00000

 Dipole moment (field-independent basis, Debye):
    X=             -0.7302    Y=             -2.6069    Z=              0.5722  Tot=              2.7671

 Test job not archived.
 1\1\GINC-SE041\SP\RHF\Aug-CC-pVDZ\C5H9N1O1\OHZDE\09-Apr-2025\0\\#t hf
 aug-cc-pvdz iop(5/13=1,5/36=2,99/5=2) pseudo=read geom=check guess=(re
 ad,tcheck) scf=(maxcycle=1)\\title\\0,1\C,0,1.26039787,0.71903613,1.05
 484521\C,0,0.17117304,-0.23519013,0.69349856\C,0,0.70390246,-0.2803779
 7,-1.75350264\C,0,-1.1622841,-0.07431077,1.36949427\O,0,-2.07775062,-0
 .69734597,0.43183655\C,0,-1.48371489,-0.59108288,-0.76664255\N,0,-0.20
 953524,-0.3425879,-0.63385644\H,0,2.16808186,0.56536872,0.4676008\H,0,
 1.54318884,0.58113629,2.09987174\H,0,0.95923171,1.77905109,0.9412638\H

 Normal termination of Gaussian 16 at Wed Apr  9 18:33:42 2025.
