 Gaussian 16, Revision C.01,

 ----------------------------------------------------------------------
 #t hf aug-cc-pvdz symm=none int=(grid=ultrafine) guess=(read,tcheck) s
 table=(opt,rrhf)
 ----------------------------------------------------------------------
 -----
 title
 -----
 Symbolic Z-matrix:
 Charge =  0 Multiplicity = 1

 SCF Done:  E(RHF) =  -268.683820796     A.U. after   15 cycles
 Normal termination of Gaussian 16 at Wed Apr  9 17:49:30 2025.
 Gaussian 16:  ES64L-G16RevC.01  3-Jul-2019

 ----------------------------------------------------------------------
 #t hf aug-cc-pvdz iop(5/13=1,5/36=2,99/5=2) pseudo=read geom=check gue
 ss=(read,tcheck) scf=(maxcycle=1)
 ----------------------------------------------------------------------
 -----
 title
 -----
 Structure from the checkpoint file:  "Grambow2020_wb97xd3_006186_forward_mol1.chk"
 Charge =  0 Multiplicity = 1

                         Standard orientation:
 ---------------------------------------------------------------------
 Center     Atomic      Atomic             Coordinates (Angstroms)
 Number     Number       Type             X           Y           Z
 ---------------------------------------------------------------------
      1          8           0        1.800303   -0.720282    0.350794
      2          6           0        0.665529   -0.176340   -0.190613
      3          6           0        0.473996    1.269654   -0.519652
      4          6           0       -0.299945    0.636566    0.605351
      5          6           0       -1.672179    0.080542    0.297873
      6          6           0       -1.276006   -1.084821   -0.609788
      7          1           0        2.476293   -0.777872   -0.328829
      8          1           0        1.288011    1.915046   -0.216905
      9          1           0       -0.033045    1.541977   -1.437481
     10          1           0       -0.030725    0.926648    1.612535
     11          1           0       -2.168407   -0.253238    1.211616
     12          1           0       -2.319830    0.804382   -0.202323
     13          1           0       -1.056601   -1.937489    0.053826
     14          1           0        0.093507   -0.810808   -0.997816
 ---------------------------------------------------------------------

 SCF Done:  E(RHF) =  -269.949072808     A.U. after    2 cycles

 The electronic state is 1-A.
 Alpha  occ. eigenvalues --  -21.09998 -11.48084 -11.45540 -11.40869 -11.38734
 Alpha  occ. eigenvalues --  -11.37322  -1.75074  -1.35158  -1.09235  -0.92090
 Alpha  occ. eigenvalues --   -0.86125  -0.75710  -0.70390  -0.64452  -0.60493
 Alpha  occ. eigenvalues --   -0.58309  -0.53722  -0.49228  -0.47787  -0.42153
 Alpha  occ. eigenvalues --   -0.39151  -0.33700  -0.28146
 Alpha virt. eigenvalues --    0.03930   0.05026   0.05334   0.05917   0.06269
 Alpha virt. eigenvalues --    0.06398   0.06932   0.08237   0.09984   0.10867
 Alpha virt. eigenvalues --    0.12219   0.13395   0.13879   0.14625   0.15094

 Mulliken charges:
               1
     1  O   -3.420828
     2  C    2.710172
     3  C   -2.746496
     4  C   -1.358092
     5  C   -3.242898
     6  C   -2.180787
     7  H    0.612996
     8  H    1.201584
     9  H    1.360918
    10  H    1.308593
    11  H    1.338339
    12  H    1.273207
    13  H    1.149316
    14  H    1.993975
 Sum of Mulliken charges =  -0.00000

 Dipole moment (field-independent basis, Debye):
    X=              1.6200    Y=              1.2585    Z=              1.3839  Tot=              2.4746

 Test job not archived.
 1\1\GINC-SE103\SP\RHF\Aug-CC-pVDZ\C5H8O1\OHZDE\09-Apr-2025\0\\#t hf au
 g-cc-pvdz iop(5/13=1,5/36=2,99/5=2) pseudo=read geom=check guess=(read
 ,tcheck) scf=(maxcycle=1)\\title\\0,1\O,0,1.29829302,0.81296853,1.5216
 7043\C,0,0.75011987,0.20244131,0.42464267\C,0,0.71205429,0.77878594,-0
 .9545701\C,0,-0.55741399,0.61786257,-0.1621238\C,0,-1.35618668,-0.6520
 7591,-0.35173143\C,0,-0.38136631,-1.6586246,0.26101351\H,0,2.25546498,
 0.76002206,1.46524388\H,0,1.08455504,1.79165521,-1.03296604\H,0,0.9035
 378,0.13430175,-1.80406039\H,0,-1.02841376,1.52151662,0.20203775\H,0,-

 Normal termination of Gaussian 16 at Wed Apr  9 17:49:35 2025.
