 Gaussian 16, Revision C.01,

 ----------------------------------------------------------------------
 #t hf aug-cc-pvdz symm=none int=(grid=ultrafine) guess=(read,tcheck) s
 table=(opt,rrhf)
 ----------------------------------------------------------------------
 -----
 title
 -----
 Symbolic Z-matrix:
 Charge =  0 Multiplicity = 1

 SCF Done:  E(RHF) =  -322.669040438     A.U. after   14 cycles
 Normal termination of Gaussian 16 at Wed Apr  9 18:23:19 2025.
 Gaussian 16:  ES64L-G16RevC.01  3-Jul-2019

 ----------------------------------------------------------------------
 #t hf aug-cc-pvdz iop(5/13=1,5/36=2,99/5=2) pseudo=read geom=check gue
 ss=(read,tcheck) scf=(maxcycle=1)
 ----------------------------------------------------------------------
 -----
 title
 -----
 Structure from the checkpoint file:  "Grambow2020_wb97xd3_006949_reverse_mol2.chk"
 Charge =  0 Multiplicity = 1

                         Standard orientation:
 ---------------------------------------------------------------------
 Center     Atomic      Atomic             Coordinates (Angstroms)
 Number     Number       Type             X           Y           Z
 ---------------------------------------------------------------------
      1          8           0       -2.062842   -1.417280    0.112855
      2          6           0       -1.510007   -0.408608   -0.068830
      3          7           0       -1.064433    0.696065   -0.212951
      4          6           0        0.153867    1.284066   -0.700463
      5          6           0        1.368154    0.916776    0.156256
      6          6           0        1.629444   -0.518860    0.156835
      7          6           0        1.798022   -1.703803    0.139246
      8          1           0       -1.131283    3.174480    2.121446
      9          1           0       -1.296205    2.576732    1.706392
     10          1           0        0.026933    2.366630   -0.687486
     11          1           0        0.321785    0.979686   -1.736108
     12          1           0        2.241201    1.450869   -0.227386
     13          1           0        1.204654    1.257354    1.181460
     14          1           0        1.949802   -2.757395    0.131230
 ---------------------------------------------------------------------

 SCF Done:  E(RHF) =  -324.156208576     A.U. after    2 cycles

 The electronic state is 1-A.
 Alpha  occ. eigenvalues --  -21.11056 -15.75878 -11.57740 -11.47711 -11.44813
 Alpha  occ. eigenvalues --  -11.41093 -11.40355  -1.76168  -1.42022  -1.21108
 Alpha  occ. eigenvalues --   -1.06887  -0.95693  -0.74984  -0.72163  -0.67686
 Alpha  occ. eigenvalues --   -0.64129  -0.61711  -0.60373  -0.58657  -0.57407
 Alpha  occ. eigenvalues --   -0.53909  -0.52623  -0.38666  -0.37769  -0.34862
 Alpha  occ. eigenvalues --   -0.32306
 Alpha virt. eigenvalues --    0.03170   0.04923   0.05402   0.05601   0.05762
 Alpha virt. eigenvalues --    0.07556   0.08034   0.09586   0.10271   0.11250
 Alpha virt. eigenvalues --    0.11756   0.11973   0.13101   0.13427   0.13910

 Mulliken charges:
               1
     1  O   -2.638881
     2  C    4.043392
     3  N   -2.092296
     4  C   -2.396328
     5  C   -3.553312
     6  C    4.583636
     7  C   -4.157648
     8  H    0.267326
     9  H   -0.363024
    10  H    1.360980
    11  H    1.594461
    12  H    1.205813
    13  H    1.372543
    14  H    0.773339
 Sum of Mulliken charges =   0.00000

 Dipole moment (field-independent basis, Debye):
    X=              1.3103    Y=              0.2634    Z=             -0.5093  Tot=              1.4303

 Test job not archived.
 1\1\GINC-SE028\SP\RHF\Aug-CC-pVDZ\C5H7N1O1\OHZDE\09-Apr-2025\0\\#t hf
 aug-cc-pvdz iop(5/13=1,5/36=2,99/5=2) pseudo=read geom=check guess=(re
 ad,tcheck) scf=(maxcycle=1)\\title\\0,1\O,0,0.44188209,2.87919903,1.14
 507056\C,0,0.02689591,1.79270264,1.20308342\N,0,-0.52605317,0.73323233
 ,1.30976045\C,0,-0.17930818,-0.65441042,1.16182811\C,0,0.21013688,-1.0
 1346166,-0.27440914\C,0,1.39587468,-0.29030666,-0.7220659\C,0,2.362545
 05,0.3342514,-1.05114464\H,0,-3.56108099,-0.05496751,-0.01830798\H,0,-
 2.98320024,0.30975442,0.28136304\H,0,-1.04885746,-1.24515508,1.4501495

 Normal termination of Gaussian 16 at Wed Apr  9 18:23:23 2025.
