 Gaussian 16, Revision C.01,

 ----------------------------------------------------------------------
 #t hf aug-cc-pvdz symm=none int=(grid=ultrafine) guess=(read,tcheck) s
 table=(opt,rrhf)
 ----------------------------------------------------------------------
 -----
 title
 -----
 Symbolic Z-matrix:
 Charge =  0 Multiplicity = 1

 SCF Done:  E(RHF) =  -343.611295984     A.U. after   14 cycles
 Normal termination of Gaussian 16 at Wed Apr  9 18:27:20 2025.
 Gaussian 16:  ES64L-G16RevC.01  3-Jul-2019

 ----------------------------------------------------------------------
 #t hf aug-cc-pvdz iop(5/13=1,5/36=2,99/5=2) pseudo=read geom=check gue
 ss=(read,tcheck) scf=(maxcycle=1)
 ----------------------------------------------------------------------
 -----
 title
 -----
 Structure from the checkpoint file:  "Grambow2020_wb97xd3_007155_forward_mol1.chk"
 Charge =  0 Multiplicity = 1

                         Standard orientation:
 ---------------------------------------------------------------------
 Center     Atomic      Atomic             Coordinates (Angstroms)
 Number     Number       Type             X           Y           Z
 ---------------------------------------------------------------------
      1          8           0       -0.304227   -0.817852   -0.668892
      2          6           0        0.616378    0.075444   -0.021595
      3          6           0       -0.361931    1.193734    0.253581
      4          6           0       -1.495518    0.333741   -0.328199
      5          8           0       -2.154061   -0.455673    0.467151
      6          6           0        2.002449    0.180482   -0.534720
      7          6           0        1.722857   -0.460114    0.806899
      8          1           0       -1.120006   -1.154526    0.158584
      9          1           0       -0.539130    1.419469    1.303485
     10          1           0       -0.160465    2.105240   -0.308293
     11          1           0       -1.960336    0.652699   -1.268153
     12          1           0        2.464917    1.159191   -0.555930
     13          1           0        2.272674   -0.476108   -1.351052
     14          1           0        1.815693   -1.536319    0.872175
     15          1           0        1.987549    0.078827    1.707313
 ---------------------------------------------------------------------

 SCF Done:  E(RHF) =  -345.201191687     A.U. after    2 cycles

 The electronic state is 1-A.
 Alpha  occ. eigenvalues --  -21.06058 -21.01198 -11.53539 -11.47165 -11.45229
 Alpha  occ. eigenvalues --  -11.41950 -11.38565  -1.84451  -1.62703  -1.29231
 Alpha  occ. eigenvalues --   -1.13071  -0.88816  -0.87522  -0.79570  -0.71032
 Alpha  occ. eigenvalues --   -0.68752  -0.64524  -0.61433  -0.55765  -0.52970
 Alpha  occ. eigenvalues --   -0.49750  -0.48169  -0.41816  -0.40367  -0.35393
 Alpha  occ. eigenvalues --   -0.29099  -0.25709
 Alpha virt. eigenvalues --    0.03870   0.04659   0.04767   0.05396   0.06062
 Alpha virt. eigenvalues --    0.06119   0.07812   0.08497   0.09785   0.10462
 Alpha virt. eigenvalues --    0.12483   0.13081   0.13137   0.13974   0.14340

 Mulliken charges:
               1
     1  O   -2.984261
     2  C    4.260462
     3  C   -4.153673
     4  C    1.814703
     5  O   -2.955089
     6  C   -2.588792
     7  C   -2.671646
     8  H    0.459220
     9  H    1.326544
    10  H    1.262331
    11  H    1.605853
    12  H    1.211887
    13  H    1.080253
    14  H    1.129968
    15  H    1.202237
 Sum of Mulliken charges =  -0.00000

 Dipole moment (field-independent basis, Debye):
    X=              2.2234    Y=              0.8884    Z=             -0.6909  Tot=              2.4920

 Test job not archived.
 1\1\GINC-SE340\SP\RHF\Aug-CC-pVDZ\C5H8O2\OHZDE\09-Apr-2025\0\\#t hf au
 g-cc-pvdz iop(5/13=1,5/36=2,99/5=2) pseudo=read geom=check guess=(read
 ,tcheck) scf=(maxcycle=1)\\title\\0,1\O,0,0.55361087,-0.27477723,-1.12
 851241\C,0,-0.29914084,-0.05253308,0.00634668\C,0,0.77825607,-0.082785
 03,1.0654421\C,0,1.84229496,-0.23555219,-0.03344697\O,0,2.36454501,0.8
 354567,-0.55270652\C,0,-1.63412426,-0.69438629,0.04330953\C,0,-1.50265
 956,0.80409114,-0.11717779\H,0,1.27952227,0.68804713,-1.22640788\H,0,0
 .91924668,0.8411477,1.62322861\H,0,0.7097078,-0.93471087,1.74120602\H,

 Normal termination of Gaussian 16 at Wed Apr  9 18:27:24 2025.
