 Gaussian 16, Revision C.01,

 ----------------------------------------------------------------------
 #t hf aug-cc-pvdz symm=none int=(grid=ultrafine) guess=(read,tcheck) s
 table=(opt,rrhf)
 ----------------------------------------------------------------------
 -----
 title
 -----
 Symbolic Z-matrix:
 Charge =  0 Multiplicity = 1

 SCF Done:  E(RHF) =  -315.578051650     A.U. after   16 cycles
 Normal termination of Gaussian 16 at Wed Apr  9 03:09:41 2025.
 Gaussian 16:  ES64L-G16RevC.01  3-Jul-2019

 ----------------------------------------------------------------------
 #t hf aug-cc-pvdz iop(5/13=1,5/36=2,99/5=2) pseudo=read geom=check gue
 ss=(read,tcheck) scf=(maxcycle=1)
 ----------------------------------------------------------------------
 -----
 title
 -----
 Structure from the checkpoint file:  "Grambow2020_b97d3_006679_forward_mol1.chk"
 Charge =  0 Multiplicity = 1

                         Standard orientation:
 ---------------------------------------------------------------------
 Center     Atomic      Atomic             Coordinates (Angstroms)
 Number     Number       Type             X           Y           Z
 ---------------------------------------------------------------------
      1          8           0       -2.022001    0.126578    0.026421
      2          6           0       -0.676385    0.031602   -0.013871
      3          7           0       -0.013493   -1.134582   -0.083250
      4          7           0        1.469738   -0.660444   -0.067037
      5          7           0        1.469790    0.651096    0.030864
      6          6           0        0.216858    1.119368   -0.009696
      7          1           0       -2.385120   -0.780276   -0.025038
      8          1           0        0.852820   -1.309062    0.806743
      9          1           0       -0.016780    2.178404   -0.015714
 ---------------------------------------------------------------------

 SCF Done:  E(RHF) =  -316.963255922     A.U. after    2 cycles

 The electronic state is 1-A.
 Alpha  occ. eigenvalues --  -21.14622 -15.81086 -15.80312 -15.79069 -11.51807
 Alpha  occ. eigenvalues --  -11.42716  -1.80597  -1.63497  -1.30565  -1.16682
 Alpha  occ. eigenvalues --   -0.87969  -0.85097  -0.71222  -0.68831  -0.63018
 Alpha  occ. eigenvalues --   -0.53159  -0.50591  -0.47919  -0.45844  -0.42295
 Alpha  occ. eigenvalues --   -0.38768  -0.31683
 Alpha virt. eigenvalues --    0.03350   0.05238   0.06241   0.10519   0.10709
 Alpha virt. eigenvalues --    0.10990   0.11119   0.12106   0.14070   0.14647
 Alpha virt. eigenvalues --    0.14891   0.15828   0.17107   0.17743   0.19025

 Mulliken charges:
               1
     1  O   -3.474969
     2  C    5.355735
     3  N   -2.475605
     4  N   -0.373614
     5  N   -1.587663
     6  C   -0.760891
     7  H    0.916532
     8  H    0.971132
     9  H    1.429343
 Sum of Mulliken charges =  -0.00000

 Dipole moment (field-independent basis, Debye):
    X=             -2.7390    Y=              0.3814    Z=              0.7138  Tot=              2.8561

 Test job not archived.
 1\1\GINC-SE228\SP\RHF\Aug-CC-pVDZ\C2H3N3O1\OHZDE\09-Apr-2025\0\\#t hf
 aug-cc-pvdz iop(5/13=1,5/36=2,99/5=2) pseudo=read geom=check guess=(re
 ad,tcheck) scf=(maxcycle=1)\\title\\0,1\O,0,-1.8897548,-0.24368061,-0.
 14132765\C,0,-0.54772301,-0.10574331,-0.10597461\N,0,0.30241769,-1.131
 28323,0.06651527\N,0,1.68138548,-0.40778785,0.05969372\N,0,1.45704486,
 0.88026481,-0.08282973\C,0,0.1502934,1.10656691,-0.26157847\H,0,-2.092
 90304,-1.19543206,-0.04238801\H,0,1.11780661,-0.99488648,1.00968268\H,
 0,-0.25440821,2.09087081,-0.4702452\\Version=ES64L-G16RevC.01\State=1-

 Normal termination of Gaussian 16 at Wed Apr  9 03:09:43 2025.
