 Gaussian 16, Revision C.01,

 ----------------------------------------------------------------------
 #t hf aug-cc-pvdz symm=none int=(grid=ultrafine) guess=(read,tcheck) s
 table=(opt,rrhf)
 ----------------------------------------------------------------------
 -----
 title
 -----
 Symbolic Z-matrix:
 Charge =  0 Multiplicity = 1

 SCF Done:  E(RHF) =  -302.719186034     A.U. after   19 cycles
 Normal termination of Gaussian 16 at Wed Apr  9 19:04:09 2025.
 Gaussian 16:  ES64L-G16RevC.01  3-Jul-2019

 ----------------------------------------------------------------------
 #t hf aug-cc-pvdz iop(5/13=1,5/36=2,99/5=2) pseudo=read geom=check gue
 ss=(read,tcheck) scf=(maxcycle=1)
 ----------------------------------------------------------------------
 -----
 title
 -----
 Structure from the checkpoint file:  "Grambow2020_wb97xd3_008032_forward_mol1.chk"
 Charge =  0 Multiplicity = 1

                         Standard orientation:
 ---------------------------------------------------------------------
 Center     Atomic      Atomic             Coordinates (Angstroms)
 Number     Number       Type             X           Y           Z
 ---------------------------------------------------------------------
      1          6           0        1.021487    1.608731   -0.331330
      2          6           0        0.254664    0.620904    0.520630
      3          6           0       -1.293279    0.746013    0.352765
      4          7           0       -1.621221   -0.371107   -0.510000
      5          6           0       -0.734355   -1.347295   -0.040804
      6          6           0        0.729303   -0.909056    0.007432
      7          7           0        1.877343   -1.208828   -0.021439
      8          1           0        0.760674    1.512958   -1.387577
      9          1           0        0.748303    2.617762   -0.006444
     10          1           0        2.095471    1.474527   -0.228474
     11          1           0        0.581398    0.663045    1.558678
     12          1           0       -1.607623    1.708307   -0.063463
     13          1           0       -1.782311    0.615527    1.321498
     14          1           0       -1.430949   -0.148248   -1.479619
     15          1           0       -1.024732   -1.700106    0.953321
 ---------------------------------------------------------------------

 SCF Done:  E(RHF) =  -304.170289068     A.U. after    2 cycles

 The electronic state is 1-A.
 Alpha  occ. eigenvalues --  -15.75969 -15.71788 -11.52107 -11.46882 -11.44026
 Alpha  occ. eigenvalues --  -11.41680 -11.39396  -1.49643  -1.28754  -1.17156
 Alpha  occ. eigenvalues --   -1.02699  -0.99027  -0.85340  -0.75054  -0.68027
 Alpha  occ. eigenvalues --   -0.65280  -0.61478  -0.58816  -0.56871  -0.54322
 Alpha  occ. eigenvalues --   -0.50968  -0.48319  -0.46596  -0.40076  -0.37379
 Alpha  occ. eigenvalues --   -0.25384
 Alpha virt. eigenvalues --    0.02558   0.03310   0.04917   0.05135   0.05224
 Alpha virt. eigenvalues --    0.05930   0.06757   0.07063   0.07711   0.10326
 Alpha virt. eigenvalues --    0.11068   0.12233   0.12705   0.13378   0.13937

 Mulliken charges:
               1
     1  C   -3.754195
     2  C   -1.355640
     3  C   -2.317299
     4  N   -2.022362
     5  C   -1.193604
     6  C    3.174985
     7  N   -2.665128
     8  H    1.251478
     9  H    1.293508
    10  H    1.228917
    11  H    1.508324
    12  H    1.447828
    13  H    1.270933
    14  H    0.634705
    15  H    1.497552
 Sum of Mulliken charges =   0.00000

 Dipole moment (field-independent basis, Debye):
    X=             -2.4603    Y=              3.6792    Z=              0.7333  Tot=              4.4863

 Test job not archived.
 1\1\GINC-SE125\SP\RHF\Aug-CC-pVDZ\C5H8N2\OHZDE\09-Apr-2025\0\\#t hf au
 g-cc-pvdz iop(5/13=1,5/36=2,99/5=2) pseudo=read geom=check guess=(read
 ,tcheck) scf=(maxcycle=1)\\title\\0,1\C,0,1.19775933,-0.51000393,-1.07
 910675\C,0,0.58447859,-0.06446222,0.23048649\C,0,-0.23705487,1.2575439
 4,0.09881043\N,0,-1.60916401,0.7916354,0.08815652\C,0,-1.54437896,-0.2
 6756582,1.00112784\C,0,-0.45507038,-1.29850956,0.70577283\N,0,-0.06453
 854,-2.41502427,0.80362083\H,0,0.4394598,-0.62819214,-1.8561948\H,0,1.
 89721379,0.26626295,-1.4054455\H,0,1.72899525,-1.45234896,-0.97045082\

 Normal termination of Gaussian 16 at Wed Apr  9 19:04:16 2025.
