 Gaussian 16, Revision C.01,

 ----------------------------------------------------------------------
 #t hf aug-cc-pvdz symm=none int=(grid=ultrafine) guess=(read,tcheck) s
 table=(opt,rrhf)
 ----------------------------------------------------------------------
 -----
 title
 -----
 Symbolic Z-matrix:
 Charge =  0 Multiplicity = 1

 SCF Done:  E(RHF) =  -323.881082411     A.U. after   14 cycles
 Normal termination of Gaussian 16 at Wed Apr  9 18:24:49 2025.
 Gaussian 16:  ES64L-G16RevC.01  3-Jul-2019

 ----------------------------------------------------------------------
 #t hf aug-cc-pvdz iop(5/13=1,5/36=2,99/5=2) pseudo=read geom=check gue
 ss=(read,tcheck) scf=(maxcycle=1)
 ----------------------------------------------------------------------
 -----
 title
 -----
 Structure from the checkpoint file:  "Grambow2020_wb97xd3_006971_reverse_mol2.chk"
 Charge =  0 Multiplicity = 1

                         Standard orientation:
 ---------------------------------------------------------------------
 Center     Atomic      Atomic             Coordinates (Angstroms)
 Number     Number       Type             X           Y           Z
 ---------------------------------------------------------------------
      1          6           0        2.308566   -1.125597    0.027641
      2          6           0        0.811396   -0.851015    0.009700
      3          6           0        0.464500    0.589560    0.369119
      4          8           0        1.040575    1.521126   -0.541388
      5          6           0       -1.012760    0.862016    0.384988
      6          6           0       -1.922641   -0.011132    0.046959
      7          7           0       -2.776092   -0.859978   -0.150576
      8          1           0        2.747203   -0.883923    0.999904
      9          1           0        2.515823   -2.177501   -0.172346
     10          1           0        2.832261   -0.546489   -0.736531
     11          1           0        0.304838   -1.514490    0.716504
     12          1           0        0.405348   -1.067695   -0.982703
     13          1           0        0.853165    0.797773    1.377345
     14          1           0        1.987583    1.547458   -0.390764
     15          1           0       -3.088289   -0.943591   -1.114251
     16          1           0       -1.344258    1.856299    0.657546
 ---------------------------------------------------------------------

 SCF Done:  E(RHF) =  -325.402895408     A.U. after    2 cycles

 The electronic state is 1-A.
 Alpha  occ. eigenvalues --  -21.06759 -15.77170 -11.48508 -11.46951 -11.41589
 Alpha  occ. eigenvalues --  -11.39308 -11.36702  -1.71875  -1.36532  -1.21121
 Alpha  occ. eigenvalues --   -1.10190  -0.95495  -0.85230  -0.74595  -0.67737
 Alpha  occ. eigenvalues --   -0.65485  -0.62651  -0.58815  -0.56329  -0.52234
 Alpha  occ. eigenvalues --   -0.49317  -0.48444  -0.47422  -0.43360  -0.40415
 Alpha  occ. eigenvalues --   -0.32676  -0.30816
 Alpha virt. eigenvalues --    0.03730   0.04824   0.05487   0.05857   0.05948
 Alpha virt. eigenvalues --    0.06454   0.06508   0.07695   0.08400   0.11149
 Alpha virt. eigenvalues --    0.11678   0.12655   0.13305   0.13935   0.14016

 Mulliken charges:
               1
     1  C   -3.799844
     2  C   -3.123730
     3  C    0.347749
     4  O   -2.786692
     5  C   -0.406852
     6  C    1.681241
     7  N   -3.061912
     8  H    1.202044
     9  H    1.055228
    10  H    1.254786
    11  H    1.447912
    12  H    1.503013
    13  H    1.720350
    14  H    0.718710
    15  H    0.800876
    16  H    1.447120
 Sum of Mulliken charges =   0.00000

 Dipole moment (field-independent basis, Debye):
    X=              0.9335    Y=              0.1222    Z=             -0.6253  Tot=              1.1302

 Test job not archived.
 1\1\GINC-SE041\SP\RHF\Aug-CC-pVDZ\C5H9N1O1\OHZDE\09-Apr-2025\0\\#t hf
 aug-cc-pvdz iop(5/13=1,5/36=2,99/5=2) pseudo=read geom=check guess=(re
 ad,tcheck) scf=(maxcycle=1)\\title\\0,1\C,0,2.15717104,-0.01480435,0.0
 0413875\C,0,0.69829831,0.30161598,0.30213958\C,0,-0.25318303,-0.193636
 92,-0.7814577\O,0,-0.18837227,-1.607129,-0.94436903\C,0,-1.69237588,0.
 14198686,-0.51152787\C,0,-2.11715102,0.72566485,0.57632396\N,0,-2.4986
 0059,1.37781829,1.53399326\H,0,2.46656545,0.39873423,-0.95989674\H,0,2
 .81272075,0.40733376,0.76670448\H,0,2.33925863,-1.09191082,-0.01222882

 Normal termination of Gaussian 16 at Wed Apr  9 18:24:55 2025.
