 Gaussian 16, Revision C.01,

 ----------------------------------------------------------------------
 #t hf aug-cc-pvdz symm=none int=(grid=ultrafine) guess=(read,tcheck) s
 table=(opt,rrhf)
 ----------------------------------------------------------------------
 -----
 title
 -----
 Symbolic Z-matrix:
 Charge =  0 Multiplicity = 1

 SCF Done:  E(RHF) =  -354.572909757     A.U. after   17 cycles
 Normal termination of Gaussian 16 at Wed Apr  9 18:36:33 2025.
 Gaussian 16:  ES64L-G16RevC.01  3-Jul-2019

 ----------------------------------------------------------------------
 #t hf aug-cc-pvdz iop(5/13=1,5/36=2,99/5=2) pseudo=read geom=check gue
 ss=(read,tcheck) scf=(maxcycle=1)
 ----------------------------------------------------------------------
 -----
 title
 -----
 Structure from the checkpoint file:  "Grambow2020_wb97xd3_007325_forward_mol1.chk"
 Charge =  0 Multiplicity = 1

                         Standard orientation:
 ---------------------------------------------------------------------
 Center     Atomic      Atomic             Coordinates (Angstroms)
 Number     Number       Type             X           Y           Z
 ---------------------------------------------------------------------
      1          8           0       -2.439755    0.425598   -0.158177
      2          6           0       -1.583115   -0.648843    0.119511
      3          6           0       -0.140326   -0.259415    0.029669
      4          7           0        0.271703    0.970446    0.030896
      5          7           0        1.544113    1.170322    0.110096
      6          6           0        2.043644   -0.905399   -0.026762
      7          7           0        0.867701   -1.194560   -0.050784
      8          1           0       -1.968059    1.241060    0.033993
      9          1           0       -1.781711   -1.447844   -0.599698
     10          1           0       -1.779086   -1.057523    1.120685
     11          1           0        1.779797    2.119170   -0.168802
     12          1           0        2.561265   -0.001158   -0.486730
 ---------------------------------------------------------------------

 SCF Done:  E(RHF) =  -356.170106137     A.U. after    2 cycles

 The electronic state is 1-A.
 Alpha  occ. eigenvalues --  -21.07397 -15.80844 -15.80142 -15.78286 -11.48258
 Alpha  occ. eigenvalues --  -11.47720 -11.42001  -1.72887  -1.59304  -1.39576
 Alpha  occ. eigenvalues --   -1.17512  -1.01219  -0.88403  -0.80791  -0.73417
 Alpha  occ. eigenvalues --   -0.66856  -0.63003  -0.59380  -0.55360  -0.55090
 Alpha  occ. eigenvalues --   -0.47764  -0.45943  -0.42497  -0.36614  -0.33025
 Alpha  occ. eigenvalues --   -0.30659
 Alpha virt. eigenvalues --    0.03875   0.05271   0.05473   0.06520   0.06780
 Alpha virt. eigenvalues --    0.08208   0.09681   0.09999   0.10661   0.11953
 Alpha virt. eigenvalues --    0.13198   0.13360   0.13856   0.14891   0.15467

 Mulliken charges:
               1
     1  O   -2.804262
     2  C   -0.244652
     3  C    3.419891
     4  N   -1.558560
     5  N   -1.235469
     6  C   -0.720883
     7  N   -2.589154
     8  H    0.830816
     9  H    1.272937
    10  H    1.223779
    11  H    0.767991
    12  H    1.637566
 Sum of Mulliken charges =  -0.00000

 Dipole moment (field-independent basis, Debye):
    X=              0.4746    Y=              1.1117    Z=             -0.6737  Tot=              1.3838

 Test job not archived.
 1\1\GINC-SE014\SP\RHF\Aug-CC-pVDZ\C3H5N3O1\OHZDE\09-Apr-2025\0\\#t hf
 aug-cc-pvdz iop(5/13=1,5/36=2,99/5=2) pseudo=read geom=check guess=(re
 ad,tcheck) scf=(maxcycle=1)\\title\\0,1\O,0,-2.18243393,0.87933718,-0.
 74717729\C,0,-1.66282688,-0.18091098,0.0086316\C,0,-0.16692214,-0.2248
 0614,-0.03269577\N,0,0.56882701,0.76811293,-0.42654059\N,0,1.84471313,
 0.6626119,-0.26456833\C,0,1.75413398,-1.35969103,0.42750486\N,0,0.5449
 6851,-1.33618547,0.36117571\H,0,-1.50833742,1.56232903,-0.80652268\H,0
 ,-2.05771878,-1.11926176,-0.38969307\H,0,-1.98736872,-0.11115973,1.056

 Normal termination of Gaussian 16 at Wed Apr  9 18:36:38 2025.
