 Gaussian 16, Revision C.01,

 ----------------------------------------------------------------------
 #t hf aug-cc-pvdz symm=none int=(grid=ultrafine) guess=(read,tcheck) s
 table=(opt,rrhf)
 ----------------------------------------------------------------------
 -----
 title
 -----
 Symbolic Z-matrix:
 Charge =  0 Multiplicity = 1

 SCF Done:  E(RHF) =  -302.187005098     A.U. after   18 cycles
 Normal termination of Gaussian 16 at Wed Apr  9 16:04:51 2025.
 Gaussian 16:  ES64L-G16RevC.01  3-Jul-2019

 ----------------------------------------------------------------------
 #t hf aug-cc-pvdz iop(5/13=1,5/36=2,99/5=2) pseudo=read geom=check gue
 ss=(read,tcheck) scf=(maxcycle=1)
 ----------------------------------------------------------------------
 -----
 title
 -----
 Structure from the checkpoint file:  "Grambow2020_b97d3_006714_forward_mol1.chk"
 Charge =  0 Multiplicity = 1

                         Standard orientation:
 ---------------------------------------------------------------------
 Center     Atomic      Atomic             Coordinates (Angstroms)
 Number     Number       Type             X           Y           Z
 ---------------------------------------------------------------------
      1          8           0       -2.594515    0.703608   -0.178972
      2          6           0       -1.977079   -0.240878    0.328099
      3          6           0       -0.703805   -0.619971   -0.173422
      4          6           0        0.557837   -0.322533   -0.162903
      5          6           0        1.824315    0.027869   -0.022770
      6          8           0        2.935598    0.387586    0.190110
      7          1           0       -2.395404   -0.887814    1.132847
      8          1           0        1.459126   -0.908660   -1.035972
 ---------------------------------------------------------------------

 SCF Done:  E(RHF) =  -303.467134545     A.U. after    2 cycles

 The electronic state is 1-A.
 Alpha  occ. eigenvalues --  -21.16602 -21.05298 -11.62463 -11.52441 -11.51595
 Alpha  occ. eigenvalues --  -11.46417  -1.79567  -1.69454  -1.25933  -1.06767
 Alpha  occ. eigenvalues --   -0.88105  -0.70332  -0.68972  -0.63847  -0.59572
 Alpha  occ. eigenvalues --   -0.52957  -0.51117  -0.42286  -0.39994  -0.31171
 Alpha  occ. eigenvalues --   -0.28789
 Alpha virt. eigenvalues --    0.01032   0.04886   0.05263   0.08042   0.08534
 Alpha virt. eigenvalues --    0.10018   0.10275   0.10531   0.11447   0.12028
 Alpha virt. eigenvalues --    0.13511   0.13954   0.15205   0.15823   0.16610

 Mulliken charges:
               1
     1  O   -2.477346
     2  C    1.019821
     3  C   -0.831002
     4  C    0.574585
     5  C    2.203050
     6  O   -2.862802
     7  H    1.284824
     8  H    1.088872
 Sum of Mulliken charges =  -0.00000

 Dipole moment (field-independent basis, Debye):
    X=              3.2899    Y=              0.0501    Z=              1.2301  Tot=              3.5128

 Test job not archived.
 1\1\GINC-SE125\SP\RHF\Aug-CC-pVDZ\C4H2O2\OHZDE\09-Apr-2025\0\\#t hf au
 g-cc-pvdz iop(5/13=1,5/36=2,99/5=2) pseudo=read geom=check guess=(read
 ,tcheck) scf=(maxcycle=1)\\title\\0,1\O,0,-2.45808813,0.03458833,0.927
 40928\C,0,-1.86037154,-0.35585269,-0.08288448\C,0,-0.60769944,0.209026
 02,-0.44091373\C,0,0.66221425,0.19224479,-0.18137572\C,0,1.94075396,0.
 04104731,0.11671717\O,0,3.0657143,-0.18659942,0.42053612\H,0,-2.283869
 95,-1.09500654,-0.80082769\H,0,1.53060455,1.1411002,-0.69487896\\Versi
 on=ES64L-G16RevC.01\State=1-A\HF=-303.4671345\RMSD=7.664e-01\Dipole=1.

 Normal termination of Gaussian 16 at Wed Apr  9 16:04:53 2025.
