 Gaussian 16, Revision C.01,

 ----------------------------------------------------------------------
 #t hf aug-cc-pvdz symm=none int=(grid=ultrafine) guess=(read,tcheck) s
 table=(opt,rrhf)
 ----------------------------------------------------------------------
 -----
 title
 -----
 Symbolic Z-matrix:
 Charge =  0 Multiplicity = 1

 SCF Done:  E(RHF) =  -322.576633554     A.U. after   15 cycles
 Normal termination of Gaussian 16 at Wed Apr  9 18:39:33 2025.
 Gaussian 16:  ES64L-G16RevC.01  3-Jul-2019

 ----------------------------------------------------------------------
 #t hf aug-cc-pvdz iop(5/13=1,5/36=2,99/5=2) pseudo=read geom=check gue
 ss=(read,tcheck) scf=(maxcycle=1)
 ----------------------------------------------------------------------
 -----
 title
 -----
 Structure from the checkpoint file:  "Grambow2020_wb97xd3_007372_reverse_mol1.chk"
 Charge =  0 Multiplicity = 1

                         Standard orientation:
 ---------------------------------------------------------------------
 Center     Atomic      Atomic             Coordinates (Angstroms)
 Number     Number       Type             X           Y           Z
 ---------------------------------------------------------------------
      1          6           0       -1.474485    0.009007    0.800412
      2          6           0       -0.910637    0.791203   -0.339722
      3          6           0        0.480456    1.363098   -0.257412
      4          8           0        1.427630    0.485486    0.367503
      5          6           0        1.384680   -0.824250    0.104103
      6          7           0        0.279831   -1.406030   -0.353276
      7          6           0       -0.973152   -0.697046   -0.433773
      8          1           0       -0.882851   -0.084692    1.702566
      9          1           0       -2.544176    0.035490    0.957979
     10          1           0       -1.598840    1.372658   -0.942332
     11          1           0        0.508401    2.283853    0.325815
     12          1           0        0.843570    1.581771   -1.265537
     13          1           0        0.949370   -1.910409    0.594589
     14          1           0       -1.696495   -1.172424   -1.081819
 ---------------------------------------------------------------------

 SCF Done:  E(RHF) =  -324.061894806     A.U. after    2 cycles

 The electronic state is 1-A.
 Alpha  occ. eigenvalues --  -21.08322 -15.75495 -11.47091 -11.44991 -11.42385
 Alpha  occ. eigenvalues --  -11.42156 -11.38345  -1.80576  -1.42887  -1.28410
 Alpha  occ. eigenvalues --   -1.03580  -0.93348  -0.86242  -0.74312  -0.68635
 Alpha  occ. eigenvalues --   -0.67294  -0.63408  -0.59106  -0.58004  -0.53298
 Alpha  occ. eigenvalues --   -0.51091  -0.44501  -0.40618  -0.36594  -0.34001
 Alpha  occ. eigenvalues --   -0.28553
 Alpha virt. eigenvalues --    0.03389   0.04852   0.05142   0.05389   0.05570
 Alpha virt. eigenvalues --    0.06687   0.07061   0.09521   0.10444   0.12127
 Alpha virt. eigenvalues --    0.12611   0.12805   0.13400   0.13543   0.14142

 Mulliken charges:
               1
     1  C   -2.160057
     2  C   -1.090701
     3  C   -1.789790
     4  O   -2.707744
     5  C    0.787278
     6  N   -2.896641
     7  C    0.376169
     8  H    1.380726
     9  H    1.198745
    10  H    1.293805
    11  H    1.320462
    12  H    1.407714
    13  H    1.543631
    14  H    1.336402
 Sum of Mulliken charges =  -0.00000

 Dipole moment (field-independent basis, Debye):
    X=             -2.9165    Y=              2.0474    Z=              0.0453  Tot=              3.5637

 Test job not archived.
 1\1\GINC-SE192\SP\RHF\Aug-CC-pVDZ\C5H7N1O1\OHZDE\09-Apr-2025\0\\#t hf
 aug-cc-pvdz iop(5/13=1,5/36=2,99/5=2) pseudo=read geom=check guess=(re
 ad,tcheck) scf=(maxcycle=1)\\title\\0,1\C,0,-1.17345443,-0.67251641,0.
 43782763\C,0,-0.72723483,0.41117611,-0.48746006\C,0,0.24796546,1.45938
 229,-0.01924444\O,0,1.29498026,0.94079095,0.81303108\C,0,1.85276258,-0
 .23613062,0.51242018\N,0,1.22219215,-1.13281598,-0.24036807\C,0,-0.153
 68001,-0.95881643,-0.63508826\H,0,-0.82479155,-0.64985541,1.46282154\H
 ,0,-2.16521276,-1.08242624,0.30307773\H,0,-1.43021822,0.75648245,-1.23

 Normal termination of Gaussian 16 at Wed Apr  9 18:39:37 2025.
