 Gaussian 16, Revision C.01,

 ----------------------------------------------------------------------
 #t hf aug-cc-pvdz symm=none int=(grid=ultrafine) guess=(read,tcheck) s
 table=(opt,rrhf)
 ----------------------------------------------------------------------
 -----
 title
 -----
 Symbolic Z-matrix:
 Charge =  0 Multiplicity = 1

 SCF Done:  E(RHF) =  -302.840786251     A.U. after   14 cycles
 Normal termination of Gaussian 16 at Wed Apr  9 18:28:21 2025.
 Gaussian 16:  ES64L-G16RevC.01  3-Jul-2019

 ----------------------------------------------------------------------
 #t hf aug-cc-pvdz iop(5/13=1,5/36=2,99/5=2) pseudo=read geom=check gue
 ss=(read,tcheck) scf=(maxcycle=1)
 ----------------------------------------------------------------------
 -----
 title
 -----
 Structure from the checkpoint file:  "Grambow2020_wb97xd3_007172_reverse_mol2.chk"
 Charge =  0 Multiplicity = 1

                         Standard orientation:
 ---------------------------------------------------------------------
 Center     Atomic      Atomic             Coordinates (Angstroms)
 Number     Number       Type             X           Y           Z
 ---------------------------------------------------------------------
      1          6           0       -2.520725   -0.397372    0.128208
      2          6           0       -1.087019   -0.053314    0.414298
      3          6           0       -0.025143   -0.601097   -0.466794
      4          7           0       -0.453542    0.848250   -0.530039
      5          6           0        0.851446    1.241126    0.092752
      6          6           0        1.315073   -0.201286    0.049376
      7          7           0        2.442957   -0.724780    0.220591
      8          1           0       -2.680431   -0.509841   -0.944513
      9          1           0       -3.179674    0.394870    0.486930
     10          1           0       -2.800387   -1.328119    0.625006
     11          1           0       -0.841956    0.083233    1.465837
     12          1           0        2.426427   -1.716769   -0.010990
     13          1           0       -0.235704   -1.314012   -1.255523
     14          1           0        1.428414    1.878086   -0.576715
     15          1           0        0.755618    1.719925    1.069074
 ---------------------------------------------------------------------

 SCF Done:  E(RHF) =  -304.282145350     A.U. after    2 cycles

 The electronic state is 1-A.
 Alpha  occ. eigenvalues --  -15.73776 -15.73222 -11.52139 -11.46503 -11.43217
 Alpha  occ. eigenvalues --  -11.40820 -11.38398  -1.56206  -1.31582  -1.13929
 Alpha  occ. eigenvalues --   -1.01462  -0.96097  -0.84757  -0.76718  -0.69910
 Alpha  occ. eigenvalues --   -0.64236  -0.62214  -0.58041  -0.55373  -0.52764
 Alpha  occ. eigenvalues --   -0.51649  -0.45887  -0.41962  -0.40766  -0.36769
 Alpha  occ. eigenvalues --   -0.32910
 Alpha virt. eigenvalues --    0.03784   0.05071   0.05566   0.05895   0.05990
 Alpha virt. eigenvalues --    0.06301   0.06913   0.07182   0.10243   0.11588
 Alpha virt. eigenvalues --    0.11968   0.12661   0.13015   0.13639   0.14252

 Mulliken charges:
               1
     1  C   -3.877681
     2  C    0.403446
     3  C   -1.948596
     4  N   -1.749197
     5  C   -2.540744
     6  C    3.395121
     7  N   -3.433032
     8  H    1.231789
     9  H    1.157248
    10  H    1.213900
    11  H    1.532427
    12  H    0.692801
    13  H    1.375545
    14  H    1.244413
    15  H    1.302561
 Sum of Mulliken charges =  -0.00000

 Dipole moment (field-independent basis, Debye):
    X=             -1.9440    Y=             -0.6245    Z=              0.1653  Tot=              2.0485

 Test job not archived.
 1\1\GINC-SE340\SP\RHF\Aug-CC-pVDZ\C5H8N2\OHZDE\09-Apr-2025\0\\#t hf au
 g-cc-pvdz iop(5/13=1,5/36=2,99/5=2) pseudo=read geom=check guess=(read
 ,tcheck) scf=(maxcycle=1)\\title\\0,1\C,0,-1.91517373,-1.1217093,0.328
 98719\C,0,-0.488444,-0.71964187,0.08707855\C,0,-0.1930929,0.67618043,-
 0.32330815\N,0,0.09228543,0.17183119,1.07394765\C,0,1.55885942,0.21766
 076,0.77017715\C,0,1.26651298,0.82675933,-0.58662646\N,0,2.0093234,1.3
 7496088,-1.43703161\H,0,-2.48627924,-0.28345834,0.72906239\H,0,-1.9618
 0951,-1.93808823,1.0514085\H,0,-2.38398204,-1.45619266,-0.5981856\H,0,

 Normal termination of Gaussian 16 at Wed Apr  9 18:28:25 2025.
