 Gaussian 16, Revision C.01,

 ----------------------------------------------------------------------
 #t hf aug-cc-pvdz symm=none int=(grid=ultrafine) guess=(read,tcheck) s
 table=(opt,rrhf)
 ----------------------------------------------------------------------
 -----
 title
 -----
 Symbolic Z-matrix:
 Charge =  0 Multiplicity = 1

 SCF Done:  E(RHF) =  -321.345111958     A.U. after   18 cycles
 Normal termination of Gaussian 16 at Wed Apr  9 19:09:41 2025.
 Gaussian 16:  ES64L-G16RevC.01  3-Jul-2019

 ----------------------------------------------------------------------
 #t hf aug-cc-pvdz iop(5/13=1,5/36=2,99/5=2) pseudo=read geom=check gue
 ss=(read,tcheck) scf=(maxcycle=1)
 ----------------------------------------------------------------------
 -----
 title
 -----
 Structure from the checkpoint file:  "Grambow2020_wb97xd3_008190_forward_mol1.chk"
 Charge =  0 Multiplicity = 1

                         Standard orientation:
 ---------------------------------------------------------------------
 Center     Atomic      Atomic             Coordinates (Angstroms)
 Number     Number       Type             X           Y           Z
 ---------------------------------------------------------------------
      1          8           0        0.706071    2.019808   -0.551546
      2          6           0        0.254731    1.314561    0.588832
      3          6           0       -0.087481   -0.126594    0.314125
      4          6           0        0.929896   -1.079046    0.077213
      5          6           0        1.828990   -1.854805   -0.111519
      6          6           0       -1.413786   -0.471100    0.070961
      7          7           0       -2.553439   -0.719607   -0.200687
      8          1           0        1.517638    1.609518   -0.860510
      9          1           0        1.006309    1.339052    1.385722
     10          1           0       -0.627780    1.847928    0.941728
     11          1           0       -1.360572   -0.061397   -1.020671
     12          1           0        2.615810   -2.554405   -0.266764
 ---------------------------------------------------------------------

 SCF Done:  E(RHF) =  -322.790662412     A.U. after    2 cycles

 The electronic state is 1-A.
 Alpha  occ. eigenvalues --  -21.08285 -15.81997 -11.51618 -11.47528 -11.45347
 Alpha  occ. eigenvalues --  -11.42048 -11.41758  -1.72778  -1.41127  -1.21636
 Alpha  occ. eigenvalues --   -1.06885  -0.95637  -0.81938  -0.71334  -0.67699
 Alpha  occ. eigenvalues --   -0.64972  -0.63771  -0.57135  -0.54346  -0.49234
 Alpha  occ. eigenvalues --   -0.45501  -0.41935  -0.39083  -0.33618  -0.25538
 Alpha virt. eigenvalues --    0.02175   0.04525   0.05568   0.06153   0.06259
 Alpha virt. eigenvalues --    0.07487   0.09371   0.09934   0.10357   0.10727
 Alpha virt. eigenvalues --    0.11291   0.12930   0.13374   0.13977   0.14616

 Mulliken charges:
               1
     1  O   -2.343670
     2  C   -2.123418
     3  C    0.217356
     4  C    4.627461
     5  C   -3.947004
     6  C    0.817486
     7  N   -2.248254
     8  H    0.778198
     9  H    1.165225
    10  H    1.325736
    11  H    1.126048
    12  H    0.604836
 Sum of Mulliken charges =  -0.00000

 Dipole moment (field-independent basis, Debye):
    X=              1.0080    Y=              0.4903    Z=             -0.2077  Tot=              1.1400

 Test job not archived.
 1\1\GINC-SE173\SP\RHF\Aug-CC-pVDZ\C5H5N1O1\OHZDE\09-Apr-2025\0\\#t hf
 aug-cc-pvdz iop(5/13=1,5/36=2,99/5=2) pseudo=read geom=check guess=(re
 ad,tcheck) scf=(maxcycle=1)\\title\\0,1\O,0,-1.89915376,-0.37565972,-0
 .69063509\C,0,-1.11063974,-0.57449473,0.46705802\C,0,0.34082191,-0.216
 70544,0.28065097\C,0,0.7464009,1.13422617,0.18664389\C,0,1.04508751,2.
 29698605,0.1190573\C,0,1.2507908,-1.22445182,-0.02480127\N,0,1.9926248
 4,-2.10544415,-0.35327302\H,0,-1.88339398,0.55886428,-0.91166402\H,0,-
 1.49885724,0.00962519,1.30883924\H,0,-1.20636745,-1.63086308,0.7175836

 Normal termination of Gaussian 16 at Wed Apr  9 19:09:46 2025.
