 Gaussian 16, Revision C.01,

 ----------------------------------------------------------------------
 #t hf aug-cc-pvdz symm=none int=(grid=ultrafine) guess=(read,tcheck) s
 table=(opt,rrhf)
 ----------------------------------------------------------------------
 -----
 title
 -----
 Symbolic Z-matrix:
 Charge =  0 Multiplicity = 1

 SCF Done:  E(RHF) =  -322.676514674     A.U. after   14 cycles
 Normal termination of Gaussian 16 at Wed Apr  9 18:22:42 2025.
 Gaussian 16:  ES64L-G16RevC.01  3-Jul-2019

 ----------------------------------------------------------------------
 #t hf aug-cc-pvdz iop(5/13=1,5/36=2,99/5=2) pseudo=read geom=check gue
 ss=(read,tcheck) scf=(maxcycle=1)
 ----------------------------------------------------------------------
 -----
 title
 -----
 Structure from the checkpoint file:  "Grambow2020_wb97xd3_006944_reverse_mol2.chk"
 Charge =  0 Multiplicity = 1

                         Standard orientation:
 ---------------------------------------------------------------------
 Center     Atomic      Atomic             Coordinates (Angstroms)
 Number     Number       Type             X           Y           Z
 ---------------------------------------------------------------------
      1          8           0       -0.331963    1.141749    0.146852
      2          6           0        0.353750   -0.056165    0.528632
      3          7           0       -0.368933   -1.176915   -0.027470
      4          6           0       -1.750483   -0.707806   -0.024236
      5          6           0       -1.627043    0.790495   -0.318053
      6          6           0        1.747277   -0.010515    0.082352
      7          6           0        2.886814    0.022534   -0.278268
      8          1           0        0.329737   -0.123305    1.623478
      9          1           0       -0.054339   -1.330091   -0.978053
     10          1           0       -2.182032   -0.874924    0.965820
     11          1           0       -2.349327   -1.249359   -0.754554
     12          1           0       -1.695868    0.999468   -1.390987
     13          1           0       -2.373605    1.390982    0.206174
     14          1           0        3.901781    0.060382   -0.596958
 ---------------------------------------------------------------------

 SCF Done:  E(RHF) =  -324.160127509     A.U. after    2 cycles

 The electronic state is 1-A.
 Alpha  occ. eigenvalues --  -21.04438 -15.73484 -11.50418 -11.46104 -11.41888
 Alpha  occ. eigenvalues --  -11.40936 -11.39216  -1.78425  -1.37872  -1.16401
 Alpha  occ. eigenvalues --   -1.06623  -0.91446  -0.87874  -0.76827  -0.69736
 Alpha  occ. eigenvalues --   -0.68130  -0.63487  -0.58826  -0.53212  -0.53208
 Alpha  occ. eigenvalues --   -0.50194  -0.40051  -0.38019  -0.37601  -0.34497
 Alpha  occ. eigenvalues --   -0.29965
 Alpha virt. eigenvalues --    0.03414   0.04738   0.05471   0.05753   0.05868
 Alpha virt. eigenvalues --    0.06567   0.07517   0.10247   0.10889   0.11523
 Alpha virt. eigenvalues --    0.11777   0.11977   0.13586   0.14215   0.14403

 Mulliken charges:
               1
     1  O   -2.998743
     2  C    1.217743
     3  N   -2.313353
     4  C   -2.692133
     5  C   -1.410190
     6  C    4.066841
     7  C   -4.073288
     8  H    1.419075
     9  H    0.605635
    10  H    1.354010
    11  H    1.321335
    12  H    1.360035
    13  H    1.392153
    14  H    0.750878
 Sum of Mulliken charges =   0.00000

 Dipole moment (field-independent basis, Debye):
    X=             -0.9403    Y=             -0.1752    Z=             -0.7732  Tot=              1.2299

 Test job not archived.
 1\1\GINC-SE104\SP\RHF\Aug-CC-pVDZ\C5H7N1O1\OHZDE\09-Apr-2025\0\\#t hf
 aug-cc-pvdz iop(5/13=1,5/36=2,99/5=2) pseudo=read geom=check guess=(re
 ad,tcheck) scf=(maxcycle=1)\\title\\0,1\O,0,0.14874805,-0.42115462,-0.
 89393231\C,0,-0.26547993,0.70030135,-0.10544884\N,0,-0.44431522,0.2444
 6399,1.25390004\C,0,-0.87750156,-1.13784628,1.07976725\C,0,-0.10604205
 ,-1.60819367,-0.15720318\C,0,0.71177038,1.78540157,-0.20892979\C,0,1.5
 058791,2.67548763,-0.29152263\H,0,-1.23021095,1.04799329,-0.49554856\H
 ,0,0.44981794,0.2730361,1.72903032\H,0,-1.9544995,-1.15395941,0.894861

 Normal termination of Gaussian 16 at Wed Apr  9 18:22:46 2025.
