 Gaussian 16, Revision C.01,

 ----------------------------------------------------------------------
 #t hf aug-cc-pvdz symm=none int=(grid=ultrafine) guess=(read,tcheck) s
 table=(opt,rrhf)
 ----------------------------------------------------------------------
 -----
 title
 -----
 Symbolic Z-matrix:
 Charge =  0 Multiplicity = 1

 SCF Done:  E(RHF) =  -317.653390283     A.U. after   16 cycles
 Normal termination of Gaussian 16 at Wed Apr  9 19:04:38 2025.
 Gaussian 16:  ES64L-G16RevC.01  3-Jul-2019

 ----------------------------------------------------------------------
 #t hf aug-cc-pvdz iop(5/13=1,5/36=2,99/5=2) pseudo=read geom=check gue
 ss=(read,tcheck) scf=(maxcycle=1)
 ----------------------------------------------------------------------
 -----
 title
 -----
 Structure from the checkpoint file:  "Grambow2020_wb97xd3_008058_reverse_mol2.chk"
 Charge =  0 Multiplicity = 1

                         Standard orientation:
 ---------------------------------------------------------------------
 Center     Atomic      Atomic             Coordinates (Angstroms)
 Number     Number       Type             X           Y           Z
 ---------------------------------------------------------------------
      1          7           0        2.532984    0.030113   -0.698383
      2          6           0        1.597818    0.010076   -0.031474
      3          6           0        0.341711    0.016868    0.810759
      4          6           0       -0.591452    1.167002    0.508804
      5          7           0       -1.418550    0.631411   -0.476118
      6          6           0       -1.394710   -0.668113   -0.523699
      7          7           0       -0.531131   -1.109982    0.457024
      8          1           0        0.659828   -0.043367    1.851713
      9          1           0       -2.072299    1.184613   -1.003114
     10          1           0       -0.189856    2.149867    0.303488
     11          1           0       -2.091654   -1.290599   -1.057213
     12          1           0       -0.109340   -2.016302    0.341127
 ---------------------------------------------------------------------

 SCF Done:  E(RHF) =  -319.109648649     A.U. after    2 cycles

 The electronic state is 1-A.
 Alpha  occ. eigenvalues --  -15.84295 -15.78470 -15.74875 -11.48737 -11.46733
 Alpha  occ. eigenvalues --  -11.41402 -11.34950  -1.59255  -1.33803  -1.28719
 Alpha  occ. eigenvalues --   -1.12529  -0.92188  -0.89358  -0.79217  -0.72266
 Alpha  occ. eigenvalues --   -0.63580  -0.61206  -0.58655  -0.54976  -0.52855
 Alpha  occ. eigenvalues --   -0.50392  -0.44363  -0.42806  -0.39972  -0.22299
 Alpha virt. eigenvalues --    0.02617   0.04540   0.04844   0.06069   0.06985
 Alpha virt. eigenvalues --    0.08824   0.10205   0.10918   0.11366   0.11467
 Alpha virt. eigenvalues --    0.12774   0.13147   0.13517   0.14380   0.15210

 Mulliken charges:
               1
     1  N   -2.579650
     2  C    2.868856
     3  C   -2.312840
     4  C   -0.732888
     5  N   -2.531347
     6  C    1.029924
     7  N   -2.138992
     8  H    1.768133
     9  H    0.862362
    10  H    1.432163
    11  H    1.542602
    12  H    0.791679
 Sum of Mulliken charges =   0.00000

 Dipole moment (field-independent basis, Debye):
    X=             -4.0059    Y=             -1.9041    Z=             -1.1723  Tot=              4.5877

 Test job not archived.
 1\1\GINC-SE098\SP\RHF\Aug-CC-pVDZ\C4H5N3\OHZDE\09-Apr-2025\0\\#t hf au
 g-cc-pvdz iop(5/13=1,5/36=2,99/5=2) pseudo=read geom=check guess=(read
 ,tcheck) scf=(maxcycle=1)\\title\\0,1\N,0,1.97644313,-0.89999221,1.911
 92153\C,0,1.52317108,-0.56966268,0.9093586\C,0,0.8799635,-0.16032132,-
 0.39675382\C,0,-0.33071735,-0.98570732,-0.76792555\N,0,-1.37320858,-0.
 266993,-0.18682281\C,0,-1.05842001,0.96111989,0.10341959\N,0,0.2518006
 9,1.16187284,-0.27849086\H,0,1.66913853,-0.15528459,-1.1488103\H,0,-2.
 31348514,-0.61809751,-0.12557986\H,0,-0.33493379,-2.0517787,-0.5864548

 Normal termination of Gaussian 16 at Wed Apr  9 19:04:42 2025.
