 Gaussian 16, Revision C.01,

 ----------------------------------------------------------------------
 #t hf aug-cc-pvdz symm=none int=(grid=ultrafine) guess=(read,tcheck) s
 table=(opt,rrhf)
 ----------------------------------------------------------------------
 -----
 title
 -----
 Symbolic Z-matrix:
 Charge =  0 Multiplicity = 1

 SCF Done:  E(RHF) =  -375.686228435     A.U. after   15 cycles
 Normal termination of Gaussian 16 at Wed Apr  9 18:56:42 2025.
 Gaussian 16:  ES64L-G16RevC.01  3-Jul-2019

 ----------------------------------------------------------------------
 #t hf aug-cc-pvdz iop(5/13=1,5/36=2,99/5=2) pseudo=read geom=check gue
 ss=(read,tcheck) scf=(maxcycle=1)
 ----------------------------------------------------------------------
 -----
 title
 -----
 Structure from the checkpoint file:  "Grambow2020_wb97xd3_007859_reverse_mol1.chk"
 Charge =  0 Multiplicity = 1

                         Standard orientation:
 ---------------------------------------------------------------------
 Center     Atomic      Atomic             Coordinates (Angstroms)
 Number     Number       Type             X           Y           Z
 ---------------------------------------------------------------------
      1          7           0        2.038605    0.028933    0.090509
      2          6           0        0.731380    0.073933   -0.129250
      3          8           0       -0.495673   -0.870730    1.098918
      4          6           0       -0.105216    1.319991    0.053134
      5          8           0       -1.392339    0.797408   -0.160953
      6          6           0       -1.119870   -0.614242   -0.041762
      7          7           0        0.043065   -0.730239   -1.023257
      8          1           0        2.528105   -0.841566   -0.019246
      9          1           0        2.446677    0.696180    0.720955
     10          1           0        0.136321    2.061381   -0.714264
     11          1           0        0.029285    1.747793    1.049646
     12          1           0       -2.026180   -1.160562   -0.311375
     13          1           0        0.380432   -1.685605   -0.992933
 ---------------------------------------------------------------------

 SCF Done:  E(RHF) =  -377.352845305     A.U. after    2 cycles

 The electronic state is 1-A.
 Alpha  occ. eigenvalues --  -21.03668 -20.96130 -15.82805 -15.74709 -11.56106
 Alpha  occ. eigenvalues --  -11.50851 -11.42970  -1.84338  -1.60353  -1.45673
 Alpha  occ. eigenvalues --   -1.31798  -1.07824  -0.86518  -0.86231  -0.76987
 Alpha  occ. eigenvalues --   -0.73594  -0.67933  -0.59849  -0.54911  -0.52362
 Alpha  occ. eigenvalues --   -0.51310  -0.50523  -0.43392  -0.37483  -0.30385
 Alpha  occ. eigenvalues --   -0.26029  -0.23218
 Alpha virt. eigenvalues --    0.02690   0.04338   0.04758   0.05629   0.06679
 Alpha virt. eigenvalues --    0.07896   0.09996   0.11262   0.11640   0.12228
 Alpha virt. eigenvalues --    0.12611   0.14054   0.15570   0.16146   0.16510

 Mulliken charges:
               1
     1  N   -3.421071
     2  C    4.066626
     3  O   -2.752149
     4  C   -1.084552
     5  O   -3.116569
     6  C    3.163042
     7  N   -2.717249
     8  H    0.644992
     9  H    0.662363
    10  H    1.193650
    11  H    1.228313
    12  H    1.657033
    13  H    0.475570
 Sum of Mulliken charges =  -0.00000

 Dipole moment (field-independent basis, Debye):
    X=              3.9308    Y=              0.1885    Z=             -0.1937  Tot=              3.9400

 Test job not archived.
 1\1\GINC-SE112\SP\RHF\Aug-CC-pVDZ\C3H6N2O2\OHZDE\09-Apr-2025\0\\#t hf
 aug-cc-pvdz iop(5/13=1,5/36=2,99/5=2) pseudo=read geom=check guess=(re
 ad,tcheck) scf=(maxcycle=1)\\title\\0,1\N,0,-1.24255442,-0.46945388,-1
 .22917723\C,0,-0.24543936,-0.17688313,-0.40496779\O,0,-0.46415732,1.28
 405201,0.90814836\C,0,0.1964564,-1.07728488,0.72632389\O,0,1.15134177,
 -0.25527111,1.34930079\C,0,0.82453701,1.01666702,0.75216322\N,0,0.8456
 7412,0.61661251,-0.7204921\H,0,-1.50502352,0.18992979,-1.94033722\H,0,
 -1.95876569,-1.10113395,-0.91737007\H,0,0.67121953,-1.98196352,0.33510

 Normal termination of Gaussian 16 at Wed Apr  9 18:56:46 2025.
