 Gaussian 16, Revision C.01,

 ----------------------------------------------------------------------
 #t hf aug-cc-pvdz symm=none int=(grid=ultrafine) guess=(read,tcheck) s
 table=(opt,rrhf)
 ----------------------------------------------------------------------
 -----
 title
 -----
 Symbolic Z-matrix:
 Charge =  0 Multiplicity = 1

 SCF Done:  E(RHF) =  -320.210043674     A.U. after   18 cycles
 Normal termination of Gaussian 16 at Wed Apr  9 19:31:54 2025.
 Gaussian 16:  ES64L-G16RevC.01  3-Jul-2019

 ----------------------------------------------------------------------
 #t hf aug-cc-pvdz iop(5/13=1,5/36=2,99/5=2) pseudo=read geom=check gue
 ss=(read,tcheck) scf=(maxcycle=1)
 ----------------------------------------------------------------------
 -----
 title
 -----
 Structure from the checkpoint file:  "Grambow2020_wb97xd3_009366_reverse_mol2.chk"
 Charge =  0 Multiplicity = 1

                         Standard orientation:
 ---------------------------------------------------------------------
 Center     Atomic      Atomic             Coordinates (Angstroms)
 Number     Number       Type             X           Y           Z
 ---------------------------------------------------------------------
      1          6           0       -3.104631    0.585488   -0.451390
      2          6           0       -2.149339    0.076240    0.060361
      3          6           0        0.119075   -0.724116    0.115995
      4          6           0       -1.030255   -0.533514    0.700216
      5          8           0        2.078605    1.092995    0.377423
      6          7           0        2.304719    0.204504   -0.385968
      7          6           0        1.289603   -0.845933   -0.441897
      8          1           0       -3.948489    1.040544   -0.914145
      9          1           0       -1.148027   -0.863177    1.729008
     10          1           0        1.587927   -1.701850   -1.032177
 ---------------------------------------------------------------------

 SCF Done:  E(RHF) =  -321.630944772     A.U. after    2 cycles

 The electronic state is 1-A.
 Alpha  occ. eigenvalues --  -21.12830 -15.87359 -11.49215 -11.47637 -11.45482
 Alpha  occ. eigenvalues --  -11.42996 -11.42101  -1.87297  -1.27772  -1.17512
 Alpha  occ. eigenvalues --   -1.06293  -0.94235  -0.79089  -0.73034  -0.68396
 Alpha  occ. eigenvalues --   -0.65851  -0.63169  -0.55764  -0.52311  -0.47724
 Alpha  occ. eigenvalues --   -0.39570  -0.37555  -0.34599  -0.28603
 Alpha virt. eigenvalues --    0.02716   0.04601   0.05387   0.07545   0.08538
 Alpha virt. eigenvalues --    0.09276   0.10216   0.10418   0.11042   0.11873
 Alpha virt. eigenvalues --    0.12383   0.12632   0.12984   0.13903   0.15643

 Mulliken charges:
               1
     1  C   -4.168615
     2  C    3.863795
     3  C    2.726290
     4  C   -2.763617
     5  O   -1.891921
     6  N    0.305338
     7  C   -1.311995
     8  H    0.814181
     9  H    1.248462
    10  H    1.178083
 Sum of Mulliken charges =  -0.00000

 Dipole moment (field-independent basis, Debye):
    X=             -1.7292    Y=             -0.4890    Z=              0.5039  Tot=              1.8663

 Test job not archived.
 1\1\GINC-SE115\SP\RHF\Aug-CC-pVDZ\C5H3N1O1\OHZDE\09-Apr-2025\0\\#t hf
 aug-cc-pvdz iop(5/13=1,5/36=2,99/5=2) pseudo=read geom=check guess=(re
 ad,tcheck) scf=(maxcycle=1)\\title\\0,1\C,0,2.56377013,0.98708531,0.69
 574405\C,0,1.53530378,0.8616246,0.09547692\C,0,-0.48535887,-0.27939332
 ,-0.54042387\C,0,0.31573106,0.74435504,-0.63421801\O,0,-2.54665568,-0.
 22125409,1.17936303\N,0,-2.36899454,-1.26548228,0.63042413\C,0,-1.3225
 8418,-1.26567831,-0.39037535\H,0,3.47602375,1.09062735,1.23461977\H,0,
 0.04629841,1.55116524,-1.31054906\H,0,-1.28245286,-2.18090155,-0.96550

 Normal termination of Gaussian 16 at Wed Apr  9 19:31:58 2025.
