 Gaussian 16, Revision C.01,

 ----------------------------------------------------------------------
 #t hf aug-cc-pvdz symm=none int=(grid=ultrafine) guess=(read,tcheck) s
 table=(opt,rrhf)
 ----------------------------------------------------------------------
 -----
 title
 -----
 Symbolic Z-matrix:
 Charge =  0 Multiplicity = 1

 SCF Done:  E(RHF) =  -380.621302124     A.U. after   15 cycles
 Normal termination of Gaussian 16 at Wed Apr  9 03:40:30 2025.
 Gaussian 16:  ES64L-G16RevC.01  3-Jul-2019

 ----------------------------------------------------------------------
 #t hf aug-cc-pvdz iop(5/13=1,5/36=2,99/5=2) pseudo=read geom=check gue
 ss=(read,tcheck) scf=(maxcycle=1)
 ----------------------------------------------------------------------
 -----
 title
 -----
 Structure from the checkpoint file:  "Grambow2020_wb97xd3_007508_forward_mol1.chk"
 Charge =  0 Multiplicity = 1

                         Standard orientation:
 ---------------------------------------------------------------------
 Center     Atomic      Atomic             Coordinates (Angstroms)
 Number     Number       Type             X           Y           Z
 ---------------------------------------------------------------------
      1          8           0       -2.850933   -0.476108   -0.200996
      2          6           0       -1.643274   -0.029809   -0.065418
      3          6           0        0.398455    1.786238   -0.480932
      4          6           0        0.812739    0.675340    0.211291
      5          8           0        0.272393    0.267432    1.291686
      6          6           0        1.823069   -0.287546   -0.404072
      7          8           0        1.390242   -1.615263   -0.180602
      8          1           0       -2.871385   -1.313744   -0.679975
      9          1           0       -0.831119   -0.587298   -0.503600
     10          1           0       -1.539895    0.893210    0.469129
     11          1           0       -0.217093    2.536333    0.001011
     12          1           0        0.848260    2.045811   -1.430961
     13          1           0        1.919498   -0.137702   -1.480149
     14          1           0        2.806030   -0.116473    0.054565
     15          1           0        1.046154   -1.593971    0.724064
 ---------------------------------------------------------------------

 SCF Done:  E(RHF) =  -382.297794440     A.U. after    2 cycles

 The electronic state is 1-A.
 Alpha  occ. eigenvalues --  -21.22560 -21.05106 -20.98746 -11.55990 -11.43575
 Alpha  occ. eigenvalues --  -11.38990 -11.34093  -1.87513  -1.71790  -1.63105
 Alpha  occ. eigenvalues --   -1.09129  -1.01415  -0.94605  -0.79184  -0.73357
 Alpha  occ. eigenvalues --   -0.69167  -0.63475  -0.61019  -0.56231  -0.54825
 Alpha  occ. eigenvalues --   -0.53247  -0.51567  -0.44301  -0.42045  -0.37089
 Alpha  occ. eigenvalues --   -0.31152  -0.26033  -0.24189
 Alpha virt. eigenvalues --    0.01923   0.04842   0.05904   0.06152   0.06718
 Alpha virt. eigenvalues --    0.06986   0.07209   0.07844   0.08155   0.10618
 Alpha virt. eigenvalues --    0.11305   0.12903   0.14093   0.14803   0.15518

 Mulliken charges:
               1
     1  O   -3.054139
     2  C   -0.898767
     3  C   -3.227580
     4  C    3.020539
     5  O   -3.130036
     6  C   -1.398191
     7  O   -2.493878
     8  H    0.776542
     9  H    2.099468
    10  H    1.824130
    11  H    1.364043
    12  H    1.466582
    13  H    1.470663
    14  H    1.289147
    15  H    0.891476
 Sum of Mulliken charges =   0.00000

 Dipole moment (field-independent basis, Debye):
    X=             -5.1530    Y=             -2.0956    Z=             -1.2669  Tot=              5.7052

 Test job not archived.
 1\1\GINC-SE460\SP\RHF\Aug-CC-pVDZ\C4H8O3\OHZDE\09-Apr-2025\0\\#t hf au
 g-cc-pvdz iop(5/13=1,5/36=2,99/5=2) pseudo=read geom=check guess=(read
 ,tcheck) scf=(maxcycle=1)\\title\\0,1\O,0,-1.74699168,1.79543758,-1.33
 242928\C,0,-1.11559239,0.85323933,-0.70824782\C,0,-0.87362582,-1.15234
 747,1.17812626\C,0,0.2983588,-0.91920822,0.50211169\O,0,0.40724169,-0.
 95709381,-0.76766168\C,0,1.51737959,-0.36752786,1.23438738\O,0,2.10034
 243,0.65698732,0.45295816\H,0,-1.33398961,2.65651136,-1.19295356\H,0,-
 0.26155293,1.1124038,-0.10339867\H,0,-1.50982486,-0.13615679,-0.826848

 Normal termination of Gaussian 16 at Wed Apr  9 03:40:34 2025.
