 Gaussian 16, Revision C.01,

 ----------------------------------------------------------------------
 #t hf aug-cc-pvdz symm=none int=(grid=ultrafine) guess=(read,tcheck) s
 table=(opt,rrhf)
 ----------------------------------------------------------------------
 -----
 title
 -----
 Symbolic Z-matrix:
 Charge =  0 Multiplicity = 1

 SCF Done:  E(RHF) =  -360.628379540     A.U. after   16 cycles
 Normal termination of Gaussian 16 at Wed Apr  9 18:48:50 2025.
 Gaussian 16:  ES64L-G16RevC.01  3-Jul-2019

 ----------------------------------------------------------------------
 #t hf aug-cc-pvdz iop(5/13=1,5/36=2,99/5=2) pseudo=read geom=check gue
 ss=(read,tcheck) scf=(maxcycle=1)
 ----------------------------------------------------------------------
 -----
 title
 -----
 Structure from the checkpoint file:  "Grambow2020_wb97xd3_007670_forward_mol1.chk"
 Charge =  0 Multiplicity = 1

                         Standard orientation:
 ---------------------------------------------------------------------
 Center     Atomic      Atomic             Coordinates (Angstroms)
 Number     Number       Type             X           Y           Z
 ---------------------------------------------------------------------
      1          6           0        2.117230    0.602284   -0.484808
      2          8           0        1.609459   -0.573847    0.107006
      3          6           0        0.533530   -0.380141    0.991639
      4          6           0       -0.847834   -0.548095    0.407047
      5          7           0       -1.774148    0.465207    0.381314
      6          8           0       -1.108626    1.449086   -0.126107
      7          6           0       -1.082623   -1.306565   -0.726846
      8          1           0        3.062958    0.333756   -0.953802
      9          1           0        1.444040    1.007551   -1.245704
     10          1           0        2.299393    1.377246    0.267749
     11          1           0        0.593668    0.588108    1.497470
     12          1           0        0.626049   -1.163496    1.751978
     13          1           0       -0.767302    0.891383   -1.224676
     14          1           0       -0.347351   -2.013338   -1.091207
     15          1           0       -0.712521   -0.072617   -1.571773
     16          1           0       -2.108376   -1.411856   -1.068609
 ---------------------------------------------------------------------

 SCF Done:  E(RHF) =  -362.312400975     A.U. after    2 cycles

 The electronic state is 1-A.
 Alpha  occ. eigenvalues --  -21.10587 -21.05580 -15.80200 -11.48027 -11.46601
 Alpha  occ. eigenvalues --  -11.41588 -11.40443  -1.84558  -1.76328  -1.27796
 Alpha  occ. eigenvalues --   -1.05928  -1.03298  -0.94552  -0.78190  -0.71951
 Alpha  occ. eigenvalues --   -0.67077  -0.64504  -0.62359  -0.60865  -0.55620
 Alpha  occ. eigenvalues --   -0.55058  -0.51886  -0.50141  -0.42280  -0.39188
 Alpha  occ. eigenvalues --   -0.33908  -0.31704  -0.26992
 Alpha virt. eigenvalues --    0.03609   0.04926   0.05269   0.05826   0.06133
 Alpha virt. eigenvalues --    0.06567   0.06764   0.07743   0.08329   0.09197
 Alpha virt. eigenvalues --    0.11226   0.12056   0.12343   0.13353   0.14241

 Mulliken charges:
               1
     1  C   -2.975729
     2  O   -2.984802
     3  C   -1.326611
     4  C    1.807692
     5  N   -0.664757
     6  O   -2.091816
     7  C   -2.531920
     8  H    1.201303
     9  H    1.580415
    10  H    1.301027
    11  H    1.650103
    12  H    1.156521
    13  H    0.913398
    14  H    1.524262
    15  H    0.109240
    16  H    1.331675
 Sum of Mulliken charges =   0.00000

 Dipole moment (field-independent basis, Debye):
    X=              1.3799    Y=             -0.4835    Z=             -0.1332  Tot=              1.4682

 Test job not archived.
 1\1\GINC-SE014\SP\RHF\Aug-CC-pVDZ\C4H9N1O2\OHZDE\09-Apr-2025\0\\#t hf
 aug-cc-pvdz iop(5/13=1,5/36=2,99/5=2) pseudo=read geom=check guess=(re
 ad,tcheck) scf=(maxcycle=1)\\title\\0,1\C,0,1.99842101,0.34804845,-0.1
 2928872\O,0,1.2656898,-0.42518697,0.79622259\C,0,0.1122653,0.19390218,
 1.31009092\C,0,-1.18521957,-0.12959297,0.61008489\N,0,-1.95985584,0.82
 50299,-0.00157926\O,0,-1.10879718,1.45254847,-0.74342264\C,0,-1.357628
 53,-1.288494,-0.12702977\H,0,2.95694591,-0.15121393,-0.26505392\H,0,1.
 49494586,0.42309785,-1.09741475\H,0,2.17391486,1.3600738,0.25162994\H,

 Normal termination of Gaussian 16 at Wed Apr  9 18:48:56 2025.
