 Gaussian 16, Revision C.01,

 ----------------------------------------------------------------------
 #t hf aug-cc-pvdz symm=none int=(grid=ultrafine) guess=(read,tcheck) s
 table=(opt,rrhf)
 ----------------------------------------------------------------------
 -----
 title
 -----
 Symbolic Z-matrix:
 Charge =  0 Multiplicity = 1

 SCF Done:  E(RHF) =  -375.632695191     A.U. after   16 cycles
 Normal termination of Gaussian 16 at Wed Apr  9 18:56:41 2025.
 Gaussian 16:  ES64L-G16RevC.01  3-Jul-2019

 ----------------------------------------------------------------------
 #t hf aug-cc-pvdz iop(5/13=1,5/36=2,99/5=2) pseudo=read geom=check gue
 ss=(read,tcheck) scf=(maxcycle=1)
 ----------------------------------------------------------------------
 -----
 title
 -----
 Structure from the checkpoint file:  "Grambow2020_wb97xd3_007858_forward_mol1.chk"
 Charge =  0 Multiplicity = 1

                         Standard orientation:
 ---------------------------------------------------------------------
 Center     Atomic      Atomic             Coordinates (Angstroms)
 Number     Number       Type             X           Y           Z
 ---------------------------------------------------------------------
      1          7           0        0.968605    1.367882   -0.080020
      2          6           0        1.303008    0.064081    0.056269
      3          8           0        2.397940   -0.380258   -0.207124
      4          6           0        0.193514   -0.838657    0.592715
      5          8           0       -0.851390   -1.070678   -0.381007
      6          6           0       -1.957675   -0.365233   -0.394243
      7          7           0       -1.933196    0.787987    0.317530
      8          1           0        1.672588    2.009718   -0.397749
      9          1           0        0.070649    1.699644    0.230088
     10          1           0       -0.233602   -0.428435    1.508901
     11          1           0        0.628634   -1.816302    0.774758
     12          1           0       -2.100076    0.758988   -0.969423
     13          1           0       -2.891540    1.131648    0.367464
 ---------------------------------------------------------------------

 SCF Done:  E(RHF) =  -377.285469807     A.U. after    2 cycles

 The electronic state is 1-A.
 Alpha  occ. eigenvalues --  -21.10867 -21.03002 -15.80552 -15.77804 -11.51451
 Alpha  occ. eigenvalues --  -11.45354 -11.44034  -1.83004  -1.70615  -1.39079
 Alpha  occ. eigenvalues --   -1.35093  -1.07402  -0.84578  -0.79596  -0.72834
 Alpha  occ. eigenvalues --   -0.71656  -0.66114  -0.62203  -0.59229  -0.55621
 Alpha  occ. eigenvalues --   -0.52724  -0.49315  -0.42414  -0.39262  -0.34342
 Alpha  occ. eigenvalues --   -0.32538  -0.28005
 Alpha virt. eigenvalues --    0.02988   0.04531   0.05320   0.05488   0.06886
 Alpha virt. eigenvalues --    0.07173   0.09587   0.10058   0.11252   0.12284
 Alpha virt. eigenvalues --    0.12562   0.13617   0.14145   0.15092   0.15763

 Mulliken charges:
               1
     1  N   -2.874393
     2  C    4.990545
     3  O   -3.168552
     4  C   -1.886518
     5  O   -2.374378
     6  C    0.630425
     7  N   -1.767474
     8  H    0.745124
     9  H    0.820027
    10  H    1.629981
    11  H    1.084177
    12  H    1.288222
    13  H    0.882814
 Sum of Mulliken charges =  -0.00000

 Dipole moment (field-independent basis, Debye):
    X=             -1.5274    Y=              2.4938    Z=              1.1238  Tot=              3.1329

 Test job not archived.
 1\1\GINC-SE173\SP\RHF\Aug-CC-pVDZ\C3H6N2O2\OHZDE\09-Apr-2025\0\\#t hf
 aug-cc-pvdz iop(5/13=1,5/36=2,99/5=2) pseudo=read geom=check guess=(re
 ad,tcheck) scf=(maxcycle=1)\\title\\0,1\N,0,-1.41067098,0.48910707,-0.
 71241704\C,0,-1.41967684,-0.00687798,0.54623897\O,0,-2.35133678,0.1139
 5535,1.30984839\C,0,-0.15766261,-0.76433755,0.95521583\O,0,0.9720133,0
 .11473687,1.16700055\C,0,1.86760039,0.332293,0.23303701\N,0,1.51291413
 ,-0.03102664,-1.0236789\H,0,-2.22997504,0.96715605,-1.04212532\H,0,-0.
 64452766,0.29055038,-1.33383227\H,0,0.09524202,-1.5269754,0.21729431\H

 Normal termination of Gaussian 16 at Wed Apr  9 18:56:45 2025.
