 Gaussian 16, Revision C.01,

 ----------------------------------------------------------------------
 #t hf aug-cc-pvdz symm=none int=(grid=ultrafine) guess=(read,tcheck) s
 table=(opt,rrhf)
 ----------------------------------------------------------------------
 -----
 title
 -----
 Symbolic Z-matrix:
 Charge =  0 Multiplicity = 1

 SCF Done:  E(RHF) =  -338.635727936     A.U. after   16 cycles
 Normal termination of Gaussian 16 at Wed Apr  9 18:17:38 2025.
 Gaussian 16:  ES64L-G16RevC.01  3-Jul-2019

 ----------------------------------------------------------------------
 #t hf aug-cc-pvdz iop(5/13=1,5/36=2,99/5=2) pseudo=read geom=check gue
 ss=(read,tcheck) scf=(maxcycle=1)
 ----------------------------------------------------------------------
 -----
 title
 -----
 Structure from the checkpoint file:  "Grambow2020_wb97xd3_006850_reverse_mol1.chk"
 Charge =  0 Multiplicity = 1

                         Standard orientation:
 ---------------------------------------------------------------------
 Center     Atomic      Atomic             Coordinates (Angstroms)
 Number     Number       Type             X           Y           Z
 ---------------------------------------------------------------------
      1          7           0       -2.482347   -0.484582    0.043739
      2          6           0       -1.128280   -0.118094   -0.005713
      3          6           0       -0.642636    1.167078   -0.037992
      4          7           0        0.716908    1.141512   -0.006232
      5          6           0        1.087712   -0.195660    0.140387
      6          8           0        2.393439   -0.494675   -0.123950
      7          6           0       -0.053958   -1.068200    0.004357
      8          1           0       -3.077127    0.048464   -0.571341
      9          1           0       -2.586801   -1.471600   -0.134644
     10          1           0       -1.174158    2.108839   -0.017298
     11          1           0        1.329310    1.933861    0.057973
     12          1           0        2.405187   -1.405427   -0.431658
     13          1           0        0.737118   -0.565986    1.219791
 ---------------------------------------------------------------------

 SCF Done:  E(RHF) =  -340.170035886     A.U. after    2 cycles

 The electronic state is 1-A.
 Alpha  occ. eigenvalues --  -21.10147 -15.78383 -15.73804 -11.47194 -11.45494
 Alpha  occ. eigenvalues --  -11.40590 -11.36380  -1.76840  -1.49913  -1.32396
 Alpha  occ. eigenvalues --   -1.12236  -1.03364  -0.82104  -0.77895  -0.73346
 Alpha  occ. eigenvalues --   -0.66097  -0.65720  -0.57858  -0.55762  -0.53866
 Alpha  occ. eigenvalues --   -0.48082  -0.44829  -0.39732  -0.34824  -0.33256
 Alpha  occ. eigenvalues --   -0.25788
 Alpha virt. eigenvalues --    0.03297   0.05162   0.05466   0.05737   0.06754
 Alpha virt. eigenvalues --    0.07647   0.09180   0.10605   0.11323   0.12168
 Alpha virt. eigenvalues --    0.12930   0.13646   0.14062   0.15127   0.15524

 Mulliken charges:
               1
     1  N   -3.600494
     2  C    4.796089
     3  C   -0.551373
     4  N   -2.920552
     5  C    3.378619
     6  O   -3.173630
     7  C   -3.444808
     8  H    0.560435
     9  H    0.724511
    10  H    1.405397
    11  H    0.755915
    12  H    0.725342
    13  H    1.344548
 Sum of Mulliken charges =  -0.00000

 Dipole moment (field-independent basis, Debye):
    X=              0.6917    Y=              3.6521    Z=             -0.7593  Tot=              3.7938

 Test job not archived.
 1\1\GINC-SE232\SP\RHF\Aug-CC-pVDZ\C4H6N2O1\OHZDE\09-Apr-2025\0\\#t hf
 aug-cc-pvdz iop(5/13=1,5/36=2,99/5=2) pseudo=read geom=check guess=(re
 ad,tcheck) scf=(maxcycle=1)\\title\\0,1\N,0,-2.2402602,0.58316025,-0.3
 8022866\C,0,-0.91827472,0.17745592,-0.13936989\C,0,-0.42237602,-1.0929
 6073,-0.30873839\N,0,0.9133752,-1.09878996,-0.05230894\C,0,1.27771219,
 0.22482223,0.19735313\O,0,2.4936048,0.41733678,0.78790425\C,0,0.114165
 87,1.07329232,0.29481455\H,0,-2.93799064,-0.06163323,-0.04312635\H,0,-
 2.40057745,1.50399438,-0.00167875\H,0,-0.91772761,-1.9887215,-0.658160

 Normal termination of Gaussian 16 at Wed Apr  9 18:17:42 2025.
