 Gaussian 16, Revision C.01,

 ----------------------------------------------------------------------
 #t hf aug-cc-pvdz symm=none int=(grid=ultrafine) guess=(read,tcheck) s
 table=(opt,rrhf)
 ----------------------------------------------------------------------
 -----
 title
 -----
 Symbolic Z-matrix:
 Charge =  0 Multiplicity = 1

 SCF Done:  E(RHF) =  -304.514218194     A.U. after   15 cycles
 Normal termination of Gaussian 16 at Wed Apr  9 03:15:51 2025.
 Gaussian 16:  ES64L-G16RevC.01  3-Jul-2019

 ----------------------------------------------------------------------
 #t hf aug-cc-pvdz iop(5/13=1,5/36=2,99/5=2) pseudo=read geom=check gue
 ss=(read,tcheck) scf=(maxcycle=1)
 ----------------------------------------------------------------------
 -----
 title
 -----
 Structure from the checkpoint file:  "Grambow2020_b97d3_006989_forward_mol1.chk"
 Charge =  0 Multiplicity = 1

                         Standard orientation:
 ---------------------------------------------------------------------
 Center     Atomic      Atomic             Coordinates (Angstroms)
 Number     Number       Type             X           Y           Z
 ---------------------------------------------------------------------
      1          6           0        2.252434   -0.036178   -0.306252
      2          6           0        0.827063   -0.024584    0.164880
      3          6           0       -0.216911    1.071959    0.016800
      4          6           0       -1.262891    0.136113   -0.073960
      5          8           0       -2.397555   -0.183632   -0.166586
      6          8           0        0.057342   -1.073970    0.153162
      7          1           0        2.252087   -0.050598   -1.406869
      8          1           0        2.763884   -0.933506    0.063139
      9          1           0        2.788018    0.855982    0.039268
     10          1           0        1.119781    0.288309    1.643703
     11          1           0        0.369643    0.936294    1.340924
     12          1           0       -0.169880    2.080475   -0.381575
 ---------------------------------------------------------------------

 SCF Done:  E(RHF) =  -305.929433272     A.U. after    2 cycles

 The electronic state is 1-A.
 Alpha  occ. eigenvalues --  -21.11258 -21.06432 -11.58085 -11.54884 -11.43560
 Alpha  occ. eigenvalues --  -11.41605  -1.79541  -1.71934  -1.19757  -1.11666
 Alpha  occ. eigenvalues --   -0.87448  -0.73731  -0.71388  -0.65989  -0.61624
 Alpha  occ. eigenvalues --   -0.58366  -0.56370  -0.51529  -0.50310  -0.43580
 Alpha  occ. eigenvalues --   -0.36730  -0.31411  -0.29150
 Alpha virt. eigenvalues --    0.03091   0.04730   0.05301   0.05542   0.05711
 Alpha virt. eigenvalues --    0.07267   0.09172   0.10462   0.10910   0.11609
 Alpha virt. eigenvalues --    0.12646   0.13678   0.14239   0.14859   0.15129

 Mulliken charges:
               1
     1  C   -4.125169
     2  C    3.394974
     3  C   -2.337822
     4  C    3.140064
     5  O   -2.808101
     6  O   -2.992328
     7  H    1.094089
     8  H    1.228136
     9  H    1.159843
    10  H   -0.091787
    11  H    1.135718
    12  H    1.202382
 Sum of Mulliken charges =  -0.00000

 Dipole moment (field-independent basis, Debye):
    X=              1.2407    Y=              0.6108    Z=             -1.0699  Tot=              1.7485

 Test job not archived.
 1\1\GINC-SE393\SP\RHF\Aug-CC-pVDZ\C4H6O2\OHZDE\09-Apr-2025\0\\#t hf au
 g-cc-pvdz iop(5/13=1,5/36=2,99/5=2) pseudo=read geom=check guess=(read
 ,tcheck) scf=(maxcycle=1)\\title\\0,1\C,0,-1.60238466,-0.12436164,0.27
 895936\C,0,-0.15866732,-0.25313656,-0.11203733\C,0,1.0005238,0.6810714
 2,0.20060756\C,0,1.91498291,-0.38624705,0.25269708\O,0,2.99306563,-0.8
 569024,0.37311795\O,0,0.47342388,-1.38958671,-0.16457507\H,0,-1.675935
 28,-0.24065627,1.37103616\H,0,-2.19521234,-0.91007417,-0.2052309\H,0,-
 2.00013605,0.85759232,-0.00343398\H,0,-0.31305953,0.23061466,-1.565532

 Normal termination of Gaussian 16 at Wed Apr  9 03:15:55 2025.
