 Gaussian 16, Revision C.01,

 ----------------------------------------------------------------------
 #t hf aug-cc-pvdz symm=none int=(grid=ultrafine) guess=(read,tcheck) s
 table=(opt,rrhf)
 ----------------------------------------------------------------------
 -----
 title
 -----
 Symbolic Z-matrix:
 Charge =  0 Multiplicity = 1

 SCF Done:  E(RHF) =  -359.757602071     A.U. after   15 cycles
 Normal termination of Gaussian 16 at Wed Apr  9 18:34:25 2025.
 Gaussian 16:  ES64L-G16RevC.01  3-Jul-2019

 ----------------------------------------------------------------------
 #t hf aug-cc-pvdz iop(5/13=1,5/36=2,99/5=2) pseudo=read geom=check gue
 ss=(read,tcheck) scf=(maxcycle=1)
 ----------------------------------------------------------------------
 -----
 title
 -----
 Structure from the checkpoint file:  "Grambow2020_wb97xd3_007283_forward_mol2.chk"
 Charge =  0 Multiplicity = 1

                         Standard orientation:
 ---------------------------------------------------------------------
 Center     Atomic      Atomic             Coordinates (Angstroms)
 Number     Number       Type             X           Y           Z
 ---------------------------------------------------------------------
      1          8           0       -1.769341   -1.041265   -0.152399
      2          6           0       -0.552548   -0.621109    0.381831
      3          6           0        0.680759   -1.295125   -0.204857
      4          7           0        1.731562   -0.352884    0.180961
      5          6           0        1.236900    0.990290   -0.087723
      6          6           0       -0.258630    0.841989    0.089406
      7          8           0       -1.103666    1.680905   -0.064767
      8          1           0       -2.331210   -0.260400   -0.222701
      9          1           0       -0.526828   -0.739914    1.476335
     10          1           0        0.873109   -2.281168    0.216202
     11          1           0        0.540489   -1.395398   -1.291701
     12          1           0        2.616720   -0.547652   -0.259395
     13          1           0        1.403055    1.345846   -1.115645
     14          1           0        1.648903    1.735477    0.595569
 ---------------------------------------------------------------------

 SCF Done:  E(RHF) =  -361.356719308     A.U. after    2 cycles

 The electronic state is 1-A.
 Alpha  occ. eigenvalues --  -21.07817 -21.07065 -15.73706 -11.52153 -11.46456
 Alpha  occ. eigenvalues --  -11.42611 -11.39953  -1.76205  -1.69910  -1.43634
 Alpha  occ. eigenvalues --   -1.09453  -1.06681  -0.88123  -0.77762  -0.69595
 Alpha  occ. eigenvalues --   -0.67666  -0.63094  -0.62581  -0.56477  -0.52749
 Alpha  occ. eigenvalues --   -0.51534  -0.48876  -0.44867  -0.40761  -0.35322
 Alpha  occ. eigenvalues --   -0.33210  -0.29040
 Alpha virt. eigenvalues --    0.03734   0.05074   0.05415   0.05588   0.06174
 Alpha virt. eigenvalues --    0.06838   0.07234   0.09748   0.11121   0.12493
 Alpha virt. eigenvalues --    0.12949   0.13133   0.14159   0.14384   0.14886

 Mulliken charges:
               1
     1  O   -3.138153
     2  C    0.991627
     3  C   -2.505398
     4  N   -1.935414
     5  C   -2.346492
     6  C    4.244741
     7  O   -3.402307
     8  H    0.620304
     9  H    1.547800
    10  H    1.334008
    11  H    1.400342
    12  H    0.642859
    13  H    1.229382
    14  H    1.316702
 Sum of Mulliken charges =  -0.00000

 Dipole moment (field-independent basis, Debye):
    X=              1.5461    Y=             -0.3213    Z=             -0.5154  Tot=              1.6611

 Test job not archived.
 1\1\GINC-SE454\SP\RHF\Aug-CC-pVDZ\C4H7N1O2\OHZDE\09-Apr-2025\0\\#t hf
 aug-cc-pvdz iop(5/13=1,5/36=2,99/5=2) pseudo=read geom=check guess=(re
 ad,tcheck) scf=(maxcycle=1)\\title\\0,1\O,0,2.23441204,-0.05366938,0.1
 0371607\C,0,0.87180759,0.0604609,0.37353196\C,0,0.16652525,1.21496916,
 -0.32592041\N,0,-1.23126094,0.79192505,-0.23598789\C,0,-1.28434779,-0.
 62301233,-0.5767682\C,0,0.07231486,-1.12841934,-0.13630278\O,0,0.51382
 624,-2.23953656,-0.24639591\H,0,2.43052048,-0.99561741,0.03541803\H,0,
 0.67684705,0.13699785,1.45466498\H,0,0.31250578,2.17285453,0.1717902\H

 Normal termination of Gaussian 16 at Wed Apr  9 18:34:29 2025.
