 Gaussian 16, Revision C.01,

 ----------------------------------------------------------------------
 #t hf aug-cc-pvdz symm=none int=(grid=ultrafine) guess=(read,tcheck) s
 table=(opt,rrhf)
 ----------------------------------------------------------------------
 -----
 title
 -----
 Symbolic Z-matrix:
 Charge =  0 Multiplicity = 1

 SCF Done:  E(RHF) =  -304.744642693     A.U. after   14 cycles
 Normal termination of Gaussian 16 at Wed Apr  9 03:15:52 2025.
 Gaussian 16:  ES64L-G16RevC.01  3-Jul-2019

 ----------------------------------------------------------------------
 #t hf aug-cc-pvdz iop(5/13=1,5/36=2,99/5=2) pseudo=read geom=check gue
 ss=(read,tcheck) scf=(maxcycle=1)
 ----------------------------------------------------------------------
 -----
 title
 -----
 Structure from the checkpoint file:  "Grambow2020_b97d3_006983_reverse_mol2.chk"
 Charge =  0 Multiplicity = 1

                         Standard orientation:
 ---------------------------------------------------------------------
 Center     Atomic      Atomic             Coordinates (Angstroms)
 Number     Number       Type             X           Y           Z
 ---------------------------------------------------------------------
      1          6           0       -2.043824   -0.930528   -0.194255
      2          6           0       -1.462168    0.439698   -0.399476
      3          6           0       -1.146230    1.302202    0.579472
      4          6           0        1.707412   -0.225125    0.000470
      5          8           0        1.357577   -1.272525    0.408031
      6          8           0        2.088634    0.809081   -0.410984
      7          1           0       -2.178768   -1.154953    0.872182
      8          1           0       -1.390348   -1.703869   -0.626470
      9          1           0       -3.020630   -1.022152   -0.694792
     10          1           0       -1.286258    0.736593   -1.438629
     11          1           0       -0.719185    2.281577    0.363255
     12          1           0       -1.305638    1.052873    1.630814
 ---------------------------------------------------------------------

 SCF Done:  E(RHF) =  -306.080492659     A.U. after    2 cycles

 The electronic state is 1-A.
 Alpha  occ. eigenvalues --  -21.15545 -21.15426 -11.62799 -11.42147 -11.38766
 Alpha  occ. eigenvalues --  -11.36518  -1.83101  -1.73802  -1.19594  -0.99122
 Alpha  occ. eigenvalues --   -0.78813  -0.72613  -0.63971  -0.62158  -0.62072
 Alpha  occ. eigenvalues --   -0.59254  -0.56718  -0.56228  -0.50248  -0.47329
 Alpha  occ. eigenvalues --   -0.37056  -0.36895  -0.34664
 Alpha virt. eigenvalues --    0.03838   0.05664   0.05797   0.06277   0.06783
 Alpha virt. eigenvalues --    0.06844   0.08432   0.10501   0.11328   0.12351
 Alpha virt. eigenvalues --    0.12711   0.13903   0.14478   0.15355   0.15697

 Mulliken charges:
               1
     1  C   -4.152840
     2  C   -0.870138
     3  C   -3.207467
     4  C    4.031536
     5  O   -1.926567
     6  O   -1.966450
     7  H    1.341624
     8  H    1.229738
     9  H    1.183605
    10  H    1.449620
    11  H    1.434233
    12  H    1.453105
 Sum of Mulliken charges =  -0.00000

 Dipole moment (field-independent basis, Debye):
    X=             -0.3073    Y=             -0.2108    Z=             -0.1519  Tot=              0.4025

 Test job not archived.
 1\1\GINC-SE126\SP\RHF\Aug-CC-pVDZ\C4H6O2\OHZDE\09-Apr-2025\0\\#t hf au
 g-cc-pvdz iop(5/13=1,5/36=2,99/5=2) pseudo=read geom=check guess=(read
 ,tcheck) scf=(maxcycle=1)\\title\\0,1\C,0,-1.44260774,0.14700338,0.607
 15851\C,0,-0.50854975,0.49065483,-0.51862907\C,0,0.58018343,1.26875261
 ,-0.41235492\C,0,1.80577859,-1.75964221,-0.04089318\O,0,1.28568081,-1.
 96371718,0.99515234\O,0,2.34211737,-1.58554515,-1.07348123\H,0,-1.1234
 493,0.609741,1.55049045\H,0,-1.49070898,-0.94219005,0.75960386\H,0,-2.
 46745105,0.4834712,0.38451823\H,0,-0.75201065,0.05772992,-1.49445302\H

 Normal termination of Gaussian 16 at Wed Apr  9 03:15:56 2025.
