 Gaussian 16, Revision C.01,

 ----------------------------------------------------------------------
 #t hf aug-cc-pvdz symm=none int=(grid=ultrafine) guess=(read,tcheck) s
 table=(opt,rrhf)
 ----------------------------------------------------------------------
 -----
 title
 -----
 Symbolic Z-matrix:
 Charge =  0 Multiplicity = 1

 SCF Done:  E(RHF) =  -263.627674119     A.U. after   16 cycles
 Normal termination of Gaussian 16 at Wed Apr  9 16:52:55 2025.
 Gaussian 16:  ES64L-G16RevC.01  3-Jul-2019

 ----------------------------------------------------------------------
 #t hf aug-cc-pvdz iop(5/13=1,5/36=2,99/5=2) pseudo=read geom=check gue
 ss=(read,tcheck) scf=(maxcycle=1)
 ----------------------------------------------------------------------
 -----
 title
 -----
 Structure from the checkpoint file:  "Grambow2020_b97d3_006858_forward_mol1.chk"
 Charge =  0 Multiplicity = 1

                         Standard orientation:
 ---------------------------------------------------------------------
 Center     Atomic      Atomic             Coordinates (Angstroms)
 Number     Number       Type             X           Y           Z
 ---------------------------------------------------------------------
      1          6           0       -2.482954    0.473789    0.189298
      2          6           0       -1.323225   -0.169168   -0.489523
      3          6           0        1.446895    1.289291   -0.044920
      4          7           0        1.844656    0.052779    0.035581
      5          7           0        0.980649   -1.089168    0.171440
      6          6           0       -0.235456   -0.733718   -0.014268
      7          1           0       -2.720150    0.067130    1.183289
      8          1           0       -2.151702    1.515693    0.334668
      9          1           0       -3.384030    0.492762   -0.435176
     10          1           0        2.366508    1.904155   -0.138462
     11          1           0        2.804087   -0.313851    0.049583
     12          1           0       -1.123410   -1.572335   -0.286577
 ---------------------------------------------------------------------

 SCF Done:  E(RHF) =  -264.862097921     A.U. after    2 cycles

 The electronic state is 1-A.
 Alpha  occ. eigenvalues --  -15.81716 -15.75186 -11.49764 -11.45026 -11.41091
 Alpha  occ. eigenvalues --  -11.38074  -1.52282  -1.27367  -1.16067  -1.01077
 Alpha  occ. eigenvalues --   -0.87106  -0.71622  -0.64270  -0.61511  -0.60340
 Alpha  occ. eigenvalues --   -0.58589  -0.54889  -0.54260  -0.42963  -0.40905
 Alpha  occ. eigenvalues --   -0.34503  -0.28945
 Alpha virt. eigenvalues --    0.02985   0.04966   0.05799   0.06093   0.06520
 Alpha virt. eigenvalues --    0.07091   0.09238   0.09494   0.10738   0.11601
 Alpha virt. eigenvalues --    0.12651   0.13074   0.14156   0.15028   0.16709

 Mulliken charges:
               1
     1  C   -3.668900
     2  C   -1.122417
     3  C   -1.283811
     4  N   -1.266603
     5  N   -2.107620
     6  C    2.136535
     7  H    1.326107
     8  H    1.221118
     9  H    1.262481
    10  H    1.457656
    11  H    0.806334
    12  H    1.239120
 Sum of Mulliken charges =  -0.00000

 Dipole moment (field-independent basis, Debye):
    X=             -0.1380    Y=             -0.6596    Z=              0.9498  Tot=              1.1645

 Test job not archived.
 1\1\GINC-SE145\SP\RHF\Aug-CC-pVDZ\C4H6N2\OHZDE\09-Apr-2025\0\\#t hf au
 g-cc-pvdz iop(5/13=1,5/36=2,99/5=2) pseudo=read geom=check guess=(read
 ,tcheck) scf=(maxcycle=1)\\title\\0,1\C,0,-2.16906912,0.07346485,0.192
 53502\C,0,-0.82113753,0.36079043,0.75794213\C,0,1.52020567,-1.39233284
 ,-0.44331207\N,0,2.13408625,-0.24761059,-0.36320198\N,0,1.49726791,1.0
 2014547,-0.12600169\C,0,0.27514774,0.83264007,0.20717634\H,0,-2.463980
 89,0.71725982,-0.64901504\H,0,-2.07044891,-0.95198199,-0.2013654\H,0,-
 2.95696294,0.06511736,0.95504432\H,0,2.30697495,-2.15214967,-0.6334915

 Normal termination of Gaussian 16 at Wed Apr  9 16:52:59 2025.
