 Gaussian 16, Revision C.01,

 ----------------------------------------------------------------------
 #t hf aug-cc-pvdz symm=none int=(grid=ultrafine) guess=(read,tcheck) s
 table=(opt,rrhf)
 ----------------------------------------------------------------------
 -----
 title
 -----
 Symbolic Z-matrix:
 Charge =  0 Multiplicity = 1

 SCF Done:  E(RHF) =  -308.840230847     A.U. after   15 cycles

 1\1\GINC-SE029\Stability\RHF\Aug-CC-pVDZ\C6H12O1\OHZDE\09-Apr-2025\0\\
 #t hf aug-cc-pvdz symm=none int=(grid=ultrafine) guess=(read,tcheck) s
 table=(opt,rrhf)\\title\\0,1\C,0,1.71563351,0.03273143,-1.45691068\C,0
 ,1.07351145,0.16949343,-0.09746067\O,0,0.90128308,1.5498061,0.29512199
 \C,0,-0.52221775,1.47509827,0.13880617\C,0,-0.44428593,-0.02017266,-0.
 08305406\C,0,-0.63045395,-0.62908077,1.92630519\C,0,-1.27244576,-0.831
 58492,-0.90429661\H,0,2.72168313,0.45300116,-1.4250628\H,0,1.78538121,
 -1.01938493,-1.74029365\H,0,1.1395419,0.55698073,-2.21983303\H,0,1.628

 Normal termination of Gaussian 16 at Wed Apr  9 18:05:40 2025.
 Gaussian 16:  ES64L-G16RevC.01  3-Jul-2019

 ----------------------------------------------------------------------
 #t hf aug-cc-pvdz iop(5/13=1,5/36=2,99/5=2) pseudo=read geom=check gue
 ss=(read,tcheck) scf=(maxcycle=1)
 ----------------------------------------------------------------------
 -----
 title
 -----
 Structure from the checkpoint file:  "Grambow2020_wb97xd3_006578_reverse_mol1.chk"
 Charge =  0 Multiplicity = 1

                         Standard orientation:
 ---------------------------------------------------------------------
 Center     Atomic      Atomic             Coordinates (Angstroms)
 Number     Number       Type             X           Y           Z
 ---------------------------------------------------------------------
      1          6           0        2.051128    0.535663   -0.487306
      2          6           0        0.746920   -0.218635   -0.583240
      3          8           0        0.720624   -1.385940    0.268671
      4          6           0       -0.224570   -0.781815    1.161985
      5          6           0       -0.405498    0.388259    0.218946
      6          6           0       -1.988987   -0.397287   -0.929285
      7          6           0       -0.680132    1.744163    0.542639
      8          1           0        2.863193   -0.100516   -0.841714
      9          1           0        2.016570    1.434918   -1.105581
     10          1           0        2.260264    0.832843    0.540661
     11          1           0        0.519003   -0.481119   -1.616943
     12          1           0        0.242924   -0.469176    2.102016
     13          1           0       -1.086509   -1.415934    1.365229
     14          1           0       -1.636615   -1.419930   -1.034453
     15          1           0       -2.051559    0.096796   -1.901628
     16          1           0       -2.949997   -0.370949   -0.407721
     17          1           0       -1.540891    0.840058   -0.207712
     18          1           0       -0.316739    2.531807   -0.100859
     19          1           0       -1.077800    1.986635    1.516898
 ---------------------------------------------------------------------

 SCF Done:  E(RHF) =  -310.370156334     A.U. after    2 cycles

 The electronic state is 1-A.
 Alpha  occ. eigenvalues --  -21.04690 -11.52253 -11.48312 -11.43615 -11.38997
 Alpha  occ. eigenvalues --  -11.36604 -11.35406  -1.78943  -1.24860  -1.12064
 Alpha  occ. eigenvalues --   -1.00001  -0.98032  -0.92515  -0.76261  -0.71046
 Alpha  occ. eigenvalues --   -0.65397  -0.63052  -0.59088  -0.56252  -0.55257
 Alpha  occ. eigenvalues --   -0.54889  -0.52615  -0.49570  -0.48289  -0.42224
 Alpha  occ. eigenvalues --   -0.38793  -0.30639  -0.23368
 Alpha virt. eigenvalues --    0.03662   0.04836   0.05152   0.05233   0.05627
 Alpha virt. eigenvalues --    0.05975   0.06267   0.06574   0.07206   0.08671
 Alpha virt. eigenvalues --    0.09039   0.09717   0.11248   0.12221   0.13111

 Mulliken charges:
               1
     1  C   -3.867984
     2  C    1.678534
     3  O   -3.128190
     4  C   -1.068988
     5  C   -1.670463
     6  C   -4.712044
     7  C   -4.773596
     8  H    1.109505
     9  H    1.263016
    10  H    1.319340
    11  H    1.781134
    12  H    1.444995
    13  H    1.567576
    14  H    1.280655
    15  H    0.856437
    16  H    0.668425
    17  H    3.579438
    18  H    1.275459
    19  H    1.396752
 Sum of Mulliken charges =  -0.00000

 Dipole moment (field-independent basis, Debye):
    X=              0.7718    Y=             -0.5265    Z=              0.0453  Tot=              0.9354

 Test job not archived.
 1\1\GINC-SE029\SP\RHF\Aug-CC-pVDZ\C6H12O1\OHZDE\09-Apr-2025\0\\#t hf a
 ug-cc-pvdz iop(5/13=1,5/36=2,99/5=2) pseudo=read geom=check guess=(rea
 d,tcheck) scf=(maxcycle=1)\\title\\0,1\C,0,1.71563351,0.03273143,-1.45
 691068\C,0,1.07351145,0.16949343,-0.09746067\O,0,0.90128308,1.5498061,
 0.29512199\C,0,-0.52221775,1.47509827,0.13880617\C,0,-0.44428593,-0.02
 017266,-0.08305406\C,0,-0.63045395,-0.62908077,1.92630519\C,0,-1.27244
 576,-0.83158492,-0.90429661\H,0,2.72168313,0.45300116,-1.4250628\H,0,1
 .78538121,-1.01938493,-1.74029365\H,0,1.1395419,0.55698073,-2.21983303

 Normal termination of Gaussian 16 at Wed Apr  9 18:05:48 2025.
