 Gaussian 16, Revision C.01,

 ----------------------------------------------------------------------
 #t hf aug-cc-pvdz symm=none int=(grid=ultrafine) guess=(read,tcheck) s
 table=(opt,rrhf)
 ----------------------------------------------------------------------
 -----
 title
 -----
 Symbolic Z-matrix:
 Charge =  0 Multiplicity = 1

 SCF Done:  E(RHF) =  -344.757136269     A.U. after   15 cycles

 1\1\GINC-SE219\Stability\RHF\Aug-CC-pVDZ\C5H10O2\OHZDE\09-Apr-2025\0\\
 #t hf aug-cc-pvdz symm=none int=(grid=ultrafine) guess=(read,tcheck) s
 table=(opt,rrhf)\\title\\0,1\O,0,0.33904165,-1.17083304,1.31426777\C,0
 ,1.3690434,-0.86928468,0.3966014\C,0,0.77340765,-0.39696421,-0.9395360
 3\C,0,-0.5448261,0.33623063,-0.68335279\C,0,-1.40753826,-0.49649204,0.
 19314469\O,0,-0.61878364,1.01803818,1.50889352\C,0,-0.45135455,1.56315
 926,0.23135831\H,0,0.04303381,-0.22163406,1.65128269\H,0,1.98117173,-1
 .76120914,0.25014786\H,0,2.00720555,-0.08571623,0.81890886\H,0,0.57736

 Normal termination of Gaussian 16 at Wed Apr  9 18:41:50 2025.
 Gaussian 16:  ES64L-G16RevC.01  3-Jul-2019

 ----------------------------------------------------------------------
 #t hf aug-cc-pvdz iop(5/13=1,5/36=2,99/5=2) pseudo=read geom=check gue
 ss=(read,tcheck) scf=(maxcycle=1)
 ----------------------------------------------------------------------
 -----
 title
 -----
 Structure from the checkpoint file:  "Grambow2020_wb97xd3_007543_reverse_mol1.chk"
 Charge =  0 Multiplicity = 1

                         Standard orientation:
 ---------------------------------------------------------------------
 Center     Atomic      Atomic             Coordinates (Angstroms)
 Number     Number       Type             X           Y           Z
 ---------------------------------------------------------------------
      1          8           0       -1.007361   -1.217739    0.240930
      2          6           0       -1.582245   -0.171697   -0.513556
      3          6           0       -0.984819    1.181124   -0.093925
      4          6           0        0.466998    0.986297    0.347906
      5          6           0        0.536310   -0.125583    1.330183
      6          8           0        1.259463   -0.993447   -0.505844
      7          6           0        1.403111    0.383677   -0.706290
      8          1           0       -0.076547   -1.355503   -0.224673
      9          1           0       -2.662703   -0.179110   -0.357882
     10          1           0       -1.391736   -0.350400   -1.577203
     11          1           0       -1.553164    1.600458    0.741856
     12          1           0       -1.041604    1.901870   -0.912029
     13          1           0        0.811218    1.914910    0.827000
     14          1           0       -0.236666   -0.248840    2.078571
     15          1           0        1.504098   -0.521092    1.601102
     16          1           0        2.438289    0.703675   -0.513318
     17          1           0        1.155873    0.700613   -1.730025
 ---------------------------------------------------------------------

 SCF Done:  E(RHF) =  -346.359932132     A.U. after    2 cycles

 The electronic state is 1-A.
 Alpha  occ. eigenvalues --  -21.02495 -20.94638 -11.53764 -11.46529 -11.43577
 Alpha  occ. eigenvalues --  -11.39696 -11.37723  -1.72291  -1.59994  -1.25101
 Alpha  occ. eigenvalues --   -1.07953  -0.96510  -0.89974  -0.80228  -0.70007
 Alpha  occ. eigenvalues --   -0.69616  -0.66433  -0.58425  -0.56876  -0.55969
 Alpha  occ. eigenvalues --   -0.52503  -0.47828  -0.45651  -0.41785  -0.37464
 Alpha  occ. eigenvalues --   -0.34320  -0.23633  -0.21032
 Alpha virt. eigenvalues --    0.02834   0.04038   0.04610   0.04759   0.05225
 Alpha virt. eigenvalues --    0.05472   0.06668   0.07238   0.07739   0.08872
 Alpha virt. eigenvalues --    0.09880   0.11699   0.13477   0.13627   0.13928

 Mulliken charges:
               1
     1  O   -2.674822
     2  C   -1.038274
     3  C   -3.246255
     4  C   -2.156899
     5  C   -1.896375
     6  O   -2.675338
     7  C   -0.814078
     8  H    1.951145
     9  H    1.177446
    10  H    1.419441
    11  H    1.231506
    12  H    1.386822
    13  H    1.678701
    14  H    1.542190
    15  H    1.344412
    16  H    1.239221
    17  H    1.531157
 Sum of Mulliken charges =  -0.00000

 Dipole moment (field-independent basis, Debye):
    X=             -1.2677    Y=              1.8870    Z=              2.3120  Tot=              3.2424

 Test job not archived.
 1\1\GINC-SE219\SP\RHF\Aug-CC-pVDZ\C5H10O2\OHZDE\09-Apr-2025\0\\#t hf a
 ug-cc-pvdz iop(5/13=1,5/36=2,99/5=2) pseudo=read geom=check guess=(rea
 d,tcheck) scf=(maxcycle=1)\\title\\0,1\O,0,0.33904165,-1.17083304,1.31
 426777\C,0,1.3690434,-0.86928468,0.3966014\C,0,0.77340765,-0.39696421,
 -0.93953603\C,0,-0.5448261,0.33623063,-0.68335279\C,0,-1.40753826,-0.4
 9649204,0.19314469\O,0,-0.61878364,1.01803818,1.50889352\C,0,-0.451354
 55,1.56315926,0.23135831\H,0,0.04303381,-0.22163406,1.65128269\H,0,1.9
 8117173,-1.76120914,0.25014786\H,0,2.00720555,-0.08571623,0.81890886\H

 Normal termination of Gaussian 16 at Wed Apr  9 18:41:56 2025.
