 Gaussian 16, Revision C.01,

 ----------------------------------------------------------------------
 #t hf aug-cc-pvdz symm=none int=(grid=ultrafine) guess=(read,tcheck) s
 table=(opt,rrhf)
 ----------------------------------------------------------------------
 -----
 title
 -----
 Symbolic Z-matrix:
 Charge =  0 Multiplicity = 1

 SCF Done:  E(RHF) =  -337.488220298     A.U. after   16 cycles
 Normal termination of Gaussian 16 at Wed Apr  9 04:04:31 2025.
 Gaussian 16:  ES64L-G16RevC.01  3-Jul-2019

 ----------------------------------------------------------------------
 #t hf aug-cc-pvdz iop(5/13=1,5/36=2,99/5=2) pseudo=read geom=check gue
 ss=(read,tcheck) scf=(maxcycle=1)
 ----------------------------------------------------------------------
 -----
 title
 -----
 Structure from the checkpoint file:  "Grambow2020_wb97xd3_009178_forward_mol1.chk"
 Charge =  0 Multiplicity = 1

                         Standard orientation:
 ---------------------------------------------------------------------
 Center     Atomic      Atomic             Coordinates (Angstroms)
 Number     Number       Type             X           Y           Z
 ---------------------------------------------------------------------
      1          8           0        2.405581    0.095485   -0.014248
      2          6           0        1.303093   -0.246201   -0.002058
      3          6           0        0.365005   -1.226837    0.010101
      4          6           0       -1.058999   -1.232305    0.005358
      5          7           0       -1.879467   -0.246212   -0.019246
      6          6           0       -0.960617    1.604326    0.002483
      7          7           0        0.195491    1.485398    0.017853
      8          1           0        0.842453   -2.199257    0.025353
      9          1           0       -1.461545   -2.247475    0.024546
     10          1           0       -2.848820   -0.538947   -0.013472
     11          1           0       -1.879796    2.153594   -0.007997
 ---------------------------------------------------------------------

 SCF Done:  E(RHF) =  -339.021776042     A.U. after    2 cycles

 The electronic state is 1-A.
 Alpha  occ. eigenvalues --  -21.11355 -15.74230 -15.74189 -11.56990 -11.48859
 Alpha  occ. eigenvalues --  -11.47113 -11.40217  -1.76713  -1.38238  -1.30411
 Alpha  occ. eigenvalues --   -1.13896  -0.90054  -0.83937  -0.72913  -0.68376
 Alpha  occ. eigenvalues --   -0.63467  -0.57437  -0.56369  -0.54998  -0.51761
 Alpha  occ. eigenvalues --   -0.47864  -0.44855  -0.41936  -0.33138  -0.27985
 Alpha virt. eigenvalues --    0.02997   0.04398   0.04996   0.06613   0.09949
 Alpha virt. eigenvalues --    0.10316   0.10931   0.11176   0.11210   0.12921
 Alpha virt. eigenvalues --    0.13439   0.13656   0.14386   0.14512   0.15350

 Mulliken charges:
               1
     1  O   -2.902825
     2  C    2.703353
     3  C    0.232132
     4  C   -0.227276
     5  N   -2.901976
     6  C    0.871134
     7  N   -2.560349
     8  H    1.136314
     9  H    1.490134
    10  H    0.674778
    11  H    1.484582
 Sum of Mulliken charges =  -0.00000

 Dipole moment (field-independent basis, Debye):
    X=             -2.2331    Y=             -0.5886    Z=             -0.0055  Tot=              2.3093

 Test job not archived.
 1\1\GINC-SE094\SP\RHF\Aug-CC-pVDZ\C4H4N2O1\OHZDE\09-Apr-2025\0\\#t hf
 aug-cc-pvdz iop(5/13=1,5/36=2,99/5=2) pseudo=read geom=check guess=(re
 ad,tcheck) scf=(maxcycle=1)\\title\\0,1\O,0,2.48675003,-1.32318939,-0.
 01766136\C,0,1.59429619,-0.59113569,-0.01703378\C,0,1.09480371,0.67063
 614,-0.03267785\C,0,-0.22162492,1.21279038,-0.0022938\N,0,-1.35227815,
 0.60932148,0.05771195\C,0,-1.19917727,-1.45121461,0.05797483\N,0,-0.08
 421032,-1.77727045,0.01921929\H,0,1.90290492,1.39092241,-0.07684536\H,
 0,-0.21237552,2.30448733,-0.03537044\H,0,-2.13973588,1.24591406,0.0633

 Normal termination of Gaussian 16 at Wed Apr  9 04:04:35 2025.
