 Gaussian 16, Revision C.01,

 ----------------------------------------------------------------------
 #t hf aug-cc-pvdz symm=none int=(grid=ultrafine) guess=(read,tcheck) s
 table=(opt,rrhf)
 ----------------------------------------------------------------------
 -----
 title
 -----
 Symbolic Z-matrix:
 Charge =  0 Multiplicity = 1

 SCF Done:  E(RHF) =  -357.332261918     A.U. after   15 cycles
 Normal termination of Gaussian 16 at Wed Apr  9 19:19:43 2025.
 Gaussian 16:  ES64L-G16RevC.01  3-Jul-2019

 ----------------------------------------------------------------------
 #t hf aug-cc-pvdz iop(5/13=1,5/36=2,99/5=2) pseudo=read geom=check gue
 ss=(read,tcheck) scf=(maxcycle=1)
 ----------------------------------------------------------------------
 -----
 title
 -----
 Structure from the checkpoint file:  "Grambow2020_wb97xd3_008631_reverse_mol2.chk"
 Charge =  0 Multiplicity = 1

                         Standard orientation:
 ---------------------------------------------------------------------
 Center     Atomic      Atomic             Coordinates (Angstroms)
 Number     Number       Type             X           Y           Z
 ---------------------------------------------------------------------
      1          7           0       -2.315945   -0.512663   -0.001314
      2          6           0       -1.156952   -0.062398   -0.000041
      3          6           0       -0.616513    1.306958   -0.000590
      4          6           0        0.739598    1.347017    0.001354
      5          6           0        0.995773   -0.072561    0.000965
      6          8           0        2.165296   -0.613448   -0.001783
      7          8           0       -0.002750   -0.920189    0.002124
      8          1           0       -2.344621   -1.529164    0.000125
      9          1           0       -1.305935    2.142128   -0.001523
     10          1           0        2.790365    0.130672   -0.002261
 ---------------------------------------------------------------------

 SCF Done:  E(RHF) =  -358.861167681     A.U. after    2 cycles

 The electronic state is 1-A.
 Alpha  occ. eigenvalues --  -21.19215 -21.15783 -15.77666 -11.56825 -11.52143
 Alpha  occ. eigenvalues --  -11.42408 -11.35937  -1.95373  -1.80006  -1.36015
 Alpha  occ. eigenvalues --   -1.21602  -0.98224  -0.84533  -0.80206  -0.69025
 Alpha  occ. eigenvalues --   -0.65579  -0.65533  -0.62800  -0.51998  -0.51745
 Alpha  occ. eigenvalues --   -0.46796  -0.41229  -0.39213  -0.35943  -0.33377
 Alpha virt. eigenvalues --    0.03389   0.04937   0.05389   0.05656   0.09696
 Alpha virt. eigenvalues --    0.10308   0.10751   0.11338   0.12398   0.13041
 Alpha virt. eigenvalues --    0.13258   0.14291   0.14544   0.15399   0.16304

 Mulliken charges:
               1
     1  N   -3.595019
     2  C    4.643889
     3  C    0.523460
     4  C   -3.664467
     5  C    5.462698
     6  O   -3.174379
     7  O   -3.452354
     8  H    0.894828
     9  H    1.487434
    10  H    0.873910
 Sum of Mulliken charges =  -0.00000

 Dipole moment (field-independent basis, Debye):
    X=              0.9182    Y=             -3.9906    Z=             -0.0010  Tot=              4.0949

 Test job not archived.
 1\1\GINC-SE212\SP\RHF\Aug-CC-pVDZ\C4H3N1O2\OHZDE\09-Apr-2025\0\\#t hf
 aug-cc-pvdz iop(5/13=1,5/36=2,99/5=2) pseudo=read geom=check guess=(re
 ad,tcheck) scf=(maxcycle=1)\\title\\0,1\N,0,2.29644643,-0.08943625,0.0
 7705183\C,0,1.05482774,-0.14678531,0.04386911\C,0,0.10414057,-1.269433
 82,0.09920933\C,0,-1.19257614,-0.87641023,0.03062523\C,0,-0.97989899,0
 .54666234,-0.07165398\O,0,-1.91355131,1.42915362,-0.17092287\O,0,0.237
 14095,1.03073922,-0.06934598\H,0,2.64948564,0.8623253,0.01694535\H,0,0
 .48904082,-2.2778571,0.18722556\H,0,-2.7438797,0.92434123,-0.15887059\

 Normal termination of Gaussian 16 at Wed Apr  9 19:19:47 2025.
