 Gaussian 16, Revision C.01,

 ----------------------------------------------------------------------
 #t hf aug-cc-pvdz symm=none int=(grid=ultrafine) guess=(read,tcheck) s
 table=(opt,rrhf)
 ----------------------------------------------------------------------
 -----
 title
 -----
 Symbolic Z-matrix:
 Charge =  0 Multiplicity = 1

 SCF Done:  E(RHF) =  -343.575878766     A.U. after   15 cycles
 Normal termination of Gaussian 16 at Wed Apr  9 03:28:23 2025.
 Gaussian 16:  ES64L-G16RevC.01  3-Jul-2019

 ----------------------------------------------------------------------
 #t hf aug-cc-pvdz iop(5/13=1,5/36=2,99/5=2) pseudo=read geom=check gue
 ss=(read,tcheck) scf=(maxcycle=1)
 ----------------------------------------------------------------------
 -----
 title
 -----
 Structure from the checkpoint file:  "Grambow2020_wb97xd3_006721_forward_mol1.chk"
 Charge =  0 Multiplicity = 1

                         Standard orientation:
 ---------------------------------------------------------------------
 Center     Atomic      Atomic             Coordinates (Angstroms)
 Number     Number       Type             X           Y           Z
 ---------------------------------------------------------------------
      1          8           0        2.494951    0.231702   -0.205555
      2          6           0        1.427134   -0.680125   -0.090907
      3          6           0        0.251735   -0.045721    0.622012
      4          8           0       -0.255196    1.118821   -0.077505
      5          6           0       -1.594787    0.702321   -0.042109
      6          6           0       -1.665481   -0.664931   -0.647597
      7          6           0       -1.039229   -0.893321    0.707927
      8          1           0        2.167178    1.009933   -0.663779
      9          1           0        1.125458   -1.056496   -1.075268
     10          1           0        1.788777   -1.525744    0.496715
     11          1           0        0.576101    0.288376    1.611495
     12          1           0       -2.356296    1.459264   -0.213000
     13          1           0       -1.054245   -0.756140   -1.539980
     14          1           0       -2.655327   -1.097283   -0.757996
     15          1           0       -1.785928    0.364562    1.110322
 ---------------------------------------------------------------------

 SCF Done:  E(RHF) =  -345.134300277     A.U. after    2 cycles

 The electronic state is 1-A.
 Alpha  occ. eigenvalues --  -21.07272 -21.06615 -11.50021 -11.48144 -11.43101
 Alpha  occ. eigenvalues --  -11.42346 -11.39153  -1.82021  -1.71089  -1.26124
 Alpha  occ. eigenvalues --   -1.10536  -0.93287  -0.90106  -0.78568  -0.69446
 Alpha  occ. eigenvalues --   -0.66560  -0.63011  -0.60545  -0.55177  -0.52548
 Alpha  occ. eigenvalues --   -0.51205  -0.49907  -0.43849  -0.40639  -0.34257
 Alpha  occ. eigenvalues --   -0.32535  -0.27452
 Alpha virt. eigenvalues --    0.03900   0.04618   0.05242   0.05957   0.06157
 Alpha virt. eigenvalues --    0.06576   0.06671   0.08263   0.09315   0.10677
 Alpha virt. eigenvalues --    0.10993   0.12910   0.13581   0.14165   0.14641

 Mulliken charges:
               1
     1  O   -2.744200
     2  C   -0.841026
     3  C    0.469389
     4  O   -3.226548
     5  C    0.415956
     6  C   -3.417130
     7  C   -0.708470
     8  H    0.803445
     9  H    1.278398
    10  H    1.391320
    11  H    1.566180
    12  H    1.270628
    13  H    1.424520
    14  H    1.245357
    15  H    1.072179
 Sum of Mulliken charges =  -0.00000

 Dipole moment (field-independent basis, Debye):
    X=             -0.7650    Y=              1.4876    Z=             -1.6997  Tot=              2.3848

 Test job not archived.
 1\1\GINC-SE070\SP\RHF\Aug-CC-pVDZ\C5H8O2\OHZDE\09-Apr-2025\0\\#t hf au
 g-cc-pvdz iop(5/13=1,5/36=2,99/5=2) pseudo=read geom=check guess=(read
 ,tcheck) scf=(maxcycle=1)\\title\\0,1\O,0,2.46106487,0.76720693,0.7812
 1582\C,0,1.67269504,0.17700353,-0.22622616\C,0,0.46970708,-0.52140235,
 0.37154673\O,0,-0.38799832,0.38794835,1.10631371\C,0,-1.56942358,-0.02
 991612,0.47476663\C,0,-1.37131737,0.10514999,-1.00290104\C,0,-0.552540
 17,-1.10824236,-0.62996532\H,0,1.89955025,1.36839609,1.27752378\H,0,1.
 35924569,0.92260721,-0.96612871\H,0,2.29870309,-0.55888287,-0.73391054

 Normal termination of Gaussian 16 at Wed Apr  9 03:28:28 2025.
