 Gaussian 16, Revision C.01,

 ----------------------------------------------------------------------
 #t hf aug-cc-pvdz symm=none int=(grid=ultrafine) guess=(read,tcheck) s
 table=(opt,rrhf)
 ----------------------------------------------------------------------
 -----
 title
 -----
 Symbolic Z-matrix:
 Charge =  0 Multiplicity = 1

 SCF Done:  E(RHF) =  -357.326970785     A.U. after   16 cycles
 Normal termination of Gaussian 16 at Wed Apr  9 19:19:45 2025.
 Gaussian 16:  ES64L-G16RevC.01  3-Jul-2019

 ----------------------------------------------------------------------
 #t hf aug-cc-pvdz iop(5/13=1,5/36=2,99/5=2) pseudo=read geom=check gue
 ss=(read,tcheck) scf=(maxcycle=1)
 ----------------------------------------------------------------------
 -----
 title
 -----
 Structure from the checkpoint file:  "Grambow2020_wb97xd3_008637_forward_mol1.chk"
 Charge =  0 Multiplicity = 1

                         Standard orientation:
 ---------------------------------------------------------------------
 Center     Atomic      Atomic             Coordinates (Angstroms)
 Number     Number       Type             X           Y           Z
 ---------------------------------------------------------------------
      1          7           0       -2.133274    0.111762    0.534352
      2          6           0       -1.155101   -0.362377   -0.219687
      3          6           0       -0.626869    0.987469   -0.385720
      4          6           0        0.712032    1.209038   -0.036918
      5          6           0        1.552327    0.160892    0.104579
      6          8           0        2.373777   -0.612809    0.236582
      7          8           0       -0.572235   -1.421422   -0.391744
      8          1           0       -2.285236   -0.456674    1.368616
      9          1           0       -1.250185    1.793968   -0.736474
     10          1           0        1.161673    2.184090    0.095171
 ---------------------------------------------------------------------

 SCF Done:  E(RHF) =  -358.856648645     A.U. after    2 cycles

 The electronic state is 1-A.
 Alpha  occ. eigenvalues --  -21.20603 -21.02091 -15.73794 -11.62217 -11.53105
 Alpha  occ. eigenvalues --  -11.48514 -11.45643  -1.84026  -1.69838  -1.35940
 Alpha  occ. eigenvalues --   -1.22713  -1.00216  -0.82399  -0.72940  -0.71809
 Alpha  occ. eigenvalues --   -0.63276  -0.61961  -0.58237  -0.56185  -0.53773
 Alpha  occ. eigenvalues --   -0.51383  -0.41910  -0.36228  -0.29032  -0.27450
 Alpha virt. eigenvalues --    0.02264   0.04738   0.05857   0.06908   0.08017
 Alpha virt. eigenvalues --    0.10122   0.10597   0.11173   0.11543   0.12033
 Alpha virt. eigenvalues --    0.12078   0.13186   0.14000   0.14890   0.15367

 Mulliken charges:
               1
     1  N   -2.384786
     2  C    4.708766
     3  C   -1.780245
     4  C   -0.101858
     5  C    1.385011
     6  O   -2.394361
     7  O   -2.806589
     8  H    0.577248
     9  H    1.397940
    10  H    1.398873
 Sum of Mulliken charges =   0.00000

 Dipole moment (field-independent basis, Debye):
    X=              4.0274    Y=              1.6047    Z=              0.3497  Tot=              4.3495

 Test job not archived.
 1\1\GINC-SE097\SP\RHF\Aug-CC-pVDZ\C4H3N1O2\OHZDE\09-Apr-2025\0\\#t hf
 aug-cc-pvdz iop(5/13=1,5/36=2,99/5=2) pseudo=read geom=check guess=(re
 ad,tcheck) scf=(maxcycle=1)\\title\\0,1\N,0,1.90077785,-0.47263726,0.3
 2365115\C,0,1.09911989,0.2437523,-0.44728134\C,0,0.07613676,-0.7918056
 6,-0.34826083\C,0,-1.19349789,-0.41007327,0.10530459\C,0,-1.54218632,0
 .89496813,0.10818442\O,0,-1.98045398,1.9424099,0.14825296\O,0,0.953242
 89,1.41270036,-0.76851639\H,0,2.35726099,0.09690174,1.03741387\H,0,0.2
 9460951,-1.82001854,-0.58708855\H,0,-1.96500871,-1.0961997,0.42834013\

 Normal termination of Gaussian 16 at Wed Apr  9 19:19:48 2025.
