 Gaussian 16, Revision C.01,

 ----------------------------------------------------------------------
 #t hf aug-cc-pvdz symm=none int=(grid=ultrafine) guess=(read,tcheck) s
 table=(opt,rrhf)
 ----------------------------------------------------------------------
 -----
 title
 -----
 Symbolic Z-matrix:
 Charge =  0 Multiplicity = 1

 SCF Done:  E(RHF) =  -283.666162358     A.U. after   14 cycles
 Normal termination of Gaussian 16 at Wed Apr  9 16:06:41 2025.
 Gaussian 16:  ES64L-G16RevC.01  3-Jul-2019

 ----------------------------------------------------------------------
 #t hf aug-cc-pvdz iop(5/13=1,5/36=2,99/5=2) pseudo=read geom=check gue
 ss=(read,tcheck) scf=(maxcycle=1)
 ----------------------------------------------------------------------
 -----
 title
 -----
 Structure from the checkpoint file:  "Grambow2020_b97d3_006722_forward_mol2.chk"
 Charge =  0 Multiplicity = 1

                         Standard orientation:
 ---------------------------------------------------------------------
 Center     Atomic      Atomic             Coordinates (Angstroms)
 Number     Number       Type             X           Y           Z
 ---------------------------------------------------------------------
      1          6           0        1.413787    0.004472    0.611745
      2          6           0        0.605995   -0.750099   -0.402778
      3          8           0       -0.727342   -1.112754   -0.017315
      4          6           0       -1.365277    0.086479    0.195179
      5          7           0       -0.726459    1.176361   -0.021374
      6          6           0        0.607718    0.775055   -0.417554
      7          1           0        1.082669    0.022388    1.649937
      8          1           0        2.493760   -0.012498    0.466007
      9          1           0        1.035143   -1.429044   -1.135688
     10          1           0       -2.389453   -0.006569    0.545364
     11          1           0        1.108498    1.397782   -1.157031
 ---------------------------------------------------------------------

 SCF Done:  E(RHF) =  -284.943393744     A.U. after    2 cycles

 The electronic state is 1-A.
 Alpha  occ. eigenvalues --  -21.09510 -15.73258 -11.46605 -11.45890 -11.44235
 Alpha  occ. eigenvalues --  -11.38433  -1.82583  -1.38025  -1.22536  -0.92303
 Alpha  occ. eigenvalues --   -0.85249  -0.80005  -0.73588  -0.63759  -0.57649
 Alpha  occ. eigenvalues --   -0.55108  -0.52967  -0.48872  -0.47064  -0.38570
 Alpha  occ. eigenvalues --   -0.36073  -0.28857
 Alpha virt. eigenvalues --    0.03669   0.05309   0.05612   0.05796   0.06228
 Alpha virt. eigenvalues --    0.09995   0.10588   0.10607   0.10813   0.12655
 Alpha virt. eigenvalues --    0.13616   0.14241   0.15298   0.15563   0.16164

 Mulliken charges:
               1
     1  C   -2.989156
     2  C    1.029800
     3  O   -3.282753
     4  C    1.451258
     5  N   -3.003146
     6  C    0.151344
     7  H    1.181086
     8  H    1.294344
     9  H    1.291822
    10  H    1.635368
    11  H    1.240035
 Sum of Mulliken charges =  -0.00000

 Dipole moment (field-independent basis, Debye):
    X=              0.8406    Y=             -1.5372    Z=             -0.2222  Tot=              1.7660

 Test job not archived.
 1\1\GINC-SE131\SP\RHF\Aug-CC-pVDZ\C4H5N1O1\OHZDE\09-Apr-2025\0\\#t hf
 aug-cc-pvdz iop(5/13=1,5/36=2,99/5=2) pseudo=read geom=check guess=(re
 ad,tcheck) scf=(maxcycle=1)\\title\\0,1\C,0,-1.20726053,0.38973671,-0.
 06247251\C,0,-0.24351102,-0.56581684,-0.70221217\O,0,1.0124902,-0.0185
 8542,-1.12751938\C,0,1.60220289,0.43559265,0.02843768\N,0,1.00106544,0
 .25219599,1.1454989\C,0,-0.25030668,-0.39741468,0.81367483\H,0,-1.0470
 5193,1.46204407,-0.17334919\H,0,-2.24977617,0.0722964,-0.04630667\H,0,
 -0.54621241,-1.4340551,-1.28257837\H,0,2.55738883,0.93122397,-0.120536

 Normal termination of Gaussian 16 at Wed Apr  9 16:06:44 2025.
