 Gaussian 16, Revision C.01,

 ----------------------------------------------------------------------
 #t hf aug-cc-pvdz symm=none int=(grid=ultrafine) guess=(read,tcheck) s
 table=(opt,rrhf)
 ----------------------------------------------------------------------
 -----
 title
 -----
 Symbolic Z-matrix:
 Charge =  0 Multiplicity = 1

 SCF Done:  E(RHF) =  -394.411462231     A.U. after   14 cycles
 Normal termination of Gaussian 16 at Wed Apr  9 04:05:00 2025.
 Gaussian 16:  ES64L-G16RevC.01  3-Jul-2019

 ----------------------------------------------------------------------
 #t hf aug-cc-pvdz iop(5/13=1,5/36=2,99/5=2) pseudo=read geom=check gue
 ss=(read,tcheck) scf=(maxcycle=1)
 ----------------------------------------------------------------------
 -----
 title
 -----
 Structure from the checkpoint file:  "Grambow2020_wb97xd3_009238_forward_mol2.chk"
 Charge =  0 Multiplicity = 1

                         Standard orientation:
 ---------------------------------------------------------------------
 Center     Atomic      Atomic             Coordinates (Angstroms)
 Number     Number       Type             X           Y           Z
 ---------------------------------------------------------------------
      1          6           0        2.377635   -0.436391    0.000314
      2          6           0        0.973120    0.015288   -0.000339
      3          7           0        0.562388    1.220329   -0.000151
      4          8           0       -0.836758    1.119714    0.000093
      5          6           0       -1.188826   -0.179309   -0.000028
      6          8           0       -2.279490   -0.629123    0.000365
      7          8           0       -0.019611   -0.900966   -0.000576
      8          1           0        2.571044   -1.054014   -0.877272
      9          1           0        3.031953    0.431848   -0.010641
     10          1           0        2.575581   -1.034667    0.890230
 ---------------------------------------------------------------------

 SCF Done:  E(RHF) =  -396.052573772     A.U. after    2 cycles

 The electronic state is 1-A.
 Alpha  occ. eigenvalues --  -21.16609 -21.14884 -21.08044 -15.81174 -11.57675
 Alpha  occ. eigenvalues --  -11.52697 -11.43374  -2.02982  -1.78791  -1.73015
 Alpha  occ. eigenvalues --   -1.31945  -1.12495  -0.87334  -0.85198  -0.71528
 Alpha  occ. eigenvalues --   -0.69223  -0.61816  -0.61690  -0.58317  -0.53726
 Alpha  occ. eigenvalues --   -0.50522  -0.48951  -0.45556  -0.43595  -0.33021
 Alpha  occ. eigenvalues --   -0.29924
 Alpha virt. eigenvalues --    0.02421   0.05243   0.05479   0.07115   0.09950
 Alpha virt. eigenvalues --    0.11063   0.11147   0.11969   0.13248   0.13368
 Alpha virt. eigenvalues --    0.13707   0.14132   0.14488   0.16493   0.17886

 Mulliken charges:
               1
     1  C   -3.990422
     2  C    4.012822
     3  N   -1.135589
     4  O   -2.620251
     5  C    6.805311
     6  O   -3.338095
     7  O   -3.368124
     8  H    1.194010
     9  H    1.246693
    10  H    1.193646
 Sum of Mulliken charges =   0.00000

 Dipole moment (field-independent basis, Debye):
    X=              3.3264    Y=             -1.0572    Z=              0.0003  Tot=              3.4903

 Test job not archived.
 1\1\GINC-SE054\SP\RHF\Aug-CC-pVDZ\C3H3N1O3\OHZDE\09-Apr-2025\0\\#t hf
 aug-cc-pvdz iop(5/13=1,5/36=2,99/5=2) pseudo=read geom=check guess=(re
 ad,tcheck) scf=(maxcycle=1)\\title\\0,1\C,0,-1.59232647,0.23426674,0.0
 2910004\C,0,-0.19341448,-0.16344019,0.27719738\N,0,0.22593822,-1.33221
 374,0.55815217\O,0,1.61410843,-1.18813492,0.69942356\C,0,1.95120393,0.
 09755999,0.48783935\O,0,3.02972099,0.57422807,0.52615538\O,0,0.7834638
 7,0.76750182,0.21322597\H,0,-1.68599303,0.66590234,-0.96786553\H,0,-2.
 23233605,-0.64075137,0.11168881\H,0,-1.90036541,0.98508126,0.75742594\

 Normal termination of Gaussian 16 at Wed Apr  9 04:05:03 2025.
