 Gaussian 16, Revision C.01,

 ----------------------------------------------------------------------
 #t hf aug-cc-pvdz symm=none int=(grid=ultrafine) guess=(read,tcheck) s
 table=(opt,rrhf)
 ----------------------------------------------------------------------
 -----
 title
 -----
 Symbolic Z-matrix:
 Charge =  0 Multiplicity = 1

 SCF Done:  E(RHF) =  -195.058676775     A.U. after   14 cycles
 Normal termination of Gaussian 16 at Wed Apr  9 03:07:51 2025.
 Gaussian 16:  ES64L-G16RevC.01  3-Jul-2019

 ----------------------------------------------------------------------
 #t hf aug-cc-pvdz iop(5/13=1,5/36=2,99/5=2) pseudo=read geom=check gue
 ss=(read,tcheck) scf=(maxcycle=1)
 ----------------------------------------------------------------------
 -----
 title
 -----
 Structure from the checkpoint file:  "Grambow2020_b97d3_006577_reverse_mol2.chk"
 Charge =  0 Multiplicity = 1

                         Standard orientation:
 ---------------------------------------------------------------------
 Center     Atomic      Atomic             Coordinates (Angstroms)
 Number     Number       Type             X           Y           Z
 ---------------------------------------------------------------------
      1          6           0       -1.840795   -0.751329    0.014597
      2          6           0       -1.274294    0.573511   -0.358471
      3          6           0       -0.116758    0.921556    0.490073
      4          6           0        0.973262    0.348503   -0.511767
      5          6           0        1.891574   -0.676575    0.158891
      6          1           0       -1.237741   -1.431486    0.653860
      7          1           0       -2.290659   -1.300298   -0.825086
      8          1           0       -2.698015   -0.420293    0.641787
      9          1           0        0.488168   -0.116000   -1.390658
     10          1           0        0.038323    1.999241    0.629700
     11          1           0       -0.011481    0.399304    1.463204
     12          1           0        1.536192    1.196173   -0.920565
     13          1           0        2.433206   -0.227569    1.002847
     14          1           0        1.315164   -1.529446    0.544346
     15          1           0        2.628914   -1.063620   -0.559369
 ---------------------------------------------------------------------

 SCF Done:  E(RHF) =  -196.061113024     A.U. after    2 cycles

 The electronic state is 1-A.
 Alpha  occ. eigenvalues --  -11.44027 -11.40686 -11.38684 -11.37456 -11.35772
 Alpha  occ. eigenvalues --   -1.26696  -1.10794  -0.99512  -0.85539  -0.74870
 Alpha  occ. eigenvalues --   -0.63932  -0.59878  -0.58100  -0.56784  -0.54700
 Alpha  occ. eigenvalues --   -0.49602  -0.48237  -0.46415  -0.42466  -0.31057
 Alpha virt. eigenvalues --    0.03909   0.05222   0.05650   0.05891   0.05985
 Alpha virt. eigenvalues --    0.06270   0.06421   0.06677   0.08435   0.09078
 Alpha virt. eigenvalues --    0.10308   0.11642   0.13193   0.13664   0.15036

 Mulliken charges:
               1
     1  C   -3.616526
     2  C   -0.896216
     3  C   -2.724063
     4  C   -2.662451
     5  C   -3.662495
     6  H    1.477002
     7  H    1.342215
     8  H    1.252714
     9  H    1.675633
    10  H    1.280466
    11  H    1.504545
    12  H    1.284768
    13  H    1.272267
    14  H    1.312471
    15  H    1.159670
 Sum of Mulliken charges =   0.00000

 Dipole moment (field-independent basis, Debye):
    X=              1.2572    Y=             -1.0264    Z=              1.1773  Tot=              2.0050

 Test job not archived.
 1\1\GINC-SE106\SP\RHF\Aug-CC-pVDZ\C5H10\OHZDE\09-Apr-2025\0\\#t hf aug
 -cc-pvdz iop(5/13=1,5/36=2,99/5=2) pseudo=read geom=check guess=(read,
 tcheck) scf=(maxcycle=1)\\title\\0,1\C,0,1.85060093,-0.87223426,-0.100
 33264\C,0,1.4654587,0.43934462,0.48850516\C,0,0.35158148,1.05775921,-0
 .2584172\C,0,-0.79007318,0.47808658,0.68010384\C,0,-1.84223608,-0.3066
 5338,-0.10793159\H,0,1.15610118,-1.36357304,-0.81531586\H,0,2.23669058
 ,-1.59704199,0.63069436\H,0,2.73506809,-0.55850781,-0.69788717\H,0,-0.
 35759394,-0.1744776,1.46154599\H,0,0.33553832,2.154902,-0.22724444\H,0

 Normal termination of Gaussian 16 at Wed Apr  9 03:07:55 2025.
