 Gaussian 16, Revision C.01,

 ----------------------------------------------------------------------
 #t hf aug-cc-pvdz symm=none int=(grid=ultrafine) guess=(read,tcheck) s
 table=(opt,rrhf)
 ----------------------------------------------------------------------
 -----
 title
 -----
 Symbolic Z-matrix:
 Charge =  0 Multiplicity = 1

 SCF Done:  E(RHF) =  -359.797773434     A.U. after   14 cycles
 Normal termination of Gaussian 16 at Wed Apr  9 04:05:43 2025.
 Gaussian 16:  ES64L-G16RevC.01  3-Jul-2019

 ----------------------------------------------------------------------
 #t hf aug-cc-pvdz iop(5/13=1,5/36=2,99/5=2) pseudo=read geom=check gue
 ss=(read,tcheck) scf=(maxcycle=1)
 ----------------------------------------------------------------------
 -----
 title
 -----
 Structure from the checkpoint file:  "Grambow2020_wb97xd3_009262_reverse_mol2.chk"
 Charge =  0 Multiplicity = 1

                         Standard orientation:
 ---------------------------------------------------------------------
 Center     Atomic      Atomic             Coordinates (Angstroms)
 Number     Number       Type             X           Y           Z
 ---------------------------------------------------------------------
      1          6           0        2.687053   -0.055291   -0.002476
      2          6           0        1.310216   -0.692358    0.003613
      3          6           0        0.191637    0.304180    0.001311
      4          8           0        0.338943    1.500264   -0.000112
      5          6           0       -1.238893   -0.288107   -0.000527
      6          8           0       -1.428058   -1.484676   -0.001819
      7          7           0       -2.191452    0.659185    0.000176
      8          1           0        2.826043    0.571075   -0.884190
      9          1           0        2.830808    0.578786    0.872915
     10          1           0        3.461139   -0.823059   -0.001348
     11          1           0        1.153659   -1.352372   -0.855329
     12          1           0        1.158364   -1.343620    0.870213
     13          1           0       -1.917979    1.626337    0.000612
     14          1           0       -3.159025    0.393313   -0.000191
 ---------------------------------------------------------------------

 SCF Done:  E(RHF) =  -361.397939757     A.U. after    2 cycles

 The electronic state is 1-A.
 Alpha  occ. eigenvalues --  -21.08172 -21.04545 -15.78973 -11.52896 -11.49387
 Alpha  occ. eigenvalues --  -11.42225 -11.37140  -1.75548  -1.70877  -1.35863
 Alpha  occ. eigenvalues --   -1.19570  -0.99949  -0.89693  -0.75421  -0.72922
 Alpha  occ. eigenvalues --   -0.64501  -0.64446  -0.57764  -0.56638  -0.52321
 Alpha  occ. eigenvalues --   -0.50507  -0.50300  -0.47430  -0.43407  -0.36846
 Alpha  occ. eigenvalues --   -0.33780  -0.26842
 Alpha virt. eigenvalues --    0.03297   0.05054   0.05977   0.06163   0.06695
 Alpha virt. eigenvalues --    0.06837   0.07007   0.10290   0.11432   0.11743
 Alpha virt. eigenvalues --    0.12763   0.13120   0.13674   0.14331   0.14502

 Mulliken charges:
               1
     1  C   -3.488374
     2  C   -3.536244
     3  C    4.450125
     4  O   -3.542020
     5  C    4.292848
     6  O   -3.290801
     7  N   -3.024322
     8  H    1.253255
     9  H    1.252362
    10  H    1.020570
    11  H    1.513276
    12  H    1.508851
    13  H    0.822850
    14  H    0.767624
 Sum of Mulliken charges =  -0.00000

 Dipole moment (field-independent basis, Debye):
    X=             -0.2281    Y=              1.1821    Z=              0.0038  Tot=              1.2039

 Test job not archived.
 1\1\GINC-SE021\SP\RHF\Aug-CC-pVDZ\C4H7N1O2\OHZDE\09-Apr-2025\0\\#t hf
 aug-cc-pvdz iop(5/13=1,5/36=2,99/5=2) pseudo=read geom=check guess=(re
 ad,tcheck) scf=(maxcycle=1)\\title\\0,1\C,0,-1.97783793,-1.07609614,0.
 4276339\C,0,-0.48315397,-0.98014048,0.18621148\C,0,-0.01725241,0.40884
 166,-0.12680378\O,0,-0.73535466,1.37441106,-0.19255191\C,0,1.50241827,
 0.57018357,-0.37538475\O,0,2.25702757,-0.37563078,-0.3156967\N,0,1.849
 95697,1.8378946,-0.6526135\H,0,-2.28164881,-0.44664588,1.26463021\H,0,
 -2.53938535,-0.74720667,-0.44730877\H,0,-2.26151226,-2.10481903,0.6510

 Normal termination of Gaussian 16 at Wed Apr  9 04:05:47 2025.
