 Gaussian 16, Revision C.01,

 ----------------------------------------------------------------------
 #t hf aug-cc-pvdz symm=none int=(grid=ultrafine) guess=(read,tcheck) s
 table=(opt,rrhf)
 ----------------------------------------------------------------------
 -----
 title
 -----
 Symbolic Z-matrix:
 Charge =  0 Multiplicity = 1

 SCF Done:  E(RHF) =  -318.704287704     A.U. after   17 cycles
 Normal termination of Gaussian 16 at Wed Apr  9 18:57:43 2025.
 Gaussian 16:  ES64L-G16RevC.01  3-Jul-2019

 ----------------------------------------------------------------------
 #t hf aug-cc-pvdz iop(5/13=1,5/36=2,99/5=2) pseudo=read geom=check gue
 ss=(read,tcheck) scf=(maxcycle=1)
 ----------------------------------------------------------------------
 -----
 title
 -----
 Structure from the checkpoint file:  "Grambow2020_wb97xd3_007955_forward_mol1.chk"
 Charge =  0 Multiplicity = 1

                         Standard orientation:
 ---------------------------------------------------------------------
 Center     Atomic      Atomic             Coordinates (Angstroms)
 Number     Number       Type             X           Y           Z
 ---------------------------------------------------------------------
      1          6           0        2.597741    0.036329   -0.141666
      2          6           0        1.326626   -0.007245    0.647490
      3          6           0       -0.085169    0.842290   -0.476694
      4          6           0       -1.387196    1.045792    0.020522
      5          7           0       -1.923029   -0.165603    0.194304
      6          7           0       -1.097501   -1.154403   -0.060569
      7          7           0        0.013317   -0.551616   -0.490394
      8          1           0        3.436762   -0.084146    0.551298
      9          1           0        2.631592   -0.773961   -0.867317
     10          1           0        2.698465    0.984279   -0.664161
     11          1           0        1.207352   -0.921026    1.226032
     12          1           0        1.189948    0.848284    1.302966
     13          1           0       -1.951859    1.943672    0.210665
     14          1           0       -2.873775   -0.398745    0.439212
 ---------------------------------------------------------------------

 SCF Done:  E(RHF) =  -320.226132082     A.U. after    2 cycles

 The electronic state is 1-A.
 Alpha  occ. eigenvalues --  -15.86086 -15.77053 -15.75199 -11.47884 -11.42538
 Alpha  occ. eigenvalues --  -11.37482 -11.35044  -1.69087  -1.34077  -1.18858
 Alpha  occ. eigenvalues --   -1.12087  -0.91991  -0.85505  -0.81474  -0.72952
 Alpha  occ. eigenvalues --   -0.65505  -0.63660  -0.60706  -0.54480  -0.52062
 Alpha  occ. eigenvalues --   -0.50536  -0.47285  -0.40720  -0.38359  -0.32213
 Alpha  occ. eigenvalues --   -0.30240
 Alpha virt. eigenvalues --    0.03328   0.04758   0.05200   0.06023   0.06557
 Alpha virt. eigenvalues --    0.07043   0.07688   0.09932   0.10214   0.11478
 Alpha virt. eigenvalues --    0.12058   0.12979   0.14026   0.14043   0.15146

 Mulliken charges:
               1
     1  C   -3.646710
     2  C   -2.853473
     3  C   -0.494675
     4  C    1.143662
     5  N   -1.937390
     6  N   -0.975857
     7  N   -0.322322
     8  H    1.108727
     9  H    1.329017
    10  H    1.346376
    11  H    1.359434
    12  H    1.501977
    13  H    1.487304
    14  H    0.953929
 Sum of Mulliken charges =   0.00000

 Dipole moment (field-independent basis, Debye):
    X=             -1.9751    Y=             -0.1334    Z=              2.7543  Tot=              3.3919

 Test job not archived.
 1\1\GINC-SE340\SP\RHF\Aug-CC-pVDZ\C4H7N3\OHZDE\09-Apr-2025\0\\#t hf au
 g-cc-pvdz iop(5/13=1,5/36=2,99/5=2) pseudo=read geom=check guess=(read
 ,tcheck) scf=(maxcycle=1)\\title\\0,1\C,0,-2.15822196,0.69018833,0.125
 41927\C,0,-1.05698529,-0.3197456,0.03761153\C,0,0.48739872,0.57946983,
 -0.848367\C,0,1.65894558,-0.13368094,-1.16899866\N,0,2.22363084,-0.481
 24736,-0.00920422\N,0,1.52049738,-0.14429258,1.04732138\N,0,0.47602579
 ,0.52020172,0.54777804\H,0,-3.10348137,0.15642593,0.26772817\H,0,-2.00
 754834,1.35542152,0.97338632\H,0,-2.21537635,1.28288872,-0.78408282\H,

 Normal termination of Gaussian 16 at Wed Apr  9 18:57:46 2025.
