 Gaussian 16, Revision C.01,

 ----------------------------------------------------------------------
 #t hf aug-cc-pvdz symm=none int=(grid=ultrafine) guess=(read,tcheck) s
 table=(opt,rrhf)
 ----------------------------------------------------------------------
 -----
 title
 -----
 Symbolic Z-matrix:
 Charge =  0 Multiplicity = 1

 SCF Done:  E(RHF) =  -353.499790856     A.U. after   15 cycles
 Normal termination of Gaussian 16 at Wed Apr  9 17:58:46 2025.
 Gaussian 16:  ES64L-G16RevC.01  3-Jul-2019

 ----------------------------------------------------------------------
 #t hf aug-cc-pvdz iop(5/13=1,5/36=2,99/5=2) pseudo=read geom=check gue
 ss=(read,tcheck) scf=(maxcycle=1)
 ----------------------------------------------------------------------
 -----
 title
 -----
 Structure from the checkpoint file:  "Grambow2020_wb97xd3_006537_reverse_mol2.chk"
 Charge =  0 Multiplicity = 1

                         Standard orientation:
 ---------------------------------------------------------------------
 Center     Atomic      Atomic             Coordinates (Angstroms)
 Number     Number       Type             X           Y           Z
 ---------------------------------------------------------------------
      1          8           0        2.211379   -0.006851   -0.008545
      2          6           0        1.010564    0.055447    0.001446
      3          7           0        0.242343   -1.085529    0.013246
      4          7           0       -1.135973   -1.037923   -0.002799
      5          6           0       -1.869719    0.028364   -0.008404
      6          6           0       -0.991414    1.223225    0.000942
      7          7           0        0.290014    1.261876    0.005425
      8          1           0        0.690355   -1.986530   -0.005587
      9          1           0       -1.557375   -1.956907   -0.004148
     10          1           0       -1.495289    2.187068    0.003086
 ---------------------------------------------------------------------

 SCF Done:  E(RHF) =  -355.033454847     A.U. after    2 cycles

 The electronic state is 1-A.
 Alpha  occ. eigenvalues --  -21.04230 -15.87987 -15.82885 -15.77622 -11.52901
 Alpha  occ. eigenvalues --  -11.47290 -11.41966  -1.74765  -1.61055  -1.39620
 Alpha  occ. eigenvalues --   -1.27569  -1.00871  -0.95255  -0.78548  -0.74030
 Alpha  occ. eigenvalues --   -0.70503  -0.66830  -0.62193  -0.52036  -0.51873
 Alpha  occ. eigenvalues --   -0.45950  -0.43672  -0.35794  -0.31307  -0.31184
 Alpha virt. eigenvalues --    0.02264   0.04929   0.05385   0.05715   0.09331
 Alpha virt. eigenvalues --    0.10084   0.11116   0.11438   0.11590   0.13171
 Alpha virt. eigenvalues --    0.13551   0.14207   0.14432   0.15252   0.16521

 Mulliken charges:
               1
     1  O   -3.032461
     2  C    4.995916
     3  N   -1.633376
     4  N   -1.688963
     5  C    0.290852
     6  C    0.681859
     7  N   -3.033674
     8  H    0.799043
     9  H    0.826790
    10  H    1.794014
 Sum of Mulliken charges =  -0.00000

 Dipole moment (field-independent basis, Debye):
    X=             -0.6979    Y=             -3.5813    Z=             -0.0019  Tot=              3.6487

 Test job not archived.
 1\1\GINC-SE226\SP\RHF\Aug-CC-pVDZ\C3H3N3O1\OHZDE\09-Apr-2025\0\\#t hf
 aug-cc-pvdz iop(5/13=1,5/36=2,99/5=2) pseudo=read geom=check guess=(re
 ad,tcheck) scf=(maxcycle=1)\\title\\0,1\O,0,2.01972843,-1.30270135,0.4
 828644\C,0,0.96478396,-0.78838298,0.22112605\N,0,0.81049482,0.5774773,
 0.27356915\N,0,-0.39719314,1.1867203,0.00413799\C,0,-1.49699328,0.5976
 3537,-0.34053748\C,0,-1.26633012,-0.86601562,-0.40154855\N,0,-0.182762
 73,-1.50599087,-0.15683416\H,0,1.58598919,1.154857,0.55305434\H,0,-0.3
 5503624,2.19262382,0.09629486\H,0,-2.12181688,-1.47337798,-0.68815059\

 Normal termination of Gaussian 16 at Wed Apr  9 17:58:49 2025.
