 Gaussian 16, Revision C.01,

 ----------------------------------------------------------------------
 #t hf aug-cc-pvdz symm=none int=(grid=ultrafine) guess=(read,tcheck) s
 table=(opt,rrhf)
 ----------------------------------------------------------------------
 -----
 title
 -----
 Symbolic Z-matrix:
 Charge =  0 Multiplicity = 1

 SCF Done:  E(RHF) =  -338.626600466     A.U. after   16 cycles
 Normal termination of Gaussian 16 at Wed Apr  9 03:59:38 2025.
 Gaussian 16:  ES64L-G16RevC.01  3-Jul-2019

 ----------------------------------------------------------------------
 #t hf aug-cc-pvdz iop(5/13=1,5/36=2,99/5=2) pseudo=read geom=check gue
 ss=(read,tcheck) scf=(maxcycle=1)
 ----------------------------------------------------------------------
 -----
 title
 -----
 Structure from the checkpoint file:  "Grambow2020_wb97xd3_008806_forward_mol1.chk"
 Charge =  0 Multiplicity = 1

                         Standard orientation:
 ---------------------------------------------------------------------
 Center     Atomic      Atomic             Coordinates (Angstroms)
 Number     Number       Type             X           Y           Z
 ---------------------------------------------------------------------
      1          7           0       -1.903083    0.510008   -0.449560
      2          6           0       -0.621604    0.241834   -0.130356
      3          6           0        0.118354   -0.927354   -0.652920
      4          8           0       -0.457430   -1.128896    0.976679
      5          7           0        1.437217   -0.511198   -0.473254
      6          6           0        1.535664    0.716025    0.129483
      7          6           0        0.316818    1.235480    0.371129
      8          1           0       -2.406779   -0.195859   -0.957692
      9          1           0       -2.438738    1.134796    0.125555
     10          1           0       -1.139885   -1.767668    0.752801
     11          1           0        2.221855   -1.072414   -0.739879
     12          1           0        2.501085    1.156571    0.342614
     13          1           0        0.087575    2.188165    0.818846
 ---------------------------------------------------------------------

 SCF Done:  E(RHF) =  -340.187813386     A.U. after    2 cycles

 The electronic state is 1-A.
 Alpha  occ. eigenvalues --  -21.04784 -15.77847 -15.75240 -11.51927 -11.45690
 Alpha  occ. eigenvalues --  -11.39938 -11.37431  -1.69540  -1.45024  -1.36000
 Alpha  occ. eigenvalues --   -1.11194  -1.01327  -0.82845  -0.79167  -0.72447
 Alpha  occ. eigenvalues --   -0.67919  -0.62396  -0.56559  -0.54087  -0.53037
 Alpha  occ. eigenvalues --   -0.49176  -0.46501  -0.37374  -0.32787  -0.29820
 Alpha  occ. eigenvalues --   -0.25181
 Alpha virt. eigenvalues --    0.03513   0.04889   0.05158   0.05836   0.06634
 Alpha virt. eigenvalues --    0.07298   0.10791   0.10978   0.11842   0.12687
 Alpha virt. eigenvalues --    0.13190   0.13620   0.14245   0.14883   0.15503

 Mulliken charges:
               1
     1  N   -4.033705
     2  C    6.432329
     3  C   -1.444292
     4  O   -2.018961
     5  N   -3.046798
     6  C    0.684979
     7  C   -2.247845
     8  H    0.662776
     9  H    0.668603
    10  H    0.942169
    11  H    0.765062
    12  H    1.372321
    13  H    1.263362
 Sum of Mulliken charges =  -0.00000

 Dipole moment (field-independent basis, Debye):
    X=             -0.0825    Y=              1.4229    Z=              1.5906  Tot=              2.1358

 Test job not archived.
 1\1\GINC-SE435\SP\RHF\Aug-CC-pVDZ\C4H6N2O1\OHZDE\09-Apr-2025\0\\#t hf
 aug-cc-pvdz iop(5/13=1,5/36=2,99/5=2) pseudo=read geom=check guess=(re
 ad,tcheck) scf=(maxcycle=1)\\title\\0,1\N,0,-1.72196133,0.71725263,-0.
 53488403\C,0,-0.52774408,0.21709738,-0.16113605\C,0,-0.01249947,-1.089
 14012,-0.62576214\O,0,-0.66812373,-1.1232372,0.98567586\N,0,1.3556412,
 -0.92990452,-0.40735722\C,0,1.67113044,0.27394312,0.1673405\C,0,0.5692
 0685,1.02645031,0.34984508\H,0,-2.3366124,0.10596176,-1.04349365\H,0,-
 2.1442316,1.45186205,0.00370589\H,0,-1.45408482,-1.62508044,0.75262128

 Normal termination of Gaussian 16 at Wed Apr  9 03:59:43 2025.
