 Gaussian 16, Revision C.01,

 ----------------------------------------------------------------------
 #t hf aug-cc-pvdz symm=none int=(grid=ultrafine) guess=(read,tcheck) s
 table=(opt,rrhf)
 ----------------------------------------------------------------------
 -----
 title
 -----
 Symbolic Z-matrix:
 Charge =  0 Multiplicity = 1

 SCF Done:  E(RHF) =  -264.857321937     A.U. after   17 cycles
 Normal termination of Gaussian 16 at Wed Apr  9 03:21:11 2025.
 Gaussian 16:  ES64L-G16RevC.01  3-Jul-2019

 ----------------------------------------------------------------------
 #t hf aug-cc-pvdz iop(5/13=1,5/36=2,99/5=2) pseudo=read geom=check gue
 ss=(read,tcheck) scf=(maxcycle=1)
 ----------------------------------------------------------------------
 -----
 title
 -----
 Structure from the checkpoint file:  "Grambow2020_wb97xd3_006062_forward_mol1.chk"
 Charge =  0 Multiplicity = 1

                         Standard orientation:
 ---------------------------------------------------------------------
 Center     Atomic      Atomic             Coordinates (Angstroms)
 Number     Number       Type             X           Y           Z
 ---------------------------------------------------------------------
      1          6           0       -0.292750    1.695572   -0.077338
      2          6           0       -0.000394    0.229840   -0.084544
      3          6           0       -1.613507   -0.836583   -0.679624
      4          7           0       -0.818939   -0.505699    0.947414
      5          6           0        1.355760   -0.164936   -0.093228
      6          7           0        2.433832   -0.584960   -0.149770
      7          1           0       -0.106456    2.156139    0.907317
      8          1           0       -1.335996    1.907283   -0.338525
      9          1           0        0.338577    2.208355   -0.802352
     10          1           0       -2.493309   -1.291329   -0.215437
     11          1           0       -1.044036   -1.568449   -1.240068
     12          1           0       -1.910265    0.005783   -1.294999
     13          1           0       -0.378480   -1.369744    1.234469
     14          1           0       -1.068945    0.043217    1.774489
 ---------------------------------------------------------------------

 SCF Done:  E(RHF) =  -266.144692970     A.U. after    2 cycles

 The electronic state is 1-A.
 Alpha  occ. eigenvalues --  -15.79717 -15.71333 -11.49437 -11.42000 -11.39929
 Alpha  occ. eigenvalues --  -11.36352  -1.42685  -1.25893  -1.10327  -1.04371
 Alpha  occ. eigenvalues --   -0.91103  -0.72757  -0.68821  -0.62884  -0.61364
 Alpha  occ. eigenvalues --   -0.58349  -0.55486  -0.52800  -0.49564  -0.47301
 Alpha  occ. eigenvalues --   -0.42210  -0.39080  -0.22463
 Alpha virt. eigenvalues --    0.02489   0.04011   0.04747   0.05428   0.05722
 Alpha virt. eigenvalues --    0.06087   0.07063   0.07679   0.09741   0.11213
 Alpha virt. eigenvalues --    0.11774   0.12410   0.13769   0.14330   0.14617

 Mulliken charges:
               1
     1  C   -3.933286
     2  C    0.344717
     3  C   -3.521367
     4  N   -2.216433
     5  C    3.212415
     6  N   -2.770327
     7  H    1.213928
     8  H    1.323220
     9  H    1.289408
    10  H    1.114581
    11  H    1.267103
    12  H    1.304382
    13  H    0.737101
    14  H    0.634560
 Sum of Mulliken charges =   0.00000

 Dipole moment (field-independent basis, Debye):
    X=             -5.9306    Y=             -0.3679    Z=              1.1534  Tot=              6.0529

 Test job not archived.
 1\1\GINC-SE187\SP\RHF\Aug-CC-pVDZ\C4H8N2\OHZDE\09-Apr-2025\0\\#t hf au
 g-cc-pvdz iop(5/13=1,5/36=2,99/5=2) pseudo=read geom=check guess=(read
 ,tcheck) scf=(maxcycle=1)\\title\\0,1\C,0,-0.90647038,1.21921094,-0.38
 117257\C,0,-0.25114193,0.13574529,0.41289198\C,0,1.55719975,-0.3456097
 6,-0.35633427\N,0,-0.10627674,-1.13284872,-0.39063437\C,0,-0.72983885,
 -0.09467067,1.72164591\N,0,-1.01959139,-0.32494542,2.81931322\H,0,-1.9
 0342611,0.92524014,-0.74999982\H,0,-0.31140086,1.50372627,-1.25658357\
 H,0,-1.03511866,2.10999578,0.23292778\H,0,1.95430579,-1.03213523,-1.10

 Normal termination of Gaussian 16 at Wed Apr  9 03:21:15 2025.
