 Gaussian 16, Revision C.01,

 ----------------------------------------------------------------------
 #t hf aug-cc-pvdz symm=none int=(grid=ultrafine) guess=(read,tcheck) s
 table=(opt,rrhf)
 ----------------------------------------------------------------------
 -----
 title
 -----
 Symbolic Z-matrix:
 Charge =  0 Multiplicity = 1

 SCF Done:  E(RHF) =  -284.809895600     A.U. after   14 cycles
 Normal termination of Gaussian 16 at Wed Apr  9 17:38:23 2025.
 Gaussian 16:  ES64L-G16RevC.01  3-Jul-2019

 ----------------------------------------------------------------------
 #t hf aug-cc-pvdz iop(5/13=1,5/36=2,99/5=2) pseudo=read geom=check gue
 ss=(read,tcheck) scf=(maxcycle=1)
 ----------------------------------------------------------------------
 -----
 title
 -----
 Structure from the checkpoint file:  "Grambow2020_b97d3_007209_reverse_mol2.chk"
 Charge =  0 Multiplicity = 1

                         Standard orientation:
 ---------------------------------------------------------------------
 Center     Atomic      Atomic             Coordinates (Angstroms)
 Number     Number       Type             X           Y           Z
 ---------------------------------------------------------------------
      1          6           0        2.649564   -0.185421    0.001084
      2          6           0        1.289098    0.483071    0.000864
      3          8           0        0.278004   -0.583646   -0.002771
      4          6           0       -2.359165   -0.456440    0.002227
      5          6           0       -0.965280   -0.124694   -0.002186
      6          7           0       -1.630739    0.953991   -0.000799
      7          1           0        2.777347   -0.809942   -0.892450
      8          1           0        3.436310    0.581247    0.004648
      9          1           0        2.774489   -0.815730    0.890913
     10          1           0        1.132034    1.107741   -0.889066
     11          1           0        1.128544    1.102960    0.893413
     12          1           0       -2.868703   -0.735769    0.929793
     13          1           0       -2.874177   -0.738368   -0.921421
 ---------------------------------------------------------------------

 SCF Done:  E(RHF) =  -286.111977426     A.U. after    2 cycles

 The electronic state is 1-A.
 Alpha  occ. eigenvalues --  -21.10934 -15.74049 -11.49856 -11.45599 -11.42595
 Alpha  occ. eigenvalues --  -11.38516  -1.81143  -1.41375  -1.14305  -0.92951
 Alpha  occ. eigenvalues --   -0.90629  -0.75012  -0.67509  -0.64957  -0.63287
 Alpha  occ. eigenvalues --   -0.57783  -0.52983  -0.52558  -0.50463  -0.45485
 Alpha  occ. eigenvalues --   -0.40709  -0.36391  -0.31717
 Alpha virt. eigenvalues --    0.03437   0.05094   0.05803   0.05837   0.06219
 Alpha virt. eigenvalues --    0.06544   0.06717   0.10144   0.10522   0.11864
 Alpha virt. eigenvalues --    0.12681   0.13459   0.13963   0.14679   0.16092

 Mulliken charges:
               1
     1  C   -3.766210
     2  C   -2.393746
     3  O   -3.464828
     4  C   -3.131732
     5  C    5.122112
     6  N   -1.940233
     7  H    1.286458
     8  H    1.098193
     9  H    1.286692
    10  H    1.526991
    11  H    1.525920
    12  H    1.424347
    13  H    1.426035
 Sum of Mulliken charges =  -0.00000

 Dipole moment (field-independent basis, Debye):
    X=              2.1246    Y=             -1.2386    Z=              0.0030  Tot=              2.4593

 Test job not archived.
 1\1\GINC-SE112\SP\RHF\Aug-CC-pVDZ\C4H7N1O1\OHZDE\09-Apr-2025\0\\#t hf
 aug-cc-pvdz iop(5/13=1,5/36=2,99/5=2) pseudo=read geom=check guess=(re
 ad,tcheck) scf=(maxcycle=1)\\title\\0,1\C,0,-2.09483762,-0.88325249,-0
 .05528072\C,0,-0.77317262,-0.48387938,-0.68094087\O,0,0.0222142,0.1779
 378,0.36288332\C,0,2.44762552,1.21782143,0.27988286\C,0,1.21231526,0.5
 7739388,-0.06195311\N,0,1.94856893,0.59741454,-1.09342197\H,0,-2.63389
 995,-0.00124263,0.31381226\H,0,-2.72097029,-1.38420481,-0.80612526\H,0
 ,-1.93689348,-1.5744043,0.78260606\H,0,-0.90247549,0.22175239,-1.51293

 Normal termination of Gaussian 16 at Wed Apr  9 17:38:27 2025.
