 Gaussian 16, Revision C.01,

 ----------------------------------------------------------------------
 #t hf aug-cc-pvdz symm=none int=(grid=ultrafine) guess=(read,tcheck) s
 table=(opt,rrhf)
 ----------------------------------------------------------------------
 -----
 title
 -----
 Symbolic Z-matrix:
 Charge =  0 Multiplicity = 1

 SCF Done:  E(RHF) =  -338.598539996     A.U. after   15 cycles
 Normal termination of Gaussian 16 at Wed Apr  9 19:14:56 2025.
 Gaussian 16:  ES64L-G16RevC.01  3-Jul-2019

 ----------------------------------------------------------------------
 #t hf aug-cc-pvdz iop(5/13=1,5/36=2,99/5=2) pseudo=read geom=check gue
 ss=(read,tcheck) scf=(maxcycle=1)
 ----------------------------------------------------------------------
 -----
 title
 -----
 Structure from the checkpoint file:  "Grambow2020_wb97xd3_008469_forward_mol1.chk"
 Charge =  0 Multiplicity = 1

                         Standard orientation:
 ---------------------------------------------------------------------
 Center     Atomic      Atomic             Coordinates (Angstroms)
 Number     Number       Type             X           Y           Z
 ---------------------------------------------------------------------
      1          7           0       -1.749795   -1.151954    0.029119
      2          6           0       -0.490177   -0.536195   -0.023368
      3          6           0       -0.080079    0.766332   -0.020030
      4          8           0       -0.951780    1.799965   -0.003575
      5          6           0        1.339362    0.816565    0.003995
      6          6           0        1.910151   -0.436391   -0.090963
      7          7           0        0.682178   -1.286192   -0.001233
      8          1           0       -2.266903   -1.052589   -0.833050
      9          1           0       -2.318203   -0.800862    0.786898
     10          1           0       -0.462474    2.624329    0.015796
     11          1           0        1.921591    1.726554    0.073800
     12          1           0        1.430979   -1.256635    0.917325
     13          1           0        0.707020   -2.235355   -0.345162
 ---------------------------------------------------------------------

 SCF Done:  E(RHF) =  -340.149500310     A.U. after    2 cycles

 The electronic state is 1-A.
 Alpha  occ. eigenvalues --  -21.11504 -15.82416 -15.76226 -11.48882 -11.42316
 Alpha  occ. eigenvalues --  -11.38706 -11.35554  -1.77111  -1.52876  -1.32238
 Alpha  occ. eigenvalues --   -1.13140  -1.01768  -0.82882  -0.79681  -0.69720
 Alpha  occ. eigenvalues --   -0.69234  -0.64500  -0.59296  -0.56833  -0.53166
 Alpha  occ. eigenvalues --   -0.48631  -0.45453  -0.39278  -0.32605  -0.31864
 Alpha  occ. eigenvalues --   -0.28715
 Alpha virt. eigenvalues --    0.03329   0.04945   0.05689   0.06137   0.06449
 Alpha virt. eigenvalues --    0.06955   0.09942   0.10318   0.12650   0.12853
 Alpha virt. eigenvalues --    0.13710   0.13971   0.14134   0.14728   0.15197

 Mulliken charges:
               1
     1  N   -3.227819
     2  C    1.386062
     3  C    5.964231
     4  O   -4.158134
     5  C   -0.531443
     6  C   -2.198697
     7  N   -2.517047
     8  H    0.405547
     9  H    0.413364
    10  H    0.988541
    11  H    1.591784
    12  H    1.187137
    13  H    0.696474
 Sum of Mulliken charges =   0.00000

 Dipole moment (field-independent basis, Debye):
    X=             -3.6784    Y=              0.2129    Z=              0.2857  Tot=              3.6956

 Test job not archived.
 1\1\GINC-SE056\SP\RHF\Aug-CC-pVDZ\C4H6N2O1\OHZDE\09-Apr-2025\0\\#t hf
 aug-cc-pvdz iop(5/13=1,5/36=2,99/5=2) pseudo=read geom=check guess=(re
 ad,tcheck) scf=(maxcycle=1)\\title\\0,1\N,0,1.81924975,0.91471269,-0.0
 2049967\C,0,0.51432868,0.40357932,-0.08739788\C,0,-0.01350677,-0.84737
 734,0.05842439\O,0,0.75619236,-1.93679845,0.28036228\C,0,-1.43005756,-
 0.77661579,-0.02089127\C,0,-1.8754168,0.49342379,-0.32645767\N,0,-0.58
 278052,1.24331159,-0.25651843\H,0,2.38016583,0.65331417,-0.81903153\H,
 0,2.30216125,0.62757244,0.81910185\H,0,0.1927153,-2.70717511,0.3719359

 Normal termination of Gaussian 16 at Wed Apr  9 19:15:00 2025.
