 Gaussian 16, Revision C.01,

 ----------------------------------------------------------------------
 #t hf aug-cc-pvdz symm=none int=(grid=ultrafine) guess=(read,tcheck) s
 table=(opt,rrhf)
 ----------------------------------------------------------------------
 -----
 title
 -----
 Symbolic Z-matrix:
 Charge =  0 Multiplicity = 1

 SCF Done:  E(RHF) =  -286.027949430     A.U. after   13 cycles
 Normal termination of Gaussian 16 at Wed Apr  9 03:21:06 2025.
 Gaussian 16:  ES64L-G16RevC.01  3-Jul-2019

 ----------------------------------------------------------------------
 #t hf aug-cc-pvdz iop(5/13=1,5/36=2,99/5=2) pseudo=read geom=check gue
 ss=(read,tcheck) scf=(maxcycle=1)
 ----------------------------------------------------------------------
 -----
 title
 -----
 Structure from the checkpoint file:  "Grambow2020_wb97xd3_006073_reverse_mol2.chk"
 Charge =  0 Multiplicity = 1

                         Standard orientation:
 ---------------------------------------------------------------------
 Center     Atomic      Atomic             Coordinates (Angstroms)
 Number     Number       Type             X           Y           Z
 ---------------------------------------------------------------------
      1          6           0        1.967146    0.520688    0.586634
      2          6           0        1.346983   -0.587106   -0.238568
      3          6           0       -1.423989    1.311540   -0.030037
      4          6           0       -0.929005    0.080099   -0.139473
      5          8           0        0.165404   -0.165719   -0.916872
      6          7           0       -1.489111   -1.058121    0.419040
      7          1           0        2.887447    0.166304    1.055196
      8          1           0        1.287114    0.852276    1.372819
      9          1           0        2.205079    1.379646   -0.042175
     10          1           0        2.020842   -0.909068   -1.032700
     11          1           0        1.138327   -1.460663    0.390572
     12          1           0       -2.358925    1.494126    0.480590
     13          1           0       -0.902351    2.137028   -0.488560
     14          1           0       -0.989456   -1.918259    0.292316
     15          1           0       -1.954340   -0.960122    1.302301
 ---------------------------------------------------------------------

 SCF Done:  E(RHF) =  -287.379441068     A.U. after    2 cycles

 The electronic state is 1-A.
 Alpha  occ. eigenvalues --  -21.05813 -15.75613 -11.46918 -11.44633 -11.36658
 Alpha  occ. eigenvalues --  -11.34223  -1.78890  -1.33924  -1.13410  -1.05450
 Alpha  occ. eigenvalues --   -0.89401  -0.77927  -0.70067  -0.65366  -0.63298
 Alpha  occ. eigenvalues --   -0.60295  -0.54106  -0.53113  -0.52005  -0.50353
 Alpha  occ. eigenvalues --   -0.47353  -0.37652  -0.32960  -0.27509
 Alpha virt. eigenvalues --    0.03602   0.04890   0.05348   0.05592   0.06165
 Alpha virt. eigenvalues --    0.06326   0.07070   0.07449   0.08745   0.11083
 Alpha virt. eigenvalues --    0.12972   0.13041   0.14094   0.14228   0.15112

 Mulliken charges:
               1
     1  C   -3.945768
     2  C   -1.755557
     3  C   -2.979285
     4  C    4.683441
     5  O   -3.736832
     6  N   -3.273165
     7  H    1.193466
     8  H    1.439041
     9  H    1.330051
    10  H    1.292663
    11  H    1.573988
    12  H    1.369866
    13  H    1.439878
    14  H    0.768965
    15  H    0.599248
 Sum of Mulliken charges =   0.00000

 Dipole moment (field-independent basis, Debye):
    X=              0.9757    Y=             -1.4778    Z=              1.1881  Tot=              2.1325

 Test job not archived.
 1\1\GINC-SE452\SP\RHF\Aug-CC-pVDZ\C4H9N1O1\OHZDE\09-Apr-2025\0\\#t hf
 aug-cc-pvdz iop(5/13=1,5/36=2,99/5=2) pseudo=read geom=check guess=(re
 ad,tcheck) scf=(maxcycle=1)\\title\\0,1\C,0,1.67077816,0.16425983,-0.8
 0708596\C,0,0.43070155,1.03299014,-0.82405645\C,0,-0.46076545,-0.82870
 809,1.83413702\C,0,-0.87748114,-0.12314315,0.78439476\O,0,-0.25039843,
 1.03568996,0.42889519\N,0,-1.99633398,-0.41443446,0.01985805\H,0,2.180
 4275,0.22277897,-1.77089432\H,0,1.41633311,-0.87939005,-0.61595297\H,0
 ,2.35952636,0.49474573,-0.02848034\H,0,0.68603922,2.07786421,-1.001347

 Normal termination of Gaussian 16 at Wed Apr  9 03:21:11 2025.
