 Gaussian 16, Revision C.01,

 ----------------------------------------------------------------------
 #t hf aug-cc-pvdz symm=none int=(grid=ultrafine) guess=(read,tcheck) s
 table=(opt,rrhf)
 ----------------------------------------------------------------------
 -----
 title
 -----
 Symbolic Z-matrix:
 Charge =  0 Multiplicity = 1

 SCF Done:  E(RHF) =  -353.320095792     A.U. after   17 cycles
 Normal termination of Gaussian 16 at Wed Apr  9 03:46:43 2025.
 Gaussian 16:  ES64L-G16RevC.01  3-Jul-2019

 ----------------------------------------------------------------------
 #t hf aug-cc-pvdz iop(5/13=1,5/36=2,99/5=2) pseudo=read geom=check gue
 ss=(read,tcheck) scf=(maxcycle=1)
 ----------------------------------------------------------------------
 -----
 title
 -----
 Structure from the checkpoint file:  "Grambow2020_wb97xd3_007940_reverse_mol1.chk"
 Charge =  0 Multiplicity = 1

                         Standard orientation:
 ---------------------------------------------------------------------
 Center     Atomic      Atomic             Coordinates (Angstroms)
 Number     Number       Type             X           Y           Z
 ---------------------------------------------------------------------
      1          8           0        2.069459   -0.148967   -0.444881
      2          6           0        0.886016   -0.148639    0.065361
      3          6           0        0.018234   -1.233648    0.335770
      4          7           0       -1.265569   -1.064126    0.018830
      5          7           0       -1.602832    0.130560   -0.524878
      6          6           0       -0.872430    1.117779   -0.098747
      7          7           0        0.316187    0.956901    0.636894
      8          1           0        2.469964    0.724552   -0.313960
      9          1           0       -0.104866   -0.237296    1.342228
     10          1           0       -1.246191    2.128190   -0.199448
 ---------------------------------------------------------------------

 SCF Done:  E(RHF) =  -354.882344524     A.U. after    2 cycles

 The electronic state is 1-A.
 Alpha  occ. eigenvalues --  -21.20894 -15.79717 -15.79412 -15.77709 -11.56816
 Alpha  occ. eigenvalues --  -11.46833 -11.40642  -1.88180  -1.62115  -1.39350
 Alpha  occ. eigenvalues --   -1.23111  -0.97879  -0.91733  -0.80605  -0.72213
 Alpha  occ. eigenvalues --   -0.71483  -0.64014  -0.57864  -0.53864  -0.50541
 Alpha  occ. eigenvalues --   -0.48465  -0.42897  -0.39997  -0.37142  -0.30186
 Alpha virt. eigenvalues --    0.02328   0.04258   0.05406   0.08015   0.08969
 Alpha virt. eigenvalues --    0.09904   0.10428   0.10593   0.11567   0.11777
 Alpha virt. eigenvalues --    0.12405   0.13468   0.14356   0.14861   0.16375

 Mulliken charges:
               1
     1  O   -3.423518
     2  C    5.553063
     3  C   -1.356902
     4  N   -1.216208
     5  N   -1.564469
     6  C    1.208749
     7  N   -2.470979
     8  H    0.759534
     9  H    1.006823
    10  H    1.503906
 Sum of Mulliken charges =  -0.00000

 Dipole moment (field-independent basis, Debye):
    X=              3.8847    Y=              3.5541    Z=             -0.9253  Tot=              5.3459

 Test job not archived.
 1\1\GINC-SE292\SP\RHF\Aug-CC-pVDZ\C3H3N3O1\OHZDE\09-Apr-2025\0\\#t hf
 aug-cc-pvdz iop(5/13=1,5/36=2,99/5=2) pseudo=read geom=check guess=(re
 ad,tcheck) scf=(maxcycle=1)\\title\\0,1\O,0,1.91499237,-0.22529626,0.8
 4252214\C,0,0.86770478,0.14203274,0.18743254\C,0,0.32541859,1.43628175
 ,0.00235403\N,0,-0.99857959,1.54936315,0.1099685\N,0,-1.68380385,0.412
 05121,0.38131687\C,0,-1.13136096,-0.65553357,-0.11340162\N,0,0.1715214
 4,-0.69380746,-0.64339498\H,0,2.12567589,-1.14346825,0.61197266\H,0,0.
 15713364,0.65518347,-1.17339845\H,0,-1.73393231,-1.54443577,-0.2457936

 Normal termination of Gaussian 16 at Wed Apr  9 03:46:47 2025.
