 Gaussian 16, Revision C.01,

 ----------------------------------------------------------------------
 #t hf aug-cc-pvdz symm=none int=(grid=ultrafine) guess=(read,tcheck) s
 table=(opt,rrhf)
 ----------------------------------------------------------------------
 -----
 title
 -----
 Symbolic Z-matrix:
 Charge =  0 Multiplicity = 1

 SCF Done:  E(RHF) =  -345.954681702     A.U. after   15 cycles

 1\1\GINC-SE207\Stability\RHF\Aug-CC-pVDZ\C5H12O2\OHZDE\09-Apr-2025\0\\
 #t hf aug-cc-pvdz symm=none int=(grid=ultrafine) guess=(read,tcheck) s
 table=(opt,rrhf)\\title\\0,1\C,0,2.2798371,0.41524483,1.06644446\C,0,1
 .10029224,0.71073945,0.15658588\C,0,0.24997599,-0.47348868,-0.13879067
 \O,0,-0.45976563,-0.80940597,1.69831629\C,0,-1.05410809,-0.40333878,-0
 .67625954\C,0,-1.62735197,0.87126139,-1.24336801\O,0,-1.41016827,-1.56
 378926,-1.40176118\H,0,1.91482956,0.07096492,2.03387724\H,0,2.92028798
 ,-0.36177863,0.64254247\H,0,2.89025136,1.30674941,1.21512177\H,0,0.482

 Normal termination of Gaussian 16 at Wed Apr  9 19:06:19 2025.
 Gaussian 16:  ES64L-G16RevC.01  3-Jul-2019

 ----------------------------------------------------------------------
 #t hf aug-cc-pvdz iop(5/13=1,5/36=2,99/5=2) pseudo=read geom=check gue
 ss=(read,tcheck) scf=(maxcycle=1)
 ----------------------------------------------------------------------
 -----
 title
 -----
 Structure from the checkpoint file:  "Grambow2020_wb97xd3_008076_reverse_mol1.chk"
 Charge =  0 Multiplicity = 1

                         Standard orientation:
 ---------------------------------------------------------------------
 Center     Atomic      Atomic             Coordinates (Angstroms)
 Number     Number       Type             X           Y           Z
 ---------------------------------------------------------------------
      1          6           0       -2.690173   -0.307641   -0.314304
      2          6           0       -1.290678   -0.840434   -0.061261
      3          6           0       -0.204422    0.101155   -0.443545
      4          8           0       -0.563418    1.544161    0.890768
      5          6           0        1.137422   -0.016534   -0.019242
      6          6           0        1.663803   -1.253943    0.663816
      7          8           0        2.051276    0.570057   -0.925088
      8          1           0       -2.853497    0.584958    0.289249
      9          1           0       -2.827885   -0.043688   -1.365493
     10          1           0       -3.443488   -1.052699   -0.055659
     11          1           0       -1.172534   -1.126722    0.984809
     12          1           0       -1.112959   -1.751386   -0.650041
     13          1           0       -0.378007    0.723035   -1.316035
     14          1           0       -0.578146    2.442719    0.543606
     15          1           0        0.595474    0.921256    0.781052
     16          1           0        1.899798   -2.037502   -0.062615
     17          1           0        2.581505   -1.023604    1.208957
     18          1           0        0.951158   -1.652440    1.385867
     19          1           0        2.740008    1.006716   -0.421931
 ---------------------------------------------------------------------

 SCF Done:  E(RHF) =  -347.608999985     A.U. after    2 cycles

 The electronic state is 1-A.
 Alpha  occ. eigenvalues --  -21.07032 -20.99856 -11.52790 -11.44106 -11.41650
 Alpha  occ. eigenvalues --  -11.38517 -11.36681  -1.72006  -1.58273  -1.24642
 Alpha  occ. eigenvalues --   -1.11585  -1.01737  -0.90369  -0.78575  -0.69201
 Alpha  occ. eigenvalues --   -0.62465  -0.61995  -0.61619  -0.55871  -0.55165
 Alpha  occ. eigenvalues --   -0.52032  -0.50105  -0.49064  -0.47967  -0.43849
 Alpha  occ. eigenvalues --   -0.39436  -0.34067  -0.32434  -0.22260
 Alpha virt. eigenvalues --    0.03711   0.04645   0.05082   0.05515   0.05716
 Alpha virt. eigenvalues --    0.06322   0.06354   0.07011   0.07938   0.08185
 Alpha virt. eigenvalues --    0.09050   0.09625   0.11769   0.12061   0.13779

 Mulliken charges:
               1
     1  C   -4.085148
     2  C   -3.627764
     3  C   -0.917986
     4  O   -1.941618
     5  C    3.024374
     6  C   -4.306830
     7  O   -3.439908
     8  H    1.356335
     9  H    1.289321
    10  H    1.048381
    11  H    1.570648
    12  H    1.388301
    13  H    1.457151
    14  H    0.918731
    15  H    1.988392
    16  H    1.169379
    17  H    1.164574
    18  H    1.294906
    19  H    0.648761
 Sum of Mulliken charges =   0.00000

 Dipole moment (field-independent basis, Debye):
    X=             -0.6232    Y=             -0.7339    Z=             -0.5924  Tot=              1.1305

 Test job not archived.
 1\1\GINC-SE207\SP\RHF\Aug-CC-pVDZ\C5H12O2\OHZDE\09-Apr-2025\0\\#t hf a
 ug-cc-pvdz iop(5/13=1,5/36=2,99/5=2) pseudo=read geom=check guess=(rea
 d,tcheck) scf=(maxcycle=1)\\title\\0,1\C,0,2.2798371,0.41524483,1.0664
 4446\C,0,1.10029224,0.71073945,0.15658588\C,0,0.24997599,-0.47348868,-
 0.13879067\O,0,-0.45976563,-0.80940597,1.69831629\C,0,-1.05410809,-0.4
 0333878,-0.67625954\C,0,-1.62735197,0.87126139,-1.24336801\O,0,-1.4101
 6827,-1.56378926,-1.40176118\H,0,1.91482956,0.07096492,2.03387724\H,0,
 2.92028798,-0.36177863,0.64254247\H,0,2.89025136,1.30674941,1.21512177

 Normal termination of Gaussian 16 at Wed Apr  9 19:06:26 2025.
