 Gaussian 16, Revision C.01,

 ----------------------------------------------------------------------
 #t hf aug-cc-pvdz symm=none int=(grid=ultrafine) guess=(read,tcheck) s
 table=(opt,rrhf)
 ----------------------------------------------------------------------
 -----
 title
 -----
 Symbolic Z-matrix:
 Charge =  0 Multiplicity = 1

 SCF Done:  E(RHF) =  -317.561463108     A.U. after   18 cycles
 Normal termination of Gaussian 16 at Wed Apr  9 19:26:58 2025.
 Gaussian 16:  ES64L-G16RevC.01  3-Jul-2019

 ----------------------------------------------------------------------
 #t hf aug-cc-pvdz iop(5/13=1,5/36=2,99/5=2) pseudo=read geom=check gue
 ss=(read,tcheck) scf=(maxcycle=1)
 ----------------------------------------------------------------------
 -----
 title
 -----
 Structure from the checkpoint file:  "Grambow2020_wb97xd3_008977_reverse_mol1.chk"
 Charge =  0 Multiplicity = 1

                         Standard orientation:
 ---------------------------------------------------------------------
 Center     Atomic      Atomic             Coordinates (Angstroms)
 Number     Number       Type             X           Y           Z
 ---------------------------------------------------------------------
      1          7           0       -2.060061    0.147379   -0.449901
      2          6           0       -0.770723    0.065050    0.054813
      3          6           0       -0.168912   -0.949107    0.915737
      4          7           0        0.026721    1.094248    0.435827
      5          6           0        1.345862    0.831553   -0.040450
      6          7           0        1.678022   -0.314547   -0.499514
      7          6           0        0.453549   -1.045601   -0.338201
      8          1           0       -2.776694   -0.133596    0.200022
      9          1           0       -2.252570    1.044840   -0.868054
     10          1           0        0.265915   -0.827106    1.902524
     11          1           0        2.026074    1.676464   -0.051446
     12          1           0        0.065845   -1.661523   -1.139314
 ---------------------------------------------------------------------

 SCF Done:  E(RHF) =  -319.019112881     A.U. after    2 cycles

 The electronic state is 1-A.
 Alpha  occ. eigenvalues --  -15.77141 -15.73456 -15.72127 -11.51119 -11.48356
 Alpha  occ. eigenvalues --  -11.44697 -11.42889  -1.58276  -1.35881  -1.24148
 Alpha  occ. eigenvalues --   -1.17998  -0.88669  -0.84203  -0.81003  -0.70126
 Alpha  occ. eigenvalues --   -0.68944  -0.61742  -0.58604  -0.52399  -0.51557
 Alpha  occ. eigenvalues --   -0.47320  -0.44648  -0.37787  -0.30466  -0.28572
 Alpha virt. eigenvalues --    0.03143   0.04463   0.05379   0.05902   0.06188
 Alpha virt. eigenvalues --    0.06718   0.09728   0.10242   0.10872   0.11055
 Alpha virt. eigenvalues --    0.12651   0.13124   0.13998   0.14515   0.15129

 Mulliken charges:
               1
     1  N   -3.506288
     2  C    4.316918
     3  C   -1.704648
     4  N   -2.799659
     5  C    1.341486
     6  N   -2.990400
     7  C    0.124513
     8  H    0.512182
     9  H    0.526820
    10  H    1.266891
    11  H    1.555728
    12  H    1.356456
 Sum of Mulliken charges =  -0.00000

 Dipole moment (field-independent basis, Debye):
    X=             -2.1101    Y=             -0.1048    Z=              0.4587  Tot=              2.1620

 Test job not archived.
 1\1\GINC-SE125\SP\RHF\Aug-CC-pVDZ\C4H5N3\OHZDE\09-Apr-2025\0\\#t hf au
 g-cc-pvdz iop(5/13=1,5/36=2,99/5=2) pseudo=read geom=check guess=(read
 ,tcheck) scf=(maxcycle=1)\\title\\0,1\N,0,-1.65083924,0.06766615,-0.93
 564715\C,0,-0.45447812,0.22417264,-0.25144367\C,0,-0.21704273,0.615362
 04,1.13508976\N,0,0.72119684,0.6802725,-0.75154209\C,0,1.76953182,-0.1
 3627507,-0.23171139\N,0,1.5692726,-0.95380262,0.73066015\C,0,0.1797803
 9,-0.72453926,1.00732876\H,0,-2.3470897,0.76124791,-0.71408654\H,0,-1.
 51455685,-0.03444137,-1.92980524\H,0,0.33211764,1.47237509,1.51146576\

 Normal termination of Gaussian 16 at Wed Apr  9 19:27:04 2025.
