 Gaussian 16, Revision C.01,

 ----------------------------------------------------------------------
 #t hf aug-cc-pvdz symm=none int=(grid=ultrafine) guess=(read,tcheck) s
 table=(opt,rrhf)
 ----------------------------------------------------------------------
 -----
 title
 -----
 Symbolic Z-matrix:
 Charge =  0 Multiplicity = 1

 SCF Done:  E(RHF) =  -305.905431870     A.U. after   14 cycles
 Normal termination of Gaussian 16 at Wed Apr  9 17:17:21 2025.
 Gaussian 16:  ES64L-G16RevC.01  3-Jul-2019

 ----------------------------------------------------------------------
 #t hf aug-cc-pvdz iop(5/13=1,5/36=2,99/5=2) pseudo=read geom=check gue
 ss=(read,tcheck) scf=(maxcycle=1)
 ----------------------------------------------------------------------
 -----
 title
 -----
 Structure from the checkpoint file:  "Grambow2020_b97d3_007090_forward_mol2.chk"
 Charge =  0 Multiplicity = 1

                         Standard orientation:
 ---------------------------------------------------------------------
 Center     Atomic      Atomic             Coordinates (Angstroms)
 Number     Number       Type             X           Y           Z
 ---------------------------------------------------------------------
      1          6           0       -0.872389    1.446396    0.292379
      2          6           0       -0.679643    0.045543   -0.281669
      3          6           0       -1.941974   -0.806230   -0.251007
      4          8           0        0.311054   -0.682221    0.531121
      5          6           0        1.610873   -0.438272    0.262397
      6          8           0        2.054106    0.323338   -0.572473
      7          1           0       -1.642171    1.980852   -0.281711
      8          1           0       -1.198111    1.388696    1.340018
      9          1           0        0.061548    2.017531    0.235915
     10          1           0       -0.277599    0.111793   -1.300834
     11          1           0       -1.744873   -1.811099   -0.645857
     12          1           0       -2.721529   -0.336746   -0.866162
     13          1           0       -2.320722   -0.901236    0.775780
     14          1           0        2.220973   -1.063352    0.941064
 ---------------------------------------------------------------------

 SCF Done:  E(RHF) =  -307.290160096     A.U. after    2 cycles

 The electronic state is 1-A.
 Alpha  occ. eigenvalues --  -21.09207 -21.05821 -11.50688 -11.45889 -11.40030
 Alpha  occ. eigenvalues --  -11.36698  -1.82970  -1.66207  -1.18993  -1.01758
 Alpha  occ. eigenvalues --   -0.89993  -0.79483  -0.69812  -0.62153  -0.60458
 Alpha  occ. eigenvalues --   -0.57747  -0.54777  -0.52738  -0.51865  -0.47648
 Alpha  occ. eigenvalues --   -0.47060  -0.40697  -0.32043  -0.30688
 Alpha virt. eigenvalues --    0.03746   0.05255   0.05723   0.05788   0.05921
 Alpha virt. eigenvalues --    0.06351   0.07053   0.07789   0.10596   0.11612
 Alpha virt. eigenvalues --    0.12253   0.14162   0.14787   0.15450   0.15787

 Mulliken charges:
               1
     1  C   -3.527658
     2  C   -0.583922
     3  C   -3.621139
     4  O   -3.065730
     5  C    2.332197
     6  O   -2.479771
     7  H    1.208167
     8  H    1.308306
     9  H    1.232263
    10  H    1.855031
    11  H    1.276689
    12  H    1.176901
    13  H    1.219175
    14  H    1.669491
 Sum of Mulliken charges =   0.00000

 Dipole moment (field-independent basis, Debye):
    X=             -1.4995    Y=             -0.3383    Z=              0.3139  Tot=              1.5689

 Test job not archived.
 1\1\GINC-SE103\SP\RHF\Aug-CC-pVDZ\C4H8O2\OHZDE\09-Apr-2025\0\\#t hf au
 g-cc-pvdz iop(5/13=1,5/36=2,99/5=2) pseudo=read geom=check guess=(read
 ,tcheck) scf=(maxcycle=1)\\title\\0,1\C,0,-0.16611887,1.41874542,-0.07
 713152\C,0,-0.22345775,-0.09747155,-0.24105619\C,0,-1.53996377,-0.7120
 0656,0.21621323\O,0,0.81757142,-0.7180835,0.59730291\C,0,2.0660261,-0.
 75160077,0.0859418\O,0,2.42751851,-0.31786352,-0.9886323\H,0,-0.967859
 45,1.88693481,-0.66517667\H,0,-0.30264219,1.69462728,0.9774873\H,0,0.7
 9581251,1.80812259,-0.43025312\H,0,-0.00627427,-0.36888801,-1.28215672

 Normal termination of Gaussian 16 at Wed Apr  9 17:17:25 2025.
