 Gaussian 16, Revision C.01,

 ----------------------------------------------------------------------
 #t hf aug-cc-pvdz symm=none int=(grid=ultrafine) guess=(read,tcheck) s
 table=(opt,rrhf)
 ----------------------------------------------------------------------
 -----
 title
 -----
 Symbolic Z-matrix:
 Charge =  0 Multiplicity = 1

 SCF Done:  E(RHF) =  -336.263436563     A.U. after   16 cycles
 Normal termination of Gaussian 16 at Wed Apr  9 03:46:12 2025.
 Gaussian 16:  ES64L-G16RevC.01  3-Jul-2019

 ----------------------------------------------------------------------
 #t hf aug-cc-pvdz iop(5/13=1,5/36=2,99/5=2) pseudo=read geom=check gue
 ss=(read,tcheck) scf=(maxcycle=1)
 ----------------------------------------------------------------------
 -----
 title
 -----
 Structure from the checkpoint file:  "Grambow2020_wb97xd3_007922_reverse_mol2.chk"
 Charge =  0 Multiplicity = 1

                         Standard orientation:
 ---------------------------------------------------------------------
 Center     Atomic      Atomic             Coordinates (Angstroms)
 Number     Number       Type             X           Y           Z
 ---------------------------------------------------------------------
      1          7           0        1.256751    1.481288   -0.000436
      2          6           0        0.861590    0.229677    0.000224
      3          8           0        1.640077   -0.787010    0.000906
      4          6           0       -0.406603   -0.418775   -0.000349
      5          6           0        0.163545   -1.665525   -0.000805
      6          6           0       -2.771593    0.476247    0.000870
      7          7           0       -1.689166    0.039020   -0.000462
      8          1           0        0.583878    2.228217   -0.000656
      9          1           0        2.240783    1.695962    0.000052
 ---------------------------------------------------------------------

 SCF Done:  E(RHF) =  -337.713913365     A.U. after    2 cycles

 The electronic state is 1-A.
 Alpha  occ. eigenvalues --  -21.08991 -15.85670 -15.80787 -11.57956 -11.47242
 Alpha  occ. eigenvalues --  -11.46831 -11.44132  -1.82836  -1.44207  -1.41817
 Alpha  occ. eigenvalues --   -1.16238  -0.92474  -0.87580  -0.78267  -0.70628
 Alpha  occ. eigenvalues --   -0.64514  -0.58758  -0.53723  -0.49437  -0.48174
 Alpha  occ. eigenvalues --   -0.44564  -0.42722  -0.34553  -0.31168
 Alpha virt. eigenvalues --    0.02101   0.04710   0.06766   0.08111   0.09330
 Alpha virt. eigenvalues --    0.09644   0.09699   0.10193   0.10947   0.11127
 Alpha virt. eigenvalues --    0.12642   0.13043   0.14496   0.14566   0.16263

 Mulliken charges:
               1
     1  N   -3.233549
     2  C    4.677378
     3  O   -2.865067
     4  C    3.339519
     5  C   -1.402468
     6  C   -0.770967
     7  N   -1.310800
     8  H    0.681033
     9  H    0.884921
 Sum of Mulliken charges =   0.00000

 Dipole moment (field-independent basis, Debye):
    X=              5.2554    Y=              4.7523    Z=              0.0011  Tot=              7.0855

 Test job not archived.
 1\1\GINC-SE343\SP\RHF\Aug-CC-pVDZ\C4H2N2O1\OHZDE\09-Apr-2025\0\\#t hf
 aug-cc-pvdz iop(5/13=1,5/36=2,99/5=2) pseudo=read geom=check guess=(re
 ad,tcheck) scf=(maxcycle=1)\\title\\0,1\N,0,-1.38725517,0.57058836,0.4
 1677153\C,0,-0.51682629,-0.38632949,0.63890413\O,0,-0.81267492,-1.6123
 8698,0.86015553\C,0,0.90415204,-0.44790776,0.71527429\C,0,0.8920277,-1
 .79423948,0.97353713\C,0,2.69681041,1.31659555,0.45614673\N,0,1.887537
 48,0.48450688,0.58074038\H,0,-1.07781558,1.51247964,0.25018975\H,0,-2.
 37229967,0.36066028,0.41221253\\Version=ES64L-G16RevC.01\State=1-A\HF=

 Normal termination of Gaussian 16 at Wed Apr  9 03:46:15 2025.
