 Gaussian 16, Revision C.01,

 ----------------------------------------------------------------------
 #t hf aug-cc-pvdz symm=none int=(grid=ultrafine) guess=(read,tcheck) s
 table=(opt,rrhf)
 ----------------------------------------------------------------------
 -----
 title
 -----
 Symbolic Z-matrix:
 Charge =  0 Multiplicity = 1

 SCF Done:  E(RHF) =  -306.905657462     A.U. after   15 cycles

 1\1\GINC-SE162\Stability\RHF\Aug-CC-pVDZ\C4H10O2\OHZDE\09-Apr-2025\0\\
 #t hf aug-cc-pvdz symm=none int=(grid=ultrafine) guess=(read,tcheck) s
 table=(opt,rrhf)\\title\\0,1\C,0,-1.69525367,-0.54121513,0.01305648\C,
 0,-0.23793014,-0.12093644,0.14969967\C,0,0.77591406,-0.90103563,-0.477
 28278\O,0,1.18520775,0.51618708,-1.75635153\C,0,0.16333441,0.64741257,
 1.39583814\O,0,1.51322342,1.10545134,1.33481975\H,0,-1.88861151,-0.992
 57556,-0.97256384\H,0,-1.99208401,-1.28073713,0.77567184\H,0,-2.368207
 01,0.32278358,0.11524973\H,0,0.16180731,0.62943548,-0.95603121\H,0,0.4

 Normal termination of Gaussian 16 at Wed Apr  9 17:20:30 2025.
 Gaussian 16:  ES64L-G16RevC.01  3-Jul-2019

 ----------------------------------------------------------------------
 #t hf aug-cc-pvdz iop(5/13=1,5/36=2,99/5=2) pseudo=read geom=check gue
 ss=(read,tcheck) scf=(maxcycle=1)
 ----------------------------------------------------------------------
 -----
 title
 -----
 Structure from the checkpoint file:  "Grambow2020_b97d3_007104_forward_mol1.chk"
 Charge =  0 Multiplicity = 1

                         Standard orientation:
 ---------------------------------------------------------------------
 Center     Atomic      Atomic             Coordinates (Angstroms)
 Number     Number       Type             X           Y           Z
 ---------------------------------------------------------------------
      1          6           0        1.762443   -1.097775   -0.209915
      2          6           0        0.445723   -0.376821    0.046151
      3          6           0        0.417330    0.727673    0.945500
      4          8           0        0.057363    1.993569   -0.496717
      5          6           0       -0.837697   -1.174590   -0.097492
      6          8           0       -1.998478   -0.354057    0.025139
      7          1           0        2.611635   -0.397279   -0.182723
      8          1           0        1.962651   -1.884068    0.537242
      9          1           0        1.765553   -1.577877   -1.199509
     10          1           0        0.336464    0.749259   -0.769628
     11          1           0        1.353239    1.148166    1.322697
     12          1           0       -0.477378    0.991211    1.503175
     13          1           0        0.823863    2.586440   -0.670139
     14          1           0       -0.812468   -1.718346   -1.061923
     15          1           0       -0.929768   -1.932097    0.697995
     16          1           0       -1.831669    0.447570   -0.510026
 ---------------------------------------------------------------------

 SCF Done:  E(RHF) =  -308.355015111     A.U. after    2 cycles

 The electronic state is 1-A.
 Alpha  occ. eigenvalues --  -21.05780 -21.02771 -11.49479 -11.43417 -11.40071
 Alpha  occ. eigenvalues --  -11.36068  -1.70055  -1.61073  -1.22542  -1.01241
 Alpha  occ. eigenvalues --   -0.97081  -0.80696  -0.66812  -0.65849  -0.63375
 Alpha  occ. eigenvalues --   -0.56117  -0.55491  -0.53792  -0.52028  -0.48813
 Alpha  occ. eigenvalues --   -0.43395  -0.38749  -0.36034  -0.31214  -0.24314
 Alpha virt. eigenvalues --    0.03156   0.04773   0.05055   0.05610   0.05642
 Alpha virt. eigenvalues --    0.06380   0.06943   0.07601   0.08098   0.09320
 Alpha virt. eigenvalues --    0.11252   0.12614   0.13022   0.13189   0.15116

 Mulliken charges:
               1
     1  C   -4.262357
     2  C   -0.377154
     3  C   -2.668962
     4  O   -1.803568
     5  C   -1.054535
     6  O   -2.801806
     7  H    1.258278
     8  H    1.182419
     9  H    1.146316
    10  H    2.203873
    11  H    1.481587
    12  H    1.514195
    13  H    0.868016
    14  H    1.232879
    15  H    1.271391
    16  H    0.809427
 Sum of Mulliken charges =  -0.00000

 Dipole moment (field-independent basis, Debye):
    X=              1.4291    Y=              0.4958    Z=              0.9113  Tot=              1.7660

 Test job not archived.
 1\1\GINC-SE162\SP\RHF\Aug-CC-pVDZ\C4H10O2\OHZDE\09-Apr-2025\0\\#t hf a
 ug-cc-pvdz iop(5/13=1,5/36=2,99/5=2) pseudo=read geom=check guess=(rea
 d,tcheck) scf=(maxcycle=1)\\title\\0,1\C,0,-1.69525367,-0.54121513,0.0
 1305648\C,0,-0.23793014,-0.12093644,0.14969967\C,0,0.77591406,-0.90103
 563,-0.47728278\O,0,1.18520775,0.51618708,-1.75635153\C,0,0.16333441,0
 .64741257,1.39583814\O,0,1.51322342,1.10545134,1.33481975\H,0,-1.88861
 151,-0.99257556,-0.97256384\H,0,-1.99208401,-1.28073713,0.77567184\H,0
 ,-2.36820701,0.32278358,0.11524973\H,0,0.16180731,0.62943548,-0.956031

 Normal termination of Gaussian 16 at Wed Apr  9 17:20:35 2025.
