 Gaussian 16, Revision C.01,

 ----------------------------------------------------------------------
 #t hf aug-cc-pvdz symm=none int=(grid=ultrafine) guess=(read,tcheck) s
 table=(opt,rrhf)
 ----------------------------------------------------------------------
 -----
 title
 -----
 Symbolic Z-matrix:
 Charge =  0 Multiplicity = 1

 SCF Done:  E(RHF) =  -245.693711918     A.U. after   15 cycles
 Normal termination of Gaussian 16 at Wed Apr  9 17:40:25 2025.
 Gaussian 16:  ES64L-G16RevC.01  3-Jul-2019

 ----------------------------------------------------------------------
 #t hf aug-cc-pvdz iop(5/13=1,5/36=2,99/5=2) pseudo=read geom=check gue
 ss=(read,tcheck) scf=(maxcycle=1)
 ----------------------------------------------------------------------
 -----
 title
 -----
 Structure from the checkpoint file:  "Grambow2020_wb97xd3_006108_reverse_mol1.chk"
 Charge =  0 Multiplicity = 1

                         Standard orientation:
 ---------------------------------------------------------------------
 Center     Atomic      Atomic             Coordinates (Angstroms)
 Number     Number       Type             X           Y           Z
 ---------------------------------------------------------------------
      1          6           0        1.034358    0.457239    0.213186
      2          6           0       -0.305962    1.127700   -0.148912
      3          7           0       -1.310600    0.066334    0.071357
      4          6           0       -0.930709   -1.058076    0.066576
      5          8           0        1.043186   -0.851114   -0.210803
      6          1           0        1.826283    1.014758   -0.302514
      7          1           0        1.200905    0.552531    1.298273
      8          1           0       -0.545410    1.998283    0.460229
      9          1           0       -0.368918    1.400550   -1.203922
     10          1           0       -0.070265   -1.782727    0.149760
 ---------------------------------------------------------------------

 SCF Done:  E(RHF) =  -246.822022239     A.U. after    2 cycles

 The electronic state is 1-A.
 Alpha  occ. eigenvalues --  -20.99487 -15.79517 -11.49442 -11.45767 -11.39153
 Alpha  occ. eigenvalues --   -1.66759  -1.41927  -1.10460  -0.88434  -0.83125
 Alpha  occ. eigenvalues --   -0.68563  -0.66257  -0.60229  -0.55508  -0.48239
 Alpha  occ. eigenvalues --   -0.45808  -0.42597  -0.28328  -0.27696
 Alpha virt. eigenvalues --    0.03760   0.05773   0.05933   0.06244   0.06487
 Alpha virt. eigenvalues --    0.08863   0.10144   0.10324   0.11889   0.13263
 Alpha virt. eigenvalues --    0.13985   0.14933   0.15192   0.15787   0.17094

 Mulliken charges:
               1
     1  C   -0.760996
     2  C   -2.312332
     3  N   -2.247675
     4  C    0.224587
     5  O   -2.224251
     6  H    1.247280
     7  H    1.298497
     8  H    1.419656
     9  H    1.418985
    10  H    1.936249
 Sum of Mulliken charges =  -0.00000

 Dipole moment (field-independent basis, Debye):
    X=              0.6456    Y=              1.2108    Z=              0.0172  Tot=              1.3723

 Test job not archived.
 1\1\GINC-SE362\SP\RHF\Aug-CC-pVDZ\C3H5N1O1\OHZDE\09-Apr-2025\0\\#t hf
 aug-cc-pvdz iop(5/13=1,5/36=2,99/5=2) pseudo=read geom=check guess=(re
 ad,tcheck) scf=(maxcycle=1)\\title\\0,1\C,0,-0.50516814,-0.75675997,-0
 .0487966\C,0,-0.56359614,0.75876408,0.22844629\N,0,0.74852069,1.259825
 1,-0.23155544\C,0,1.63665623,0.47679775,-0.31353596\O,0,0.753873,-1.24
 220753,0.21726492\H,0,-1.23161062,-1.23734839,0.61846296\H,0,-0.820723
 7,-0.94321501,-1.08797435\H,0,-1.36439554,1.27568125,-0.29863893\H,0,-
 0.62818038,0.98993447,1.29326812\H,0,1.9663136,-0.59999276,-0.37874702

 Normal termination of Gaussian 16 at Wed Apr  9 17:40:28 2025.
