 Gaussian 16, Revision C.01,

 ----------------------------------------------------------------------
 #t hf aug-cc-pvdz symm=none int=(grid=ultrafine) guess=(read,tcheck) s
 table=(opt,rrhf)
 ----------------------------------------------------------------------
 -----
 title
 -----
 Symbolic Z-matrix:
 Charge =  0 Multiplicity = 1

 SCF Done:  E(RHF) =  -302.750915466     A.U. after   15 cycles
 Normal termination of Gaussian 16 at Wed Apr  9 19:32:18 2025.
 Gaussian 16:  ES64L-G16RevC.01  3-Jul-2019

 ----------------------------------------------------------------------
 #t hf aug-cc-pvdz iop(5/13=1,5/36=2,99/5=2) pseudo=read geom=check gue
 ss=(read,tcheck) scf=(maxcycle=1)
 ----------------------------------------------------------------------
 -----
 title
 -----
 Structure from the checkpoint file:  "Grambow2020_wb97xd3_009342_forward_mol1.chk"
 Charge =  0 Multiplicity = 1

                         Standard orientation:
 ---------------------------------------------------------------------
 Center     Atomic      Atomic             Coordinates (Angstroms)
 Number     Number       Type             X           Y           Z
 ---------------------------------------------------------------------
      1          6           0        2.123453   -0.456888    0.114700
      2          7           0        0.832678    0.091395   -0.209293
      3          6           0       -0.283257   -0.589632   -0.675419
      4          6           0       -1.433993    0.242840   -0.617640
      5          6           0       -1.321965   -1.254223    0.580122
      6          6           0       -0.837275    1.362515    0.112387
      7          7           0        0.448581    1.264458    0.313075
      8          1           0        2.137336   -0.905686    1.113760
      9          1           0        2.866224    0.337269    0.077099
     10          1           0        2.382030   -1.220500   -0.618884
     11          1           0       -0.116544   -1.434348   -1.331402
     12          1           0       -2.103684   -0.725407    1.112176
     13          1           0       -0.529084   -1.496757    1.291521
     14          1           0       -1.745027   -2.140627    0.123008
     15          1           0       -1.341842    2.267404    0.421348
 ---------------------------------------------------------------------

 SCF Done:  E(RHF) =  -304.215463274     A.U. after    2 cycles

 The electronic state is 1-A.
 Alpha  occ. eigenvalues --  -15.77407 -15.76639 -11.45669 -11.41989 -11.41565
 Alpha  occ. eigenvalues --  -11.40091 -11.35941  -1.62450  -1.24121  -1.21804
 Alpha  occ. eigenvalues --   -1.00833  -0.97409  -0.81378  -0.78602  -0.70332
 Alpha  occ. eigenvalues --   -0.66402  -0.60143  -0.58471  -0.57487  -0.55150
 Alpha  occ. eigenvalues --   -0.53345  -0.51266  -0.42019  -0.39619  -0.32158
 Alpha  occ. eigenvalues --   -0.30357
 Alpha virt. eigenvalues --    0.03331   0.04892   0.05161   0.05894   0.06069
 Alpha virt. eigenvalues --    0.06415   0.07162   0.07763   0.10157   0.10905
 Alpha virt. eigenvalues --    0.11579   0.12376   0.12943   0.13469   0.13731

 Mulliken charges:
               1
     1  C   -3.481692
     2  N   -1.707792
     3  C   -0.354529
     4  C   -0.919566
     5  C   -3.259145
     6  C    0.606652
     7  N   -2.216254
     8  H    1.460064
     9  H    1.363684
    10  H    1.475703
    11  H    1.662938
    12  H    1.228486
    13  H    1.350162
    14  H    1.146227
    15  H    1.645064
 Sum of Mulliken charges =   0.00000

 Dipole moment (field-independent basis, Debye):
    X=              2.6805    Y=             -2.6017    Z=              1.0491  Tot=              3.8800

 Test job not archived.
 1\1\GINC-SE117\SP\RHF\Aug-CC-pVDZ\C5H8N2\OHZDE\09-Apr-2025\0\\#t hf au
 g-cc-pvdz iop(5/13=1,5/36=2,99/5=2) pseudo=read geom=check guess=(read
 ,tcheck) scf=(maxcycle=1)\\title\\0,1\C,0,-1.9351852,-0.43590679,-0.63
 452525\N,0,-0.90437178,0.08630555,0.22361517\C,0,0.23180547,-0.5692680
 8,0.67716517\C,0,1.13422767,0.3536484,1.27248122\C,0,1.62359763,-0.464
 50407,-0.39470948\C,0,0.43589668,1.58608604,0.90354434\N,0,-0.72361241
 ,1.41004286,0.33094909\H,0,-1.64596182,-0.3972943,-1.69026774\H,0,-2.8
 4163132,0.15020151,-0.49799912\H,0,-2.13709813,-1.47167774,-0.36153691

 Normal termination of Gaussian 16 at Wed Apr  9 19:32:23 2025.
