 Gaussian 16, Revision C.01,

 ----------------------------------------------------------------------
 #t hf aug-cc-pvdz symm=none int=(grid=ultrafine) guess=(read,tcheck) s
 table=(opt,rrhf)
 ----------------------------------------------------------------------
 -----
 title
 -----
 Symbolic Z-matrix:
 Charge =  0 Multiplicity = 1

 SCF Done:  E(RHF) =  -344.773605215     A.U. after   15 cycles

 1\1\GINC-SE070\Stability\RHF\Aug-CC-pVDZ\C5H10O2\OHZDE\09-Apr-2025\0\\
 #t hf aug-cc-pvdz symm=none int=(grid=ultrafine) guess=(read,tcheck) s
 table=(opt,rrhf)\\title\\0,1\C,0,2.09476349,0.41051326,-0.63897488\C,0
 ,1.01237271,-0.55212816,-0.18937605\C,0,0.37308959,-0.13421514,1.13906
 491\O,0,-0.82172312,-0.91120336,1.19006525\C,0,-1.58265587,-0.77830871
 ,0.08620231\C,0,-2.27377547,0.53275708,-0.07355304\O,0,-0.0155323,-0.5
 6351685,-1.15365268\H,0,2.53388326,0.07245384,-1.57665558\H,0,2.888296
 93,0.47929191,0.10819739\H,0,1.67231693,1.40472394,-0.79569439\H,0,1.4

 Normal termination of Gaussian 16 at Wed Apr  9 03:34:38 2025.
 Gaussian 16:  ES64L-G16RevC.01  3-Jul-2019

 ----------------------------------------------------------------------
 #t hf aug-cc-pvdz iop(5/13=1,5/36=2,99/5=2) pseudo=read geom=check gue
 ss=(read,tcheck) scf=(maxcycle=1)
 ----------------------------------------------------------------------
 -----
 title
 -----
 Structure from the checkpoint file:  "Grambow2020_wb97xd3_007112_reverse_mol1.chk"
 Charge =  0 Multiplicity = 1

                         Standard orientation:
 ---------------------------------------------------------------------
 Center     Atomic      Atomic             Coordinates (Angstroms)
 Number     Number       Type             X           Y           Z
 ---------------------------------------------------------------------
      1          6           0       -2.338011   -0.391134    0.466240
      2          6           0       -1.157108    0.085172   -0.357767
      3          6           0       -0.304299    1.118771    0.385522
      4          8           0        0.908151    1.148354   -0.364798
      5          6           0        1.451589   -0.072828   -0.533863
      6          6           0        2.053150   -0.691158    0.681807
      7          8           0       -0.320684   -1.015452   -0.632666
      8          1           0       -2.926453   -1.111775   -0.100124
      9          1           0       -2.985458    0.445616    0.737078
     10          1           0       -1.988162   -0.875039    1.379979
     11          1           0       -1.508645    0.537929   -1.293377
     12          1           0       -0.137102    0.815294    1.423799
     13          1           0       -0.725855    2.122412    0.362595
     14          1           0        0.584781   -0.753478   -1.288746
     15          1           0        1.601126   -0.400626    1.633337
     16          1           0        2.056145   -1.775165    0.585860
     17          1           0        3.097970   -0.361329    0.687689
 ---------------------------------------------------------------------

 SCF Done:  E(RHF) =  -346.379117199     A.U. after    2 cycles

 The electronic state is 1-A.
 Alpha  occ. eigenvalues --  -21.07668 -21.03518 -11.48723 -11.44817 -11.42617
 Alpha  occ. eigenvalues --  -11.37836 -11.37120  -1.82995  -1.67656  -1.17216
 Alpha  occ. eigenvalues --   -1.10212  -1.00318  -0.84297  -0.80875  -0.71500
 Alpha  occ. eigenvalues --   -0.65759  -0.61404  -0.58684  -0.56709  -0.56080
 Alpha  occ. eigenvalues --   -0.55452  -0.51409  -0.49536  -0.42342  -0.40635
 Alpha  occ. eigenvalues --   -0.35159  -0.32283  -0.26247
 Alpha virt. eigenvalues --    0.03884   0.04735   0.05186   0.05458   0.05748
 Alpha virt. eigenvalues --    0.06246   0.06358   0.07544   0.07645   0.09631
 Alpha virt. eigenvalues --    0.10269   0.12192   0.12672   0.13415   0.13802

 Mulliken charges:
               1
     1  C   -3.575072
     2  C    0.482617
     3  C   -1.539412
     4  O   -3.146831
     5  C    0.119208
     6  C   -3.534637
     7  O   -2.941413
     8  H    1.191906
     9  H    1.197197
    10  H    1.254454
    11  H    1.715419
    12  H    1.703389
    13  H    1.300494
    14  H    1.700545
    15  H    1.490174
    16  H    1.334018
    17  H    1.247944
 Sum of Mulliken charges =   0.00000

 Dipole moment (field-independent basis, Debye):
    X=             -2.0275    Y=              0.2571    Z=              1.3496  Tot=              2.4491

 Test job not archived.
 1\1\GINC-SE070\SP\RHF\Aug-CC-pVDZ\C5H10O2\OHZDE\09-Apr-2025\0\\#t hf a
 ug-cc-pvdz iop(5/13=1,5/36=2,99/5=2) pseudo=read geom=check guess=(rea
 d,tcheck) scf=(maxcycle=1)\\title\\0,1\C,0,2.09476349,0.41051326,-0.63
 897488\C,0,1.01237271,-0.55212816,-0.18937605\C,0,0.37308959,-0.134215
 14,1.13906491\O,0,-0.82172312,-0.91120336,1.19006525\C,0,-1.58265587,-
 0.77830871,0.08620231\C,0,-2.27377547,0.53275708,-0.07355304\O,0,-0.01
 55323,-0.56351685,-1.15365268\H,0,2.53388326,0.07245384,-1.57665558\H,
 0,2.88829693,0.47929191,0.10819739\H,0,1.67231693,1.40472394,-0.795694

 Normal termination of Gaussian 16 at Wed Apr  9 03:34:44 2025.
