 Gaussian 16, Revision C.01,

 ----------------------------------------------------------------------
 #t hf aug-cc-pvdz symm=none int=(grid=ultrafine) guess=(read,tcheck) s
 table=(opt,rrhf)
 ----------------------------------------------------------------------
 -----
 title
 -----
 Symbolic Z-matrix:
 Charge =  0 Multiplicity = 1

 SCF Done:  E(RHF) =  -379.413425601     A.U. after   16 cycles
 Normal termination of Gaussian 16 at Wed Apr  9 19:16:57 2025.
 Gaussian 16:  ES64L-G16RevC.01  3-Jul-2019

 ----------------------------------------------------------------------
 #t hf aug-cc-pvdz iop(5/13=1,5/36=2,99/5=2) pseudo=read geom=check gue
 ss=(read,tcheck) scf=(maxcycle=1)
 ----------------------------------------------------------------------
 -----
 title
 -----
 Structure from the checkpoint file:  "Grambow2020_wb97xd3_008543_reverse_mol1.chk"
 Charge =  0 Multiplicity = 1

                         Standard orientation:
 ---------------------------------------------------------------------
 Center     Atomic      Atomic             Coordinates (Angstroms)
 Number     Number       Type             X           Y           Z
 ---------------------------------------------------------------------
      1          8           0        0.633076    1.513629    0.087651
      2          6           0        0.071910    0.242214    0.050357
      3          6           0       -1.074931    0.072481   -0.956219
      4          8           0       -2.082741   -0.456017   -0.063555
      5          6           0       -0.858331   -0.074040    1.224069
      6          6           0        1.151633   -0.800119   -0.115583
      7          8           0        2.321473   -0.531122   -0.070051
      8          1           0        1.592705    1.395989    0.100867
      9          1           0       -0.912732   -0.661558   -1.744651
     10          1           0       -1.370027    1.028549   -1.390253
     11          1           0       -2.124106    0.267776    0.732189
     12          1           0       -0.700778   -1.044330    1.701802
     13          1           0        0.798782   -1.841564   -0.248058
 ---------------------------------------------------------------------

 SCF Done:  E(RHF) =  -381.056315590     A.U. after    2 cycles

 The electronic state is 1-A.
 Alpha  occ. eigenvalues --  -21.09733 -21.09409 -21.08370 -11.51705 -11.49732
 Alpha  occ. eigenvalues --  -11.45852 -11.41911  -1.81649  -1.75344  -1.70481
 Alpha  occ. eigenvalues --   -1.16542  -1.01277  -0.91471  -0.78946  -0.73874
 Alpha  occ. eigenvalues --   -0.68285  -0.64420  -0.61412  -0.57400  -0.55409
 Alpha  occ. eigenvalues --   -0.47361  -0.44102  -0.43155  -0.37960  -0.34054
 Alpha  occ. eigenvalues --   -0.32944  -0.29021
 Alpha virt. eigenvalues --    0.03647   0.05028   0.05094   0.06154   0.06506
 Alpha virt. eigenvalues --    0.07150   0.08463   0.10236   0.10682   0.11739
 Alpha virt. eigenvalues --    0.12168   0.13665   0.14198   0.14625   0.15130

 Mulliken charges:
               1
     1  O   -3.773070
     2  C    3.312318
     3  C   -1.006622
     4  O   -2.488775
     5  C   -1.849459
     6  C    0.922008
     7  O   -2.872422
     8  H    0.694120
     9  H    1.497470
    10  H    1.223377
    11  H    1.425250
    12  H    1.509712
    13  H    1.406091
 Sum of Mulliken charges =  -0.00000

 Dipole moment (field-independent basis, Debye):
    X=             -0.7664    Y=             -1.2901    Z=             -2.0332  Tot=              2.5270

 Test job not archived.
 1\1\GINC-SE014\SP\RHF\Aug-CC-pVDZ\C4H6O3\OHZDE\09-Apr-2025\0\\#t hf au
 g-cc-pvdz iop(5/13=1,5/36=2,99/5=2) pseudo=read geom=check guess=(read
 ,tcheck) scf=(maxcycle=1)\\title\\0,1\O,0,1.10979728,0.49773066,-1.302
 94352\C,0,0.32212521,0.14759961,-0.21217537\C,0,-0.91285915,-0.6983972
 5,-0.55327817\O,0,-1.92656462,0.1159117,0.08007891\C,0,-0.55396026,1.2
 814313,0.32621558\C,0,1.17383913,-0.47429261,0.86839354\O,0,2.37308473
 ,-0.50627873,0.80718261\H,0,2.02908868,0.34483652,-1.04520508\H,0,-0.9
 5252399,-1.68848386,-0.10061753\H,0,-1.05978704,-0.77387266,-1.6313546

 Normal termination of Gaussian 16 at Wed Apr  9 19:17:01 2025.
