 Gaussian 16, Revision C.01,

 ----------------------------------------------------------------------
 #t hf aug-cc-pvdz symm=none int=(grid=ultrafine) guess=(read,tcheck) s
 table=(opt,rrhf)
 ----------------------------------------------------------------------
 -----
 title
 -----
 Symbolic Z-matrix:
 Charge =  0 Multiplicity = 1

 SCF Done:  E(RHF) =  -344.805859755     A.U. after   14 cycles

 1\1\GINC-SE461\Stability\RHF\Aug-CC-pVDZ\C5H10O2\OHZDE\09-Apr-2025\0\\
 #t hf aug-cc-pvdz symm=none int=(grid=ultrafine) guess=(read,tcheck) s
 table=(opt,rrhf)\\title\\0,1\C,0,-2.77734661,-0.9891402,0.24477928\C,0
 ,-0.20847896,1.58169922,-0.82398592\O,0,-0.50466644,2.10120839,0.32150
 117\C,0,0.44913138,0.24606823,-0.61375116\C,0,1.96915152,0.26136822,-0
 .85030283\C,0,2.06186706,-0.16688496,0.61807016\O,0,0.62882386,-0.1252
 4483,0.78007105\H,0,-3.65121979,-1.02070693,0.89355656\H,0,-2.79163257
 ,-1.85118544,-0.4210916\H,0,-1.87211568,-1.01383326,0.85103079\H,0,-2.

 Normal termination of Gaussian 16 at Wed Apr  9 03:33:28 2025.
 Gaussian 16:  ES64L-G16RevC.01  3-Jul-2019

 ----------------------------------------------------------------------
 #t hf aug-cc-pvdz iop(5/13=1,5/36=2,99/5=2) pseudo=read geom=check gue
 ss=(read,tcheck) scf=(maxcycle=1)
 ----------------------------------------------------------------------
 -----
 title
 -----
 Structure from the checkpoint file:  "Grambow2020_wb97xd3_007050_reverse_mol2.chk"
 Charge =  0 Multiplicity = 1

                         Standard orientation:
 ---------------------------------------------------------------------
 Center     Atomic      Atomic             Coordinates (Angstroms)
 Number     Number       Type             X           Y           Z
 ---------------------------------------------------------------------
      1          6           0        3.108300   -0.817427    0.138106
      2          6           0        0.086959    1.421034    0.597832
      3          8           0        0.377202    1.771023   -0.611724
      4          6           0       -0.328993   -0.023691    0.615576
      5          6           0       -1.844535   -0.228619    0.782275
      6          6           0       -1.760391   -0.921393   -0.581947
      7          8           0       -0.345049   -0.662995   -0.689773
      8          1           0        4.020339   -0.813140   -0.456645
      9          1           0        3.213691   -1.531298    0.954188
     10          1           0        2.265197   -1.105488   -0.489422
     11          1           0        2.942044    0.179320    0.546028
     12          1           0        0.258475    1.000457   -1.222545
     13          1           0        0.307387   -0.566146    1.319537
     14          1           0       -2.140033   -0.856793    1.618221
     15          1           0       -2.415751    0.697953    0.801172
     16          1           0       -2.320534   -0.453451   -1.394138
     17          1           0       -1.956083   -1.995070   -0.575464
 ---------------------------------------------------------------------

 SCF Done:  E(RHF) =  -346.389596862     A.U. after    2 cycles

 The electronic state is 1-A.
 Alpha  occ. eigenvalues --  -21.13057 -21.05913 -11.48740 -11.45383 -11.41870
 Alpha  occ. eigenvalues --  -11.39069 -11.35500  -1.82879  -1.75084  -1.15392
 Alpha  occ. eigenvalues --   -1.04743  -1.02616  -0.87494  -0.76547  -0.72046
 Alpha  occ. eigenvalues --   -0.69575  -0.62155  -0.57071  -0.54399  -0.53565
 Alpha  occ. eigenvalues --   -0.53400  -0.53212  -0.48717  -0.44202  -0.43372
 Alpha  occ. eigenvalues --   -0.39048  -0.32799  -0.31573
 Alpha virt. eigenvalues --    0.03413   0.04494   0.04741   0.05074   0.05731
 Alpha virt. eigenvalues --    0.06226   0.07051   0.07985   0.08497   0.08938
 Alpha virt. eigenvalues --    0.10358   0.10922   0.12164   0.12443   0.13274

 Mulliken charges:
               1
     1  C   -5.300559
     2  C    0.352046
     3  O   -2.446311
     4  C    1.571856
     5  C   -3.774954
     6  C   -1.490940
     7  O   -2.546927
     8  H    1.179616
     9  H    1.265639
    10  H    1.411024
    11  H    1.387877
    12  H    1.123141
    13  H    1.888332
    14  H    1.135900
    15  H    1.385918
    16  H    1.451091
    17  H    1.407248
 Sum of Mulliken charges =  -0.00000

 Dipole moment (field-independent basis, Debye):
    X=             -1.1739    Y=             -2.1722    Z=             -1.7240  Tot=              3.0114

 Test job not archived.
 1\1\GINC-SE461\SP\RHF\Aug-CC-pVDZ\C5H10O2\OHZDE\09-Apr-2025\0\\#t hf a
 ug-cc-pvdz iop(5/13=1,5/36=2,99/5=2) pseudo=read geom=check guess=(rea
 d,tcheck) scf=(maxcycle=1)\\title\\0,1\C,0,-2.77734661,-0.9891402,0.24
 477928\C,0,-0.20847896,1.58169922,-0.82398592\O,0,-0.50466644,2.101208
 39,0.32150117\C,0,0.44913138,0.24606823,-0.61375116\C,0,1.96915152,0.2
 6136822,-0.85030283\C,0,2.06186706,-0.16688496,0.61807016\O,0,0.628823
 86,-0.12524483,0.78007105\H,0,-3.65121979,-1.02070693,0.89355656\H,0,-
 2.79163257,-1.85118544,-0.4210916\H,0,-1.87211568,-1.01383326,0.851030

 Normal termination of Gaussian 16 at Wed Apr  9 03:33:33 2025.
