 Gaussian 16, Revision C.01,

 ----------------------------------------------------------------------
 #t hf aug-cc-pvdz symm=none int=(grid=ultrafine) guess=(read,tcheck) s
 table=(opt,rrhf)
 ----------------------------------------------------------------------
 -----
 title
 -----
 Symbolic Z-matrix:
 Charge =  0 Multiplicity = 1

 SCF Done:  E(RHF) =  -152.509450294     A.U. after   11 cycles
 Normal termination of Gaussian 16 at Wed Apr  9 15:41:30 2025.
 Gaussian 16:  ES64L-G16RevC.01  3-Jul-2019

 ----------------------------------------------------------------------
 #t hf aug-cc-pvdz iop(5/13=1,5/36=2,99/5=2) pseudo=read geom=check gue
 ss=(read,tcheck) scf=(maxcycle=1)
 ----------------------------------------------------------------------
 -----
 title
 -----
 Structure from the checkpoint file:  "Grambow2020_b97d3_006637_forward_mol2.chk"
 Charge =  0 Multiplicity = 1

                         Standard orientation:
 ---------------------------------------------------------------------
 Center     Atomic      Atomic             Coordinates (Angstroms)
 Number     Number       Type             X           Y           Z
 ---------------------------------------------------------------------
      1          6           0       -0.683176   -0.000172    0.000023
      2          6           0       -1.907202    0.000494   -0.000003
      3          6           0        0.683164    0.000109   -0.000026
      4          6           0        1.907207   -0.000450    0.000005
      5          1           0       -2.977402   -0.001567   -0.000016
      6          1           0        2.977440    0.001676    0.000022
 ---------------------------------------------------------------------

 SCF Done:  E(RHF) =  -153.211481685     A.U. after    2 cycles

 The electronic state is 1-A.
 Alpha  occ. eigenvalues --  -11.47610 -11.45097 -11.44104 -11.43023  -1.19529
 Alpha  occ. eigenvalues --   -1.05794  -0.86613  -0.73420  -0.66567  -0.47735
 Alpha  occ. eigenvalues --   -0.47735  -0.33936  -0.33936
 Alpha virt. eigenvalues --    0.02782   0.04525   0.08539   0.09585   0.09585
 Alpha virt. eigenvalues --    0.10822   0.11262   0.11262   0.13814   0.14295
 Alpha virt. eigenvalues --    0.15595   0.15595   0.19937   0.20701   0.20701

 Mulliken charges:
               1
     1  C    4.061619
     2  C   -4.580013
     3  C    4.061411
     4  C   -4.580032
     5  H    0.518447
     6  H    0.518567
 Sum of Mulliken charges =  -0.00000

 Dipole moment (field-independent basis, Debye):
    X=              0.0000    Y=              0.0001    Z=              0.0000  Tot=              0.0001

 Test job not archived.
 1\1\GINC-SE174\SP\RHF\Aug-CC-pVDZ\C4H2\OHZDE\09-Apr-2025\0\\#t hf aug-
 cc-pvdz iop(5/13=1,5/36=2,99/5=2) pseudo=read geom=check guess=(read,t
 check) scf=(maxcycle=1)\\title\\0,1\C,0,0.67594456,-0.0070501,-0.08929
 58\C,0,1.88685817,-0.01983396,0.08892675\C,0,-0.67590841,0.0070537,-0.
 28723765\C,0,-1.8868554,0.01983288,-0.46535704\H,0,2.94597868,-0.03077
 146,0.24214793\H,0,-2.94601761,0.03076894,-0.61851865\\Version=ES64L-G
 16RevC.01\State=1-A\HF=-153.2114817\RMSD=2.041e+00\Dipole=-0.0000053,-
 0.0000009,0.0000328\Quadrupole=6.7263483,-3.4708228,-3.2555256,-0.1062

 Normal termination of Gaussian 16 at Wed Apr  9 15:41:32 2025.
