 Gaussian 16, Revision C.01,

 ----------------------------------------------------------------------
 #t hf aug-cc-pvdz symm=none int=(grid=ultrafine) guess=(read,tcheck) s
 table=(opt,rrhf)
 ----------------------------------------------------------------------
 -----
 title
 -----
 Symbolic Z-matrix:
 Charge =  0 Multiplicity = 1

 SCF Done:  E(RHF) =  -322.740783710     A.U. after   14 cycles
 Normal termination of Gaussian 16 at Wed Apr  9 03:33:20 2025.
 Gaussian 16:  ES64L-G16RevC.01  3-Jul-2019

 ----------------------------------------------------------------------
 #t hf aug-cc-pvdz iop(5/13=1,5/36=2,99/5=2) pseudo=read geom=check gue
 ss=(read,tcheck) scf=(maxcycle=1)
 ----------------------------------------------------------------------
 -----
 title
 -----
 Structure from the checkpoint file:  "Grambow2020_wb97xd3_007013_reverse_mol2.chk"
 Charge =  0 Multiplicity = 1

                         Standard orientation:
 ---------------------------------------------------------------------
 Center     Atomic      Atomic             Coordinates (Angstroms)
 Number     Number       Type             X           Y           Z
 ---------------------------------------------------------------------
      1          6           0       -1.931114   -0.595060   -0.393923
      2          6           0       -0.671013   -0.429451    0.452984
      3          6           0        0.398038   -1.463185    0.231615
      4          6           0        1.501028   -0.845273   -0.152536
      5          7           0       -0.378670    2.010099    0.126086
      6          6           0        0.079702    0.844436    0.113855
      7          8           0        1.374827    0.525188   -0.235782
      8          1           0       -2.461291   -1.507877   -0.118284
      9          1           0       -1.678934   -0.650327   -1.454272
     10          1           0       -2.593552    0.257283   -0.242723
     11          1           0       -0.958502   -0.381412    1.508173
     12          1           0        0.281980   -2.527382    0.361872
     13          1           0        2.479001   -1.221398   -0.409843
     14          1           0        0.323528    2.690114   -0.153239
 ---------------------------------------------------------------------

 SCF Done:  E(RHF) =  -324.226293908     A.U. after    2 cycles

 The electronic state is 1-A.
 Alpha  occ. eigenvalues --  -21.09957 -15.72545 -11.51404 -11.46738 -11.43891
 Alpha  occ. eigenvalues --  -11.39961 -11.37270  -1.84125  -1.32315  -1.24268
 Alpha  occ. eigenvalues --   -1.06776  -0.96253  -0.81774  -0.77507  -0.71453
 Alpha  occ. eigenvalues --   -0.63322  -0.60747  -0.57956  -0.56286  -0.50798
 Alpha  occ. eigenvalues --   -0.48626  -0.47192  -0.43800  -0.42618  -0.36922
 Alpha  occ. eigenvalues --   -0.27727
 Alpha virt. eigenvalues --    0.03459   0.04730   0.05208   0.05901   0.06539
 Alpha virt. eigenvalues --    0.06721   0.07326   0.09922   0.11579   0.11768
 Alpha virt. eigenvalues --    0.11973   0.12870   0.13582   0.14541   0.15074

 Mulliken charges:
               1
     1  C   -3.821623
     2  C   -3.716682
     3  C   -0.375307
     4  C    0.860519
     5  N   -3.651642
     6  C    5.519633
     7  O   -3.794568
     8  H    1.222268
     9  H    1.364097
    10  H    1.276464
    11  H    1.545470
    12  H    1.334218
    13  H    1.493465
    14  H    0.743689
 Sum of Mulliken charges =   0.00000

 Dipole moment (field-independent basis, Debye):
    X=              1.2999    Y=             -1.8516    Z=             -0.2077  Tot=              2.2719

 Test job not archived.
 1\1\GINC-SE412\SP\RHF\Aug-CC-pVDZ\C5H7N1O1\OHZDE\09-Apr-2025\0\\#t hf
 aug-cc-pvdz iop(5/13=1,5/36=2,99/5=2) pseudo=read geom=check guess=(re
 ad,tcheck) scf=(maxcycle=1)\\title\\0,1\C,0,-1.78477499,-0.0725686,-0.
 01650234\C,0,-0.37738095,0.26507398,-0.50412072\C,0,0.40147066,1.20839
 249,0.36996215\C,0,1.50970348,0.60013918,0.75443838\N,0,0.3251187,-2.0
 3906183,-1.08822811\C,0,0.53147503,-0.94956497,-0.50561463\O,0,1.64472
 498,-0.68077807,0.26246118\H,0,-2.42226144,0.81244346,-0.04228202\H,0,
 -1.75855962,-0.44816258,1.00781768\H,0,-2.22258502,-0.84165635,-0.6528

 Normal termination of Gaussian 16 at Wed Apr  9 03:33:24 2025.
