 Gaussian 16, Revision C.01,

 ----------------------------------------------------------------------
 #t hf aug-cc-pvdz symm=none int=(grid=ultrafine) guess=(read,tcheck) s
 table=(opt,rrhf)
 ----------------------------------------------------------------------
 -----
 title
 -----
 Symbolic Z-matrix:
 Charge =  0 Multiplicity = 1

 SCF Done:  E(RHF) =  -323.780191519     A.U. after   15 cycles
 Normal termination of Gaussian 16 at Wed Apr  9 18:25:30 2025.
 Gaussian 16:  ES64L-G16RevC.01  3-Jul-2019

 ----------------------------------------------------------------------
 #t hf aug-cc-pvdz iop(5/13=1,5/36=2,99/5=2) pseudo=read geom=check gue
 ss=(read,tcheck) scf=(maxcycle=1)
 ----------------------------------------------------------------------
 -----
 title
 -----
 Structure from the checkpoint file:  "Grambow2020_wb97xd3_006978_reverse_mol1.chk"
 Charge =  0 Multiplicity = 1

                         Standard orientation:
 ---------------------------------------------------------------------
 Center     Atomic      Atomic             Coordinates (Angstroms)
 Number     Number       Type             X           Y           Z
 ---------------------------------------------------------------------
      1          6           0       -2.668008   -0.524497    0.085553
      2          6           0       -1.642066    0.558934   -0.209690
      3          6           0       -0.281232    0.199990    0.356588
      4          8           0        0.254072   -0.953405   -0.242965
      5          6           0        0.827985    1.230902    0.001319
      6          6           0        1.817315    0.154695   -0.114313
      7          7           0        2.691811   -0.626135    0.079129
      8          1           0       -2.811679   -0.647236    1.161877
      9          1           0       -3.635627   -0.284805   -0.357693
     10          1           0       -2.328446   -1.478241   -0.319484
     11          1           0       -1.964384    1.520659    0.204852
     12          1           0       -1.534143    0.686569   -1.291505
     13          1           0       -0.351959    0.101729    1.452362
     14          1           0        1.670018   -1.278737    0.061712
     15          1           0        1.118796    1.986077    0.732966
     16          1           0        0.638196    1.684034   -0.972015
 ---------------------------------------------------------------------

 SCF Done:  E(RHF) =  -325.331934028     A.U. after    2 cycles

 The electronic state is 1-A.
 Alpha  occ. eigenvalues --  -20.97297 -15.78917 -11.55605 -11.48815 -11.44307
 Alpha  occ. eigenvalues --  -11.39462 -11.35235  -1.69019  -1.39096  -1.20843
 Alpha  occ. eigenvalues --   -1.13516  -0.94264  -0.82044  -0.74276  -0.70358
 Alpha  occ. eigenvalues --   -0.67934  -0.61698  -0.59024  -0.56515  -0.54956
 Alpha  occ. eigenvalues --   -0.49582  -0.49087  -0.47133  -0.44475  -0.40072
 Alpha  occ. eigenvalues --   -0.27923  -0.26642
 Alpha virt. eigenvalues --    0.03665   0.04896   0.05018   0.05518   0.05951
 Alpha virt. eigenvalues --    0.06149   0.07661   0.07871   0.08864   0.09277
 Alpha virt. eigenvalues --    0.10610   0.11865   0.13112   0.13569   0.13824

 Mulliken charges:
               1
     1  C   -3.927355
     2  C   -3.131386
     3  C    1.670752
     4  O   -2.807508
     5  C   -3.625485
     6  C    3.013821
     7  N   -2.759765
     8  H    1.286605
     9  H    1.087766
    10  H    1.339242
    11  H    1.322352
    12  H    1.426921
    13  H    1.668169
    14  H    0.688525
    15  H    1.273151
    16  H    1.474196
 Sum of Mulliken charges =   0.00000

 Dipole moment (field-independent basis, Debye):
    X=             -0.6056    Y=              2.2306    Z=              0.1689  Tot=              2.3175

 Test job not archived.
 1\1\GINC-SE224\SP\RHF\Aug-CC-pVDZ\C5H9N1O1\OHZDE\09-Apr-2025\0\\#t hf
 aug-cc-pvdz iop(5/13=1,5/36=2,99/5=2) pseudo=read geom=check guess=(re
 ad,tcheck) scf=(maxcycle=1)\\title\\0,1\C,0,2.24185275,-0.17253408,0.2
 5565358\C,0,0.86602981,-0.26153865,0.89810094\C,0,-0.19673352,0.367200
 54,0.01685051\O,0,-0.34249241,-0.31377092,-1.20436414\C,0,-1.63743559,
 0.21945859,0.58422018\C,0,-2.1751711,0.06258335,-0.77099034\N,0,-2.678
 20213,0.23591998,-1.83342786\H,0,2.54347757,0.868304,0.11473576\H,0,2.
 99847825,-0.66155287,0.87094505\H,0,2.22711745,-0.65395823,-0.72260912

 Normal termination of Gaussian 16 at Wed Apr  9 18:25:36 2025.
