 Gaussian 16, Revision C.01,

 ----------------------------------------------------------------------
 #t hf aug-cc-pvdz symm=none int=(grid=ultrafine) guess=(read,tcheck) s
 table=(opt,rrhf)
 ----------------------------------------------------------------------
 -----
 title
 -----
 Symbolic Z-matrix:
 Charge =  0 Multiplicity = 1

 SCF Done:  E(RHF) =  -338.653029256     A.U. after   15 cycles
 Normal termination of Gaussian 16 at Wed Apr  9 19:14:56 2025.
 Gaussian 16:  ES64L-G16RevC.01  3-Jul-2019

 ----------------------------------------------------------------------
 #t hf aug-cc-pvdz iop(5/13=1,5/36=2,99/5=2) pseudo=read geom=check gue
 ss=(read,tcheck) scf=(maxcycle=1)
 ----------------------------------------------------------------------
 -----
 title
 -----
 Structure from the checkpoint file:  "Grambow2020_wb97xd3_008473_reverse_mol2.chk"
 Charge =  0 Multiplicity = 1

                         Standard orientation:
 ---------------------------------------------------------------------
 Center     Atomic      Atomic             Coordinates (Angstroms)
 Number     Number       Type             X           Y           Z
 ---------------------------------------------------------------------
      1          7           0       -1.690919   -1.081731    0.035690
      2          6           0       -0.444644   -0.621029    0.069113
      3          6           0       -0.066414    0.817512    0.367050
      4          8           0       -0.946501    1.710681   -0.272969
      5          6           0        1.406296    0.949081    0.084138
      6          6           0        1.801396   -0.308659   -0.095924
      7          7           0        0.661393   -1.278062   -0.090827
      8          1           0       -1.914248   -2.026043   -0.221459
      9          1           0       -2.427174   -0.397159    0.007194
     10          1           0       -0.369440    2.367352   -0.675500
     11          1           0       -0.177744    0.897702    1.463912
     12          1           0        2.766162   -0.762376   -0.276333
     13          1           0        0.721331   -2.267797   -0.274370
 ---------------------------------------------------------------------

 SCF Done:  E(RHF) =  -340.187607562     A.U. after    2 cycles

 The electronic state is 1-A.
 Alpha  occ. eigenvalues --  -21.07033 -15.83134 -15.80564 -11.54023 -11.42673
 Alpha  occ. eigenvalues --  -11.37006 -11.29892  -1.72762  -1.52679  -1.36743
 Alpha  occ. eigenvalues --   -1.11171  -1.00827  -0.83438  -0.79779  -0.74417
 Alpha  occ. eigenvalues --   -0.71499  -0.64760  -0.58352  -0.56620  -0.54015
 Alpha  occ. eigenvalues --   -0.51511  -0.44649  -0.38860  -0.32131  -0.28498
 Alpha  occ. eigenvalues --   -0.26891
 Alpha virt. eigenvalues --    0.02009   0.03951   0.04969   0.06295   0.07240
 Alpha virt. eigenvalues --    0.07715   0.09708   0.10416   0.11735   0.12666
 Alpha virt. eigenvalues --    0.12922   0.13410   0.13977   0.14749   0.15477

 Mulliken charges:
               1
     1  N   -3.339185
     2  C    3.710843
     3  C    1.119136
     4  O   -2.909484
     5  C   -1.642248
     6  C    0.342917
     7  N   -3.134544
     8  H    0.802657
     9  H    0.598036
    10  H    0.691743
    11  H    1.559783
    12  H    1.423823
    13  H    0.776525
 Sum of Mulliken charges =   0.00000

 Dipole moment (field-independent basis, Debye):
    X=             -5.3950    Y=             -6.2894    Z=             -0.6638  Tot=              8.3128

 Test job not archived.
 1\1\GINC-SE159\SP\RHF\Aug-CC-pVDZ\C4H6N2O1\OHZDE\09-Apr-2025\0\\#t hf
 aug-cc-pvdz iop(5/13=1,5/36=2,99/5=2) pseudo=read geom=check guess=(re
 ad,tcheck) scf=(maxcycle=1)\\title\\0,1\N,0,1.80214291,0.56266846,0.14
 423916\C,0,0.48831155,0.37629186,0.0688887\C,0,-0.22048449,-0.9138602,
 0.4354105\O,0,0.50228856,-2.03140766,-0.02351845\C,0,-1.6520856,-0.765
 87223,-0.00600091\C,0,-1.74512121,0.52089841,-0.33157848\N,0,-0.427716
 54,1.22814936,-0.27143857\H,0,2.24915107,1.40837095,-0.16022254\H,0,2.
 37128088,-0.25883735,0.2570767\H,0,-0.16187828,-2.59226705,-0.43651584

 Normal termination of Gaussian 16 at Wed Apr  9 19:15:00 2025.
