 Gaussian 16, Revision C.01,

 ----------------------------------------------------------------------
 #t hf aug-cc-pvdz symm=none int=(grid=ultrafine) guess=(read,tcheck) s
 table=(opt,rrhf)
 ----------------------------------------------------------------------
 -----
 title
 -----
 Symbolic Z-matrix:
 Charge =  0 Multiplicity = 1

 SCF Done:  E(RHF) =  -337.467272591     A.U. after   16 cycles
 Normal termination of Gaussian 16 at Wed Apr  9 03:58:26 2025.
 Gaussian 16:  ES64L-G16RevC.01  3-Jul-2019

 ----------------------------------------------------------------------
 #t hf aug-cc-pvdz iop(5/13=1,5/36=2,99/5=2) pseudo=read geom=check gue
 ss=(read,tcheck) scf=(maxcycle=1)
 ----------------------------------------------------------------------
 -----
 title
 -----
 Structure from the checkpoint file:  "Grambow2020_wb97xd3_008700_forward_mol1.chk"
 Charge =  0 Multiplicity = 1

                         Standard orientation:
 ---------------------------------------------------------------------
 Center     Atomic      Atomic             Coordinates (Angstroms)
 Number     Number       Type             X           Y           Z
 ---------------------------------------------------------------------
      1          8           0       -2.496579   -0.388528   -0.026938
      2          6           0       -1.688311    0.503567    0.010504
      3          6           0       -0.243624    0.264122    0.029041
      4          6           0        0.801629    1.131374    0.018987
      5          7           0        1.968844    0.402942   -0.103472
      6          6           0        1.643927   -0.946734   -0.084274
      7          7           0        0.296982   -0.996941    0.031815
      8          1           0       -1.993402    1.564696    0.043213
      9          1           0        0.791512    2.209816    0.038079
     10          1           0        2.484002   -0.382702    0.718490
     11          1           0       -0.251989   -1.839557    0.071759
 ---------------------------------------------------------------------

 SCF Done:  E(RHF) =  -338.963649123     A.U. after    2 cycles

 The electronic state is 1-A.
 Alpha  occ. eigenvalues --  -21.08949 -15.81038 -15.77297 -11.52230 -11.47904
 Alpha  occ. eigenvalues --  -11.43319 -11.40606  -1.74229  -1.59372  -1.31265
 Alpha  occ. eigenvalues --   -1.14910  -0.96069  -0.84831  -0.82612  -0.73545
 Alpha  occ. eigenvalues --   -0.66513  -0.62206  -0.59293  -0.53713  -0.50620
 Alpha  occ. eigenvalues --   -0.45467  -0.41985  -0.36927  -0.34266  -0.32338
 Alpha virt. eigenvalues --    0.03109   0.05220   0.05952   0.06382   0.08066
 Alpha virt. eigenvalues --    0.09121   0.09798   0.09867   0.10780   0.12549
 Alpha virt. eigenvalues --    0.13182   0.13372   0.13880   0.14064   0.14963

 Mulliken charges:
               1
     1  O   -2.865757
     2  C    1.183084
     3  C    3.367124
     4  C   -0.443173
     5  N   -2.556875
     6  C   -0.252794
     7  N   -3.110560
     8  H    1.344392
     9  H    1.183105
    10  H    1.349246
    11  H    0.802209
 Sum of Mulliken charges =  -0.00000

 Dipole moment (field-independent basis, Debye):
    X=             -2.1376    Y=              1.2033    Z=              0.9109  Tot=              2.6167

 Test job not archived.
 1\1\GINC-SE220\SP\RHF\Aug-CC-pVDZ\C4H4N2O1\OHZDE\09-Apr-2025\0\\#t hf
 aug-cc-pvdz iop(5/13=1,5/36=2,99/5=2) pseudo=read geom=check guess=(re
 ad,tcheck) scf=(maxcycle=1)\\title\\0,1\O,0,-2.30136038,-1.35314578,0.
 07157255\C,0,-1.82932724,-0.24686086,0.00952963\C,0,-0.38596945,-0.001
 81705,-0.02881311\C,0,0.31679042,1.15429492,-0.1484592\N,0,1.65465014,
 0.83724968,-0.28117104\C,0,1.79051158,-0.5388485,-0.1568338\N,0,0.5378
 6724,-1.01455126,0.02983567\H,0,-2.46430208,0.65672703,-0.01242437\H,0
 ,-0.04562562,2.1689416,-0.1999442\H,0,2.41994677,0.32876647,0.56382112

 Normal termination of Gaussian 16 at Wed Apr  9 03:58:31 2025.
