 Gaussian 16, Revision C.01,

 ----------------------------------------------------------------------
 #t hf aug-cc-pvdz symm=none int=(grid=ultrafine) guess=(read,tcheck) s
 table=(opt,rrhf)
 ----------------------------------------------------------------------
 -----
 title
 -----
 Symbolic Z-matrix:
 Charge =  0 Multiplicity = 1

 SCF Done:  E(RHF) =  -321.534048312     A.U. after   15 cycles
 Normal termination of Gaussian 16 at Wed Apr  9 19:09:43 2025.
 Gaussian 16:  ES64L-G16RevC.01  3-Jul-2019

 ----------------------------------------------------------------------
 #t hf aug-cc-pvdz iop(5/13=1,5/36=2,99/5=2) pseudo=read geom=check gue
 ss=(read,tcheck) scf=(maxcycle=1)
 ----------------------------------------------------------------------
 -----
 title
 -----
 Structure from the checkpoint file:  "Grambow2020_wb97xd3_008188_reverse_mol2.chk"
 Charge =  0 Multiplicity = 1

                         Standard orientation:
 ---------------------------------------------------------------------
 Center     Atomic      Atomic             Coordinates (Angstroms)
 Number     Number       Type             X           Y           Z
 ---------------------------------------------------------------------
      1          8           0        1.470706   -0.743547   -0.378193
      2          6           0        0.311082   -1.514810   -0.007672
      3          6           0       -0.343548   -0.255408    0.600135
      4          6           0        0.901629    0.425750    0.062209
      5          6           0        1.366502    1.654473   -0.009714
      6          6           0       -1.625978    0.159376    0.056998
      7          7           0       -2.642784    0.470637   -0.372355
      8          1           0        2.323854    1.857484   -0.469106
      9          1           0       -0.197391   -1.920830   -0.882061
     10          1           0        0.560381   -2.305609    0.698951
     11          1           0       -0.393059   -0.266631    1.688841
     12          1           0        0.781943    2.473225    0.383672
 ---------------------------------------------------------------------

 SCF Done:  E(RHF) =  -322.981294571     A.U. after    2 cycles

 The electronic state is 1-A.
 Alpha  occ. eigenvalues --  -21.09141 -15.77155 -11.52864 -11.48461 -11.45717
 Alpha  occ. eigenvalues --  -11.43937 -11.39115  -1.83712  -1.33150  -1.19117
 Alpha  occ. eigenvalues --   -1.12036  -0.95358  -0.82128  -0.74412  -0.68919
 Alpha  occ. eigenvalues --   -0.64935  -0.61344  -0.54534  -0.53472  -0.51022
 Alpha  occ. eigenvalues --   -0.48084  -0.46772  -0.42601  -0.39441  -0.29226
 Alpha virt. eigenvalues --    0.02854   0.04852   0.05295   0.05713   0.06442
 Alpha virt. eigenvalues --    0.08565   0.09122   0.09794   0.11307   0.11838
 Alpha virt. eigenvalues --    0.12593   0.12849   0.13923   0.14256   0.14620

 Mulliken charges:
               1
     1  O   -3.313581
     2  C   -1.472338
     3  C   -3.037887
     4  C    5.458386
     5  C   -4.149128
     6  C    2.086491
     7  N   -2.608982
     8  H    1.437087
     9  H    1.559440
    10  H    1.527950
    11  H    1.134764
    12  H    1.377798
 Sum of Mulliken charges =  -0.00000

 Dipole moment (field-independent basis, Debye):
    X=              2.3381    Y=             -1.8300    Z=              1.3285  Tot=              3.2528

 Test job not archived.
 1\1\GINC-SE104\SP\RHF\Aug-CC-pVDZ\C5H5N1O1\OHZDE\09-Apr-2025\0\\#t hf
 aug-cc-pvdz iop(5/13=1,5/36=2,99/5=2) pseudo=read geom=check guess=(re
 ad,tcheck) scf=(maxcycle=1)\\title\\0,1\O,0,-1.52123164,0.26123019,0.1
 0755043\C,0,-1.04882281,-1.09980982,0.14305248\C,0,0.36009144,-0.63138
 974,-0.28074894\C,0,-0.26935129,0.74610154,-0.18011534\C,0,0.13041264,
 1.99360743,-0.30241683\C,0,1.46293028,-0.93496384,0.61549826\N,0,2.326
 66335,-1.18971022,1.32556235\H,0,-0.56318213,2.81211817,-0.16921332\H,
 0,-1.11098628,-1.52047725,1.14660975\H,0,-1.57361932,-1.7287804,-0.575

 Normal termination of Gaussian 16 at Wed Apr  9 19:09:47 2025.
