 Gaussian 16, Revision C.01,

 ----------------------------------------------------------------------
 #t hf aug-cc-pvdz symm=none int=(grid=ultrafine) guess=(read,tcheck) s
 table=(opt,rrhf)
 ----------------------------------------------------------------------
 -----
 title
 -----
 Symbolic Z-matrix:
 Charge =  0 Multiplicity = 1

 SCF Done:  E(RHF) =  -343.690298625     A.U. after   14 cycles
 Normal termination of Gaussian 16 at Wed Apr  9 19:31:12 2025.
 Gaussian 16:  ES64L-G16RevC.01  3-Jul-2019

 ----------------------------------------------------------------------
 #t hf aug-cc-pvdz iop(5/13=1,5/36=2,99/5=2) pseudo=read geom=check gue
 ss=(read,tcheck) scf=(maxcycle=1)
 ----------------------------------------------------------------------
 -----
 title
 -----
 Structure from the checkpoint file:  "Grambow2020_wb97xd3_009124_reverse_mol2.chk"
 Charge =  0 Multiplicity = 1

                         Standard orientation:
 ---------------------------------------------------------------------
 Center     Atomic      Atomic             Coordinates (Angstroms)
 Number     Number       Type             X           Y           Z
 ---------------------------------------------------------------------
      1          6           0        2.730965   -1.045342   -0.217809
      2          6           0        2.217828    0.119796    0.065490
      3          8           0        1.765159    1.156024    0.317179
      4          6           0       -1.536556    0.303417    0.390935
      5          8           0       -1.192876    1.332276   -0.481618
      6          6           0       -2.519086   -0.688313   -0.114551
      7          6           0       -1.081751   -1.094528    0.094142
      8          1           0       -1.609515    0.595011    1.435819
      9          1           0        2.431246   -1.906685    0.358657
     10          1           0        3.440291   -1.128638   -1.026402
     11          1           0       -0.273631    1.563243   -0.319062
     12          1           0       -2.846130   -0.553443   -1.136812
     13          1           0       -3.271605   -1.064997    0.565059
     14          1           0       -0.841114   -1.750120    0.921782
     15          1           0       -0.476207   -1.230947   -0.792766
 ---------------------------------------------------------------------

 SCF Done:  E(RHF) =  -345.244763013     A.U. after    2 cycles

 The electronic state is 1-A.
 Alpha  occ. eigenvalues --  -21.15015 -21.05966 -11.56116 -11.43083 -11.40922
 Alpha  occ. eigenvalues --  -11.39788 -11.35651  -1.79123  -1.71178  -1.25626
 Alpha  occ. eigenvalues --   -1.13781  -0.86335  -0.82854  -0.74184  -0.69168
 Alpha  occ. eigenvalues --   -0.65192  -0.62398  -0.60624  -0.58520  -0.55539
 Alpha  occ. eigenvalues --   -0.50590  -0.49012  -0.47152  -0.41350  -0.36386
 Alpha  occ. eigenvalues --   -0.31058  -0.29906
 Alpha virt. eigenvalues --    0.03074   0.04993   0.05388   0.06166   0.06499
 Alpha virt. eigenvalues --    0.07307   0.07505   0.08074   0.08823   0.11063
 Alpha virt. eigenvalues --    0.11899   0.12528   0.12596   0.13256   0.13911

 Mulliken charges:
               1
     1  C   -2.069338
     2  C    1.755557
     3  O   -2.408553
     4  C    1.189936
     5  O   -3.148866
     6  C   -3.090764
     7  C   -2.588604
     8  H    1.448714
     9  H    1.401834
    10  H    1.303161
    11  H    0.977235
    12  H    1.223606
    13  H    1.296734
    14  H    1.272161
    15  H    1.437187
 Sum of Mulliken charges =  -0.00000

 Dipole moment (field-independent basis, Debye):
    X=              0.7202    Y=             -0.0999    Z=              0.5083  Tot=              0.8872

 Test job not archived.
 1\1\GINC-SE173\SP\RHF\Aug-CC-pVDZ\C5H8O2\OHZDE\09-Apr-2025\0\\#t hf au
 g-cc-pvdz iop(5/13=1,5/36=2,99/5=2) pseudo=read geom=check guess=(read
 ,tcheck) scf=(maxcycle=1)\\title\\0,1\C,0,2.70533052,1.23361211,-0.370
 55613\C,0,2.44800516,0.00285414,-0.02395569\O,0,2.22276094,-1.09090738
 ,0.28422742\C,0,-1.18157985,-1.02138591,0.08590866\O,0,-0.65111007,-1.
 41726862,1.31061099\C,0,-2.3565035,-0.11521622,0.13901145\C,0,-1.02939
 807,0.40410817,-0.35453489\H,0,-1.17265228,-1.78748602,-0.68554723\H,0
 ,2.24647941,1.63686684,-1.25988039\H,0,3.36647978,1.82815868,0.2404277

 Normal termination of Gaussian 16 at Wed Apr  9 19:31:16 2025.
