 Gaussian 16, Revision C.01,

 ----------------------------------------------------------------------
 #t hf aug-cc-pvdz symm=none int=(grid=ultrafine) guess=(read,tcheck) s
 table=(opt,rrhf)
 ----------------------------------------------------------------------
 -----
 title
 -----
 Symbolic Z-matrix:
 Charge =  0 Multiplicity = 1

 SCF Done:  E(RHF) =  -344.786100917     A.U. after   15 cycles

 1\1\GINC-SE109\Stability\RHF\Aug-CC-pVDZ\C5H10O2\OHZDE\09-Apr-2025\0\\
 #t hf aug-cc-pvdz symm=none int=(grid=ultrafine) guess=(read,tcheck) s
 table=(opt,rrhf)\\title\\0,1\C,0,-2.2279104,-0.3834598,-0.20602743\C,0
 ,-0.7436857,-0.32113091,-0.52709227\O,0,-0.42228775,0.8753693,-1.22645
 551\C,0,0.12418341,-0.45790075,0.72557959\C,0,1.62311943,-0.46814671,0
 .41725969\C,0,2.15659342,0.75700979,-0.04361358\O,0,2.25999294,1.58861
 859,0.92048651\H,0,-2.49103592,-1.33992464,0.24951304\H,0,-2.50350729,
 0.4073994,0.49890687\H,0,-2.82123158,-0.25819844,-1.11226311\H,0,-0.48

 Normal termination of Gaussian 16 at Wed Apr  9 03:34:51 2025.
 Gaussian 16:  ES64L-G16RevC.01  3-Jul-2019

 ----------------------------------------------------------------------
 #t hf aug-cc-pvdz iop(5/13=1,5/36=2,99/5=2) pseudo=read geom=check gue
 ss=(read,tcheck) scf=(maxcycle=1)
 ----------------------------------------------------------------------
 -----
 title
 -----
 Structure from the checkpoint file:  "Grambow2020_wb97xd3_007086_forward_mol1.chk"
 Charge =  0 Multiplicity = 1

                         Standard orientation:
 ---------------------------------------------------------------------
 Center     Atomic      Atomic             Coordinates (Angstroms)
 Number     Number       Type             X           Y           Z
 ---------------------------------------------------------------------
      1          6           0        2.590732   -0.159093   -0.369447
      2          6           0        1.259043   -0.006818    0.347009
      3          8           0        0.789764    1.334198    0.273043
      4          6           0        0.201308   -0.973843   -0.188853
      5          6           0       -1.127165   -0.886212    0.565770
      6          6           0       -1.856577    0.309304    0.374177
      7          8           0       -2.399250    0.319595   -0.782176
      8          1           0        2.995128   -1.164275   -0.236593
      9          1           0        2.472216    0.012100   -1.444152
     10          1           0        3.316463    0.558251    0.014890
     11          1           0        1.397495   -0.186995    1.417173
     12          1           0        0.762983    1.593669   -0.651828
     13          1           0        0.067661   -0.769589   -1.257326
     14          1           0        0.575564   -1.998512   -0.123320
     15          1           0       -1.045956   -1.253733    1.588102
     16          1           0       -2.018226   -0.857747   -0.663919
     17          1           0       -2.051484    1.136460    1.058109
 ---------------------------------------------------------------------

 SCF Done:  E(RHF) =  -346.408930237     A.U. after    2 cycles

 The electronic state is 1-A.
 Alpha  occ. eigenvalues --  -21.07961 -21.06933 -11.50004 -11.45181 -11.41404
 Alpha  occ. eigenvalues --  -11.37410 -11.34888  -1.76606  -1.71962  -1.20897
 Alpha  occ. eigenvalues --   -1.09251  -0.97096  -0.85695  -0.81319  -0.70852
 Alpha  occ. eigenvalues --   -0.63328  -0.61625  -0.59737  -0.55400  -0.54419
 Alpha  occ. eigenvalues --   -0.50732  -0.49652  -0.47457  -0.45920  -0.39722
 Alpha  occ. eigenvalues --   -0.39001  -0.32379  -0.26007
 Alpha virt. eigenvalues --    0.04037   0.05081   0.05266   0.05367   0.05710
 Alpha virt. eigenvalues --    0.06232   0.06366   0.07059   0.08143   0.09042
 Alpha virt. eigenvalues --    0.10858   0.11359   0.12778   0.13331   0.14055

 Mulliken charges:
               1
     1  C   -3.984502
     2  C    1.104476
     3  O   -2.992533
     4  C   -2.843624
     5  C   -3.135960
     6  C    1.222594
     7  O   -2.490354
     8  H    1.254054
     9  H    1.204220
    10  H    1.147794
    11  H    1.847340
    12  H    0.706056
    13  H    1.378146
    14  H    1.380199
    15  H    1.380150
    16  H    1.317910
    17  H    1.504032
 Sum of Mulliken charges =   0.00000

 Dipole moment (field-independent basis, Debye):
    X=              0.4744    Y=              1.0029    Z=             -0.0343  Tot=              1.1100

 Test job not archived.
 1\1\GINC-SE109\SP\RHF\Aug-CC-pVDZ\C5H10O2\OHZDE\09-Apr-2025\0\\#t hf a
 ug-cc-pvdz iop(5/13=1,5/36=2,99/5=2) pseudo=read geom=check guess=(rea
 d,tcheck) scf=(maxcycle=1)\\title\\0,1\C,0,-2.2279104,-0.3834598,-0.20
 602743\C,0,-0.7436857,-0.32113091,-0.52709227\O,0,-0.42228775,0.875369
 3,-1.22645551\C,0,0.12418341,-0.45790075,0.72557959\C,0,1.62311943,-0.
 46814671,0.41725969\C,0,2.15659342,0.75700979,-0.04361358\O,0,2.259992
 94,1.58861859,0.92048651\H,0,-2.49103592,-1.33992464,0.24951304\H,0,-2
 .50350729,0.4073994,0.49890687\H,0,-2.82123158,-0.25819844,-1.11226311

 Normal termination of Gaussian 16 at Wed Apr  9 03:35:02 2025.
