 Gaussian 16, Revision C.01,

 ----------------------------------------------------------------------
 #t hf aug-cc-pvdz symm=none int=(grid=ultrafine) guess=(read,tcheck) s
 table=(opt,rrhf)
 ----------------------------------------------------------------------
 -----
 title
 -----
 Symbolic Z-matrix:
 Charge =  0 Multiplicity = 1

 SCF Done:  E(RHF) =  -323.731701600     A.U. after   16 cycles
 Normal termination of Gaussian 16 at Wed Apr  9 18:24:31 2025.
 Gaussian 16:  ES64L-G16RevC.01  3-Jul-2019

 ----------------------------------------------------------------------
 #t hf aug-cc-pvdz iop(5/13=1,5/36=2,99/5=2) pseudo=read geom=check gue
 ss=(read,tcheck) scf=(maxcycle=1)
 ----------------------------------------------------------------------
 -----
 title
 -----
 Structure from the checkpoint file:  "Grambow2020_wb97xd3_006967_reverse_mol1.chk"
 Charge =  0 Multiplicity = 1

                         Standard orientation:
 ---------------------------------------------------------------------
 Center     Atomic      Atomic             Coordinates (Angstroms)
 Number     Number       Type             X           Y           Z
 ---------------------------------------------------------------------
      1          6           0       -1.506266   -1.723668    0.393620
      2          6           0       -1.484681   -0.898245   -0.702706
      3          6           0       -0.213862    0.964800   -0.307222
      4          8           0       -1.109151    1.879987    0.147971
      5          6           0        0.773386    0.582202    0.579034
      6          6           0        1.914933   -0.095981    0.051449
      7          7           0        2.813473   -0.668957   -0.380161
      8          1           0       -2.311921   -1.648302    1.115302
      9          1           0       -0.997735   -2.680587    0.361573
     10          1           0       -0.467712   -1.203048    1.385824
     11          1           0       -2.299658   -0.204564   -0.862637
     12          1           0       -0.927258   -1.195906   -1.581937
     13          1           0       -0.047736    0.910914   -1.373940
     14          1           0       -1.718219    2.121454   -0.551208
     15          1           0        0.133470   -0.585764    1.411132
     16          1           0        0.914597    1.153959    1.488199
 ---------------------------------------------------------------------

 SCF Done:  E(RHF) =  -325.294470985     A.U. after    2 cycles

 The electronic state is 1-A.
 Alpha  occ. eigenvalues --  -21.12759 -15.74769 -11.51231 -11.44954 -11.43701
 Alpha  occ. eigenvalues --  -11.41355 -11.38328  -1.78145  -1.31439  -1.18533
 Alpha  occ. eigenvalues --   -1.13461  -0.90729  -0.85366  -0.75816  -0.67920
 Alpha  occ. eigenvalues --   -0.65700  -0.63370  -0.61548  -0.56411  -0.52221
 Alpha  occ. eigenvalues --   -0.50723  -0.49376  -0.46465  -0.45648  -0.43041
 Alpha  occ. eigenvalues --   -0.33630  -0.28828
 Alpha virt. eigenvalues --    0.03279   0.04527   0.04957   0.05494   0.05582
 Alpha virt. eigenvalues --    0.06257   0.07043   0.08511   0.09460   0.10477
 Alpha virt. eigenvalues --    0.11360   0.11700   0.12586   0.13348   0.13544

 Mulliken charges:
               1
     1  C   -3.363228
     2  C   -2.951474
     3  C    1.316153
     4  O   -3.332947
     5  C   -2.261546
     6  C    2.138889
     7  N   -2.524288
     8  H    1.275452
     9  H    1.289292
    10  H    1.047024
    11  H    1.489466
    12  H    1.342384
    13  H    1.718934
    14  H    0.782860
    15  H    0.629979
    16  H    1.403050
 Sum of Mulliken charges =   0.00000

 Dipole moment (field-independent basis, Debye):
    X=             -4.2507    Y=              2.0042    Z=              0.0417  Tot=              4.6997

 Test job not archived.
 1\1\GINC-SE103\SP\RHF\Aug-CC-pVDZ\C5H9N1O1\OHZDE\09-Apr-2025\0\\#t hf
 aug-cc-pvdz iop(5/13=1,5/36=2,99/5=2) pseudo=read geom=check guess=(re
 ad,tcheck) scf=(maxcycle=1)\\title\\0,1\C,0,1.64304342,-0.18803153,0.9
 1142778\C,0,1.32259056,0.69363923,-0.09041244\C,0,-0.69498516,0.168380
 86,-1.0368884\O,0,-0.36568227,-0.63271568,-2.08384292\C,0,-1.45444568,
 -0.4104124,-0.03953777\C,0,-2.10575547,0.45778622,0.88967418\N,0,-2.59
 89608,1.16504633,1.6502621\H,0,2.26402496,-1.0509293,0.69841308\H,0,1.
 64231685,0.14167081,1.94420163\H,0,0.41001068,-1.04814526,1.18334964\H

 Normal termination of Gaussian 16 at Wed Apr  9 18:24:37 2025.
