 Gaussian 16, Revision C.01,

 ----------------------------------------------------------------------
 #t hf aug-cc-pvdz symm=none int=(grid=ultrafine) guess=(read,tcheck) s
 table=(opt,rrhf)
 ----------------------------------------------------------------------
 -----
 title
 -----
 Symbolic Z-matrix:
 Charge =  0 Multiplicity = 1

 SCF Done:  E(RHF) =  -343.549432247     A.U. after   15 cycles
 Normal termination of Gaussian 16 at Wed Apr  9 19:21:09 2025.
 Gaussian 16:  ES64L-G16RevC.01  3-Jul-2019

 ----------------------------------------------------------------------
 #t hf aug-cc-pvdz iop(5/13=1,5/36=2,99/5=2) pseudo=read geom=check gue
 ss=(read,tcheck) scf=(maxcycle=1)
 ----------------------------------------------------------------------
 -----
 title
 -----
 Structure from the checkpoint file:  "Grambow2020_wb97xd3_008651_reverse_mol1.chk"
 Charge =  0 Multiplicity = 1

                         Standard orientation:
 ---------------------------------------------------------------------
 Center     Atomic      Atomic             Coordinates (Angstroms)
 Number     Number       Type             X           Y           Z
 ---------------------------------------------------------------------
      1          6           0        0.705146    1.727610   -0.214351
      2          6           0        1.252991    0.341211   -0.356741
      3          8           0        1.866413   -0.332226    0.688029
      4          6           0        0.474562   -0.741440    0.557123
      5          6           0        0.417202   -1.489067   -0.598234
      6          8           0       -2.381693    0.108100   -0.530092
      7          6           0       -2.165221    0.014940    0.651059
      8          1           0       -0.211279    1.827761   -0.798410
      9          1           0        0.484228    1.928833    0.831092
     10          1           0        1.436325    2.449946   -0.586464
     11          1           0        1.753318    0.152243   -1.307505
     12          1           0       -0.549442   -1.626122   -1.078716
     13          1           0        1.276628   -2.009573   -1.023907
     14          1           0       -2.316502   -0.928292    1.202597
     15          1           0       -1.859116    0.878695    1.264679
 ---------------------------------------------------------------------

 SCF Done:  E(RHF) =  -345.118951189     A.U. after    2 cycles

 The electronic state is 1-A.
 Alpha  occ. eigenvalues --  -21.06708 -21.05549 -11.51198 -11.46703 -11.46430
 Alpha  occ. eigenvalues --  -11.41395 -11.39571  -1.80509  -1.69957  -1.15746
 Alpha  occ. eigenvalues --   -1.10420  -0.88665  -0.86094  -0.81259  -0.68201
 Alpha  occ. eigenvalues --   -0.65552  -0.62890  -0.58381  -0.56105  -0.52088
 Alpha  occ. eigenvalues --   -0.51698  -0.48136  -0.44788  -0.39658  -0.36447
 Alpha  occ. eigenvalues --   -0.29378  -0.27183
 Alpha virt. eigenvalues --    0.03702   0.04789   0.04889   0.05796   0.06281
 Alpha virt. eigenvalues --    0.06738   0.07207   0.08440   0.09676   0.10176
 Alpha virt. eigenvalues --    0.11001   0.12336   0.13034   0.13572   0.14089

 Mulliken charges:
               1
     1  C   -4.087200
     2  C    1.669830
     3  O   -3.142455
     4  C   -0.250355
     5  C   -2.488917
     6  O   -2.068272
     7  C   -0.837816
     8  H    1.357163
     9  H    1.415521
    10  H    1.050844
    11  H    1.372271
    12  H    1.758692
    13  H    1.412641
    14  H    1.331442
    15  H    1.506610
 Sum of Mulliken charges =  -0.00000

 Dipole moment (field-independent basis, Debye):
    X=              1.6742    Y=             -0.1233    Z=             -1.5832  Tot=              2.3075

 Test job not archived.
 1\1\GINC-SE026\SP\RHF\Aug-CC-pVDZ\C5H8O2\OHZDE\09-Apr-2025\0\\#t hf au
 g-cc-pvdz iop(5/13=1,5/36=2,99/5=2) pseudo=read geom=check guess=(read
 ,tcheck) scf=(maxcycle=1)\\title\\0,1\C,0,1.59759422,-0.25878292,0.598
 69439\C,0,0.83679894,0.9616221,0.18118912\O,0,0.92014734,1.4953842,-1.
 0953295\C,0,-0.26418744,0.65775136,-0.96280548\C,0,-1.1229688,1.360026
 77,-0.14647734\O,0,-1.57961802,-1.72574487,0.6652421\C,0,-1.26259458,-
 1.8578517,-0.48918383\H,0,0.99229359,-0.86046449,1.27882841\H,0,1.8456
 6274,-0.85349322,-0.27710714\H,0,2.51214513,0.03991458,1.11757394\H,0,

 Normal termination of Gaussian 16 at Wed Apr  9 19:21:14 2025.
