 Gaussian 16, Revision C.01,

 ----------------------------------------------------------------------
 #t hf aug-cc-pvdz symm=none int=(grid=ultrafine) guess=(read,tcheck) s
 table=(opt,rrhf)
 ----------------------------------------------------------------------
 -----
 title
 -----
 Symbolic Z-matrix:
 Charge =  0 Multiplicity = 1

 SCF Done:  E(RHF) =  -325.122940590     A.U. after   13 cycles
 Normal termination of Gaussian 16 at Wed Apr  9 19:11:11 2025.
 Gaussian 16:  ES64L-G16RevC.01  3-Jul-2019

 ----------------------------------------------------------------------
 #t hf aug-cc-pvdz iop(5/13=1,5/36=2,99/5=2) pseudo=read geom=check gue
 ss=(read,tcheck) scf=(maxcycle=1)
 ----------------------------------------------------------------------
 -----
 title
 -----
 Structure from the checkpoint file:  "Grambow2020_wb97xd3_008230_forward_mol2.chk"
 Charge =  0 Multiplicity = 1

                         Standard orientation:
 ---------------------------------------------------------------------
 Center     Atomic      Atomic             Coordinates (Angstroms)
 Number     Number       Type             X           Y           Z
 ---------------------------------------------------------------------
      1          6           0        2.456870    0.905143   -0.452504
      2          6           0        1.858347   -0.487884   -0.316340
      3          6           0        0.878356   -0.616028    0.846149
      4          7           0       -0.288711    0.235239    0.719245
      5          6           0       -1.355502   -0.118269   -0.042075
      6          8           0       -1.412694   -1.180674   -0.629712
      7          6           0       -2.475850    0.894306   -0.118754
      8          1           0        3.161896    0.954377   -1.283667
      9          1           0        1.682575    1.652942   -0.639342
     10          1           0        2.995187    1.197264    0.453762
     11          1           0        1.338169   -0.771106   -1.234367
     12          1           0        2.655404   -1.222223   -0.167619
     13          1           0        0.526737   -1.645920    0.917716
     14          1           0        1.372253   -0.364098    1.788360
     15          1           0       -0.281852    1.141835    1.147566
     16          1           0       -2.545052    1.256273   -1.145088
     17          1           0       -2.343507    1.744859    0.550390
     18          1           0       -3.412607    0.390914    0.116404
 ---------------------------------------------------------------------

 SCF Done:  E(RHF) =  -326.675144209     A.U. after    2 cycles

 The electronic state is 1-A.
 Alpha  occ. eigenvalues --  -21.01043 -15.75560 -11.49294 -11.43188 -11.39265
 Alpha  occ. eigenvalues --  -11.38428 -11.35094  -1.69872  -1.39935  -1.18497
 Alpha  occ. eigenvalues --   -1.09154  -0.98512  -0.85901  -0.78016  -0.69176
 Alpha  occ. eigenvalues --   -0.64383  -0.61300  -0.59407  -0.59304  -0.55476
 Alpha  occ. eigenvalues --   -0.52317  -0.50341  -0.47761  -0.46887  -0.45706
 Alpha  occ. eigenvalues --   -0.43299  -0.30193  -0.27858
 Alpha virt. eigenvalues --    0.03461   0.04715   0.05096   0.05360   0.05833
 Alpha virt. eigenvalues --    0.06163   0.06484   0.07100   0.07698   0.08194
 Alpha virt. eigenvalues --    0.08567   0.10833   0.12854   0.13305   0.13477

 Mulliken charges:
               1
     1  C   -3.538320
     2  C   -3.077055
     3  C   -2.585226
     4  N   -2.420395
     5  C    5.308025
     6  O   -3.364044
     7  C   -4.539009
     8  H    1.155168
     9  H    1.380125
    10  H    1.255228
    11  H    1.599557
    12  H    1.301317
    13  H    1.542173
    14  H    1.480338
    15  H    0.700997
    16  H    1.229327
    17  H    1.368185
    18  H    1.203610
 Sum of Mulliken charges =  -0.00000

 Dipole moment (field-independent basis, Debye):
    X=              0.8986    Y=              1.7565    Z=              1.2639  Tot=              2.3431

 Test job not archived.
 1\1\GINC-SE041\SP\RHF\Aug-CC-pVDZ\C5H11N1O1\OHZDE\09-Apr-2025\0\\#t hf
  aug-cc-pvdz iop(5/13=1,5/36=2,99/5=2) pseudo=read geom=check guess=(r
 ead,tcheck) scf=(maxcycle=1)\\title\\0,1\C,0,-2.21067087,-0.30270079,-
 0.59279394\C,0,-1.56336431,0.83984961,0.17718518\C,0,-0.58429249,0.370
 75423,1.2493566\N,0,0.5521553,-0.35807074,0.72010616\C,0,1.63406243,0.
 27726106,0.20198402\O,0,1.73160941,1.48866088,0.18503202\C,0,2.7178521
 ,-0.61579865,-0.35856115\H,0,-2.91352363,0.07017224,-1.33930647\H,0,-1
 .46279583,-0.89894754,-1.12082699\H,0,-2.7628592,-0.97011664,0.0750989

 Normal termination of Gaussian 16 at Wed Apr  9 19:11:17 2025.
