 Gaussian 16, Revision C.01,

 ----------------------------------------------------------------------
 #t hf aug-cc-pvdz symm=none int=(grid=ultrafine) guess=(read,tcheck) s
 table=(opt,rrhf)
 ----------------------------------------------------------------------
 -----
 title
 -----
 Symbolic Z-matrix:
 Charge =  0 Multiplicity = 1

 SCF Done:  E(RHF) =  -322.569064741     A.U. after   16 cycles
 Normal termination of Gaussian 16 at Wed Apr  9 18:18:17 2025.
 Gaussian 16:  ES64L-G16RevC.01  3-Jul-2019

 ----------------------------------------------------------------------
 #t hf aug-cc-pvdz iop(5/13=1,5/36=2,99/5=2) pseudo=read geom=check gue
 ss=(read,tcheck) scf=(maxcycle=1)
 ----------------------------------------------------------------------
 -----
 title
 -----
 Structure from the checkpoint file:  "Grambow2020_wb97xd3_006861_reverse_mol1.chk"
 Charge =  0 Multiplicity = 1

                         Standard orientation:
 ---------------------------------------------------------------------
 Center     Atomic      Atomic             Coordinates (Angstroms)
 Number     Number       Type             X           Y           Z
 ---------------------------------------------------------------------
      1          6           0       -2.494591   -0.477156    0.047014
      2          6           0       -1.145530   -0.121952   -0.123389
      3          6           0        0.011418   -0.966738   -0.063049
      4          6           0        1.140590   -0.073707    0.003802
      5          7           0        2.458916   -0.500573    0.120919
      6          6           0        0.653950    1.179982    0.001952
      7          8           0       -0.744123    1.157668   -0.057774
      8          1           0       -1.136312   -0.765291    0.957677
      9          1           0       -2.801060   -1.488778   -0.168255
     10          1           0       -3.222553    0.295223    0.232596
     11          1           0        0.009859   -2.035699   -0.201914
     12          1           0        2.650841   -1.361718   -0.364525
     13          1           0        3.142361    0.201975   -0.109096
     14          1           0        1.102422    2.154381    0.071291
 ---------------------------------------------------------------------

 SCF Done:  E(RHF) =  -324.060246717     A.U. after    2 cycles

 The electronic state is 1-A.
 Alpha  occ. eigenvalues --  -21.09691 -15.76666 -11.51357 -11.47926 -11.41877
 Alpha  occ. eigenvalues --  -11.38703 -11.36739  -1.84390  -1.37611  -1.21884
 Alpha  occ. eigenvalues --   -1.11440  -0.95921  -0.81471  -0.79051  -0.69979
 Alpha  occ. eigenvalues --   -0.66709  -0.64704  -0.60178  -0.54376  -0.51799
 Alpha  occ. eigenvalues --   -0.50206  -0.49276  -0.42381  -0.40914  -0.30855
 Alpha  occ. eigenvalues --   -0.20170
 Alpha virt. eigenvalues --    0.03049   0.04627   0.04999   0.05691   0.06361
 Alpha virt. eigenvalues --    0.06987   0.08333   0.09218   0.11417   0.11761
 Alpha virt. eigenvalues --    0.12332   0.12412   0.13755   0.14748   0.14832

 Mulliken charges:
               1
     1  C   -4.233762
     2  C    3.761440
     3  C   -3.794193
     4  C    3.908989
     5  N   -3.512822
     6  C   -0.195584
     7  O   -4.305244
     8  H    1.872711
     9  H    1.132443
    10  H    1.329891
    11  H    1.280683
    12  H    0.612843
    13  H    0.695619
    14  H    1.446987
 Sum of Mulliken charges =   0.00000

 Dipole moment (field-independent basis, Debye):
    X=              2.4977    Y=             -0.3024    Z=             -0.7101  Tot=              2.6142

 Test job not archived.
 1\1\GINC-SE112\SP\RHF\Aug-CC-pVDZ\C5H7N1O1\OHZDE\09-Apr-2025\0\\#t hf
 aug-cc-pvdz iop(5/13=1,5/36=2,99/5=2) pseudo=read geom=check guess=(re
 ad,tcheck) scf=(maxcycle=1)\\title\\0,1\C,0,2.46146056,0.00350206,0.28
 722845\C,0,1.06609348,0.16934979,0.31205389\C,0,0.05118081,-0.77529536
 ,-0.05323062\C,0,-1.1710891,-0.01677068,-0.14096137\N,0,-2.39407202,-0
 .56080423,-0.51812699\C,0,-0.86295724,1.26299721,0.13437295\O,0,0.5064
 8806,1.3870646,0.39494953\H,0,1.28035304,-0.26797696,-0.84790766\H,0,2
 .87260594,-0.98951275,0.37955217\H,0,3.09557238,0.87315495,0.33768502\

 Normal termination of Gaussian 16 at Wed Apr  9 18:18:22 2025.
