 Gaussian 16, Revision C.01,

 ----------------------------------------------------------------------
 #t hf aug-cc-pvdz symm=none int=(grid=ultrafine) guess=(read,tcheck) s
 table=(opt,rrhf)
 ----------------------------------------------------------------------
 -----
 title
 -----
 Symbolic Z-matrix:
 Charge =  0 Multiplicity = 1

 SCF Done:  E(RHF) =  -301.913447618     A.U. after   15 cycles
 Normal termination of Gaussian 16 at Wed Apr  9 03:15:02 2025.
 Gaussian 16:  ES64L-G16RevC.01  3-Jul-2019

 ----------------------------------------------------------------------
 #t hf aug-cc-pvdz iop(5/13=1,5/36=2,99/5=2) pseudo=read geom=check gue
 ss=(read,tcheck) scf=(maxcycle=1)
 ----------------------------------------------------------------------
 -----
 title
 -----
 Structure from the checkpoint file:  "Grambow2020_b97d3_006947_forward_mol1.chk"
 Charge =  0 Multiplicity = 1

                         Standard orientation:
 ---------------------------------------------------------------------
 Center     Atomic      Atomic             Coordinates (Angstroms)
 Number     Number       Type             X           Y           Z
 ---------------------------------------------------------------------
      1          6           0       -1.948281   -0.338531   -0.030868
      2          7           0       -0.184399   -1.512402   -0.141318
      3          6           0        0.695424   -0.550611    0.066030
      4          8           0        1.924072   -0.443620    0.003012
      5          7           0       -0.169463    0.629285    0.447336
      6          6           0        0.115708    1.859794   -0.282207
      7          1           0       -2.383365    0.320381    0.722214
      8          1           0       -2.381419   -1.335218    0.032037
      9          1           0       -1.963802    0.063217   -1.040382
     10          1           0        0.199192   -2.422898   -0.418460
     11          1           0       -0.117986    0.780121    1.459657
     12          1           0       -0.575858    2.650733    0.037351
     13          1           0        1.156530    2.182495   -0.122866
     14          1           0       -0.025944    1.668039   -1.353502
 ---------------------------------------------------------------------

 SCF Done:  E(RHF) =  -303.321571995     A.U. after    2 cycles

 The electronic state is 1-A.
 Alpha  occ. eigenvalues --  -20.99049 -15.75876 -15.68939 -11.50156 -11.45940
 Alpha  occ. eigenvalues --  -11.40247  -1.66419  -1.40077  -1.24368  -1.04404
 Alpha  occ. eigenvalues --   -0.98364  -0.78315  -0.66670  -0.66034  -0.61996
 Alpha  occ. eigenvalues --   -0.60176  -0.57566  -0.54688  -0.52480  -0.47104
 Alpha  occ. eigenvalues --   -0.40451  -0.35454  -0.26664  -0.24291
 Alpha virt. eigenvalues --    0.02047   0.04106   0.04911   0.05454   0.05893
 Alpha virt. eigenvalues --    0.06757   0.07015   0.07679   0.10499   0.11669
 Alpha virt. eigenvalues --    0.12133   0.12683   0.14462   0.14871   0.15536

 Mulliken charges:
               1
     1  C   -3.692250
     2  N   -2.524100
     3  C    5.435055
     4  O   -2.978791
     5  N   -1.889213
     6  C   -3.577713
     7  H    1.284759
     8  H    1.223677
     9  H    1.388760
    10  H    0.652808
    11  H    0.651827
    12  H    1.327160
    13  H    1.321013
    14  H    1.377007
 Sum of Mulliken charges =  -0.00000

 Dipole moment (field-independent basis, Debye):
    X=             -4.2246    Y=              2.3628    Z=              0.4888  Tot=              4.8651

 Test job not archived.
 1\1\GINC-SE342\SP\RHF\Aug-CC-pVDZ\C3H8N2O1\OHZDE\09-Apr-2025\0\\#t hf
 aug-cc-pvdz iop(5/13=1,5/36=2,99/5=2) pseudo=read geom=check guess=(re
 ad,tcheck) scf=(maxcycle=1)\\title\\0,1\C,0,-1.16639664,0.98849946,0.6
 9389353\N,0,-1.4760853,-0.92691625,-0.16443576\C,0,-0.21187669,-1.2541
 7558,-0.35627159\O,0,0.39122462,-2.15874771,-0.94194279\N,0,0.53958623
 ,-0.15494154,0.35966587\C,0,1.59862744,0.47358019,-0.42206203\H,0,-0.6
 1691117,1.35915243,1.56065603\H,0,-2.21703367,0.84089756,0.93746056\H,
 0,-1.0230961,1.57304718,-0.21083295\H,0,-2.17296146,-1.5555506,-0.5793

 Normal termination of Gaussian 16 at Wed Apr  9 03:15:05 2025.
