 Gaussian 16, Revision C.01,

 ----------------------------------------------------------------------
 #t hf aug-cc-pvdz symm=none int=(grid=ultrafine) guess=(read,tcheck) s
 table=(opt,rrhf)
 ----------------------------------------------------------------------
 -----
 title
 -----
 Symbolic Z-matrix:
 Charge =  0 Multiplicity = 1

 SCF Done:  E(RHF) =  -325.093668040     A.U. after   12 cycles
 Normal termination of Gaussian 16 at Wed Apr  9 19:11:11 2025.
 Gaussian 16:  ES64L-G16RevC.01  3-Jul-2019

 ----------------------------------------------------------------------
 #t hf aug-cc-pvdz iop(5/13=1,5/36=2,99/5=2) pseudo=read geom=check gue
 ss=(read,tcheck) scf=(maxcycle=1)
 ----------------------------------------------------------------------
 -----
 title
 -----
 Structure from the checkpoint file:  "Grambow2020_wb97xd3_008233_reverse_mol2.chk"
 Charge =  0 Multiplicity = 1

                         Standard orientation:
 ---------------------------------------------------------------------
 Center     Atomic      Atomic             Coordinates (Angstroms)
 Number     Number       Type             X           Y           Z
 ---------------------------------------------------------------------
      1          6           0       -0.286600   -0.949951    0.759250
      2          6           0       -1.652794   -0.709987    0.127495
      3          6           0       -1.628206    0.796985   -0.105022
      4          7           0       -0.242126    1.050259   -0.473073
      5          6           0        0.631753   -0.006418   -0.035198
      6          8           0        1.110395   -0.663320   -1.216662
      7          6           0        1.821758    0.513981    0.760628
      8          1           0       -0.300513   -0.646628    1.810638
      9          1           0        0.049308   -1.986725    0.711098
     10          1           0        1.715952   -1.359246   -0.949533
     11          1           0       -1.717127   -1.232380   -0.828775
     12          1           0       -2.486746   -1.027738    0.753254
     13          1           0       -2.312832    1.106293   -0.898381
     14          1           0       -1.921320    1.326201    0.813348
     15          1           0        0.094161    1.978178   -0.282551
     16          1           0        2.473705   -0.306333    1.071010
     17          1           0        1.492318    1.039541    1.658887
     18          1           0        2.409351    1.195918    0.142895
 ---------------------------------------------------------------------

 SCF Done:  E(RHF) =  -326.653513531     A.U. after    2 cycles

 The electronic state is 1-A.
 Alpha  occ. eigenvalues --  -21.04802 -15.70146 -11.47473 -11.42990 -11.40709
 Alpha  occ. eigenvalues --  -11.37760 -11.34632  -1.71240  -1.40893  -1.13883
 Alpha  occ. eigenvalues --   -1.11064  -0.97929  -0.84266  -0.80368  -0.68211
 Alpha  occ. eigenvalues --   -0.66738  -0.61866  -0.58701  -0.57006  -0.55851
 Alpha  occ. eigenvalues --   -0.50265  -0.47941  -0.47128  -0.45351  -0.43886
 Alpha  occ. eigenvalues --   -0.38626  -0.30796  -0.29910
 Alpha virt. eigenvalues --    0.03988   0.05148   0.05216   0.05414   0.05430
 Alpha virt. eigenvalues --    0.06088   0.06239   0.06715   0.07357   0.08559
 Alpha virt. eigenvalues --    0.08971   0.12444   0.12699   0.13610   0.14254

 Mulliken charges:
               1
     1  C   -3.684421
     2  C   -2.826585
     3  C   -2.578304
     4  N   -3.561302
     5  C    7.440799
     6  O   -3.700213
     7  C   -4.131312
     8  H    1.429253
     9  H    1.289902
    10  H    0.701119
    11  H    1.393291
    12  H    1.213758
    13  H    1.396822
    14  H    1.534567
    15  H    0.628846
    16  H    1.107680
    17  H    1.129285
    18  H    1.216815
 Sum of Mulliken charges =  -0.00000

 Dipole moment (field-independent basis, Debye):
    X=             -0.1560    Y=              0.0900    Z=              1.2251  Tot=              1.2382

 Test job not archived.
 1\1\GINC-SE145\SP\RHF\Aug-CC-pVDZ\C5H11N1O1\OHZDE\09-Apr-2025\0\\#t hf
  aug-cc-pvdz iop(5/13=1,5/36=2,99/5=2) pseudo=read geom=check guess=(r
 ead,tcheck) scf=(maxcycle=1)\\title\\0,1\C,0,-0.78719855,-0.00705449,-
 0.64513634\C,0,-1.53919382,0.77488431,0.42549846\C,0,-0.81667832,0.338
 20047,1.6955031\N,0,0.56813629,0.21808728,1.26112163\C,0,0.67231875,0.
 06839099,-0.16670992\O,0,1.29300909,1.26195459,-0.66332376\C,0,1.51744
 928,-1.13428115,-0.56620869\H,0,-1.11687596,-1.05056382,-0.64922665\H,
 0,-0.90975985,0.38998042,-1.65379606\H,0,1.39497604,1.17468579,-1.6143

 Normal termination of Gaussian 16 at Wed Apr  9 19:11:17 2025.
