 Gaussian 16, Revision C.01,

 ----------------------------------------------------------------------
 #t hf aug-cc-pvdz symm=none int=(grid=ultrafine) guess=(read,tcheck) s
 table=(opt,rrhf)
 ----------------------------------------------------------------------
 -----
 title
 -----
 Symbolic Z-matrix:
 Charge =  0 Multiplicity = 1

 SCF Done:  E(RHF) =  -281.615887319     A.U. after   15 cycles
 Normal termination of Gaussian 16 at Wed Apr  9 03:07:38 2025.
 Gaussian 16:  ES64L-G16RevC.01  3-Jul-2019

 ----------------------------------------------------------------------
 #t hf aug-cc-pvdz iop(5/13=1,5/36=2,99/5=2) pseudo=read geom=check gue
 ss=(read,tcheck) scf=(maxcycle=1)
 ----------------------------------------------------------------------
 -----
 title
 -----
 Structure from the checkpoint file:  "Grambow2020_b97d3_006581_forward_mol1.chk"
 Charge =  0 Multiplicity = 1

                         Standard orientation:
 ---------------------------------------------------------------------
 Center     Atomic      Atomic             Coordinates (Angstroms)
 Number     Number       Type             X           Y           Z
 ---------------------------------------------------------------------
      1          8           0       -0.471739   -1.119738    0.002423
      2          6           0       -1.291631   -0.132694   -0.125833
      3          7           0       -0.715028    1.027653   -0.006282
      4          6           0        0.848514    0.044062    0.389531
      5          8           0        1.782281    0.087018   -0.340393
      6          1           0       -2.360266   -0.321978   -0.306194
      7          1           0       -1.229065    1.908608   -0.009250
      8          1           0        0.768897    0.013344    1.480982
 ---------------------------------------------------------------------

 SCF Done:  E(RHF) =  -282.835622650     A.U. after    2 cycles

 The electronic state is 1-A.
 Alpha  occ. eigenvalues --  -21.08214 -21.07022 -15.76135 -11.57123 -11.49410
 Alpha  occ. eigenvalues --   -1.78905  -1.70822  -1.32111  -0.93732  -0.83106
 Alpha  occ. eigenvalues --   -0.74972  -0.60542  -0.59627  -0.53136  -0.51459
 Alpha  occ. eigenvalues --   -0.47588  -0.34492  -0.33047  -0.28823
 Alpha virt. eigenvalues --    0.03126   0.04723   0.05019   0.09626   0.10086
 Alpha virt. eigenvalues --    0.11090   0.11811   0.12776   0.13665   0.14851
 Alpha virt. eigenvalues --    0.16506   0.17126   0.17620   0.19248   0.21083

 Mulliken charges:
               1
     1  O   -2.344199
     2  C    2.156672
     3  N   -2.335297
     4  C    1.337813
     5  O   -2.628415
     6  H    1.585240
     7  H    0.739683
     8  H    1.488502
 Sum of Mulliken charges =   0.00000

 Dipole moment (field-independent basis, Debye):
    X=             -2.0655    Y=              0.5270    Z=              0.7755  Tot=              2.2684

 Test job not archived.
 1\1\GINC-SE041\SP\RHF\Aug-CC-pVDZ\C2H3N1O2\OHZDE\09-Apr-2025\0\\#t hf
 aug-cc-pvdz iop(5/13=1,5/36=2,99/5=2) pseudo=read geom=check guess=(re
 ad,tcheck) scf=(maxcycle=1)\\title\\0,1\O,0,-0.44000654,0.23904167,-1.
 21202624\C,0,-1.01950568,-0.21194544,-0.15196911\N,0,-0.24521939,-0.20
 609271,0.89379165\C,0,1.1018249,0.38614888,-0.29090336\O,0,1.57342038,
 1.4672654,-0.16705425\H,0,-2.06190085,-0.56069277,-0.19808234\H,0,-0.5
 2235535,-0.59539906,1.79488079\H,0,1.53880753,-0.58027097,-0.56224713\
 \Version=ES64L-G16RevC.01\State=1-A\HF=-282.8356226\RMSD=5.666e-02\Dip

 Normal termination of Gaussian 16 at Wed Apr  9 03:07:41 2025.
