 Gaussian 16, Revision C.01,

 ----------------------------------------------------------------------
 #t hf aug-cc-pvdz symm=none int=(grid=ultrafine) guess=(read,tcheck) s
 table=(opt,rrhf)
 ----------------------------------------------------------------------
 -----
 title
 -----
 Symbolic Z-matrix:
 Charge =  0 Multiplicity = 1

 SCF Done:  E(RHF) =  -269.996706913     A.U. after   14 cycles

 1\1\GINC-SE015\Stability\RHF\Aug-CC-pVDZ\C5H10O1\OHZDE\09-Apr-2025\0\\
 #t hf aug-cc-pvdz symm=none int=(grid=ultrafine) guess=(read,tcheck) s
 table=(opt,rrhf)\\title\\0,1\C,0,-2.19989489,-0.27456714,0.20286483\C,
 0,-1.1533461,-0.61279671,-0.88074897\C,0,0.19045179,-0.04468701,-0.548
 24775\C,0,1.32777515,-0.75188514,-0.36912862\C,0,2.60638881,-0.1026412
 5,-0.01155115\O,0,2.75565609,1.09649639,0.20167427\H,0,-3.18571472,-0.
 66900943,-0.07841927\H,0,-1.91406476,-0.71066184,1.16915482\H,0,-2.290
 90579,0.81250934,0.33530924\H,0,-1.08562331,-1.70201637,-1.01693031\H,

 Normal termination of Gaussian 16 at Wed Apr  9 03:09:31 2025.
 Gaussian 16:  ES64L-G16RevC.01  3-Jul-2019

 ----------------------------------------------------------------------
 #t hf aug-cc-pvdz iop(5/13=1,5/36=2,99/5=2) pseudo=read geom=check gue
 ss=(read,tcheck) scf=(maxcycle=1)
 ----------------------------------------------------------------------
 -----
 title
 -----
 Structure from the checkpoint file:  "Grambow2020_b97d3_006649_reverse_mol2.chk"
 Charge =  0 Multiplicity = 1

                         Standard orientation:
 ---------------------------------------------------------------------
 Center     Atomic      Atomic             Coordinates (Angstroms)
 Number     Number       Type             X           Y           Z
 ---------------------------------------------------------------------
      1          6           0        2.642181    0.537718   -0.315472
      2          6           0        1.774554   -0.550381    0.353219
      3          6           0        0.323501   -0.185126    0.341789
      4          6           0       -0.667133   -0.891633   -0.245756
      5          6           0       -2.072183   -0.433566   -0.230165
      6          8           0       -2.466986    0.621594    0.256091
      7          1           0        3.705499    0.267132   -0.263661
      8          1           0        2.366136    0.660971   -1.371030
      9          1           0        2.510633    1.507315    0.184663
     10          1           0        1.929596   -1.518971   -0.144101
     11          1           0        2.104107   -0.666529    1.400126
     12          1           0        0.048072    0.750461    0.837051
     13          1           0       -0.602573    3.340082   -0.412099
     14          1           0       -0.453357   -1.835699   -0.754000
     15          1           0       -1.084769    2.798367   -0.234825
     16          1           0       -2.792980   -1.137954   -0.712534
 ---------------------------------------------------------------------

 SCF Done:  E(RHF) =  -271.290792243     A.U. after    2 cycles

 The electronic state is 1-A.
 Alpha  occ. eigenvalues --  -21.05097 -11.48647 -11.46396 -11.42487 -11.39630
 Alpha  occ. eigenvalues --  -11.37493  -1.69099  -1.25415  -1.10759  -0.95445
 Alpha  occ. eigenvalues --   -0.85896  -0.76339  -0.67130  -0.62905  -0.60076
 Alpha  occ. eigenvalues --   -0.59480  -0.55316  -0.51877  -0.49774  -0.48610
 Alpha  occ. eigenvalues --   -0.46956  -0.46572  -0.33040  -0.29163
 Alpha virt. eigenvalues --    0.03483   0.04658   0.05277   0.05663   0.05998
 Alpha virt. eigenvalues --    0.06209   0.07183   0.07257   0.08548   0.09225
 Alpha virt. eigenvalues --    0.10740   0.11449   0.12521   0.12974   0.13552

 Mulliken charges:
               1
     1  C   -3.738229
     2  C   -3.873342
     3  C    0.706551
     4  C   -1.839882
     5  C    0.867632
     6  O   -3.012552
     7  H    1.180192
     8  H    1.327995
     9  H    1.278356
    10  H    1.364972
    11  H    1.201347
    12  H    1.657147
    13  H    0.187450
    14  H    1.496814
    15  H   -0.262532
    16  H    1.458081
 Sum of Mulliken charges =  -0.00000

 Dipole moment (field-independent basis, Debye):
    X=              1.8909    Y=             -0.8258    Z=             -0.0446  Tot=              2.0639

 Test job not archived.
 1\1\GINC-SE015\SP\RHF\Aug-CC-pVDZ\C5H10O1\OHZDE\09-Apr-2025\0\\#t hf a
 ug-cc-pvdz iop(5/13=1,5/36=2,99/5=2) pseudo=read geom=check guess=(rea
 d,tcheck) scf=(maxcycle=1)\\title\\0,1\C,0,-2.19989489,-0.27456714,0.2
 0286483\C,0,-1.1533461,-0.61279671,-0.88074897\C,0,0.19045179,-0.04468
 701,-0.54824775\C,0,1.32777515,-0.75188514,-0.36912862\C,0,2.60638881,
 -0.10264125,-0.01155115\O,0,2.75565609,1.09649639,0.20167427\H,0,-3.18
 571472,-0.66900943,-0.07841927\H,0,-1.91406476,-0.71066184,1.16915482\
 H,0,-2.29090579,0.81250934,0.33530924\H,0,-1.08562331,-1.70201637,-1.0

 Normal termination of Gaussian 16 at Wed Apr  9 03:09:36 2025.
