 Gaussian 16, Revision C.01,

 ----------------------------------------------------------------------
 #t hf aug-cc-pvdz symm=none int=(grid=ultrafine) guess=(read,tcheck) s
 table=(opt,rrhf)
 ----------------------------------------------------------------------
 -----
 title
 -----
 Symbolic Z-matrix:
 Charge =  0 Multiplicity = 1

 SCF Done:  E(RHF) =  -307.717746451     A.U. after   15 cycles

 1\1\GINC-SE072\Stability\RHF\Aug-CC-pVDZ\C6H10O1\OHZDE\09-Apr-2025\0\\
 #t hf aug-cc-pvdz symm=none int=(grid=ultrafine) guess=(read,tcheck) s
 table=(opt,rrhf)\\title\\0,1\C,0,1.51431523,0.40236691,-0.71298175\C,0
 ,0.524536,0.2494639,0.40878996\C,0,-0.02363111,-1.13433737,0.67803958\
 C,0,-1.10778445,-1.21000334,-0.40327774\C,0,-1.44884461,0.26459235,-0.
 62107235\C,0,-0.48225658,1.37140531,0.80624798\O,0,0.77972946,1.091762
 02,1.47913522\H,0,2.49432693,0.09763014,-0.33600778\H,0,1.26256511,-0.
 22359004,-1.56877287\H,0,1.58356733,1.44134208,-1.03470961\H,0,0.73655

 Normal termination of Gaussian 16 at Wed Apr  9 03:33:38 2025.
 Gaussian 16:  ES64L-G16RevC.01  3-Jul-2019

 ----------------------------------------------------------------------
 #t hf aug-cc-pvdz iop(5/13=1,5/36=2,99/5=2) pseudo=read geom=check gue
 ss=(read,tcheck) scf=(maxcycle=1)
 ----------------------------------------------------------------------
 -----
 title
 -----
 Structure from the checkpoint file:  "Grambow2020_wb97xd3_007043_reverse_mol1.chk"
 Charge =  0 Multiplicity = 1

                         Standard orientation:
 ---------------------------------------------------------------------
 Center     Atomic      Atomic             Coordinates (Angstroms)
 Number     Number       Type             X           Y           Z
 ---------------------------------------------------------------------
      1          6           0       -0.832487    1.460647   -0.600018
      2          6           0       -0.479049    0.235542    0.197237
      3          6           0        0.734318    0.309232    1.097347
      4          6           0        1.846782    0.066826    0.070689
      5          6           0        1.119872   -0.736975   -1.008058
      6          6           0       -0.748116   -1.212303   -0.314334
      7          8           0       -1.589018   -0.477227    0.621687
      8          1           0       -1.375300    2.142331    0.060328
      9          1           0        0.052581    1.973749   -0.975464
     10          1           0       -1.484494    1.208623   -1.436166
     11          1           0        0.806011    1.248149    1.650139
     12          1           0        0.685594   -0.510177    1.814765
     13          1           0        2.679652   -0.494783    0.497946
     14          1           0        2.239387    1.018484   -0.303729
     15          1           0        0.829526   -0.056190   -1.819842
     16          1           0       -0.351613   -2.095339    0.160784
     17          1           0       -1.217122   -1.354847   -1.279437
 ---------------------------------------------------------------------

 SCF Done:  E(RHF) =  -309.192843199     A.U. after    2 cycles

 The electronic state is 1-A.
 Alpha  occ. eigenvalues --  -21.06528 -11.52912 -11.47396 -11.43603 -11.40097
 Alpha  occ. eigenvalues --  -11.38856 -11.36491  -1.80418  -1.27772  -1.09305
 Alpha  occ. eigenvalues --   -1.00517  -0.95810  -0.84529  -0.76477  -0.69114
 Alpha  occ. eigenvalues --   -0.66143  -0.62048  -0.59264  -0.56067  -0.54960
 Alpha  occ. eigenvalues --   -0.52078  -0.48542  -0.46131  -0.44490  -0.37819
 Alpha  occ. eigenvalues --   -0.30935  -0.27960
 Alpha virt. eigenvalues --    0.03722   0.04689   0.04941   0.05521   0.05601
 Alpha virt. eigenvalues --    0.06225   0.06606   0.06848   0.08076   0.09131
 Alpha virt. eigenvalues --    0.11143   0.11724   0.11852   0.13138   0.14102

 Mulliken charges:
               1
     1  C   -4.517009
     2  C    6.582150
     3  C   -3.924527
     4  C   -2.827175
     5  C   -1.848851
     6  C   -2.768557
     7  O   -3.894883
     8  H    1.073666
     9  H    1.362726
    10  H    1.268655
    11  H    1.326599
    12  H    1.399478
    13  H    1.360584
    14  H    1.385241
    15  H    1.442556
    16  H    1.222004
    17  H    1.357340
 Sum of Mulliken charges =  -0.00000

 Dipole moment (field-independent basis, Debye):
    X=             -1.1024    Y=              1.8666    Z=              1.1354  Tot=              2.4472

 Test job not archived.
 1\1\GINC-SE072\SP\RHF\Aug-CC-pVDZ\C6H10O1\OHZDE\09-Apr-2025\0\\#t hf a
 ug-cc-pvdz iop(5/13=1,5/36=2,99/5=2) pseudo=read geom=check guess=(rea
 d,tcheck) scf=(maxcycle=1)\\title\\0,1\C,0,1.51431523,0.40236691,-0.71
 298175\C,0,0.524536,0.2494639,0.40878996\C,0,-0.02363111,-1.13433737,0
 .67803958\C,0,-1.10778445,-1.21000334,-0.40327774\C,0,-1.44884461,0.26
 459235,-0.62107235\C,0,-0.48225658,1.37140531,0.80624798\O,0,0.7797294
 6,1.09176202,1.47913522\H,0,2.49432693,0.09763014,-0.33600778\H,0,1.26
 256511,-0.22359004,-1.56877287\H,0,1.58356733,1.44134208,-1.03470961\H

 Normal termination of Gaussian 16 at Wed Apr  9 03:33:44 2025.
