 Gaussian 16, Revision C.01,

 ----------------------------------------------------------------------
 #t hf aug-cc-pvdz symm=none int=(grid=ultrafine) guess=(read,tcheck) s
 table=(opt,rrhf)
 ----------------------------------------------------------------------
 -----
 title
 -----
 Symbolic Z-matrix:
 Charge =  0 Multiplicity = 1

 SCF Done:  E(RHF) =  -358.422861300     A.U. after   19 cycles
 Normal termination of Gaussian 16 at Wed Apr  9 03:34:09 2025.
 Gaussian 16:  ES64L-G16RevC.01  3-Jul-2019

 ----------------------------------------------------------------------
 #t hf aug-cc-pvdz iop(5/13=1,5/36=2,99/5=2) pseudo=read geom=check gue
 ss=(read,tcheck) scf=(maxcycle=1)
 ----------------------------------------------------------------------
 -----
 title
 -----
 Structure from the checkpoint file:  "Grambow2020_wb97xd3_007078_reverse_mol2.chk"
 Charge =  0 Multiplicity = 1

                         Standard orientation:
 ---------------------------------------------------------------------
 Center     Atomic      Atomic             Coordinates (Angstroms)
 Number     Number       Type             X           Y           Z
 ---------------------------------------------------------------------
      1          8           0       -2.167174    0.125373   -0.653477
      2          6           0       -1.075327   -0.111083    0.019402
      3          7           0       -1.621467    0.583615    0.899685
      4          6           0        1.640593    1.265503   -0.123029
      5          6           0        1.441445   -0.196685   -0.374149
      6          8           0        1.080631   -1.013141    0.724301
      7          6           0        0.132543   -0.870764   -0.307423
      8          1           0        0.863463    1.669226    0.525253
      9          1           0        2.609056    1.425654    0.352868
     10          1           0        1.630221    1.811837   -1.067626
     11          1           0        2.162583   -0.665880   -1.040622
     12          1           0       -0.058233   -1.745828   -0.923058
 ---------------------------------------------------------------------

 SCF Done:  E(RHF) =  -359.965466263     A.U. after    2 cycles

 The electronic state is 1-A.
 Alpha  occ. eigenvalues --  -21.10741 -21.09386 -15.82087 -11.57715 -11.53226
 Alpha  occ. eigenvalues --  -11.46982 -11.41190  -1.84987  -1.79760  -1.22116
 Alpha  occ. eigenvalues --   -1.15129  -1.06868  -0.91158  -0.77609  -0.72956
 Alpha  occ. eigenvalues --   -0.61892  -0.60948  -0.59368  -0.57782  -0.54682
 Alpha  occ. eigenvalues --   -0.51465  -0.46040  -0.40679  -0.38791  -0.35014
 Alpha  occ. eigenvalues --   -0.29424
 Alpha virt. eigenvalues --    0.03186   0.04547   0.05122   0.05584   0.07239
 Alpha virt. eigenvalues --    0.09367   0.09972   0.10259   0.11227   0.11981
 Alpha virt. eigenvalues --    0.13048   0.13228   0.14198   0.14508   0.15833

 Mulliken charges:
               1
     1  O   -2.578757
     2  C    4.577925
     3  N   -2.041927
     4  C   -3.966416
     5  C    0.899436
     6  O   -2.801752
     7  C   -0.567195
     8  H    1.261045
     9  H    1.105868
    10  H    1.207628
    11  H    1.452650
    12  H    1.451495
 Sum of Mulliken charges =   0.00000

 Dipole moment (field-independent basis, Debye):
    X=              2.9941    Y=             -1.1112    Z=             -1.7595  Tot=              3.6463

 Test job not archived.
 1\1\GINC-SE173\SP\RHF\Aug-CC-pVDZ\C4H5N1O2\OHZDE\09-Apr-2025\0\\#t hf
 aug-cc-pvdz iop(5/13=1,5/36=2,99/5=2) pseudo=read geom=check guess=(re
 ad,tcheck) scf=(maxcycle=1)\\title\\0,1\O,0,0.79980812,2.61795137,-0.1
 7124301\C,0,0.47434978,1.51167723,0.43788931\N,0,1.63811979,1.56663444
 ,0.88329937\C,0,0.4474703,-1.3531726,-0.60298187\C,0,-0.76286524,-0.66
 065595,-0.05871686\O,0,-0.79396543,-0.37491948,1.32720115\C,0,-0.75933
 943,0.72376087,0.44669056\H,0,1.3657705,-0.93690205,-0.18989947\H,0,0.
 40355462,-2.41446875,-0.35445134\H,0,0.47541973,-1.25823361,-1.6897459

 Normal termination of Gaussian 16 at Wed Apr  9 03:34:13 2025.
