 Gaussian 16, Revision C.01,

 ----------------------------------------------------------------------
 #t hf aug-cc-pvdz symm=none int=(grid=ultrafine) guess=(read,tcheck) s
 table=(opt,rrhf)
 ----------------------------------------------------------------------
 -----
 title
 -----
 Symbolic Z-matrix:
 Charge =  0 Multiplicity = 1

 SCF Done:  E(RHF) =  -305.834497835     A.U. after   14 cycles
 Normal termination of Gaussian 16 at Wed Apr  9 16:12:53 2025.
 Gaussian 16:  ES64L-G16RevC.01  3-Jul-2019

 ----------------------------------------------------------------------
 #t hf aug-cc-pvdz iop(5/13=1,5/36=2,99/5=2) pseudo=read geom=check gue
 ss=(read,tcheck) scf=(maxcycle=1)
 ----------------------------------------------------------------------
 -----
 title
 -----
 Structure from the checkpoint file:  "Grambow2020_b97d3_006758_reverse_mol2.chk"
 Charge =  0 Multiplicity = 1

                         Standard orientation:
 ---------------------------------------------------------------------
 Center     Atomic      Atomic             Coordinates (Angstroms)
 Number     Number       Type             X           Y           Z
 ---------------------------------------------------------------------
      1          6           0       -2.405183   -0.110510   -0.201736
      2          6           0       -1.071539   -0.788604    0.104656
      3          6           0        0.137110    0.089555   -0.155839
      4          8           0        0.085609    1.243472   -0.544761
      5          6           0        1.509204   -0.589659    0.119289
      6          8           0        2.569710   -0.024650   -0.041216
      7          1           0       -2.531259    0.790215    0.411380
      8          1           0       -3.241542   -0.791865   -0.000133
      9          1           0       -2.449572    0.197624   -1.253938
     10          1           0       -0.946589   -1.717803   -0.480688
     11          1           0       -1.020398   -1.117401    1.158792
     12          1           0       -0.819317    1.257216    2.890240
     13          1           0        1.449129   -1.648578    0.479613
     14          1           0       -0.700558    1.675322    2.284334
 ---------------------------------------------------------------------

 SCF Done:  E(RHF) =  -307.216757805     A.U. after    2 cycles

 The electronic state is 1-A.
 Alpha  occ. eigenvalues --  -21.09886 -21.08309 -11.52183 -11.48939 -11.43686
 Alpha  occ. eigenvalues --  -11.38431  -1.74909  -1.69836  -1.20947  -1.02275
 Alpha  occ. eigenvalues --   -0.90014  -0.75719  -0.68758  -0.65369  -0.62169
 Alpha  occ. eigenvalues --   -0.57381  -0.55538  -0.53088  -0.50185  -0.49336
 Alpha  occ. eigenvalues --   -0.48845  -0.41184  -0.34838  -0.28999
 Alpha virt. eigenvalues --    0.03258   0.04367   0.04824   0.05576   0.06135
 Alpha virt. eigenvalues --    0.06787   0.07837   0.08752   0.09422   0.10623
 Alpha virt. eigenvalues --    0.12269   0.12823   0.13337   0.13834   0.14086

 Mulliken charges:
               1
     1  C   -3.622340
     2  C   -3.347911
     3  C    4.481013
     4  O   -3.370809
     5  C    0.434989
     6  O   -2.520083
     7  H    1.269731
     8  H    1.069031
     9  H    1.243930
    10  H    1.445295
    11  H    1.488582
    12  H    0.131490
    13  H    1.542463
    14  H   -0.245380
 Sum of Mulliken charges =  -0.00000

 Dipole moment (field-independent basis, Debye):
    X=             -1.3562    Y=             -1.1308    Z=              0.3681  Tot=              1.8038

 Test job not archived.
 1\1\GINC-SE173\SP\RHF\Aug-CC-pVDZ\C4H8O2\OHZDE\09-Apr-2025\0\\#t hf au
 g-cc-pvdz iop(5/13=1,5/36=2,99/5=2) pseudo=read geom=check guess=(read
 ,tcheck) scf=(maxcycle=1)\\title\\0,1\C,0,-1.77533805,0.31797613,0.159
 25389\C,0,-0.57060633,-0.53185607,-0.23911849\C,0,0.63263022,0.2787456
 ,-0.68070839\O,0,0.67985692,1.49646376,-0.69990749\C,0,1.86261197,-0.5
 654343,-1.12135991\O,0,2.90106965,-0.06991144,-1.50310929\H,0,-1.52043
 486,0.98426997,0.99243362\H,0,-2.61514649,-0.31931953,0.46414983\H,0,-
 2.09895407,0.94722953,-0.67941143\H,0,-0.82299525,-1.23377564,-1.05475

 Normal termination of Gaussian 16 at Wed Apr  9 16:12:56 2025.
