 Gaussian 16, Revision C.01,

 ----------------------------------------------------------------------
 #t hf aug-cc-pvdz symm=none int=(grid=ultrafine) guess=(read,tcheck) s
 table=(opt,rrhf)
 ----------------------------------------------------------------------
 -----
 title
 -----
 Symbolic Z-matrix:
 Charge =  0 Multiplicity = 1

 SCF Done:  E(RHF) =  -345.926884587     A.U. after   15 cycles

 1\1\GINC-SE187\Stability\RHF\Aug-CC-pVDZ\C5H12O2\OHZDE\09-Apr-2025\0\\
 #t hf aug-cc-pvdz symm=none int=(grid=ultrafine) guess=(read,tcheck) s
 table=(opt,rrhf)\\title\\0,1\C,0,3.08264728,0.81610634,-0.46396741\C,0
 ,2.79735104,-0.55686657,-0.31504613\O,0,1.01879712,-0.38029745,-0.8157
 6484\C,0,0.03316563,-0.5646966,0.17268479\C,0,-1.30029923,-0.03740479,
 -0.32042695\O,0,-2.25275209,-0.2512618,0.68928053\C,0,-3.52876408,0.21
 328233,0.34040166\H,0,1.69993936,0.6557039,-0.76382924\H,0,3.6282439,1
 .13812969,-1.34227355\H,0,3.22022018,1.41194259,0.43022031\H,0,2.64710

 Normal termination of Gaussian 16 at Wed Apr  9 04:05:12 2025.
 Gaussian 16:  ES64L-G16RevC.01  3-Jul-2019

 ----------------------------------------------------------------------
 #t hf aug-cc-pvdz iop(5/13=1,5/36=2,99/5=2) pseudo=read geom=check gue
 ss=(read,tcheck) scf=(maxcycle=1)
 ----------------------------------------------------------------------
 -----
 title
 -----
 Structure from the checkpoint file:  "Grambow2020_wb97xd3_009172_reverse_mol1.chk"
 Charge =  0 Multiplicity = 1

                         Standard orientation:
 ---------------------------------------------------------------------
 Center     Atomic      Atomic             Coordinates (Angstroms)
 Number     Number       Type             X           Y           Z
 ---------------------------------------------------------------------
      1          6           0       -3.165497    0.847898   -0.251066
      2          6           0       -2.851901   -0.518325   -0.097057
      3          8           0       -1.162544   -0.191482    0.598928
      4          6           0       -0.046648   -0.523483   -0.192941
      5          6           0        1.200485    0.131265    0.368563
      6          8           0        2.286733   -0.234745   -0.442925
      7          6           0        3.497686    0.329562   -0.017629
      8          1           0       -1.837371    0.793047    0.259423
      9          1           0       -3.831297    1.309375    0.467645
     10          1           0       -3.180708    1.261600   -1.252135
     11          1           0       -2.561705   -1.118781   -0.953424
     12          1           0       -3.213819   -1.085551    0.751233
     13          1           0        0.092979   -1.608809   -0.195279
     14          1           0       -0.185794   -0.197897   -1.234912
     15          1           0        1.073779    1.223974    0.380870
     16          1           0        1.356509   -0.197723    1.405556
     17          1           0        3.750260    0.017655    1.004376
     18          1           0        3.461009    1.426707   -0.045581
     19          1           0        4.277900   -0.015288   -0.695018
 ---------------------------------------------------------------------

 SCF Done:  E(RHF) =  -347.576289885     A.U. after    2 cycles

 The electronic state is 1-A.
 Alpha  occ. eigenvalues --  -21.04052 -21.01819 -11.47711 -11.44811 -11.39807
 Alpha  occ. eigenvalues --  -11.37898 -11.34521  -1.76222  -1.69197  -1.16329
 Alpha  occ. eigenvalues --   -1.07128  -0.94825  -0.86061  -0.85651  -0.67960
 Alpha  occ. eigenvalues --   -0.65987  -0.64421  -0.62150  -0.59255  -0.57106
 Alpha  occ. eigenvalues --   -0.54387  -0.52131  -0.50695  -0.47962  -0.39788
 Alpha  occ. eigenvalues --   -0.38654  -0.35330  -0.29685  -0.24196
 Alpha virt. eigenvalues --    0.04098   0.04877   0.05242   0.05530   0.05885
 Alpha virt. eigenvalues --    0.05980   0.06602   0.06649   0.07336   0.07577
 Alpha virt. eigenvalues --    0.08424   0.10339   0.11759   0.12990   0.13581

 Mulliken charges:
               1
     1  C   -3.604690
     2  C   -2.684887
     3  O   -2.668888
     4  C   -1.773091
     5  C   -0.630954
     6  O   -3.082434
     7  C   -2.964174
     8  H    1.883438
     9  H    1.266747
    10  H    1.210051
    11  H    1.481536
    12  H    1.309153
    13  H    1.409805
    14  H    1.777350
    15  H    1.534379
    16  H    1.538693
    17  H    1.328296
    18  H    1.361472
    19  H    1.308196
 Sum of Mulliken charges =  -0.00000

 Dipole moment (field-independent basis, Debye):
    X=              0.7097    Y=             -1.3211    Z=              0.2099  Tot=              1.5142

 Test job not archived.
 1\1\GINC-SE187\SP\RHF\Aug-CC-pVDZ\C5H12O2\OHZDE\09-Apr-2025\0\\#t hf a
 ug-cc-pvdz iop(5/13=1,5/36=2,99/5=2) pseudo=read geom=check guess=(rea
 d,tcheck) scf=(maxcycle=1)\\title\\0,1\C,0,3.08264728,0.81610634,-0.46
 396741\C,0,2.79735104,-0.55686657,-0.31504613\O,0,1.01879712,-0.380297
 45,-0.81576484\C,0,0.03316563,-0.5646966,0.17268479\C,0,-1.30029923,-0
 .03740479,-0.32042695\O,0,-2.25275209,-0.2512618,0.68928053\C,0,-3.528
 76408,0.21328233,0.34040166\H,0,1.69993936,0.6557039,-0.76382924\H,0,3
 .6282439,1.13812969,-1.34227355\H,0,3.22022018,1.41194259,0.43022031\H

 Normal termination of Gaussian 16 at Wed Apr  9 04:05:19 2025.
