 Gaussian 16, Revision C.01,

 ----------------------------------------------------------------------
 #t hf aug-cc-pvdz symm=none int=(grid=ultrafine) guess=(read,tcheck) s
 table=(opt,rrhf)
 ----------------------------------------------------------------------
 -----
 title
 -----
 Symbolic Z-matrix:
 Charge =  0 Multiplicity = 1

 SCF Done:  E(RHF) =  -320.536456484     A.U. after   18 cycles
 Normal termination of Gaussian 16 at Wed Apr  9 17:24:10 2025.
 Gaussian 16:  ES64L-G16RevC.01  3-Jul-2019

 ----------------------------------------------------------------------
 #t hf aug-cc-pvdz iop(5/13=1,5/36=2,99/5=2) pseudo=read geom=check gue
 ss=(read,tcheck) scf=(maxcycle=1)
 ----------------------------------------------------------------------
 -----
 title
 -----
 Structure from the checkpoint file:  "Grambow2020_b97d3_007129_reverse_mol1.chk"
 Charge =  0 Multiplicity = 1

                         Standard orientation:
 ---------------------------------------------------------------------
 Center     Atomic      Atomic             Coordinates (Angstroms)
 Number     Number       Type             X           Y           Z
 ---------------------------------------------------------------------
      1          6           0        1.329546   -1.127499    0.406880
      2          7           0        0.279302   -1.018775   -0.446852
      3          6           0       -0.865270   -0.029354   -0.098389
      4          8           0       -1.988120   -0.458292    0.131953
      5          6           0       -0.283402    1.256745    0.074776
      6          8           0        1.027186    1.431285   -0.160713
      7          1           0        1.577036    0.577249    0.149102
      8          1           0        1.098258   -1.042401    1.471871
      9          1           0        2.176838   -1.740842    0.096849
     10          1           0        0.563167   -0.993675   -1.431184
     11          1           0       -0.768189    1.947808    0.771812
 ---------------------------------------------------------------------

 SCF Done:  E(RHF) =  -321.957792334     A.U. after    2 cycles

 The electronic state is 1-A.
 Alpha  occ. eigenvalues --  -21.09054 -21.01408 -15.85564 -11.52385 -11.49368
 Alpha  occ. eigenvalues --  -11.38052  -1.74135  -1.66912  -1.44367  -1.05004
 Alpha  occ. eigenvalues --   -0.96888  -0.81852  -0.72971  -0.68819  -0.64462
 Alpha  occ. eigenvalues --   -0.59267  -0.55061  -0.47936  -0.46155  -0.42623
 Alpha  occ. eigenvalues --   -0.37502  -0.27801  -0.20566
 Alpha virt. eigenvalues --    0.01693   0.02093   0.04426   0.04592   0.06701
 Alpha virt. eigenvalues --    0.07206   0.09578   0.10891   0.11322   0.12397
 Alpha virt. eigenvalues --    0.12973   0.13930   0.14898   0.15260   0.16610

 Mulliken charges:
               1
     1  C   -2.230570
     2  N   -2.368614
     3  C    3.716468
     4  O   -3.160495
     5  C    0.499711
     6  O   -2.983931
     7  H    1.448303
     8  H    1.479169
     9  H    1.422976
    10  H    0.718716
    11  H    1.458267
 Sum of Mulliken charges =  -0.00000

 Dipole moment (field-independent basis, Debye):
    X=              3.6033    Y=             -2.8866    Z=             -0.1220  Tot=              4.6186

 Test job not archived.
 1\1\GINC-SE219\SP\RHF\Aug-CC-pVDZ\C3H5N1O2\OHZDE\09-Apr-2025\0\\#t hf
 aug-cc-pvdz iop(5/13=1,5/36=2,99/5=2) pseudo=read geom=check guess=(re
 ad,tcheck) scf=(maxcycle=1)\\title\\0,1\C,0,-0.63443569,1.21157315,-0.
 29126038\N,0,0.23959386,0.76290871,0.64600285\C,0,0.27685069,-0.756287
 84,0.96393465\O,0,-0.04747669,-1.15093046,2.07609684\C,0,0.52341414,-1
 .44448694,-0.25598244\O,0,0.76194942,-0.74564164,-1.37771155\H,0,0.168
 22594,0.13452185,-1.40011602\H,0,-1.60244709,0.70536885,-0.33191205\H,
 0,-0.57328967,2.2606816,-0.58425215\H,0,1.16661465,1.19277003,0.568732

 Normal termination of Gaussian 16 at Wed Apr  9 17:24:14 2025.
