 Gaussian 16, Revision C.01,

 ----------------------------------------------------------------------
 #t hf aug-cc-pvdz symm=none int=(grid=ultrafine) guess=(read,tcheck) s
 table=(opt,rrhf)
 ----------------------------------------------------------------------
 -----
 title
 -----
 Symbolic Z-matrix:
 Charge =  0 Multiplicity = 1

 SCF Done:  E(RHF) =  -316.505991669     A.U. after   16 cycles
 Normal termination of Gaussian 16 at Wed Apr  9 18:33:27 2025.
 Gaussian 16:  ES64L-G16RevC.01  3-Jul-2019

 ----------------------------------------------------------------------
 #t hf aug-cc-pvdz iop(5/13=1,5/36=2,99/5=2) pseudo=read geom=check gue
 ss=(read,tcheck) scf=(maxcycle=1)
 ----------------------------------------------------------------------
 -----
 title
 -----
 Structure from the checkpoint file:  "Grambow2020_wb97xd3_007266_reverse_mol2.chk"
 Charge =  0 Multiplicity = 1

                         Standard orientation:
 ---------------------------------------------------------------------
 Center     Atomic      Atomic             Coordinates (Angstroms)
 Number     Number       Type             X           Y           Z
 ---------------------------------------------------------------------
      1          7           0        2.666571    0.043138   -0.451731
      2          6           0        1.615560    0.019172    0.004897
      3          6           0       -1.713025   -0.741619   -0.383959
      4          7           0       -1.701166    0.717413   -0.347659
      5          6           0       -0.617780    1.121493    0.172052
      6          6           0        0.281948   -0.011235    0.601130
      7          7           0       -0.556236   -1.103842    0.140781
      8          1           0       -0.360017    2.166438    0.312936
      9          1           0        0.383611   -0.021507    1.692010
     10          1           0       -0.287998   -2.068764    0.240596
 ---------------------------------------------------------------------

 SCF Done:  E(RHF) =  -317.912729909     A.U. after    2 cycles

 The electronic state is 1-A.
 Alpha  occ. eigenvalues --  -15.81736 -15.79589 -15.76503 -11.54634 -11.48099
 Alpha  occ. eigenvalues --  -11.46065 -11.41597  -1.58697  -1.34325  -1.30941
 Alpha  occ. eigenvalues --   -1.15538  -0.91291  -0.84063  -0.78640  -0.74774
 Alpha  occ. eigenvalues --   -0.61813  -0.61158  -0.56360  -0.51015  -0.48919
 Alpha  occ. eigenvalues --   -0.47595  -0.42782  -0.40535  -0.35865
 Alpha virt. eigenvalues --    0.02260   0.04725   0.05269   0.06468   0.08117
 Alpha virt. eigenvalues --    0.09350   0.09734   0.10542   0.10679   0.11196
 Alpha virt. eigenvalues --    0.12236   0.13088   0.13579   0.14228   0.14795

 Mulliken charges:
               1
     1  N   -2.541199
     2  C    3.159739
     3  C    0.145305
     4  N   -2.486191
     5  C    1.925442
     6  C   -2.889046
     7  N   -1.195122
     8  H    1.520743
     9  H    1.552282
    10  H    0.808047
 Sum of Mulliken charges =  -0.00000

 Dipole moment (field-independent basis, Debye):
    X=              1.4393    Y=              0.2418    Z=              3.2654  Tot=              3.5768

 Test job not archived.
 1\1\GINC-SE104\SP\RHF\Aug-CC-pVDZ\C4H3N3\OHZDE\09-Apr-2025\0\\#t hf au
 g-cc-pvdz iop(5/13=1,5/36=2,99/5=2) pseudo=read geom=check guess=(read
 ,tcheck) scf=(maxcycle=1)\\title\\0,1\N,0,1.84238525,0.0497225,-2.0872
 7879\C,0,0.99646753,0.1740729,-1.32395262\C,0,-0.07415438,-0.18240223,
 1.92199601\N,0,-0.83776083,-1.19552789,1.20039046\C,0,-0.83885965,-0.9
 2568277,-0.03827394\C,0,-0.08844758,0.34321187,-0.35995627\N,0,0.35056
 071,0.65103272,0.98940765\H,0,-1.33531885,-1.52608878,-0.79407834\H,0,
 -0.77881638,1.1061932,-0.73639868\H,0,0.91376718,1.45739849,1.20286351

 Normal termination of Gaussian 16 at Wed Apr  9 18:33:30 2025.
