 Gaussian 16, Revision C.01,

 ----------------------------------------------------------------------
 #t hf aug-cc-pvdz symm=none int=(grid=ultrafine) guess=(read,tcheck) s
 table=(opt,rrhf)
 ----------------------------------------------------------------------
 -----
 title
 -----
 Symbolic Z-matrix:
 Charge =  0 Multiplicity = 1

 SCF Done:  E(RHF) =  -306.605356315     A.U. after   15 cycles
 Normal termination of Gaussian 16 at Wed Apr  9 18:36:03 2025.
 Gaussian 16:  ES64L-G16RevC.01  3-Jul-2019

 ----------------------------------------------------------------------
 #t hf aug-cc-pvdz iop(5/13=1,5/36=2,99/5=2) pseudo=read geom=check gue
 ss=(read,tcheck) scf=(maxcycle=1)
 ----------------------------------------------------------------------
 -----
 title
 -----
 Structure from the checkpoint file:  "Grambow2020_wb97xd3_007304_reverse_mol2.chk"
 Charge =  0 Multiplicity = 1

                         Standard orientation:
 ---------------------------------------------------------------------
 Center     Atomic      Atomic             Coordinates (Angstroms)
 Number     Number       Type             X           Y           Z
 ---------------------------------------------------------------------
      1          6           0        3.035565   -0.810877   -0.093116
      2          6           0        2.960270    0.479939    0.186818
      3          6           0       -0.321040    0.437963   -0.083585
      4          8           0       -0.358354    1.582072   -0.108700
      5          6           0       -0.609822   -0.888192   -0.038972
      6          6           0       -1.975946   -1.076924    0.037960
      7          6           0       -2.983292    0.008507    0.071756
      8          1           0        0.154103   -1.652616   -0.062892
      9          1           0        3.024403   -1.563114    0.687862
     10          1           0        3.119347   -1.168045   -1.113413
     11          1           0        2.979045    1.233813   -0.592205
     12          1           0        2.883057    0.837003    1.207706
     13          1           0       -2.660429    1.061240    0.030787
     14          1           0       -3.684016   -0.171697   -0.748669
     15          1           0       -3.583089   -0.135654    0.975256
 ---------------------------------------------------------------------

 SCF Done:  E(RHF) =  -308.028183764     A.U. after    2 cycles

 The electronic state is 1-A.
 Alpha  occ. eigenvalues --  -21.17747 -11.59131 -11.43459 -11.42489 -11.39821
 Alpha  occ. eigenvalues --  -11.38587 -11.37152  -1.81793  -1.24157  -1.15186
 Alpha  occ. eigenvalues --   -1.05320  -0.83678  -0.81142  -0.72560  -0.65817
 Alpha  occ. eigenvalues --   -0.64184  -0.60058  -0.59396  -0.57416  -0.55300
 Alpha  occ. eigenvalues --   -0.51709  -0.50665  -0.49125  -0.37789  -0.34740
 Alpha  occ. eigenvalues --   -0.28836
 Alpha virt. eigenvalues --    0.03140   0.05267   0.05563   0.05607   0.05839
 Alpha virt. eigenvalues --    0.06870   0.07264   0.07306   0.08919   0.09958
 Alpha virt. eigenvalues --    0.10760   0.11889   0.12203   0.13097   0.13605

 Mulliken charges:
               1
     1  C   -2.835120
     2  C   -2.979178
     3  C    1.910831
     4  O   -2.416128
     5  C    0.480915
     6  C   -1.161637
     7  C   -4.107575
     8  H    1.751540
     9  H    1.423801
    10  H    1.387810
    11  H    1.434277
    12  H    1.414202
    13  H    1.266622
    14  H    1.233132
    15  H    1.196509
 Sum of Mulliken charges =  -0.00000

 Dipole moment (field-independent basis, Debye):
    X=              2.2227    Y=              3.3774    Z=             -0.1577  Tot=              4.0462

 Test job not archived.
 1\1\GINC-SE105\SP\RHF\Aug-CC-pVDZ\C6H8O1\OHZDE\09-Apr-2025\0\\#t hf au
 g-cc-pvdz iop(5/13=1,5/36=2,99/5=2) pseudo=read geom=check guess=(read
 ,tcheck) scf=(maxcycle=1)\\title\\0,1\C,0,-2.98519989,-0.36695958,0.44
 823572\C,0,-2.74144716,0.62355118,-0.39420738\C,0,0.48659655,0.4874670
 3,0.24068632\O,0,0.65485128,1.49823958,-0.27023084\C,0,0.62163034,-0.7
 147072,0.85762761\C,0,1.9585984,-1.01196307,1.03648064\C,0,3.08523176,
 -0.1483776,0.61343838\H,0,-0.22581389,-1.31903833,1.14937712\H,0,-3.00
 830594,-1.39994109,0.11910528\H,0,-3.17933789,-0.18534146,1.49938752\H

 Normal termination of Gaussian 16 at Wed Apr  9 18:36:08 2025.
