 Gaussian 16, Revision C.01,

 ----------------------------------------------------------------------
 #t hf aug-cc-pvdz symm=none int=(grid=ultrafine) guess=(read,tcheck) s
 table=(opt,rrhf)
 ----------------------------------------------------------------------
 -----
 title
 -----
 Symbolic Z-matrix:
 Charge =  0 Multiplicity = 1

 SCF Done:  E(RHF) =  -305.751173674     A.U. after   15 cycles
 Normal termination of Gaussian 16 at Wed Apr  9 16:12:54 2025.
 Gaussian 16:  ES64L-G16RevC.01  3-Jul-2019

 ----------------------------------------------------------------------
 #t hf aug-cc-pvdz iop(5/13=1,5/36=2,99/5=2) pseudo=read geom=check gue
 ss=(read,tcheck) scf=(maxcycle=1)
 ----------------------------------------------------------------------
 -----
 title
 -----
 Structure from the checkpoint file:  "Grambow2020_b97d3_006750_reverse_mol1.chk"
 Charge =  0 Multiplicity = 1

                         Standard orientation:
 ---------------------------------------------------------------------
 Center     Atomic      Atomic             Coordinates (Angstroms)
 Number     Number       Type             X           Y           Z
 ---------------------------------------------------------------------
      1          6           0        2.382935    0.119548    0.486927
      2          6           0        1.358879   -0.538405   -0.455420
      3          6           0       -0.037468   -0.001689   -0.223760
      4          8           0       -0.286649    1.240010   -0.260491
      5          6           0       -1.126231   -0.896598   -0.006990
      6          8           0       -2.364995    0.055549    0.344876
      7          1           0        2.353740    1.209926    0.374293
      8          1           0        3.397594   -0.232316    0.257502
      9          1           0        2.164922   -0.122717    1.536183
     10          1           0        1.366521   -1.632856   -0.340806
     11          1           0        1.632959   -0.322018   -1.499896
     12          1           0       -2.275587   -0.531822   -0.629758
     13          1           0       -1.100195   -1.754319    0.660431
     14          1           0       -1.795490    0.924512    0.162430
 ---------------------------------------------------------------------

 SCF Done:  E(RHF) =  -307.164456808     A.U. after    2 cycles

 The electronic state is 1-A.
 Alpha  occ. eigenvalues --  -21.11806 -21.03882 -11.50641 -11.42359 -11.41498
 Alpha  occ. eigenvalues --  -11.37412  -1.78440  -1.66658  -1.19728  -1.04040
 Alpha  occ. eigenvalues --   -0.91457  -0.76069  -0.70898  -0.67341  -0.62401
 Alpha  occ. eigenvalues --   -0.56513  -0.54909  -0.51067  -0.49887  -0.45237
 Alpha  occ. eigenvalues --   -0.43133  -0.41296  -0.30132  -0.27508
 Alpha virt. eigenvalues --    0.03414   0.05084   0.05315   0.05993   0.06274
 Alpha virt. eigenvalues --    0.06627   0.07255   0.07527   0.10785   0.11955
 Alpha virt. eigenvalues --    0.12228   0.13400   0.14128   0.14439   0.14974

 Mulliken charges:
               1
     1  C   -3.702835
     2  C   -3.092463
     3  C    4.457928
     4  O   -3.371695
     5  C   -2.197290
     6  O   -2.391133
     7  H    1.327072
     8  H    1.142521
     9  H    1.286045
    10  H    1.590490
    11  H    1.346830
    12  H    1.201040
    13  H    1.299198
    14  H    1.104292
 Sum of Mulliken charges =  -0.00000

 Dipole moment (field-independent basis, Debye):
    X=             -0.2880    Y=             -0.1505    Z=              0.7533  Tot=              0.8204

 Test job not archived.
 1\1\GINC-SE129\SP\RHF\Aug-CC-pVDZ\C4H8O2\OHZDE\09-Apr-2025\0\\#t hf au
 g-cc-pvdz iop(5/13=1,5/36=2,99/5=2) pseudo=read geom=check guess=(read
 ,tcheck) scf=(maxcycle=1)\\title\\0,1\C,0,-1.9735069,0.32743835,-0.474
 79074\C,0,-0.93482362,-0.57039114,0.22137703\C,0,0.42131342,0.09832878
 ,0.29362973\O,0,0.56826691,1.24958095,0.80183997\C,0,1.58572602,-0.582
 87379,-0.16828347\O,0,2.75584425,0.50566676,-0.06420389\H,0,-2.0362674
 2,1.29683108,0.03393397\H,0,-2.96424074,-0.14594453,-0.45657362\H,0,-1
 .69864396,0.50757669,-1.52319982\H,0,-0.85019477,-1.54149938,-0.289314

 Normal termination of Gaussian 16 at Wed Apr  9 16:12:58 2025.
