 Gaussian 16, Revision C.01,

 ----------------------------------------------------------------------
 #t hf aug-cc-pvdz symm=none int=(grid=ultrafine) guess=(read,tcheck) s
 table=(opt,rrhf)
 ----------------------------------------------------------------------
 -----
 title
 -----
 Symbolic Z-matrix:
 Charge =  0 Multiplicity = 1

 SCF Done:  E(RHF) =  -269.586967316     A.U. after   14 cycles
 Normal termination of Gaussian 16 at Wed Apr  9 18:05:45 2025.
 Gaussian 16:  ES64L-G16RevC.01  3-Jul-2019

 ----------------------------------------------------------------------
 #t hf aug-cc-pvdz iop(5/13=1,5/36=2,99/5=2) pseudo=read geom=check gue
 ss=(read,tcheck) scf=(maxcycle=1)
 ----------------------------------------------------------------------
 -----
 title
 -----
 Structure from the checkpoint file:  "Grambow2020_wb97xd3_006585_reverse_mol2.chk"
 Charge =  0 Multiplicity = 1

                         Standard orientation:
 ---------------------------------------------------------------------
 Center     Atomic      Atomic             Coordinates (Angstroms)
 Number     Number       Type             X           Y           Z
 ---------------------------------------------------------------------
      1          6           0        2.253100   -0.047633   -0.486345
      2          6           0        1.046898   -0.028355    0.449318
      3          6           0        0.129623    1.231489    0.218658
      4          6           0       -1.211864    0.659981   -0.055575
      5          6           0       -2.302637   -0.018263   -0.283779
      6          6           0       -1.133820   -0.793130   -0.024821
      7          6           0        0.096236   -1.217740    0.252683
      8          1           0        1.929171   -0.044439   -1.530394
      9          1           0        2.904709    0.815036   -0.322646
     10          1           0        2.849642   -0.947959   -0.326484
     11          1           0        1.424861   -0.007427    1.479248
     12          1           0        0.097164    1.904810    1.076347
     13          1           0        0.459591    1.830221   -0.634100
     14          1           0       -3.359032   -0.025003   -0.504700
     15          1           0        0.428680   -2.243326    0.341899
 ---------------------------------------------------------------------

 SCF Done:  E(RHF) =  -270.918186936     A.U. after    2 cycles

 The electronic state is 1-A.
 Alpha  occ. eigenvalues --  -11.48582 -11.48247 -11.43833 -11.41486 -11.40134
 Alpha  occ. eigenvalues --  -11.37387 -11.35221  -1.40705  -1.19165  -1.03692
 Alpha  occ. eigenvalues --   -1.00874  -0.83996  -0.78319  -0.71106  -0.66054
 Alpha  occ. eigenvalues --   -0.63338  -0.56962  -0.55605  -0.51266  -0.48586
 Alpha  occ. eigenvalues --   -0.47694  -0.47262  -0.42837  -0.33714  -0.25793
 Alpha virt. eigenvalues --    0.03327   0.04987   0.05750   0.05854   0.05979
 Alpha virt. eigenvalues --    0.06252   0.07005   0.07491   0.09746   0.10842
 Alpha virt. eigenvalues --    0.11046   0.12115   0.12917   0.13746   0.14394

 Mulliken charges:
               1
     1  C   -3.905946
     2  C   -2.816440
     3  C   -4.611473
     4  C    3.178359
     5  C   -3.276783
     6  C    3.876023
     7  C   -2.601799
     8  H    1.389816
     9  H    1.264768
    10  H    1.222719
    11  H    1.427791
    12  H    1.231848
    13  H    1.356762
    14  H    0.911702
    15  H    1.352654
 Sum of Mulliken charges =  -0.00000

 Dipole moment (field-independent basis, Debye):
    X=             -0.3740    Y=              1.7074    Z=              0.0778  Tot=              1.7496

 Test job not archived.
 1\1\GINC-SE173\SP\RHF\Aug-CC-pVDZ\C7H8\OHZDE\09-Apr-2025\0\\#t hf aug-
 cc-pvdz iop(5/13=1,5/36=2,99/5=2) pseudo=read geom=check guess=(read,t
 check) scf=(maxcycle=1)\\title\\0,1\C,0,-0.25954196,-1.32424762,1.4509
 786\C,0,-0.56982084,-0.05811195,0.65637926\C,0,0.68296617,0.88766508,0
 .52283201\C,0,0.84325786,1.07540617,-0.94020378\C,0,0.83313472,1.11478
 271,-2.24413013\C,0,-0.17892165,0.31166966,-1.64050528\C,0,-0.9837699,
 -0.32938112,-0.79693419\H,0,0.5477168,-1.88761833,0.97566128\H,0,0.036
 27428,-1.09381216,2.47810141\H,0,-1.13570463,-1.97404737,1.49685075\H,

 Normal termination of Gaussian 16 at Wed Apr  9 18:05:51 2025.
