 Gaussian 16, Revision C.01,

 ----------------------------------------------------------------------
 #t hf aug-cc-pvdz symm=none int=(grid=ultrafine) guess=(read,tcheck) s
 table=(opt,rrhf)
 ----------------------------------------------------------------------
 -----
 title
 -----
 Symbolic Z-matrix:
 Charge =  0 Multiplicity = 1

 SCF Done:  E(RHF) =  -286.812090979     A.U. after   15 cycles
 Normal termination of Gaussian 16 at Wed Apr  9 18:29:33 2025.
 Gaussian 16:  ES64L-G16RevC.01  3-Jul-2019

 ----------------------------------------------------------------------
 #t hf aug-cc-pvdz iop(5/13=1,5/36=2,99/5=2) pseudo=read geom=check gue
 ss=(read,tcheck) scf=(maxcycle=1)
 ----------------------------------------------------------------------
 -----
 title
 -----
 Structure from the checkpoint file:  "Grambow2020_wb97xd3_007180_forward_mol1.chk"
 Charge =  0 Multiplicity = 1

                         Standard orientation:
 ---------------------------------------------------------------------
 Center     Atomic      Atomic             Coordinates (Angstroms)
 Number     Number       Type             X           Y           Z
 ---------------------------------------------------------------------
      1          6           0       -2.485897   -0.567289   -0.116528
      2          6           0       -1.125282    0.021757    0.109050
      3          6           0       -0.728367    1.399600   -0.051661
      4          6           0        0.708299    1.286856   -0.048861
      5          6           0        1.110315   -0.021453   -0.022379
      6          6           0        2.476891   -0.615510   -0.033041
      7          7           0        0.002678   -0.805596    0.065253
      8          1           0       -2.675544   -1.433337    0.521951
      9          1           0       -3.239645    0.191484    0.084880
     10          1           0       -2.590947   -0.876034   -1.157969
     11          1           0       -1.146012    0.717420    1.116475
     12          1           0        1.391968    2.122715   -0.101778
     13          1           0        2.589129   -1.332978   -0.848904
     14          1           0        3.221423    0.167625   -0.161976
     15          1           0        2.687457   -1.136128    0.904142
     16          1           0        0.007674   -1.805364    0.166937
 ---------------------------------------------------------------------

 SCF Done:  E(RHF) =  -288.212531812     A.U. after    2 cycles

 The electronic state is 1-A.
 Alpha  occ. eigenvalues --  -15.77666 -11.46135 -11.44899 -11.41014 -11.38910
 Alpha  occ. eigenvalues --  -11.37806 -11.34053  -1.51890  -1.18310  -1.13707
 Alpha  occ. eigenvalues --   -1.06811  -0.94618  -0.79978  -0.74819  -0.68729
 Alpha  occ. eigenvalues --   -0.63675  -0.59054  -0.58866  -0.56544  -0.53612
 Alpha  occ. eigenvalues --   -0.52145  -0.49203  -0.46107  -0.37740  -0.31174
 Alpha  occ. eigenvalues --   -0.30302
 Alpha virt. eigenvalues --    0.02992   0.04258   0.05213   0.05655   0.06078
 Alpha virt. eigenvalues --    0.06283   0.06566   0.07361   0.08104   0.10592
 Alpha virt. eigenvalues --    0.11525   0.11772   0.12494   0.12929   0.13150

 Mulliken charges:
               1
     1  C   -4.537706
     2  C    2.451273
     3  C   -3.570004
     4  C   -1.101979
     5  C    5.005189
     6  C   -4.962644
     7  N   -4.330461
     8  H    1.190622
     9  H    1.196090
    10  H    1.208678
    11  H    1.668692
    12  H    1.486090
    13  H    1.151345
    14  H    1.187379
    15  H    1.110003
    16  H    0.847432
 Sum of Mulliken charges =   0.00000

 Dipole moment (field-independent basis, Debye):
    X=              1.7119    Y=             -4.9840    Z=              0.4573  Tot=              5.2896

 Test job not archived.
 1\1\GINC-SE045\SP\RHF\Aug-CC-pVDZ\C6H9N1\OHZDE\09-Apr-2025\0\\#t hf au
 g-cc-pvdz iop(5/13=1,5/36=2,99/5=2) pseudo=read geom=check guess=(read
 ,tcheck) scf=(maxcycle=1)\\title\\0,1\C,0,-2.52717837,-0.21269021,-0.0
 5152803\C,0,-1.11863241,0.27152268,0.1235995\C,0,-0.62480079,1.6156231
 6,-0.05344585\C,0,0.79838139,1.39459151,-0.10268378\C,0,1.10104498,0.0
 5960288,-0.08891127\C,0,2.41751083,-0.63604781,-0.14835135\N,0,-0.0587
 8093,-0.63867571,0.04005795\H,0,-2.75842035,-1.06274466,0.59468793\H,0
 ,-3.21359283,0.60063203,0.17602321\H,0,-2.69304531,-0.5112691,-1.08801

 Normal termination of Gaussian 16 at Wed Apr  9 18:29:38 2025.
