 Gaussian 16, Revision C.01,

 ----------------------------------------------------------------------
 #t hf aug-cc-pvdz symm=none int=(grid=ultrafine) guess=(read,tcheck) s
 table=(opt,rrhf)
 ----------------------------------------------------------------------
 -----
 title
 -----
 Symbolic Z-matrix:
 Charge =  0 Multiplicity = 1

 SCF Done:  E(RHF) =  -305.889378811     A.U. after   13 cycles
 Normal termination of Gaussian 16 at Wed Apr  9 03:05:34 2025.
 Gaussian 16:  ES64L-G16RevC.01  3-Jul-2019

 ----------------------------------------------------------------------
 #t hf aug-cc-pvdz iop(5/13=1,5/36=2,99/5=2) pseudo=read geom=check gue
 ss=(read,tcheck) scf=(maxcycle=1)
 ----------------------------------------------------------------------
 -----
 title
 -----
 Structure from the checkpoint file:  "Grambow2020_b97d3_006508_forward_mol2.chk"
 Charge =  0 Multiplicity = 1

                         Standard orientation:
 ---------------------------------------------------------------------
 Center     Atomic      Atomic             Coordinates (Angstroms)
 Number     Number       Type             X           Y           Z
 ---------------------------------------------------------------------
      1          6           0        1.124231   -1.271184   -0.336377
      2          6           0        0.342111   -0.000105    0.057854
      3          6           0        1.121359    1.273405   -0.335128
      4          8           0        0.088416   -0.001623    1.452112
      5          6           0       -0.981103   -0.000856   -0.694478
      6          8           0       -2.058967   -0.000544   -0.120261
      7          1           0        2.082491   -1.276965    0.198869
      8          1           0        0.560372   -2.167989   -0.048757
      9          1           0        1.326119   -1.304719   -1.416350
     10          1           0        0.554433    2.169673   -0.051454
     11          1           0        1.328196    1.305807   -1.414242
     12          1           0        2.076940    1.282159    0.204833
     13          1           0       -0.892787    0.002710    1.527820
     14          1           0       -0.910932   -0.000909   -1.806752
 ---------------------------------------------------------------------

 SCF Done:  E(RHF) =  -307.276092720     A.U. after    2 cycles

 The electronic state is 1-A.
 Alpha  occ. eigenvalues --  -21.08287 -21.06288 -11.50038 -11.46154 -11.40928
 Alpha  occ. eigenvalues --  -11.37964  -1.75773  -1.68404  -1.20039  -1.02632
 Alpha  occ. eigenvalues --   -0.93803  -0.78706  -0.69881  -0.62674  -0.61124
 Alpha  occ. eigenvalues --   -0.57690  -0.55851  -0.52777  -0.50645  -0.46411
 Alpha  occ. eigenvalues --   -0.43407  -0.41470  -0.32035  -0.31295
 Alpha virt. eigenvalues --    0.03513   0.05080   0.05268   0.05564   0.05735
 Alpha virt. eigenvalues --    0.06479   0.07131   0.07716   0.10897   0.12089
 Alpha virt. eigenvalues --    0.12321   0.14159   0.14227   0.14817   0.15051

 Mulliken charges:
               1
     1  C   -3.709676
     2  C    3.070779
     3  C   -3.711313
     4  O   -3.444728
     5  C    1.044621
     6  O   -2.751051
     7  H    1.201492
     8  H    1.209405
     9  H    1.272761
    10  H    1.209007
    11  H    1.272776
    12  H    1.201795
    13  H    0.618835
    14  H    1.515296
 Sum of Mulliken charges =  -0.00000

 Dipole moment (field-independent basis, Debye):
    X=              0.7064    Y=              0.0015    Z=             -0.8368  Tot=              1.0951

 Test job not archived.
 1\1\GINC-SE112\SP\RHF\Aug-CC-pVDZ\C4H8O2\OHZDE\09-Apr-2025\0\\#t hf au
 g-cc-pvdz iop(5/13=1,5/36=2,99/5=2) pseudo=read geom=check guess=(read
 ,tcheck) scf=(maxcycle=1)\\title\\0,1\C,0,-0.85081862,1.18689681,-0.10
 882848\C,0,0.09441735,-0.02560814,-0.24714881\C,0,1.22017986,0.0270266
 6,0.80801873\O,0,0.65246942,-0.05738534,-1.54941087\C,0,-0.71694169,-1
 .2925987,-0.01621833\O,0,-0.82564711,-2.16266082,-0.8663317\H,0,-0.272
 84137,2.10600651,-0.26996316\H,0,-1.64379237,1.13802191,-0.86627504\H,
 0,-1.30945935,1.23203547,0.88908695\H,0,1.88395219,-0.84074209,0.70052

 Normal termination of Gaussian 16 at Wed Apr  9 03:05:38 2025.
