 Gaussian 16, Revision C.01,

 ----------------------------------------------------------------------
 #t hf aug-cc-pvdz symm=none int=(grid=ultrafine) guess=(read,tcheck) s
 table=(opt,rrhf)
 ----------------------------------------------------------------------
 -----
 title
 -----
 Symbolic Z-matrix:
 Charge =  0 Multiplicity = 1

 SCF Done:  E(RHF) =  -320.168999845     A.U. after   17 cycles
 Normal termination of Gaussian 16 at Wed Apr  9 19:31:53 2025.
 Gaussian 16:  ES64L-G16RevC.01  3-Jul-2019

 ----------------------------------------------------------------------
 #t hf aug-cc-pvdz iop(5/13=1,5/36=2,99/5=2) pseudo=read geom=check gue
 ss=(read,tcheck) scf=(maxcycle=1)
 ----------------------------------------------------------------------
 -----
 title
 -----
 Structure from the checkpoint file:  "Grambow2020_wb97xd3_009365_reverse_mol2.chk"
 Charge =  0 Multiplicity = 1

                         Standard orientation:
 ---------------------------------------------------------------------
 Center     Atomic      Atomic             Coordinates (Angstroms)
 Number     Number       Type             X           Y           Z
 ---------------------------------------------------------------------
      1          6           0        1.491583    0.692519    0.315577
      2          6           0        0.385107    1.324824   -0.035515
      3          6           0       -0.834599    1.273111   -0.377738
      4          6           0       -1.584427    0.233274    0.015463
      5          8           0       -0.994390   -0.915308    0.383208
      6          7           0        0.224125   -1.384786   -0.277150
      7          6           0        1.287113   -0.694316   -0.132351
      8          1           0        2.446432    1.080090    0.631231
      9          1           0       -2.664586    0.173495    0.108944
     10          1           0        2.135741   -1.214085   -0.578411
 ---------------------------------------------------------------------

 SCF Done:  E(RHF) =  -321.614348839     A.U. after    2 cycles

 The electronic state is 1-A.
 Alpha  occ. eigenvalues --  -21.11087 -15.79499 -11.51820 -11.48065 -11.47609
 Alpha  occ. eigenvalues --  -11.43450 -11.39837  -1.83905  -1.34144  -1.25332
 Alpha  occ. eigenvalues --   -1.06106  -0.95328  -0.79158  -0.73030  -0.70672
 Alpha  occ. eigenvalues --   -0.63744  -0.60955  -0.58045  -0.48707  -0.44390
 Alpha  occ. eigenvalues --   -0.42589  -0.40412  -0.35802  -0.26909
 Alpha virt. eigenvalues --    0.03143   0.04993   0.05556   0.06375   0.07639
 Alpha virt. eigenvalues --    0.08821   0.09720   0.11111   0.11731   0.12028
 Alpha virt. eigenvalues --    0.12702   0.13412   0.13853   0.14174   0.14739

 Mulliken charges:
               1
     1  C   -2.397726
     2  C    3.985599
     3  C   -1.619021
     4  C    0.207701
     5  O   -2.867071
     6  N   -1.229331
     7  C   -0.060083
     8  H    1.205297
     9  H    1.388219
    10  H    1.386416
 Sum of Mulliken charges =   0.00000

 Dipole moment (field-independent basis, Debye):
    X=              0.8331    Y=             -0.5741    Z=              1.2011  Tot=              1.5704

 Test job not archived.
 1\1\GINC-SE084\SP\RHF\Aug-CC-pVDZ\C5H3N1O1\OHZDE\09-Apr-2025\0\\#t hf
 aug-cc-pvdz iop(5/13=1,5/36=2,99/5=2) pseudo=read geom=check guess=(re
 ad,tcheck) scf=(maxcycle=1)\\title\\0,1\C,0,1.36301986,-0.49811867,0.2
 4066048\C,0,1.02089553,0.75063141,-0.02567942\C,0,0.11475085,1.5960706
 6,-0.29327897\C,0,-1.14049885,1.36748385,0.11928221\O,0,-1.52793899,0.
 11793289,0.42116525\N,0,-1.01760495,-1.03303979,-0.32454362\C,0,0.2251
 4835,-1.30500492,-0.22831935\H,0,2.31940206,-0.91796515,0.50645913\H,0
 ,-1.94261994,2.08203646,0.27762194\H,0,0.44440207,-2.24349873,-0.73866

 Normal termination of Gaussian 16 at Wed Apr  9 19:31:57 2025.
