 Gaussian 16, Revision C.01,

 ----------------------------------------------------------------------
 #t hf aug-cc-pvdz symm=none int=(grid=ultrafine) guess=(read,tcheck) s
 table=(opt,rrhf)
 ----------------------------------------------------------------------
 -----
 title
 -----
 Symbolic Z-matrix:
 Charge =  0 Multiplicity = 1

 SCF Done:  E(RHF) =  -233.966790823     A.U. after   16 cycles
 Normal termination of Gaussian 16 at Wed Apr  9 16:34:17 2025.
 Gaussian 16:  ES64L-G16RevC.01  3-Jul-2019

 ----------------------------------------------------------------------
 #t hf aug-cc-pvdz iop(5/13=1,5/36=2,99/5=2) pseudo=read geom=check gue
 ss=(read,tcheck) scf=(maxcycle=1)
 ----------------------------------------------------------------------
 -----
 title
 -----
 Structure from the checkpoint file:  "Grambow2020_b97d3_006831_reverse_mol1.chk"
 Charge =  0 Multiplicity = 1

                         Standard orientation:
 ---------------------------------------------------------------------
 Center     Atomic      Atomic             Coordinates (Angstroms)
 Number     Number       Type             X           Y           Z
 ---------------------------------------------------------------------
      1          6           0       -0.933523    1.316976    0.367280
      2          6           0       -0.689322   -0.020048    0.224164
      3          6           0       -1.431106   -0.862034   -0.772792
      4          6           0        1.227061    0.761619   -0.832220
      5          6           0        1.593635   -0.460054   -0.006730
      6          6           0        0.418969   -0.666121    1.015185
      7          1           0       -1.984217    0.292743    1.525758
      8          1           0       -0.430810    1.897678    1.135317
      9          1           0       -1.634658    1.830507   -0.288176
     10          1           0       -2.083364   -1.550360   -0.214343
     11          1           0       -0.732156   -1.465300   -1.365710
     12          1           0       -2.049005   -0.256204   -1.445555
     13          1           0        1.190110    0.660765   -1.917038
     14          1           0        1.602723    1.725899   -0.484529
     15          1           0        2.553508   -0.380146    0.528898
     16          1           0        1.654876   -1.348346   -0.650896
     17          1           0        0.586947   -0.112978    1.947573
     18          1           0        0.211764   -1.716287    1.259377
 ---------------------------------------------------------------------

 SCF Done:  E(RHF) =  -235.231827754     A.U. after    2 cycles

 The electronic state is 1-A.
 Alpha  occ. eigenvalues --  -11.51504 -11.46311 -11.44111 -11.39897 -11.38282
 Alpha  occ. eigenvalues --  -11.34588  -1.33028  -1.12459  -1.03343  -0.97736
 Alpha  occ. eigenvalues --   -0.83469  -0.77173  -0.66496  -0.65627  -0.62378
 Alpha  occ. eigenvalues --   -0.59013  -0.55966  -0.54587  -0.51234  -0.47853
 Alpha  occ. eigenvalues --   -0.45744  -0.45004  -0.41479  -0.23409
 Alpha virt. eigenvalues --    0.03841   0.04914   0.05010   0.05208   0.05621
 Alpha virt. eigenvalues --    0.05777   0.06074   0.06169   0.07158   0.08712
 Alpha virt. eigenvalues --    0.08829   0.09401   0.11349   0.11852   0.13358

 Mulliken charges:
               1
     1  C   -4.045888
     2  C    3.872850
     3  C   -4.659336
     4  C   -3.030538
     5  C   -2.802023
     6  C   -3.736180
     7  H   -0.273120
     8  H    1.647871
     9  H    1.581587
    10  H    1.147482
    11  H    1.313147
    12  H    1.243964
    13  H    1.163383
    14  H    1.312905
    15  H    1.279071
    16  H    1.402324
    17  H    1.227024
    18  H    1.355478
 Sum of Mulliken charges =   0.00000

 Dipole moment (field-independent basis, Debye):
    X=              0.8688    Y=              0.0144    Z=             -1.2506  Tot=              1.5229

 Test job not archived.
 1\1\GINC-SE219\SP\RHF\Aug-CC-pVDZ\C6H12\OHZDE\09-Apr-2025\0\\#t hf aug
 -cc-pvdz iop(5/13=1,5/36=2,99/5=2) pseudo=read geom=check guess=(read,
 tcheck) scf=(maxcycle=1)\\title\\0,1\C,0,-1.23628097,-0.82069034,0.706
 25874\C,0,-0.59465975,-0.13166334,-0.28435446\C,0,-1.0789262,1.2050251
 9,-0.76586683\C,0,0.93765259,0.26807983,1.41614448\C,0,1.70016492,0.02
 926142,0.12392354\C,0,0.69169031,-0.66974021,-0.85637742\H,0,-1.866916
 92,-1.295436,-0.98843805\H,0,-0.90735413,-1.81345685,0.9995835\H,0,-2.
 08914302,-0.38792242,1.22612789\H,0,-1.46082597,1.07678436,-1.7899788\

 Normal termination of Gaussian 16 at Wed Apr  9 16:34:24 2025.
