 Gaussian 16, Revision C.01,

 ----------------------------------------------------------------------
 #t hf aug-cc-pvdz symm=none int=(grid=ultrafine) guess=(read,tcheck) s
 table=(opt,rrhf)
 ----------------------------------------------------------------------
 -----
 title
 -----
 Symbolic Z-matrix:
 Charge =  0 Multiplicity = 1

 SCF Done:  E(RHF) =  -306.709411504     A.U. after   15 cycles
 Normal termination of Gaussian 16 at Wed Apr  9 18:35:30 2025.
 Gaussian 16:  ES64L-G16RevC.01  3-Jul-2019

 ----------------------------------------------------------------------
 #t hf aug-cc-pvdz iop(5/13=1,5/36=2,99/5=2) pseudo=read geom=check gue
 ss=(read,tcheck) scf=(maxcycle=1)
 ----------------------------------------------------------------------
 -----
 title
 -----
 Structure from the checkpoint file:  "Grambow2020_wb97xd3_007296_forward_mol2.chk"
 Charge =  0 Multiplicity = 1

                         Standard orientation:
 ---------------------------------------------------------------------
 Center     Atomic      Atomic             Coordinates (Angstroms)
 Number     Number       Type             X           Y           Z
 ---------------------------------------------------------------------
      1          6           0       -2.925235   -0.523219    0.001143
      2          6           0       -1.438862   -0.828098   -0.001165
      3          6           0       -0.569851    0.408673   -0.000124
      4          8           0       -1.013331    1.530265   -0.000211
      5          6           0        0.866339    0.159974   -0.000087
      6          6           0        2.045762   -0.063904   -0.000032
      7          6           0        3.479047   -0.311461    0.000356
      8          1           0       -3.204025    0.054022    0.882816
      9          1           0       -3.504955   -1.447023   -0.004686
     10          1           0       -3.204163    0.064981   -0.873266
     11          1           0       -1.148747   -1.424684   -0.872639
     12          1           0       -1.146784   -1.428690    0.866872
     13          1           0        3.940268    0.132461   -0.883027
     14          1           0        3.939877    0.135930    0.882183
     15          1           0        3.691974   -1.380909    0.002890
 ---------------------------------------------------------------------

 SCF Done:  E(RHF) =  -308.147021754     A.U. after    2 cycles

 The electronic state is 1-A.
 Alpha  occ. eigenvalues --  -21.05585 -11.52617 -11.45883 -11.42231 -11.41730
 Alpha  occ. eigenvalues --  -11.40084 -11.36731  -1.71589  -1.21732  -1.17018
 Alpha  occ. eigenvalues --   -1.04654  -0.94968  -0.82245  -0.67863  -0.63623
 Alpha  occ. eigenvalues --   -0.61773  -0.60268  -0.60035  -0.54671  -0.51595
 Alpha  occ. eigenvalues --   -0.51227  -0.47855  -0.45327  -0.36809  -0.35175
 Alpha  occ. eigenvalues --   -0.29522
 Alpha virt. eigenvalues --    0.02587   0.04546   0.05775   0.05806   0.06318
 Alpha virt. eigenvalues --    0.06496   0.06676   0.07614   0.09104   0.10298
 Alpha virt. eigenvalues --    0.11933   0.12410   0.12639   0.13629   0.13681

 Mulliken charges:
               1
     1  C   -3.414420
     2  C   -4.883975
     3  C    4.446877
     4  O   -3.480963
     5  C    0.897349
     6  C    2.578872
     7  C   -5.146422
     8  H    1.262749
     9  H    1.033384
    10  H    1.265590
    11  H    1.396171
    12  H    1.397442
    13  H    0.891188
    14  H    0.890191
    15  H    0.865968
 Sum of Mulliken charges =  -0.00000

 Dipole moment (field-independent basis, Debye):
    X=              1.4056    Y=             -1.4488    Z=             -0.0002  Tot=              2.0186

 Test job not archived.
 1\1\GINC-SE174\SP\RHF\Aug-CC-pVDZ\C6H8O1\OHZDE\09-Apr-2025\0\\#t hf au
 g-cc-pvdz iop(5/13=1,5/36=2,99/5=2) pseudo=read geom=check guess=(read
 ,tcheck) scf=(maxcycle=1)\\title\\0,1\C,0,-2.91280623,-0.13320192,0.27
 089307\C,0,-1.46173472,-0.24374345,-0.15856351\C,0,-0.48934223,0.31957
 634,0.85233066\O,0,-0.83211134,0.81217643,1.89851266\C,0,0.91689332,0.
 23116994,0.4792623\C,0,2.06999892,0.14980174,0.15540074\C,0,3.47346755
 ,0.06154477,-0.21618782\H,0,-3.08583163,-0.66982742,1.20383189\H,0,-3.
 57045004,-0.54836967,-0.49373938\H,0,-3.19185231,0.90718758,0.43850453

 Normal termination of Gaussian 16 at Wed Apr  9 18:35:34 2025.
