 Gaussian 16, Revision C.01,

 ----------------------------------------------------------------------
 #t hf aug-cc-pvdz symm=none int=(grid=ultrafine) guess=(read,tcheck) s
 table=(opt,rrhf)
 ----------------------------------------------------------------------
 -----
 title
 -----
 Symbolic Z-matrix:
 Charge =  0 Multiplicity = 1

 SCF Done:  E(RHF) =  -354.621458103     A.U. after   16 cycles
 Normal termination of Gaussian 16 at Wed Apr  9 18:36:15 2025.
 Gaussian 16:  ES64L-G16RevC.01  3-Jul-2019

 ----------------------------------------------------------------------
 #t hf aug-cc-pvdz iop(5/13=1,5/36=2,99/5=2) pseudo=read geom=check gue
 ss=(read,tcheck) scf=(maxcycle=1)
 ----------------------------------------------------------------------
 -----
 title
 -----
 Structure from the checkpoint file:  "Grambow2020_wb97xd3_007314_forward_mol1.chk"
 Charge =  0 Multiplicity = 1

                         Standard orientation:
 ---------------------------------------------------------------------
 Center     Atomic      Atomic             Coordinates (Angstroms)
 Number     Number       Type             X           Y           Z
 ---------------------------------------------------------------------
      1          8           0       -2.371207   -0.336839    0.654950
      2          6           0       -1.748623    0.036008   -0.495545
      3          6           0       -0.074301    0.028216   -0.258399
      4          7           0       -0.140899    1.245035   -0.158549
      5          7           0        2.192053    0.634232    0.266689
      6          6           0        1.930227   -0.596303    0.080359
      7          7           0        0.651318   -1.040398   -0.224394
      8          1           0       -2.564652    0.438815    1.187674
      9          1           0       -2.129710    0.936042   -0.970050
     10          1           0       -1.729387   -0.791745   -1.206870
     11          1           0        3.164298    0.828561    0.468709
     12          1           0        2.667982   -1.396567    0.136226
 ---------------------------------------------------------------------

 SCF Done:  E(RHF) =  -356.196885785     A.U. after    2 cycles

 The electronic state is 1-A.
 Alpha  occ. eigenvalues --  -21.12546 -15.83326 -15.71926 -15.71812 -11.51238
 Alpha  occ. eigenvalues --  -11.47834 -11.43616  -1.78371  -1.49600  -1.34143
 Alpha  occ. eigenvalues --   -1.22721  -1.01376  -0.87789  -0.72919  -0.71418
 Alpha  occ. eigenvalues --   -0.66952  -0.64596  -0.58735  -0.56595  -0.55651
 Alpha  occ. eigenvalues --   -0.47424  -0.43731  -0.41808  -0.40089  -0.34250
 Alpha  occ. eigenvalues --   -0.31459
 Alpha virt. eigenvalues --    0.03420   0.04985   0.05594   0.05925   0.06470
 Alpha virt. eigenvalues --    0.09323   0.10705   0.11607   0.11670   0.12666
 Alpha virt. eigenvalues --    0.12994   0.13212   0.14183   0.14643   0.16029

 Mulliken charges:
               1
     1  O   -2.460814
     2  C   -1.112490
     3  C    4.575183
     4  N   -2.030541
     5  N   -2.490812
     6  C    1.301995
     7  N   -3.348572
     8  H    0.664085
     9  H    1.398114
    10  H    1.132151
    11  H    0.786520
    12  H    1.585182
 Sum of Mulliken charges =  -0.00000

 Dipole moment (field-independent basis, Debye):
    X=             -1.9092    Y=              0.2670    Z=             -0.0750  Tot=              1.9293

 Test job not archived.
 1\1\GINC-SE224\SP\RHF\Aug-CC-pVDZ\C3H5N3O1\OHZDE\09-Apr-2025\0\\#t hf
 aug-cc-pvdz iop(5/13=1,5/36=2,99/5=2) pseudo=read geom=check guess=(re
 ad,tcheck) scf=(maxcycle=1)\\title\\0,1\O,0,-2.23036983,0.95287402,0.3
 7263136\C,0,-1.78327718,-0.14974528,-0.28661275\C,0,-0.09321755,-0.186
 51187,-0.24188277\N,0,-0.11137447,0.22481288,-1.39320257\N,0,2.2422708
 2,0.11350324,-0.72646618\C,0,1.92234262,-0.33261414,0.42075379\N,0,0.6
 0041489,-0.53562201,0.79088587\H,0,-2.31863363,1.68674377,-0.24096522\
 H,0,-2.20911763,-0.31755171,-1.2719783\H,0,-1.89602973,-1.04011916,0.3

 Normal termination of Gaussian 16 at Wed Apr  9 18:36:19 2025.
