 Gaussian 16, Revision C.01,

 ----------------------------------------------------------------------
 #t hf aug-cc-pvdz symm=none int=(grid=ultrafine) guess=(read,tcheck) s
 table=(opt,rrhf)
 ----------------------------------------------------------------------
 -----
 title
 -----
 Symbolic Z-matrix:
 Charge =  0 Multiplicity = 1

 SCF Done:  E(RHF) =  -322.474346596     A.U. after   17 cycles
 Normal termination of Gaussian 16 at Wed Apr  9 18:38:35 2025.
 Gaussian 16:  ES64L-G16RevC.01  3-Jul-2019

 ----------------------------------------------------------------------
 #t hf aug-cc-pvdz iop(5/13=1,5/36=2,99/5=2) pseudo=read geom=check gue
 ss=(read,tcheck) scf=(maxcycle=1)
 ----------------------------------------------------------------------
 -----
 title
 -----
 Structure from the checkpoint file:  "Grambow2020_wb97xd3_007352_forward_mol1.chk"
 Charge =  0 Multiplicity = 1

                         Standard orientation:
 ---------------------------------------------------------------------
 Center     Atomic      Atomic             Coordinates (Angstroms)
 Number     Number       Type             X           Y           Z
 ---------------------------------------------------------------------
      1          8           0        0.277986    1.454067   -0.383326
      2          6           0       -0.646626    0.824394    0.179145
      3          6           0       -1.503107   -0.135508   -0.603297
      4          7           0       -0.508516   -0.987912    0.103423
      5          6           0        0.831309   -1.034904   -0.461827
      6          6           0        1.656953    0.101098    0.128410
      7          6           0       -0.352515   -0.035965    1.322313
      8          1           0       -2.503928   -0.362515   -0.250237
      9          1           0       -1.426384   -0.066827   -1.687801
     10          1           0        0.806778   -0.997340   -1.551668
     11          1           0        1.295894   -1.980011   -0.158360
     12          1           0        2.279999    0.675441   -0.548824
     13          1           0        2.101275   -0.063827    1.096074
     14          1           0       -1.133985   -0.236760    2.054996
 ---------------------------------------------------------------------

 SCF Done:  E(RHF) =  -323.977690605     A.U. after    2 cycles

 The electronic state is 1-A.
 Alpha  occ. eigenvalues --  -21.04311 -15.73969 -11.51797 -11.48100 -11.43815
 Alpha  occ. eigenvalues --  -11.42859 -11.34175  -1.74896  -1.47721  -1.17176
 Alpha  occ. eigenvalues --   -0.98912  -0.98079  -0.84633  -0.74512  -0.70028
 Alpha  occ. eigenvalues --   -0.66304  -0.62299  -0.59378  -0.55718  -0.52386
 Alpha  occ. eigenvalues --   -0.49164  -0.45817  -0.42182  -0.31806  -0.29061
 Alpha  occ. eigenvalues --   -0.25929
 Alpha virt. eigenvalues --    0.03676   0.04885   0.05153   0.05368   0.05845
 Alpha virt. eigenvalues --    0.06868   0.07350   0.08391   0.09221   0.11170
 Alpha virt. eigenvalues --    0.11941   0.12491   0.13162   0.13419   0.13605

 Mulliken charges:
               1
     1  O   -2.963718
     2  C    3.360590
     3  C   -2.422250
     4  N   -1.542995
     5  C   -2.229847
     6  C   -2.170437
     7  C   -1.620670
     8  H    1.391680
     9  H    1.419835
    10  H    1.572000
    11  H    1.385039
    12  H    1.303308
    13  H    1.184829
    14  H    1.332638
 Sum of Mulliken charges =   0.00000

 Dipole moment (field-independent basis, Debye):
    X=              0.9948    Y=             -0.7230    Z=             -2.6538  Tot=              2.9249

 Test job not archived.
 1\1\GINC-SE162\SP\RHF\Aug-CC-pVDZ\C5H7N1O1\OHZDE\09-Apr-2025\0\\#t hf
 aug-cc-pvdz iop(5/13=1,5/36=2,99/5=2) pseudo=read geom=check guess=(re
 ad,tcheck) scf=(maxcycle=1)\\title\\0,1\O,0,0.51107573,1.60090789,-0.2
 8415585\C,0,0.91880383,0.51140541,-0.7473087\C,0,1.60772942,-0.4874552
 1,0.14423246\N,0,0.20634321,-0.97416939,0.02387814\C,0,-0.79520282,-0.
 28820813,0.82588049\C,0,-1.33233492,0.89883067,0.03658036\C,0,-0.01753
 471,-0.39830546,-1.40247857\H,0,2.28998102,-1.20838237,-0.2946547\H,0,
 1.92935187,-0.1156657,1.11638613\H,0,-0.39348931,0.01417773,1.79384569

 Normal termination of Gaussian 16 at Wed Apr  9 18:38:40 2025.
