 Gaussian 16, Revision C.01,

 ----------------------------------------------------------------------
 #t hf aug-cc-pvdz symm=none int=(grid=ultrafine) guess=(read,tcheck) s
 table=(opt,rrhf)
 ----------------------------------------------------------------------
 -----
 title
 -----
 Symbolic Z-matrix:
 Charge =  0 Multiplicity = 1

 SCF Done:  E(RHF) =  -322.583678614     A.U. after   17 cycles
 Normal termination of Gaussian 16 at Wed Apr  9 18:22:24 2025.
 Gaussian 16:  ES64L-G16RevC.01  3-Jul-2019

 ----------------------------------------------------------------------
 #t hf aug-cc-pvdz iop(5/13=1,5/36=2,99/5=2) pseudo=read geom=check gue
 ss=(read,tcheck) scf=(maxcycle=1)
 ----------------------------------------------------------------------
 -----
 title
 -----
 Structure from the checkpoint file:  "Grambow2020_wb97xd3_006941_forward_mol1.chk"
 Charge =  0 Multiplicity = 1

                         Standard orientation:
 ---------------------------------------------------------------------
 Center     Atomic      Atomic             Coordinates (Angstroms)
 Number     Number       Type             X           Y           Z
 ---------------------------------------------------------------------
      1          8           0       -1.078283   -0.790257    1.084700
      2          6           0       -0.995666   -0.773276   -0.212779
      3          7           0       -0.954195    0.408623   -0.839971
      4          6           0       -0.150495    1.513448   -0.244173
      5          6           0        0.956186    0.948461    0.616873
      6          6           0        1.465249   -0.205431    0.123431
      7          6           0        1.303240   -1.295386   -0.471915
      8          1           0       -1.319481   -1.655307   -0.748246
      9          1           0       -0.866601    0.326057   -1.840263
     10          1           0       -0.809813    2.142947    0.357374
     11          1           0        0.188125    2.106526   -1.096565
     12          1           0        1.258141    1.445550    1.526368
     13          1           0       -0.357228   -0.147132    1.391852
     14          1           0        1.741408   -1.883839   -1.256946
 ---------------------------------------------------------------------

 SCF Done:  E(RHF) =  -324.102928376     A.U. after    2 cycles

 The electronic state is 1-A.
 Alpha  occ. eigenvalues --  -21.11187 -15.79072 -11.52293 -11.44826 -11.39570
 Alpha  occ. eigenvalues --  -11.36624 -11.35553  -1.80655  -1.43592  -1.18215
 Alpha  occ. eigenvalues --   -1.05941  -0.92217  -0.86637  -0.77320  -0.70249
 Alpha  occ. eigenvalues --   -0.65683  -0.63610  -0.59345  -0.56879  -0.54465
 Alpha  occ. eigenvalues --   -0.51430  -0.45319  -0.38782  -0.37140  -0.34026
 Alpha  occ. eigenvalues --   -0.24034
 Alpha virt. eigenvalues --    0.03317   0.04674   0.04963   0.05764   0.06319
 Alpha virt. eigenvalues --    0.06443   0.07831   0.09382   0.10983   0.11459
 Alpha virt. eigenvalues --    0.12314   0.12494   0.13279   0.13542   0.14130

 Mulliken charges:
               1
     1  O   -3.188224
     2  C    2.157879
     3  N   -2.304399
     4  C   -3.052520
     5  C   -1.735149
     6  C    2.816991
     7  C   -3.424083
     8  H    1.755811
     9  H    0.671536
    10  H    1.243036
    11  H    1.266509
    12  H    1.218129
    13  H    1.613612
    14  H    0.960871
 Sum of Mulliken charges =  -0.00000

 Dipole moment (field-independent basis, Debye):
    X=             -3.0066    Y=              0.9079    Z=             -1.7938  Tot=              3.6168

 Test job not archived.
 1\1\GINC-SE113\SP\RHF\Aug-CC-pVDZ\C5H7N1O1\OHZDE\09-Apr-2025\0\\#t hf
 aug-cc-pvdz iop(5/13=1,5/36=2,99/5=2) pseudo=read geom=check guess=(re
 ad,tcheck) scf=(maxcycle=1)\\title\\0,1\O,0,-1.14285772,0.09220199,-1.
 24199891\C,0,-0.98559808,0.85958289,-0.2042314\N,0,-0.95771923,0.30049
 797,1.01175439\C,0,-0.23756516,-0.99150984,1.19516419\C,0,0.84000025,-
 1.14221969,0.14564287\C,0,1.42531638,0.03601028,-0.17572428\C,0,1.3445
 3183,1.27167399,-0.36359375\H,0,-1.24005511,1.90537437,-0.30972607\H,0
 ,-0.80859304,0.96625196,1.75311023\H,0,-0.95685048,-1.80942189,1.11469

 Normal termination of Gaussian 16 at Wed Apr  9 18:22:28 2025.
