 Gaussian 16, Revision C.01,

 ----------------------------------------------------------------------
 #t hf aug-cc-pvdz symm=none int=(grid=ultrafine) guess=(read,tcheck) s
 table=(opt,rrhf)
 ----------------------------------------------------------------------
 -----
 title
 -----
 Symbolic Z-matrix:
 Charge =  0 Multiplicity = 1

 SCF Done:  E(RHF) =  -322.603920095     A.U. after   16 cycles
 Normal termination of Gaussian 16 at Wed Apr  9 18:39:28 2025.
 Gaussian 16:  ES64L-G16RevC.01  3-Jul-2019

 ----------------------------------------------------------------------
 #t hf aug-cc-pvdz iop(5/13=1,5/36=2,99/5=2) pseudo=read geom=check gue
 ss=(read,tcheck) scf=(maxcycle=1)
 ----------------------------------------------------------------------
 -----
 title
 -----
 Structure from the checkpoint file:  "Grambow2020_wb97xd3_007388_reverse_mol1.chk"
 Charge =  0 Multiplicity = 1

                         Standard orientation:
 ---------------------------------------------------------------------
 Center     Atomic      Atomic             Coordinates (Angstroms)
 Number     Number       Type             X           Y           Z
 ---------------------------------------------------------------------
      1          6           0       -1.415775    0.067474    0.741165
      2          6           0       -1.075152    1.030942   -0.297601
      3          6           0        0.365848    1.382277   -0.352899
      4          8           0        1.347252    0.566723    0.360123
      5          6           0        1.312201   -0.752271    0.132195
      6          7           0        0.337828   -1.474184   -0.221548
      7          6           0       -0.953168   -0.884937   -0.392185
      8          1           0       -0.772849   -0.036435    1.613703
      9          1           0       -2.469322   -0.025057    0.988331
     10          1           0       -1.012159   -0.230369   -1.334896
     11          1           0        0.432636    2.371173    0.107244
     12          1           0        0.717763    1.475519   -1.381887
     13          1           0        2.280211   -1.212789    0.315562
     14          1           0       -1.722817   -1.617447   -0.622256
 ---------------------------------------------------------------------

 SCF Done:  E(RHF) =  -324.089571527     A.U. after    2 cycles

 The electronic state is 1-A.
 Alpha  occ. eigenvalues --  -21.08822 -15.73038 -11.46634 -11.46046 -11.45742
 Alpha  occ. eigenvalues --  -11.42300 -11.38720  -1.81003  -1.40452  -1.25730
 Alpha  occ. eigenvalues --   -1.03612  -0.96190  -0.84356  -0.77186  -0.68422
 Alpha  occ. eigenvalues --   -0.65842  -0.60807  -0.59740  -0.56939  -0.56013
 Alpha  occ. eigenvalues --   -0.51727  -0.48456  -0.42450  -0.35355  -0.33655
 Alpha  occ. eigenvalues --   -0.28420
 Alpha virt. eigenvalues --    0.03704   0.05263   0.05404   0.05821   0.06077
 Alpha virt. eigenvalues --    0.06534   0.07565   0.09694   0.10047   0.11383
 Alpha virt. eigenvalues --    0.12678   0.13166   0.13716   0.13870   0.14433

 Mulliken charges:
               1
     1  C   -2.790581
     2  C   -0.478793
     3  C   -1.372530
     4  O   -3.169777
     5  C    2.099464
     6  N   -3.076122
     7  C   -1.023123
     8  H    1.405172
     9  H    1.307802
    10  H    1.242822
    11  H    1.346127
    12  H    1.370986
    13  H    1.808416
    14  H    1.330136
 Sum of Mulliken charges =   0.00000

 Dipole moment (field-independent basis, Debye):
    X=              0.9227    Y=              0.3249    Z=              0.9552  Tot=              1.3672

 Test job not archived.
 1\1\GINC-SE340\SP\RHF\Aug-CC-pVDZ\C5H7N1O1\OHZDE\09-Apr-2025\0\\#t hf
 aug-cc-pvdz iop(5/13=1,5/36=2,99/5=2) pseudo=read geom=check guess=(re
 ad,tcheck) scf=(maxcycle=1)\\title\\0,1\C,0,-1.3709533,-0.28236717,0.3
 4795038\C,0,-0.91364925,0.90326729,-0.3651219\C,0,0.40981558,1.4076727
 8,0.07871556\O,0,1.2713368,0.57121947,0.91226753\C,0,1.51340306,-0.669
 65082,0.47116499\N,0,0.8052454,-1.40223124,-0.27551783\C,0,-0.46422367
 ,-0.92930187,-0.73135115\H,0,-0.988623,-0.49428232,1.34514105\H,0,-2.4
 2255541,-0.53343148,0.24443837\H,0,-0.36248312,-0.10585273,-1.52647677

 Normal termination of Gaussian 16 at Wed Apr  9 18:39:32 2025.
