 Gaussian 16, Revision C.01,

 ----------------------------------------------------------------------
 #t hf aug-cc-pvdz symm=none int=(grid=ultrafine) guess=(read,tcheck) s
 table=(opt,rrhf)
 ----------------------------------------------------------------------
 -----
 title
 -----
 Symbolic Z-matrix:
 Charge =  0 Multiplicity = 1

 SCF Done:  E(RHF) =  -304.604030645     A.U. after   15 cycles
 Normal termination of Gaussian 16 at Wed Apr  9 03:14:22 2025.
 Gaussian 16:  ES64L-G16RevC.01  3-Jul-2019

 ----------------------------------------------------------------------
 #t hf aug-cc-pvdz iop(5/13=1,5/36=2,99/5=2) pseudo=read geom=check gue
 ss=(read,tcheck) scf=(maxcycle=1)
 ----------------------------------------------------------------------
 -----
 title
 -----
 Structure from the checkpoint file:  "Grambow2020_b97d3_006923_reverse_mol2.chk"
 Charge =  0 Multiplicity = 1

                         Standard orientation:
 ---------------------------------------------------------------------
 Center     Atomic      Atomic             Coordinates (Angstroms)
 Number     Number       Type             X           Y           Z
 ---------------------------------------------------------------------
      1          8           0       -2.696078   -0.262845    0.001820
      2          6           0       -1.410860   -0.522365   -0.243897
      3          6           0        2.804586   -0.350250   -0.054116
      4          6           0        1.479162   -0.333366    0.152427
      5          8           0        0.696803    0.723712   -0.230836
      6          6           0       -0.649270    0.694310    0.236100
      7          1           0       -3.210460   -1.046940   -0.283782
      8          1           0        3.386278   -1.218023    0.246941
      9          1           0        3.316818    0.479645   -0.538046
     10          1           0        0.950567   -1.166945    0.620410
     11          1           0       -1.102550    1.639273   -0.102186
     12          1           0       -0.688165    0.696080    1.345705
 ---------------------------------------------------------------------

 SCF Done:  E(RHF) =  -305.942946238     A.U. after    2 cycles

 The electronic state is 1-A.
 Alpha  occ. eigenvalues --  -21.15356 -21.07148 -11.45804 -11.44037 -11.41600
 Alpha  occ. eigenvalues --  -11.36407  -1.80658  -1.76459  -1.12068  -1.03716
 Alpha  occ. eigenvalues --   -0.83279  -0.78037  -0.67404  -0.64602  -0.60668
 Alpha  occ. eigenvalues --   -0.58072  -0.53518  -0.50689  -0.46914  -0.43845
 Alpha  occ. eigenvalues --   -0.39783  -0.34017  -0.26773
 Alpha virt. eigenvalues --    0.03706   0.04993   0.05762   0.05911   0.06786
 Alpha virt. eigenvalues --    0.06980   0.09115   0.10626   0.11299   0.12003
 Alpha virt. eigenvalues --    0.12733   0.13723   0.14625   0.14674   0.16301

 Mulliken charges:
               1
     1  O   -2.555932
     2  C    0.727136
     3  C   -3.602128
     4  C    1.352091
     5  O   -3.309564
     6  C   -0.993669
     7  H    1.112955
     8  H    1.294281
     9  H    1.449794
    10  H    1.741469
    11  H    1.427743
    12  H    1.355825
 Sum of Mulliken charges =  -0.00000

 Dipole moment (field-independent basis, Debye):
    X=             -3.0496    Y=              0.6749    Z=              0.7453  Tot=              3.2111

 Test job not archived.
 1\1\GINC-SE195\SP\RHF\Aug-CC-pVDZ\C4H6O2\OHZDE\09-Apr-2025\0\\#t hf au
 g-cc-pvdz iop(5/13=1,5/36=2,99/5=2) pseudo=read geom=check guess=(read
 ,tcheck) scf=(maxcycle=1)\\title\\0,1\O,0,2.00408554,-1.83995569,-1.10
 109767\C,0,0.83126484,-1.37222168,-0.67071585\C,0,-2.12348256,1.276257
 8,0.77519194\C,0,-1.08275579,0.66109025,0.19368606\O,0,0.05930401,0.35
 387639,0.88485063\C,0,1.15208266,-0.1063623,0.09439248\H,0,1.82071982,
 -2.65253275,-1.61787525\H,0,-3.01976233,1.48367224,0.19580212\H,0,-2.1
 0427594,1.55824238,1.82657703\H,0,-1.09622315,0.35680671,-0.85536359\H

 Normal termination of Gaussian 16 at Wed Apr  9 03:14:26 2025.
