 Gaussian 16, Revision C.01,

 ----------------------------------------------------------------------
 #t hf aug-cc-pvdz symm=none int=(grid=ultrafine) guess=(read,tcheck) s
 table=(opt,rrhf)
 ----------------------------------------------------------------------
 -----
 title
 -----
 Symbolic Z-matrix:
 Charge =  0 Multiplicity = 1

 SCF Done:  E(RHF) =  -305.356452878     A.U. after   17 cycles
 Normal termination of Gaussian 16 at Wed Apr  9 03:52:39 2025.
 Gaussian 16:  ES64L-G16RevC.01  3-Jul-2019

 ----------------------------------------------------------------------
 #t hf aug-cc-pvdz iop(5/13=1,5/36=2,99/5=2) pseudo=read geom=check gue
 ss=(read,tcheck) scf=(maxcycle=1)
 ----------------------------------------------------------------------
 -----
 title
 -----
 Structure from the checkpoint file:  "Grambow2020_wb97xd3_008342_reverse_mol1.chk"
 Charge =  0 Multiplicity = 1

                         Standard orientation:
 ---------------------------------------------------------------------
 Center     Atomic      Atomic             Coordinates (Angstroms)
 Number     Number       Type             X           Y           Z
 ---------------------------------------------------------------------
      1          8           0       -0.179545    1.473624    0.323741
      2          6           0        0.468602    0.444544    0.710551
      3          6           0       -0.617109   -1.300820    0.543693
      4          6           0       -1.582406   -0.737892   -0.228894
      5          6           0       -2.115968    0.247954   -0.779530
      6          6           0        1.635120    0.033402   -0.062981
      7          6           0        2.603380   -0.291384   -0.689039
      8          1           0       -1.214357    1.074259   -0.356733
      9          1           0        0.561990    0.283257    1.787188
     10          1           0       -0.879590   -1.557573    1.565038
     11          1           0        0.108711   -1.953629    0.073996
     12          1           0       -2.955830    0.554538   -1.371954
     13          1           0        3.465716   -0.564666   -1.250273
 ---------------------------------------------------------------------

 SCF Done:  E(RHF) =  -306.810714553     A.U. after    2 cycles

 The electronic state is 1-A.
 Alpha  occ. eigenvalues --  -21.03636 -11.51097 -11.45622 -11.43652 -11.42542
 Alpha  occ. eigenvalues --  -11.41240 -11.41056  -1.71562  -1.22160  -1.13592
 Alpha  occ. eigenvalues --   -1.02828  -0.93137  -0.75075  -0.74363  -0.66899
 Alpha  occ. eigenvalues --   -0.66471  -0.61269  -0.60055  -0.54363  -0.44879
 Alpha  occ. eigenvalues --   -0.39251  -0.38220  -0.34835  -0.33481  -0.30315
 Alpha virt. eigenvalues --    0.03103   0.04659   0.05324   0.06128   0.06374
 Alpha virt. eigenvalues --    0.07936   0.08232   0.09547   0.10277   0.11327
 Alpha virt. eigenvalues --    0.11964   0.12292   0.12677   0.13717   0.13878

 Mulliken charges:
               1
     1  O   -3.350456
     2  C    1.123276
     3  C   -3.366260
     4  C    3.426348
     5  C   -4.136170
     6  C    3.653349
     7  C   -4.148272
     8  H    1.619953
     9  H    1.263111
    10  H    0.989834
    11  H    1.296979
    12  H    0.851880
    13  H    0.776425
 Sum of Mulliken charges =  -0.00000

 Dipole moment (field-independent basis, Debye):
    X=             -0.3580    Y=             -0.8481    Z=             -0.1139  Tot=              0.9276

 Test job not archived.
 1\1\GINC-SE080\SP\RHF\Aug-CC-pVDZ\C6H6O1\OHZDE\09-Apr-2025\0\\#t hf au
 g-cc-pvdz iop(5/13=1,5/36=2,99/5=2) pseudo=read geom=check guess=(read
 ,tcheck) scf=(maxcycle=1)\\title\\0,1\O,0,-0.22782457,0.23314149,1.650
 58485\C,0,0.37318604,-0.54437304,0.83634963\C,0,-0.61186888,-0.7417519
 1,-0.96465334\C,0,-1.44248107,0.30808905,-0.73336511\C,0,-1.90051623,1
 .20829117,0.00122327\C,0,1.66999689,-0.12717003,0.31445221\C,0,2.74307
 445,0.20905743,-0.09836541\H,0,-1.11351317,0.91688108,0.98618322\H,0,0
 .2799874,-1.61990702,1.00493723\H,0,-1.04248533,-1.73749027,-0.9324309

 Normal termination of Gaussian 16 at Wed Apr  9 03:52:43 2025.
