 Gaussian 16, Revision C.01,

 ----------------------------------------------------------------------
 #t hf aug-cc-pvdz symm=none int=(grid=ultrafine) guess=(read,tcheck) s
 table=(opt,rrhf)
 ----------------------------------------------------------------------
 -----
 title
 -----
 Symbolic Z-matrix:
 Charge =  0 Multiplicity = 1

 SCF Done:  E(RHF) =  -309.026041609     A.U. after   12 cycles

 1\1\GINC-SE113\Stability\RHF\Aug-CC-pVDZ\C6H12O1\OHZDE\09-Apr-2025\0\\
 #t hf aug-cc-pvdz symm=none int=(grid=ultrafine) guess=(read,tcheck) s
 table=(opt,rrhf)\\title\\0,1\C,0,2.57833049,-0.87717428,-0.03744038\C,
 0,1.14858349,-0.43449367,-0.14783086\O,0,0.6644028,-0.08350142,1.11746
 134\C,0,0.69138342,0.3314972,-1.34785532\C,0,-2.25624919,1.6851787,1.0
 7148781\C,0,-2.74787651,0.45575194,1.07328656\C,0,0.23270494,-1.097142
 05,-1.12693673\H,0,3.19349677,-0.06899508,0.36229027\H,0,2.97210567,-1
 .16560044,-1.01256093\H,0,2.6557697,-1.73332817,0.6352105\H,0,-0.24566

 Normal termination of Gaussian 16 at Wed Apr  9 19:21:24 2025.
 Gaussian 16:  ES64L-G16RevC.01  3-Jul-2019

 ----------------------------------------------------------------------
 #t hf aug-cc-pvdz iop(5/13=1,5/36=2,99/5=2) pseudo=read geom=check gue
 ss=(read,tcheck) scf=(maxcycle=1)
 ----------------------------------------------------------------------
 -----
 title
 -----
 Structure from the checkpoint file:  "Grambow2020_wb97xd3_008675_reverse_mol2.chk"
 Charge =  0 Multiplicity = 1

                         Standard orientation:
 ---------------------------------------------------------------------
 Center     Atomic      Atomic             Coordinates (Angstroms)
 Number     Number       Type             X           Y           Z
 ---------------------------------------------------------------------
      1          6           0        2.575604   -0.725060   -0.014646
      2          6           0        1.193977   -0.139029   -0.013003
      3          8           0        0.246715   -1.163950   -0.117032
      4          6           0        0.889340    1.060512    0.826123
      5          6           0       -2.944902   -0.220401    0.647068
      6          6           0       -2.931702    0.084728   -0.641308
      7          6           0        0.935291    1.171336   -0.685766
      8          1           0        2.698255   -1.403908    0.831220
      9          1           0        3.330246    0.059001    0.055167
     10          1           0        2.743966   -1.287915   -0.934593
     11          1           0       -0.637479   -0.784618   -0.094493
     12          1           0        1.685209    1.512100    1.404936
     13          1           0       -0.087072    1.103756    1.293935
     14          1           0       -3.021604   -1.246613    0.988376
     15          1           0       -2.884007    0.545140    1.412360
     16          1           0       -2.860774    1.112163   -0.980254
     17          1           0       -2.998835   -0.679398   -1.407623
     18          1           0        1.762736    1.700669   -1.141353
     19          1           0       -0.010003    1.288700   -1.202224
 ---------------------------------------------------------------------

 SCF Done:  E(RHF) =  -310.526779372     A.U. after    2 cycles

 The electronic state is 1-A.
 Alpha  occ. eigenvalues --  -21.05541 -11.43831 -11.42259 -11.40987 -11.38608
 Alpha  occ. eigenvalues --  -11.37594 -11.35749  -1.71536  -1.27126  -1.15295
 Alpha  occ. eigenvalues --   -1.04477  -0.86726  -0.83630  -0.79066  -0.66305
 Alpha  occ. eigenvalues --   -0.65593  -0.64652  -0.57565  -0.57337  -0.53472
 Alpha  occ. eigenvalues --   -0.51463  -0.50489  -0.49077  -0.45222  -0.43992
 Alpha  occ. eigenvalues --   -0.38031  -0.35752  -0.27423
 Alpha virt. eigenvalues --    0.03874   0.04959   0.05119   0.05478   0.05656
 Alpha virt. eigenvalues --    0.05995   0.06412   0.06762   0.07747   0.08112
 Alpha virt. eigenvalues --    0.09055   0.09981   0.10252   0.12415   0.13378

 Mulliken charges:
               1
     1  C   -4.608055
     2  C    3.638138
     3  O   -3.826070
     4  C   -2.533731
     5  C   -2.930826
     6  C   -2.937528
     7  C   -2.514545
     8  H    1.154076
     9  H    1.124333
    10  H    1.157497
    11  H    1.223108
    12  H    1.342488
    13  H    1.348666
    14  H    1.362543
    15  H    1.468861
    16  H    1.466274
    17  H    1.375780
    18  H    1.354113
    19  H    1.334880
 Sum of Mulliken charges =   0.00000

 Dipole moment (field-independent basis, Debye):
    X=             -0.6051    Y=              0.5725    Z=              0.0717  Tot=              0.8361

 Test job not archived.
 1\1\GINC-SE113\SP\RHF\Aug-CC-pVDZ\C6H12O1\OHZDE\09-Apr-2025\0\\#t hf a
 ug-cc-pvdz iop(5/13=1,5/36=2,99/5=2) pseudo=read geom=check guess=(rea
 d,tcheck) scf=(maxcycle=1)\\title\\0,1\C,0,2.57833049,-0.87717428,-0.0
 3744038\C,0,1.14858349,-0.43449367,-0.14783086\O,0,0.6644028,-0.083501
 42,1.11746134\C,0,0.69138342,0.3314972,-1.34785532\C,0,-2.25624919,1.6
 851787,1.07148781\C,0,-2.74787651,0.45575194,1.07328656\C,0,0.23270494
 ,-1.09714205,-1.12693673\H,0,3.19349677,-0.06899508,0.36229027\H,0,2.9
 7210567,-1.16560044,-1.01256093\H,0,2.6557697,-1.73332817,0.6352105\H,

 Normal termination of Gaussian 16 at Wed Apr  9 19:21:31 2025.
