 Gaussian 16, Revision C.01,

 ----------------------------------------------------------------------
 #t hf aug-cc-pvdz symm=none int=(grid=ultrafine) guess=(read,tcheck) s
 table=(opt,rrhf)
 ----------------------------------------------------------------------
 -----
 title
 -----
 Symbolic Z-matrix:
 Charge =  0 Multiplicity = 1

 SCF Done:  E(RHF) =  -380.765641548     A.U. after   13 cycles
 Normal termination of Gaussian 16 at Wed Apr  9 03:40:50 2025.
 Gaussian 16:  ES64L-G16RevC.01  3-Jul-2019

 ----------------------------------------------------------------------
 #t hf aug-cc-pvdz iop(5/13=1,5/36=2,99/5=2) pseudo=read geom=check gue
 ss=(read,tcheck) scf=(maxcycle=1)
 ----------------------------------------------------------------------
 -----
 title
 -----
 Structure from the checkpoint file:  "Grambow2020_wb97xd3_007510_forward_mol2.chk"
 Charge =  0 Multiplicity = 1

                         Standard orientation:
 ---------------------------------------------------------------------
 Center     Atomic      Atomic             Coordinates (Angstroms)
 Number     Number       Type             X           Y           Z
 ---------------------------------------------------------------------
      1          8           0        1.904328   -1.098964   -0.482880
      2          6           0        2.046589    0.233454   -0.024776
      3          6           0        0.878982    0.514266    0.902464
      4          6           0       -0.425613    0.461483    0.140948
      5          8           0       -0.669377    1.223503   -0.764534
      6          6           0       -1.428045   -0.594585    0.528461
      7          8           0       -2.584023   -0.524994   -0.241842
      8          1           0        2.505926   -1.249350   -1.212598
      9          1           0        2.022129    0.944533   -0.857214
     10          1           0        2.989616    0.363271    0.518770
     11          1           0        0.980524    1.517195    1.323542
     12          1           0        0.878305   -0.207938    1.721901
     13          1           0       -0.923945   -1.565855    0.420658
     14          1           0       -1.657695   -0.472218    1.596411
     15          1           0       -2.433765    0.186288   -0.880013
 ---------------------------------------------------------------------

 SCF Done:  E(RHF) =  -382.439079789     A.U. after    2 cycles

 The electronic state is 1-A.
 Alpha  occ. eigenvalues --  -21.08439 -21.06306 -21.06210 -11.51107 -11.45679
 Alpha  occ. eigenvalues --  -11.42880 -11.39734  -1.76200  -1.72543  -1.68190
 Alpha  occ. eigenvalues --   -1.18439  -1.04067  -0.91064  -0.75899  -0.70075
 Alpha  occ. eigenvalues --   -0.68540  -0.63598  -0.60318  -0.58862  -0.55068
 Alpha  occ. eigenvalues --   -0.52471  -0.48250  -0.43602  -0.41943  -0.40225
 Alpha  occ. eigenvalues --   -0.33853  -0.31973  -0.30216
 Alpha virt. eigenvalues --    0.03493   0.04884   0.05269   0.05390   0.05892
 Alpha virt. eigenvalues --    0.06864   0.06965   0.07573   0.10620   0.11625
 Alpha virt. eigenvalues --    0.12876   0.13456   0.14116   0.14189   0.15461

 Mulliken charges:
               1
     1  O   -2.609109
     2  C   -1.145719
     3  C   -3.089321
     4  C    3.981014
     5  O   -3.407835
     6  C   -0.816433
     7  O   -2.821904
     8  H    0.804508
     9  H    1.462754
    10  H    1.276707
    11  H    1.328793
    12  H    1.630958
    13  H    1.351305
    14  H    1.324750
    15  H    0.729534
 Sum of Mulliken charges =   0.00000

 Dipole moment (field-independent basis, Debye):
    X=              2.0928    Y=              0.1371    Z=              0.4272  Tot=              2.1404

 Test job not archived.
 1\1\GINC-SE106\SP\RHF\Aug-CC-pVDZ\C4H8O3\OHZDE\09-Apr-2025\0\\#t hf au
 g-cc-pvdz iop(5/13=1,5/36=2,99/5=2) pseudo=read geom=check guess=(read
 ,tcheck) scf=(maxcycle=1)\\title\\0,1\O,0,-1.23078617,1.63685817,0.020
 30346\C,0,-1.61406963,0.34948997,-0.42826296\C,0,-0.85172559,-0.660649
 3,0.40862666\C,0,0.63371246,-0.54453018,0.1543578\O,0,1.11420432,-0.74
 734429,-0.93559\C,0,1.51873205,-0.14337268,1.30593511\O,0,2.85894812,-
 0.08460876,0.93870147\H,0,-1.53801127,2.29472146,-0.60407864\H,0,-1.36
 044057,0.20468156,-1.48367189\H,0,-2.69201329,0.19478006,-0.30297442\H

 Normal termination of Gaussian 16 at Wed Apr  9 03:40:55 2025.
