 Gaussian 16, Revision C.01,

 ----------------------------------------------------------------------
 #t hf aug-cc-pvdz symm=none int=(grid=ultrafine) guess=(read,tcheck) s
 table=(opt,rrhf)
 ----------------------------------------------------------------------
 -----
 title
 -----
 Symbolic Z-matrix:
 Charge =  0 Multiplicity = 1

 SCF Done:  E(RHF) =  -344.804528263     A.U. after   13 cycles

 1\1\GINC-SE159\Stability\RHF\Aug-CC-pVDZ\C5H10O2\OHZDE\09-Apr-2025\0\\
 #t hf aug-cc-pvdz symm=none int=(grid=ultrafine) guess=(read,tcheck) s
 table=(opt,rrhf)\\title\\0,1\C,0,-1.94838363,0.27610464,0.06090766\C,0
 ,-0.56424841,0.28519704,0.64109617\O,0,-0.54025976,0.79839207,1.934812
 79\C,0,0.34572093,-0.83059727,0.27493028\C,0,0.56473836,0.54729128,-0.
 32948718\C,0,1.87433875,0.51551498,0.42869679\O,0,1.5358452,-0.7491721
 1,1.05247557\H,0,-2.3419791,1.29243054,0.00809835\H,0,-1.94789411,-0.1
 452413,-0.94594547\H,0,-2.61260556,-0.31863219,0.68916626\H,0,-0.17803

 Normal termination of Gaussian 16 at Wed Apr  9 03:33:59 2025.
 Gaussian 16:  ES64L-G16RevC.01  3-Jul-2019

 ----------------------------------------------------------------------
 #t hf aug-cc-pvdz iop(5/13=1,5/36=2,99/5=2) pseudo=read geom=check gue
 ss=(read,tcheck) scf=(maxcycle=1)
 ----------------------------------------------------------------------
 -----
 title
 -----
 Structure from the checkpoint file:  "Grambow2020_wb97xd3_007056_reverse_mol2.chk"
 Charge =  0 Multiplicity = 1

                         Standard orientation:
 ---------------------------------------------------------------------
 Center     Atomic      Atomic             Coordinates (Angstroms)
 Number     Number       Type             X           Y           Z
 ---------------------------------------------------------------------
      1          6           0       -2.122677    0.271148    0.050679
      2          6           0       -0.716467   -0.253016    0.031814
      3          8           0       -0.674454   -1.644367    0.026777
      4          6           0        0.297571    0.516715   -0.733928
      5          6           0        0.309794    0.561580    0.785843
      6          6           0        1.658199   -0.113064    0.653301
      7          8           0        1.515088   -0.219870   -0.785874
      8          1           0       -2.639166   -0.066684    0.950531
      9          1           0       -2.133731    1.362467    0.037040
     10          1           0       -2.669463   -0.095567   -0.818893
     11          1           0       -0.348372    4.169661   -0.206155
     12          1           0        0.103968   -1.903815   -0.478585
     13          1           0        0.111591    1.254989   -1.504968
     14          1           0       -0.050660    3.490217   -0.134473
     15          1           0        0.058844    1.355425    1.475244
     16          1           0        1.781594   -1.088219    1.131390
     17          1           0        2.501808    0.535255    0.895397
 ---------------------------------------------------------------------

 SCF Done:  E(RHF) =  -346.399377548     A.U. after    2 cycles

 The electronic state is 1-A.
 Alpha  occ. eigenvalues --  -21.06857 -21.05254 -11.49988 -11.46054 -11.45448
 Alpha  occ. eigenvalues --  -11.40213 -11.37680  -1.81589  -1.70514  -1.25395
 Alpha  occ. eigenvalues --   -1.06751  -1.01153  -0.80833  -0.79632  -0.71537
 Alpha  occ. eigenvalues --   -0.67093  -0.62531  -0.62330  -0.59531  -0.54992
 Alpha  occ. eigenvalues --   -0.53103  -0.49034  -0.46448  -0.45093  -0.39542
 Alpha  occ. eigenvalues --   -0.36637  -0.31319  -0.27175
 Alpha virt. eigenvalues --    0.04074   0.04742   0.05025   0.05398   0.05692
 Alpha virt. eigenvalues --    0.06346   0.06509   0.07133   0.08227   0.10199
 Alpha virt. eigenvalues --    0.11162   0.12406   0.12783   0.13693   0.14166

 Mulliken charges:
               1
     1  C   -4.481005
     2  C    3.973616
     3  O   -3.603158
     4  C    1.575047
     5  C   -1.813704
     6  C   -2.325324
     7  O   -3.096905
     8  H    1.233210
     9  H    1.262753
    10  H    1.158272
    11  H    0.339899
    12  H    0.646248
    13  H    1.440921
    14  H   -0.401748
    15  H    1.408594
    16  H    1.356747
    17  H    1.326538
 Sum of Mulliken charges =   0.00000

 Dipole moment (field-independent basis, Debye):
    X=              0.0339    Y=              0.9139    Z=              0.1788  Tot=              0.9319

 Test job not archived.
 1\1\GINC-SE159\SP\RHF\Aug-CC-pVDZ\C5H10O2\OHZDE\09-Apr-2025\0\\#t hf a
 ug-cc-pvdz iop(5/13=1,5/36=2,99/5=2) pseudo=read geom=check guess=(rea
 d,tcheck) scf=(maxcycle=1)\\title\\0,1\C,0,-1.94838363,0.27610464,0.06
 090766\C,0,-0.56424841,0.28519704,0.64109617\O,0,-0.54025976,0.7983920
 7,1.93481279\C,0,0.34572093,-0.83059727,0.27493028\C,0,0.56473836,0.54
 729128,-0.32948718\C,0,1.87433875,0.51551498,0.42869679\O,0,1.5358452,
 -0.74917211,1.05247557\H,0,-2.3419791,1.29243054,0.00809835\H,0,-1.947
 89411,-0.1452413,-0.94594547\H,0,-2.61260556,-0.31863219,0.68916626\H,

 Normal termination of Gaussian 16 at Wed Apr  9 03:34:05 2025.
