 Gaussian 16, Revision C.01,

 ----------------------------------------------------------------------
 #t hf aug-cc-pvdz symm=none int=(grid=ultrafine) guess=(read,tcheck) s
 table=(opt,rrhf)
 ----------------------------------------------------------------------
 -----
 title
 -----
 Symbolic Z-matrix:
 Charge =  0 Multiplicity = 1

 SCF Done:  E(RHF) =  -315.538650743     A.U. after   16 cycles
 Normal termination of Gaussian 16 at Wed Apr  9 03:09:41 2025.
 Gaussian 16:  ES64L-G16RevC.01  3-Jul-2019

 ----------------------------------------------------------------------
 #t hf aug-cc-pvdz iop(5/13=1,5/36=2,99/5=2) pseudo=read geom=check gue
 ss=(read,tcheck) scf=(maxcycle=1)
 ----------------------------------------------------------------------
 -----
 title
 -----
 Structure from the checkpoint file:  "Grambow2020_b97d3_006684_forward_mol1.chk"
 Charge =  0 Multiplicity = 1

                         Standard orientation:
 ---------------------------------------------------------------------
 Center     Atomic      Atomic             Coordinates (Angstroms)
 Number     Number       Type             X           Y           Z
 ---------------------------------------------------------------------
      1          8           0        2.040194    0.134199    0.016257
      2          6           0        0.692184    0.067390   -0.009680
      3          7           0        0.029053   -1.085104   -0.016606
      4          7           0       -1.260281   -0.725215    0.091863
      5          7           0       -1.432769    0.645251   -0.087510
      6          6           0       -0.164636    1.229876   -0.091791
      7          1           0        2.386608   -0.780260    0.041111
      8          1           0       -1.978050   -1.367534   -0.239697
      9          1           0       -1.247416    1.446090    0.763134
 ---------------------------------------------------------------------

 SCF Done:  E(RHF) =  -316.918870526     A.U. after    2 cycles

 The electronic state is 1-A.
 Alpha  occ. eigenvalues --  -21.12213 -15.83017 -15.82005 -15.80008 -11.47516
 Alpha  occ. eigenvalues --  -11.40637  -1.78838  -1.66203  -1.33543  -1.18330
 Alpha  occ. eigenvalues --   -0.89268  -0.81550  -0.75424  -0.68824  -0.63879
 Alpha  occ. eigenvalues --   -0.51028  -0.49397  -0.47833  -0.45539  -0.43595
 Alpha  occ. eigenvalues --   -0.36403  -0.29485
 Alpha virt. eigenvalues --    0.03857   0.04844   0.06054   0.09615   0.10716
 Alpha virt. eigenvalues --    0.11025   0.11562   0.12369   0.13057   0.14664
 Alpha virt. eigenvalues --    0.15345   0.16230   0.16975   0.18133   0.19526

 Mulliken charges:
               1
     1  O   -3.092328
     2  C    4.867963
     3  N   -1.912230
     4  N   -0.485885
     5  N   -1.311010
     6  C   -0.983651
     7  H    0.872201
     8  H    0.899429
     9  H    1.145512
 Sum of Mulliken charges =   0.00000

 Dipole moment (field-independent basis, Debye):
    X=             -1.0821    Y=             -2.8099    Z=              0.5221  Tot=              3.0560

 Test job not archived.
 1\1\GINC-SE113\SP\RHF\Aug-CC-pVDZ\C2H3N3O1\OHZDE\09-Apr-2025\0\\#t hf
 aug-cc-pvdz iop(5/13=1,5/36=2,99/5=2) pseudo=read geom=check guess=(re
 ad,tcheck) scf=(maxcycle=1)\\title\\0,1\O,0,-2.10822326,-0.43259684,-0
 .0014821\C,0,-0.7977257,-0.11210107,0.04484431\N,0,0.16395405,-1.02653
 821,0.1285719\N,0,1.30129859,-0.32146998,0.01458284\N,0,1.07370992,1.0
 4908487,0.11401156\C,0,-0.30760787,1.24860015,0.06794522\H,0,-2.180842
 46,-1.40775447,0.02400763\H,0,2.16169517,-0.71456957,0.3925889\H,0,0.6
 9374156,1.71734513,-0.78507026\\Version=ES64L-G16RevC.01\State=1-A\HF=

 Normal termination of Gaussian 16 at Wed Apr  9 03:09:44 2025.
