 Gaussian 16, Revision C.01,

 ----------------------------------------------------------------------
 #t hf aug-cc-pvdz symm=none int=(grid=ultrafine) guess=(read,tcheck) s
 table=(opt,rrhf)
 ----------------------------------------------------------------------
 -----
 title
 -----
 Symbolic Z-matrix:
 Charge =  0 Multiplicity = 1

 SCF Done:  E(RHF) =  -323.783151684     A.U. after   15 cycles
 Normal termination of Gaussian 16 at Wed Apr  9 19:06:01 2025.
 Gaussian 16:  ES64L-G16RevC.01  3-Jul-2019

 ----------------------------------------------------------------------
 #t hf aug-cc-pvdz iop(5/13=1,5/36=2,99/5=2) pseudo=read geom=check gue
 ss=(read,tcheck) scf=(maxcycle=1)
 ----------------------------------------------------------------------
 -----
 title
 -----
 Structure from the checkpoint file:  "Grambow2020_wb97xd3_008091_reverse_mol2.chk"
 Charge =  0 Multiplicity = 1

                         Standard orientation:
 ---------------------------------------------------------------------
 Center     Atomic      Atomic             Coordinates (Angstroms)
 Number     Number       Type             X           Y           Z
 ---------------------------------------------------------------------
      1          6           0       -1.470056    1.287788    0.189056
      2          6           0       -1.311644   -0.190820    0.001515
      3          7           0       -2.300021   -0.930903   -0.247410
      4          8           0       -0.059229   -0.721294    0.109952
      5          6           0        1.036149    0.143504    0.404483
      6          6           0        1.534599    1.091229   -0.546280
      7          6           0        2.368225   -0.606995    0.065641
      8          1           0       -1.131533    1.600661    1.178627
      9          1           0       -0.892397    1.850650   -0.547975
     10          1           0       -2.521794    1.532779    0.076008
     11          1           0       -2.003549   -1.900422   -0.340124
     12          1           0        1.011790    0.432555    1.453550
     13          1           0        1.142588    0.785007   -1.532843
     14          1           0        2.850166   -0.219191   -0.852538
     15          1           0        2.083700   -1.637513   -0.135240
     16          1           0        3.091363   -0.506085    0.866306
 ---------------------------------------------------------------------

 SCF Done:  E(RHF) =  -325.292432083     A.U. after    2 cycles

 The electronic state is 1-A.
 Alpha  occ. eigenvalues --  -21.08477 -15.71751 -11.49033 -11.48059 -11.43462
 Alpha  occ. eigenvalues --  -11.39951 -11.39304  -1.81609  -1.32936  -1.23335
 Alpha  occ. eigenvalues --   -1.09349  -0.95658  -0.86137  -0.78040  -0.69585
 Alpha  occ. eigenvalues --   -0.62775  -0.61690  -0.59913  -0.58420  -0.56101
 Alpha  occ. eigenvalues --   -0.53376  -0.50198  -0.47420  -0.44863  -0.37637
 Alpha  occ. eigenvalues --   -0.34079  -0.30537
 Alpha virt. eigenvalues --    0.03660   0.04717   0.05326   0.05740   0.05897
 Alpha virt. eigenvalues --    0.06236   0.06930   0.07712   0.08799   0.09902
 Alpha virt. eigenvalues --    0.10788   0.11050   0.12326   0.12900   0.14582

 Mulliken charges:
               1
     1  C   -3.916420
     2  C    4.658375
     3  N   -3.625674
     4  O   -3.969880
     5  C    0.847611
     6  C   -1.514908
     7  C   -3.680090
     8  H    1.260732
     9  H    1.402865
    10  H    1.079704
    11  H    0.767441
    12  H    1.895894
    13  H    1.296983
    14  H    1.115342
    15  H    1.234628
    16  H    1.147396
 Sum of Mulliken charges =  -0.00000

 Dipole moment (field-independent basis, Debye):
    X=              2.0823    Y=             -1.2862    Z=              0.7514  Tot=              2.5602

 Test job not archived.
 1\1\GINC-SE113\SP\RHF\Aug-CC-pVDZ\C5H9N1O1\OHZDE\09-Apr-2025\0\\#t hf
 aug-cc-pvdz iop(5/13=1,5/36=2,99/5=2) pseudo=read geom=check guess=(re
 ad,tcheck) scf=(maxcycle=1)\\title\\0,1\C,0,1.90400268,-0.73973311,-0.
 05768073\C,0,1.40020325,0.67124123,-0.10108721\N,0,2.16336652,1.632727
 26,-0.38340542\O,0,0.08272814,0.89148731,0.17722034\C,0,-0.75096333,-0
 .21853084,0.50477703\C,0,-1.13406906,-1.19609815,-0.4689678\C,0,-2.246
 74598,0.22420034,0.36652487\H,0,1.76157616,-1.18158536,0.93035819\H,0,
 1.38371159,-1.37471216,-0.77866392\H,0,2.96326019,-0.72863777,-0.29601

 Normal termination of Gaussian 16 at Wed Apr  9 19:06:06 2025.
