 Gaussian 16, Revision C.01,

 ----------------------------------------------------------------------
 #t hf aug-cc-pvdz symm=none int=(grid=ultrafine) guess=(read,tcheck) s
 table=(opt,rrhf)
 ----------------------------------------------------------------------
 -----
 title
 -----
 Symbolic Z-matrix:
 Charge =  0 Multiplicity = 1

 SCF Done:  E(RHF) =  -307.753884596     A.U. after   14 cycles

 1\1\GINC-SE219\Stability\RHF\Aug-CC-pVDZ\C6H10O1\OHZDE\09-Apr-2025\0\\
 #t hf aug-cc-pvdz symm=none int=(grid=ultrafine) guess=(read,tcheck) s
 table=(opt,rrhf)\\title\\0,1\C,0,1.71318097,-0.48826225,-0.48203748\C,
 0,0.62841926,-0.00972949,0.48047477\C,0,0.1250414,1.40410022,0.1505149
 3\C,0,-1.1383157,1.15858638,-0.62552363\C,0,-1.55473863,-0.09932276,-0
 .5423814\C,0,-0.60743341,-0.9018497,0.28091526\O,0,-0.50525141,-2.2162
 382,0.19174238\H,0,1.3967746,-0.37038457,-1.52095532\H,0,2.62569427,0.
 09099218,-0.33433648\H,0,1.92805772,-1.54296516,-0.31511336\H,0,0.9943

 Normal termination of Gaussian 16 at Wed Apr  9 03:45:48 2025.
 Gaussian 16:  ES64L-G16RevC.01  3-Jul-2019

 ----------------------------------------------------------------------
 #t hf aug-cc-pvdz iop(5/13=1,5/36=2,99/5=2) pseudo=read geom=check gue
 ss=(read,tcheck) scf=(maxcycle=1)
 ----------------------------------------------------------------------
 -----
 title
 -----
 Structure from the checkpoint file:  "Grambow2020_wb97xd3_007824_reverse_mol1.chk"
 Charge =  0 Multiplicity = 1

                         Standard orientation:
 ---------------------------------------------------------------------
 Center     Atomic      Atomic             Coordinates (Angstroms)
 Number     Number       Type             X           Y           Z
 ---------------------------------------------------------------------
      1          6           0        0.471206    1.786312   -0.563690
      2          6           0        0.008052    0.801544    0.507689
      3          6           0       -1.494754    0.493370    0.419492
      4          6           0       -1.546316   -0.809410   -0.327964
      5          6           0       -0.358567   -1.395624   -0.418855
      6          6           0        0.683285   -0.551177    0.229766
      7          8           0        1.969045   -0.635880   -0.062902
      8          1           0        0.150287    1.465698   -1.557458
      9          1           0        0.050434    2.774014   -0.370228
     10          1           0        1.558237    1.855368   -0.568978
     11          1           0        0.303962    1.175015    1.487820
     12          1           0       -2.055889    1.281506   -0.087827
     13          1           0       -1.947019    0.372614    1.409466
     14          1           0       -2.468721   -1.215016   -0.726378
     15          1           0       -0.119195   -2.340814   -0.885314
     16          1           0        0.663890   -1.144974    1.597165
     17          1           0        1.534217   -1.086465    1.126326
 ---------------------------------------------------------------------

 SCF Done:  E(RHF) =  -309.267464963     A.U. after    2 cycles

 The electronic state is 1-A.
 Alpha  occ. eigenvalues --  -20.99290 -11.53951 -11.47672 -11.43914 -11.40872
 Alpha  occ. eigenvalues --  -11.39409 -11.36595  -1.69117  -1.34173  -1.12356
 Alpha  occ. eigenvalues --   -1.01961  -0.95815  -0.81346  -0.79004  -0.74427
 Alpha  occ. eigenvalues --   -0.65321  -0.63101  -0.57813  -0.55709  -0.51595
 Alpha  occ. eigenvalues --   -0.49380  -0.47825  -0.46393  -0.44256  -0.37150
 Alpha  occ. eigenvalues --   -0.28949  -0.26500
 Alpha virt. eigenvalues --    0.03534   0.04699   0.04975   0.05260   0.05585
 Alpha virt. eigenvalues --    0.05901   0.06425   0.06990   0.07707   0.09079
 Alpha virt. eigenvalues --    0.10245   0.12186   0.12276   0.13365   0.13559

 Mulliken charges:
               1
     1  C   -4.033433
     2  C   -1.833478
     3  C   -4.095277
     4  C    0.149771
     5  C   -1.365121
     6  C    3.178539
     7  O   -3.463892
     8  H    1.322868
     9  H    1.221504
    10  H    1.220383
    11  H    1.544334
    12  H    1.335232
    13  H    1.256285
    14  H    1.378135
    15  H    1.367056
    16  H   -0.080992
    17  H    0.898086
 Sum of Mulliken charges =  -0.00000

 Dipole moment (field-independent basis, Debye):
    X=             -2.3088    Y=              0.6483    Z=             -0.2138  Tot=              2.4076

 Test job not archived.
 1\1\GINC-SE219\SP\RHF\Aug-CC-pVDZ\C6H10O1\OHZDE\09-Apr-2025\0\\#t hf a
 ug-cc-pvdz iop(5/13=1,5/36=2,99/5=2) pseudo=read geom=check guess=(rea
 d,tcheck) scf=(maxcycle=1)\\title\\0,1\C,0,1.71318097,-0.48826225,-0.4
 8203748\C,0,0.62841926,-0.00972949,0.48047477\C,0,0.1250414,1.40410022
 ,0.15051493\C,0,-1.1383157,1.15858638,-0.62552363\C,0,-1.55473863,-0.0
 9932276,-0.5423814\C,0,-0.60743341,-0.9018497,0.28091526\O,0,-0.505251
 41,-2.2162382,0.19174238\H,0,1.3967746,-0.37038457,-1.52095532\H,0,2.6
 2569427,0.09099218,-0.33433648\H,0,1.92805772,-1.54296516,-0.31511336\

 Normal termination of Gaussian 16 at Wed Apr  9 03:45:55 2025.
