 Gaussian 16, Revision C.01,

 ----------------------------------------------------------------------
 #t hf aug-cc-pvdz symm=none int=(grid=ultrafine) guess=(read,tcheck) s
 table=(opt,rrhf)
 ----------------------------------------------------------------------
 -----
 title
 -----
 Symbolic Z-matrix:
 Charge =  0 Multiplicity = 1

 SCF Done:  E(RHF) =  -268.702603286     A.U. after   17 cycles
 Normal termination of Gaussian 16 at Wed Apr  9 17:14:23 2025.
 Gaussian 16:  ES64L-G16RevC.01  3-Jul-2019

 ----------------------------------------------------------------------
 #t hf aug-cc-pvdz iop(5/13=1,5/36=2,99/5=2) pseudo=read geom=check gue
 ss=(read,tcheck) scf=(maxcycle=1)
 ----------------------------------------------------------------------
 -----
 title
 -----
 Structure from the checkpoint file:  "Grambow2020_b97d3_007072_forward_mol1.chk"
 Charge =  0 Multiplicity = 1

                         Standard orientation:
 ---------------------------------------------------------------------
 Center     Atomic      Atomic             Coordinates (Angstroms)
 Number     Number       Type             X           Y           Z
 ---------------------------------------------------------------------
      1          6           0       -2.189804    0.053501    0.050640
      2          6           0       -0.735545    0.057836   -0.306106
      3          6           0        0.154994    1.155800   -0.026132
      4          6           0        1.518395    0.635123    0.016489
      5          8           0        1.505650   -0.693964   -0.033107
      6          6           0        0.077011   -1.167579    0.035355
      7          1           0       -2.752837   -0.684281   -0.546009
      8          1           0       -2.651723    1.034376   -0.134384
      9          1           0       -2.380505   -0.205705    1.118688
     10          1           0       -0.014278    2.180804   -0.368033
     11          1           0        0.384967    1.259036    1.138320
     12          1           0        2.480759    1.135000   -0.000937
     13          1           0       -0.061654   -1.546513    1.082453
     14          1           0       -0.000242   -2.029088   -0.646719
 ---------------------------------------------------------------------

 SCF Done:  E(RHF) =  -269.969429621     A.U. after    2 cycles

 The electronic state is 1-A.
 Alpha  occ. eigenvalues --  -21.12711 -11.55051 -11.45263 -11.44504 -11.36233
 Alpha  occ. eigenvalues --  -11.30510  -1.82842  -1.22726  -1.09986  -0.98545
 Alpha  occ. eigenvalues --   -0.84664  -0.78254  -0.70470  -0.64740  -0.57153
 Alpha  occ. eigenvalues --   -0.56407  -0.54247  -0.52385  -0.47100  -0.45677
 Alpha  occ. eigenvalues --   -0.41815  -0.39025  -0.19554
 Alpha virt. eigenvalues --    0.03095   0.04813   0.05569   0.06067   0.06618
 Alpha virt. eigenvalues --    0.06721   0.07062   0.07405   0.08386   0.10214
 Alpha virt. eigenvalues --    0.11358   0.12941   0.13306   0.13962   0.14739

 Mulliken charges:
               1
     1  C   -3.540028
     2  C    0.265488
     3  C   -3.073675
     4  C    1.390642
     5  O   -3.122736
     6  C   -2.325050
     7  H    1.209305
     8  H    1.205865
     9  H    1.146741
    10  H    1.241494
    11  H    1.319368
    12  H    1.498915
    13  H    1.424498
    14  H    1.359174
 Sum of Mulliken charges =  -0.00000

 Dipole moment (field-independent basis, Debye):
    X=              3.4554    Y=              0.5543    Z=              0.3390  Tot=              3.5160

 Test job not archived.
 1\1\GINC-SE041\SP\RHF\Aug-CC-pVDZ\C5H8O1\OHZDE\09-Apr-2025\0\\#t hf au
 g-cc-pvdz iop(5/13=1,5/36=2,99/5=2) pseudo=read geom=check guess=(read
 ,tcheck) scf=(maxcycle=1)\\title\\0,1\C,0,-1.77469344,0.40224049,-0.41
 995418\C,0,-0.35526243,-0.07407854,-0.44211815\C,0,0.78573184,0.803707
 65,-0.37433031\C,0,1.92035243,0.03545213,0.1298553\O,0,1.51903763,-1.1
 6554408,0.53685657\C,0,0.01547286,-1.22525229,0.46112047\H,0,-2.464100
 28,-0.35415972,-0.83213924\H,0,-1.9020412,1.31356846,-1.02243474\H,0,-
 2.14691877,0.62976065,0.60667243\H,0,0.96597035,1.62478276,-1.07399502

 Normal termination of Gaussian 16 at Wed Apr  9 17:14:27 2025.
