 Gaussian 16, Revision C.01,

 ----------------------------------------------------------------------
 #t hf aug-cc-pvdz symm=none int=(grid=ultrafine) guess=(read,tcheck) s
 table=(opt,rrhf)
 ----------------------------------------------------------------------
 -----
 title
 -----
 Symbolic Z-matrix:
 Charge =  0 Multiplicity = 1

 SCF Done:  E(RHF) =  -307.773191237     A.U. after   14 cycles

 1\1\GINC-SE108\Stability\RHF\Aug-CC-pVDZ\C6H10O1\OHZDE\09-Apr-2025\0\\
 #t hf aug-cc-pvdz symm=none int=(grid=ultrafine) guess=(read,tcheck) s
 table=(opt,rrhf)\\title\\0,1\C,0,1.8969392,-1.44153518,0.25857425\C,0,
 1.22465545,-0.20530884,0.68043835\C,0,-0.39934682,2.15979262,-0.364560
 98\C,0,-1.09246289,0.95957429,0.22437842\O,0,-1.81847806,0.1930356,-0.
 76073312\C,0,-1.02993339,-0.98010801,-0.56360893\C,0,-0.21807972,-0.27
 008444,0.54573873\H,0,2.85676376,-1.60796778,0.74700526\H,0,2.14476763
 ,-1.16927986,-0.78455761\H,0,1.30360263,-2.36494886,0.21408898\H,0,0.1

 Normal termination of Gaussian 16 at Wed Apr  9 19:16:12 2025.
 Gaussian 16:  ES64L-G16RevC.01  3-Jul-2019

 ----------------------------------------------------------------------
 #t hf aug-cc-pvdz iop(5/13=1,5/36=2,99/5=2) pseudo=read geom=check gue
 ss=(read,tcheck) scf=(maxcycle=1)
 ----------------------------------------------------------------------
 -----
 title
 -----
 Structure from the checkpoint file:  "Grambow2020_wb97xd3_008494_reverse_mol2.chk"
 Charge =  0 Multiplicity = 1

                         Standard orientation:
 ---------------------------------------------------------------------
 Center     Atomic      Atomic             Coordinates (Angstroms)
 Number     Number       Type             X           Y           Z
 ---------------------------------------------------------------------
      1          6           0       -2.566768   -0.256360   -0.240910
      2          6           0       -1.336877   -0.860965    0.288250
      3          6           0        1.597880   -1.382814   -0.373558
      4          6           0        1.203552   -0.188138    0.454112
      5          8           0        1.404846    1.063264   -0.237695
      6          6           0        0.019733    1.406362   -0.211731
      7          6           0       -0.303948    0.115419    0.577313
      8          1           0       -3.464605   -0.840495   -0.040404
      9          1           0       -2.378526   -0.375058   -1.324488
     10          1           0       -2.736210    0.814277   -0.062735
     11          1           0        1.382280   -2.304207    0.169245
     12          1           0        2.664835   -1.344994   -0.599594
     13          1           0        1.041677   -1.406151   -1.313199
     14          1           0        1.746297   -0.180907    1.404876
     15          1           0       -0.410494    1.456611   -1.217915
     16          1           0       -0.161109    2.354996    0.300691
     17          1           0       -0.604345    0.318795    1.624228
 ---------------------------------------------------------------------

 SCF Done:  E(RHF) =  -309.229128951     A.U. after    2 cycles

 The electronic state is 1-A.
 Alpha  occ. eigenvalues --  -21.03236 -11.47247 -11.44740 -11.42636 -11.39620
 Alpha  occ. eigenvalues --  -11.38658 -11.36396  -1.77207  -1.23249  -1.11638
 Alpha  occ. eigenvalues --   -1.05235  -0.93873  -0.84429  -0.72333  -0.70002
 Alpha  occ. eigenvalues --   -0.62440  -0.59885  -0.58119  -0.57411  -0.55762
 Alpha  occ. eigenvalues --   -0.51679  -0.49246  -0.47485  -0.42275  -0.35480
 Alpha  occ. eigenvalues --   -0.30973  -0.29038
 Alpha virt. eigenvalues --    0.03499   0.04715   0.05114   0.05544   0.05982
 Alpha virt. eigenvalues --    0.06306   0.06522   0.06656   0.07391   0.08239
 Alpha virt. eigenvalues --    0.09502   0.10882   0.12423   0.12971   0.13610

 Mulliken charges:
               1
     1  C   -3.910095
     2  C   -1.778106
     3  C   -3.897299
     4  C    0.734954
     5  O   -2.982785
     6  C   -1.594981
     7  C    0.018190
     8  H    1.239260
     9  H    1.317797
    10  H    1.436275
    11  H    1.311553
    12  H    1.137679
    13  H    1.361539
    14  H    1.557875
    15  H    1.466869
    16  H    1.432171
    17  H    1.149105
 Sum of Mulliken charges =   0.00000

 Dipole moment (field-independent basis, Debye):
    X=             -0.7718    Y=              1.4574    Z=              0.0997  Tot=              1.6521

 Test job not archived.
 1\1\GINC-SE108\SP\RHF\Aug-CC-pVDZ\C6H10O1\OHZDE\09-Apr-2025\0\\#t hf a
 ug-cc-pvdz iop(5/13=1,5/36=2,99/5=2) pseudo=read geom=check guess=(rea
 d,tcheck) scf=(maxcycle=1)\\title\\0,1\C,0,1.8969392,-1.44153518,0.258
 57425\C,0,1.22465545,-0.20530884,0.68043835\C,0,-0.39934682,2.15979262
 ,-0.36456098\C,0,-1.09246289,0.95957429,0.22437842\O,0,-1.81847806,0.1
 930356,-0.76073312\C,0,-1.02993339,-0.98010801,-0.56360893\C,0,-0.2180
 7972,-0.27008444,0.54573873\H,0,2.85676376,-1.60796778,0.74700526\H,0,
 2.14476763,-1.16927986,-0.78455761\H,0,1.30360263,-2.36494886,0.214088

 Normal termination of Gaussian 16 at Wed Apr  9 19:16:18 2025.
