 Gaussian 16, Revision C.01,

 ----------------------------------------------------------------------
 #t hf aug-cc-pvdz symm=none int=(grid=ultrafine) guess=(read,tcheck) s
 table=(opt,rrhf)
 ----------------------------------------------------------------------
 -----
 title
 -----
 Symbolic Z-matrix:
 Charge =  0 Multiplicity = 1

 SCF Done:  E(RHF) =  -288.989447220     A.U. after   14 cycles

 1\1\GINC-SE018\Stability\RHF\Aug-CC-pVDZ\C6H13N1\OHZDE\09-Apr-2025\0\\
 #t hf aug-cc-pvdz symm=none int=(grid=ultrafine) guess=(read,tcheck) s
 table=(opt,rrhf)\\title\\0,1\C,0,-1.18797583,1.73938669,0.61132538\C,0
 ,-0.68728187,0.33212438,0.75531076\N,0,-0.73762956,-0.54996945,-0.4128
 7459\C,0,-1.26203362,-1.89917957,-0.31784719\C,0,0.50686581,-0.2745797
 5,0.1504491\C,0,1.57699432,-1.09059236,0.60239901\C,0,1.31071708,1.148
 89564,-1.15641631\H,0,-2.25441067,1.77780246,0.84120107\H,0,-0.6689812
 9,2.40422654,1.30470436\H,0,-1.04458368,2.10463016,-0.40294687\H,0,-0.

 Normal termination of Gaussian 16 at Wed Apr  9 19:32:44 2025.
 Gaussian 16:  ES64L-G16RevC.01  3-Jul-2019

 ----------------------------------------------------------------------
 #t hf aug-cc-pvdz iop(5/13=1,5/36=2,99/5=2) pseudo=read geom=check gue
 ss=(read,tcheck) scf=(maxcycle=1)
 ----------------------------------------------------------------------
 -----
 title
 -----
 Structure from the checkpoint file:  "Grambow2020_wb97xd3_009133_reverse_mol1.chk"
 Charge =  0 Multiplicity = 1

                         Standard orientation:
 ---------------------------------------------------------------------
 Center     Atomic      Atomic             Coordinates (Angstroms)
 Number     Number       Type             X           Y           Z
 ---------------------------------------------------------------------
      1          6           0       -1.523754   -1.567435    0.327722
      2          6           0       -0.237025   -0.840057    0.586688
      3          7           0        0.596820   -0.466837   -0.558166
      4          6           0        2.024866   -0.721803   -0.566824
      5          6           0        0.103752    0.550834    0.256189
      6          6           0        0.710595    1.641163    0.933119
      7          6           0       -1.493690    1.314617   -0.859683
      8          1           0       -1.345441   -2.644371    0.323775
      9          1           0       -2.252545   -1.348759    1.110784
     10          1           0       -1.944964   -1.288183   -0.635249
     11          1           0        0.302185   -1.165895    1.478343
     12          1           0        2.497751   -0.079725   -1.310825
     13          1           0        2.492798   -0.535625    0.405894
     14          1           0        2.189028   -1.759517   -0.857611
     15          1           0       -0.453034    1.751107    0.031181
     16          1           0        0.495343    1.786533    1.981628
     17          1           0        1.599232    2.083202    0.503074
     18          1           0       -1.325195    0.812720   -1.806965
     19          1           0       -1.536828    2.402058   -1.018414
     20          1           0       -2.404537    0.990398   -0.361720
 ---------------------------------------------------------------------

 SCF Done:  E(RHF) =  -290.485972255     A.U. after    2 cycles

 The electronic state is 1-A.
 Alpha  occ. eigenvalues --  -15.73832 -11.55681 -11.45338 -11.39785 -11.38935
 Alpha  occ. eigenvalues --  -11.36134 -11.33963  -1.52131  -1.15495  -1.12185
 Alpha  occ. eigenvalues --   -1.02427  -0.98507  -0.84369  -0.75847  -0.66832
 Alpha  occ. eigenvalues --   -0.66580  -0.61102  -0.59723  -0.56524  -0.55932
 Alpha  occ. eigenvalues --   -0.54995  -0.54195  -0.52667  -0.47737  -0.43348
 Alpha  occ. eigenvalues --   -0.41736  -0.34726  -0.23525
 Alpha virt. eigenvalues --    0.03751   0.05032   0.05184   0.05549   0.05827
 Alpha virt. eigenvalues --    0.06045   0.06285   0.06505   0.06549   0.08369
 Alpha virt. eigenvalues --    0.08601   0.09190   0.09871   0.12264   0.12393

 Mulliken charges:
               1
     1  C   -4.176247
     2  C    0.086387
     3  N   -2.553258
     4  C   -3.775995
     5  C    1.718955
     6  C   -5.068463
     7  C   -5.199569
     8  H    1.047988
     9  H    1.197704
    10  H    1.390005
    11  H    1.589442
    12  H    1.441019
    13  H    1.485764
    14  H    1.432666
    15  H    4.251373
    16  H    1.107160
    17  H    1.211567
    18  H    1.357198
    19  H    0.280920
    20  H    1.175385
 Sum of Mulliken charges =   0.00000

 Dipole moment (field-independent basis, Debye):
    X=              0.3349    Y=             -2.0360    Z=             -0.0086  Tot=              2.0634

 Test job not archived.
 1\1\GINC-SE018\SP\RHF\Aug-CC-pVDZ\C6H13N1\OHZDE\09-Apr-2025\0\\#t hf a
 ug-cc-pvdz iop(5/13=1,5/36=2,99/5=2) pseudo=read geom=check guess=(rea
 d,tcheck) scf=(maxcycle=1)\\title\\0,1\C,0,-1.18797583,1.73938669,0.61
 132538\C,0,-0.68728187,0.33212438,0.75531076\N,0,-0.73762956,-0.549969
 45,-0.41287459\C,0,-1.26203362,-1.89917957,-0.31784719\C,0,0.50686581,
 -0.27457975,0.1504491\C,0,1.57699432,-1.09059236,0.60239901\C,0,1.3107
 1708,1.14889564,-1.15641631\H,0,-2.25441067,1.77780246,0.84120107\H,0,
 -0.66898129,2.40422654,1.30470436\H,0,-1.04458368,2.10463016,-0.402946

 Normal termination of Gaussian 16 at Wed Apr  9 19:33:11 2025.
