 Gaussian 16, Revision C.01,

 ----------------------------------------------------------------------
 #t hf aug-cc-pvdz symm=none int=(grid=ultrafine) guess=(read,tcheck) s
 table=(opt,rrhf)
 ----------------------------------------------------------------------
 -----
 title
 -----
 Symbolic Z-matrix:
 Charge =  0 Multiplicity = 1

 SCF Done:  E(RHF) =  -380.631677825     A.U. after   15 cycles
 Normal termination of Gaussian 16 at Wed Apr  9 19:15:04 2025.
 Gaussian 16:  ES64L-G16RevC.01  3-Jul-2019

 ----------------------------------------------------------------------
 #t hf aug-cc-pvdz iop(5/13=1,5/36=2,99/5=2) pseudo=read geom=check gue
 ss=(read,tcheck) scf=(maxcycle=1)
 ----------------------------------------------------------------------
 -----
 title
 -----
 Structure from the checkpoint file:  "Grambow2020_wb97xd3_008491_reverse_mol1.chk"
 Charge =  0 Multiplicity = 1

                         Standard orientation:
 ---------------------------------------------------------------------
 Center     Atomic      Atomic             Coordinates (Angstroms)
 Number     Number       Type             X           Y           Z
 ---------------------------------------------------------------------
      1          6           0       -2.877847    0.032511    0.129453
      2          8           0       -1.657968   -0.714725    0.025901
      3          6           0       -0.550744   -0.038064   -0.111230
      4          8           0       -0.530266    1.245373   -0.033905
      5          6           0        0.713430   -0.556165   -0.483780
      6          6           0        1.853543   -0.367568    0.484826
      7          8           0        2.946598    0.260231   -0.179893
      8          1           0       -2.907876    0.813345   -0.629429
      9          1           0       -3.678705   -0.686275   -0.021357
     10          1           0       -2.955683    0.483193    1.117718
     11          1           0        0.731479   -1.471402   -1.065085
     12          1           0        0.509270    0.936829   -0.644048
     13          1           0        1.525318    0.245369    1.333802
     14          1           0        2.179235   -1.337681    0.881524
     15          1           0        3.699754    0.265303    0.414442
 ---------------------------------------------------------------------

 SCF Done:  E(RHF) =  -382.329764941     A.U. after    2 cycles

 The electronic state is 1-A.
 Alpha  occ. eigenvalues --  -21.12317 -21.06773 -21.05711 -11.54042 -11.43459
 Alpha  occ. eigenvalues --  -11.43275 -11.35435  -1.88399  -1.71573  -1.69140
 Alpha  occ. eigenvalues --   -1.14422  -1.03999  -0.90706  -0.76564  -0.71390
 Alpha  occ. eigenvalues --   -0.65740  -0.65146  -0.61012  -0.59377  -0.58078
 Alpha  occ. eigenvalues --   -0.54160  -0.47153  -0.42846  -0.41435  -0.40323
 Alpha  occ. eigenvalues --   -0.35262  -0.31076  -0.26480
 Alpha virt. eigenvalues --    0.03418   0.04957   0.05315   0.05746   0.06307
 Alpha virt. eigenvalues --    0.06594   0.07097   0.08032   0.10397   0.11961
 Alpha virt. eigenvalues --    0.12904   0.13290   0.13648   0.14165   0.14620

 Mulliken charges:
               1
     1  C   -3.047374
     2  O   -3.632109
     3  C    7.493840
     4  O   -2.937868
     5  C   -4.602601
     6  C   -1.210203
     7  O   -2.467741
     8  H    1.291909
     9  H    1.342923
    10  H    1.293208
    11  H    1.308819
    12  H    1.693266
    13  H    1.264886
    14  H    1.397726
    15  H    0.811320
 Sum of Mulliken charges =  -0.00000

 Dipole moment (field-independent basis, Debye):
    X=             -2.7624    Y=             -0.1640    Z=              1.2448  Tot=              3.0344

 Test job not archived.
 1\1\GINC-SE115\SP\RHF\Aug-CC-pVDZ\C4H8O3\OHZDE\09-Apr-2025\0\\#t hf au
 g-cc-pvdz iop(5/13=1,5/36=2,99/5=2) pseudo=read geom=check guess=(read
 ,tcheck) scf=(maxcycle=1)\\title\\0,1\C,0,-2.79950845,0.08911411,-0.28
 676937\O,0,-1.60415458,0.48927898,0.39747225\C,0,-0.49779908,-0.125340
 62,0.07991732\O,0,-0.44850009,-0.96801421,-0.89017538\C,0,0.72626753,-
 0.07916475,0.79047114\C,0,1.93717546,0.43562346,0.05404822\O,0,2.99006
 311,-0.52101404,0.13786869\H,0,-2.87062573,-0.99736596,-0.31853326\H,0
 ,-3.62211406,0.51546724,0.28095759\H,0,-2.79693055,0.48286025,-1.30205

 Normal termination of Gaussian 16 at Wed Apr  9 19:15:08 2025.
