 Gaussian 16, Revision C.01,

 ----------------------------------------------------------------------
 #t hf aug-cc-pvdz symm=none int=(grid=ultrafine) guess=(read,tcheck) s
 table=(opt,rrhf)
 ----------------------------------------------------------------------
 -----
 title
 -----
 Symbolic Z-matrix:
 Charge =  0 Multiplicity = 1

 SCF Done:  E(RHF) =  -359.674529367     A.U. after   15 cycles
 Normal termination of Gaussian 16 at Wed Apr  9 19:10:57 2025.
 Gaussian 16:  ES64L-G16RevC.01  3-Jul-2019

 ----------------------------------------------------------------------
 #t hf aug-cc-pvdz iop(5/13=1,5/36=2,99/5=2) pseudo=read geom=check gue
 ss=(read,tcheck) scf=(maxcycle=1)
 ----------------------------------------------------------------------
 -----
 title
 -----
 Structure from the checkpoint file:  "Grambow2020_wb97xd3_008267_forward_mol1.chk"
 Charge =  0 Multiplicity = 1

                         Standard orientation:
 ---------------------------------------------------------------------
 Center     Atomic      Atomic             Coordinates (Angstroms)
 Number     Number       Type             X           Y           Z
 ---------------------------------------------------------------------
      1          6           0       -2.155041   -0.844115   -0.112858
      2          6           0       -1.372603    0.355230   -0.408700
      3          6           0       -0.666581    1.252830    0.501534
      4          7           0        0.581262    0.990013   -0.164842
      5          6           0        1.240127   -0.315132    0.025441
      6          8           0        2.429945   -0.325861   -0.222213
      7          8           0        0.408996   -1.168207    0.393885
      8          1           0       -2.078943   -1.155656    0.923045
      9          1           0       -1.868968   -1.670128   -0.764123
     10          1           0       -3.192585   -0.578594   -0.374634
     11          1           0       -1.398376    0.715938   -1.432338
     12          1           0       -0.689507    0.962900    1.550564
     13          1           0       -0.954949    2.296891    0.370596
     14          1           0        1.127547    1.758226   -0.525093
 ---------------------------------------------------------------------

 SCF Done:  E(RHF) =  -361.277428896     A.U. after    2 cycles

 The electronic state is 1-A.
 Alpha  occ. eigenvalues --  -20.97285 -20.97041 -15.75803 -11.57672 -11.47964
 Alpha  occ. eigenvalues --  -11.46057 -11.43940  -1.72817  -1.56932  -1.42209
 Alpha  occ. eigenvalues --   -1.21096  -1.04700  -0.89153  -0.78293  -0.69947
 Alpha  occ. eigenvalues --   -0.67710  -0.64982  -0.61491  -0.56474  -0.55599
 Alpha  occ. eigenvalues --   -0.53604  -0.51257  -0.44729  -0.34344  -0.27325
 Alpha  occ. eigenvalues --   -0.24386  -0.23712
 Alpha virt. eigenvalues --    0.01694   0.03252   0.03449   0.04535   0.04929
 Alpha virt. eigenvalues --    0.05638   0.06070   0.07294   0.09632   0.11397
 Alpha virt. eigenvalues --    0.11866   0.12444   0.12950   0.13720   0.14457

 Mulliken charges:
               1
     1  C   -3.801700
     2  C   -0.409504
     3  C   -2.825550
     4  N   -1.803577
     5  C    5.767877
     6  O   -2.879258
     7  O   -2.441711
     8  H    1.409964
     9  H    1.300197
    10  H    1.073692
    11  H    1.305090
    12  H    1.417316
    13  H    1.315754
    14  H    0.571411
 Sum of Mulliken charges =  -0.00000

 Dipole moment (field-independent basis, Debye):
    X=             -7.1015    Y=              3.5672    Z=             -0.5663  Tot=              7.9672

 Test job not archived.
 1\1\GINC-SE112\SP\RHF\Aug-CC-pVDZ\C4H7N1O2\OHZDE\09-Apr-2025\0\\#t hf
 aug-cc-pvdz iop(5/13=1,5/36=2,99/5=2) pseudo=read geom=check guess=(re
 ad,tcheck) scf=(maxcycle=1)\\title\\0,1\C,0,-1.58749116,-0.91878378,-0
 .17825378\C,0,-0.65420685,0.13890375,-0.56353052\C,0,-0.04054243,1.181
 07949,0.25498345\N,0,1.27573871,0.70812828,-0.08259859\C,0,1.76263552,
 -0.55271459,0.50640293\O,0,2.97106499,-0.68237208,0.50461967\O,0,0.801
 60927,-1.25461174,0.87793156\H,0,-1.72821238,-0.99053689,0.89458948\H,
 0,-1.26927529,-1.88506068,-0.5698262\H,0,-2.53129971,-0.66509766,-0.68

 Normal termination of Gaussian 16 at Wed Apr  9 19:11:01 2025.
