 Gaussian 16, Revision C.01,

 ----------------------------------------------------------------------
 #t hf aug-cc-pvdz symm=none int=(grid=ultrafine) guess=(read,tcheck) s
 table=(opt,rrhf)
 ----------------------------------------------------------------------
 -----
 title
 -----
 Symbolic Z-matrix:
 Charge =  0 Multiplicity = 1

 SCF Done:  E(RHF) =  -322.631501370     A.U. after   14 cycles
 Normal termination of Gaussian 16 at Wed Apr  9 04:04:39 2025.
 Gaussian 16:  ES64L-G16RevC.01  3-Jul-2019

 ----------------------------------------------------------------------
 #t hf aug-cc-pvdz iop(5/13=1,5/36=2,99/5=2) pseudo=read geom=check gue
 ss=(read,tcheck) scf=(maxcycle=1)
 ----------------------------------------------------------------------
 -----
 title
 -----
 Structure from the checkpoint file:  "Grambow2020_wb97xd3_009198_reverse_mol2.chk"
 Charge =  0 Multiplicity = 1

                         Standard orientation:
 ---------------------------------------------------------------------
 Center     Atomic      Atomic             Coordinates (Angstroms)
 Number     Number       Type             X           Y           Z
 ---------------------------------------------------------------------
      1          8           0        3.083667    0.658871    0.093907
      2          6           0        2.124132   -0.299803    0.499713
      3          6           0        1.052225   -0.526217   -0.532822
      4          6           0       -0.214559   -0.290301   -0.337320
      5          6           0       -1.463961   -0.070967   -0.125479
      6          6           0       -2.774273   -0.436616    0.377486
      7          7           0       -2.494598    0.880084   -0.241095
      8          1           0        3.526338    0.339994   -0.694708
      9          1           0        2.611885   -1.255134    0.735673
     10          1           0        1.679484    0.082618    1.417754
     11          1           0        1.376443   -0.914445   -1.497623
     12          1           0       -2.907795   -0.490641    1.453248
     13          1           0       -3.423660   -1.076680   -0.208142
     14          1           0       -2.411224    1.626160    0.440735
 ---------------------------------------------------------------------

 SCF Done:  E(RHF) =  -324.110935448     A.U. after    2 cycles

 The electronic state is 1-A.
 Alpha  occ. eigenvalues --  -21.07086 -15.76028 -11.47919 -11.45065 -11.44204
 Alpha  occ. eigenvalues --  -11.42276 -11.40447  -1.71236  -1.47222  -1.18107
 Alpha  occ. eigenvalues --   -1.00747  -0.94944  -0.88737  -0.74930  -0.68281
 Alpha  occ. eigenvalues --   -0.65842  -0.61735  -0.59463  -0.53100  -0.51707
 Alpha  occ. eigenvalues --   -0.48543  -0.43455  -0.42598  -0.34687  -0.31647
 Alpha  occ. eigenvalues --   -0.30273
 Alpha virt. eigenvalues --    0.03353   0.04943   0.05632   0.05770   0.06116
 Alpha virt. eigenvalues --    0.06393   0.06912   0.09652   0.10718   0.11032
 Alpha virt. eigenvalues --    0.12247   0.12724   0.13571   0.13753   0.14109

 Mulliken charges:
               1
     1  O   -2.410670
     2  C   -2.023281
     3  C   -2.651085
     4  C    2.166211
     5  C    2.684470
     6  C   -2.427693
     7  N   -2.454816
     8  H    0.735441
     9  H    1.151156
    10  H    1.299245
    11  H    1.120358
    12  H    1.138531
    13  H    1.119672
    14  H    0.552460
 Sum of Mulliken charges =   0.00000

 Dipole moment (field-independent basis, Debye):
    X=             -0.5162    Y=             -0.5591    Z=              1.0225  Tot=              1.2746

 Test job not archived.
 1\1\GINC-SE452\SP\RHF\Aug-CC-pVDZ\C5H7N1O1\OHZDE\09-Apr-2025\0\\#t hf
 aug-cc-pvdz iop(5/13=1,5/36=2,99/5=2) pseudo=read geom=check guess=(re
 ad,tcheck) scf=(maxcycle=1)\\title\\0,1\O,0,2.94326399,-0.71318336,1.3
 2151267\C,0,2.15930246,-0.30946256,0.21387777\C,0,1.09074879,0.6836041
 9,0.58588292\C,0,-0.18753767,0.47010817,0.44797015\C,0,-1.44543174,0.2
 5428798,0.28949633\C,0,-2.6618321,0.21572677,-0.49947538\N,0,-2.612862
 89,-0.22050974,0.91539578\H,0,3.39482127,0.05401484,1.67796086\H,0,2.7
 9654207,0.11680653,-0.57254231\H,0,1.70171247,-1.21498765,-0.18285118\

 Normal termination of Gaussian 16 at Wed Apr  9 04:04:43 2025.
