 Gaussian 16, Revision C.01,

 ----------------------------------------------------------------------
 #t hf aug-cc-pvdz symm=none int=(grid=ultrafine) guess=(read,tcheck) s
 table=(opt,rrhf)
 ----------------------------------------------------------------------
 -----
 title
 -----
 Symbolic Z-matrix:
 Charge =  0 Multiplicity = 1

 SCF Done:  E(RHF) =  -360.758910199     A.U. after   16 cycles
 Normal termination of Gaussian 16 at Wed Apr  9 18:13:23 2025.
 Gaussian 16:  ES64L-G16RevC.01  3-Jul-2019

 ----------------------------------------------------------------------
 #t hf aug-cc-pvdz iop(5/13=1,5/36=2,99/5=2) pseudo=read geom=check gue
 ss=(read,tcheck) scf=(maxcycle=1)
 ----------------------------------------------------------------------
 -----
 title
 -----
 Structure from the checkpoint file:  "Grambow2020_wb97xd3_006768_forward_mol1.chk"
 Charge =  0 Multiplicity = 1

                         Standard orientation:
 ---------------------------------------------------------------------
 Center     Atomic      Atomic             Coordinates (Angstroms)
 Number     Number       Type             X           Y           Z
 ---------------------------------------------------------------------
      1          6           0        0.831670    1.203669    0.795693
      2          7           0        1.277848    0.985605   -0.497944
      3          6           0        1.536406   -0.289514   -0.701851
      4          8           0        1.314181   -1.195877    0.147443
      5          6           0       -0.812252   -0.980290    0.775007
      6          6           0       -1.528139   -0.494823   -0.428016
      7          8           0       -2.128856    0.761869   -0.267017
      8          1           0        1.525052    0.908928    1.591624
      9          1           0        0.404566    2.192280    0.957461
     10          1           0        0.008019    0.387304    1.014795
     11          1           0        1.881417   -0.567985   -1.704417
     12          1           0       -0.490333   -2.009292    0.761191
     13          1           0       -1.200675   -0.649068    1.734542
     14          1           0       -0.862440   -0.518353   -1.298563
     15          1           0       -2.319722   -1.231364   -0.627245
     16          1           0       -1.539531    1.426123   -0.632183
 ---------------------------------------------------------------------

 SCF Done:  E(RHF) =  -362.408318705     A.U. after    2 cycles

 The electronic state is 1-A.
 Alpha  occ. eigenvalues --  -21.09673 -21.01606 -15.68941 -11.53648 -11.45994
 Alpha  occ. eigenvalues --  -11.42310 -11.40747  -1.74858  -1.68816  -1.33112
 Alpha  occ. eigenvalues --   -1.16675  -0.99541  -0.90691  -0.77013  -0.71153
 Alpha  occ. eigenvalues --   -0.70204  -0.64859  -0.60741  -0.58279  -0.57435
 Alpha  occ. eigenvalues --   -0.53018  -0.52279  -0.45274  -0.42495  -0.35822
 Alpha  occ. eigenvalues --   -0.34228  -0.29920  -0.27466
 Alpha virt. eigenvalues --    0.03132   0.03989   0.04943   0.05258   0.05941
 Alpha virt. eigenvalues --    0.06389   0.06897   0.07203   0.08181   0.09414
 Alpha virt. eigenvalues --    0.11756   0.12750   0.12885   0.13345   0.13791

 Mulliken charges:
               1
     1  C   -3.832952
     2  N   -2.310537
     3  C    2.012321
     4  O   -2.470993
     5  C   -2.964933
     6  C   -0.695983
     7  O   -2.813789
     8  H    0.934054
     9  H    0.969006
    10  H    3.770789
    11  H    1.674058
    12  H    1.288147
    13  H    0.808624
    14  H    1.609603
    15  H    1.254916
    16  H    0.767670
 Sum of Mulliken charges =   0.00000

 Dipole moment (field-independent basis, Debye):
    X=             -2.6603    Y=             -1.6209    Z=              1.3479  Tot=              3.3943

 Test job not archived.
 1\1\GINC-SE105\SP\RHF\Aug-CC-pVDZ\C4H9N1O2\OHZDE\09-Apr-2025\0\\#t hf
 aug-cc-pvdz iop(5/13=1,5/36=2,99/5=2) pseudo=read geom=check guess=(re
 ad,tcheck) scf=(maxcycle=1)\\title\\0,1\C,0,1.38604503,-0.14963266,-1.
 064618\N,0,1.67996652,-0.52471691,0.23655274\C,0,1.33293845,0.41538994
 ,1.09102987\O,0,0.72829422,1.47350314,0.76395032\C,0,-1.06802778,0.853
 40098,-0.3982589\C,0,-1.49188011,-0.4365648,0.19484713\O,0,-1.45851718
 ,-1.51528192,-0.70031339\H,0,1.87441029,0.76685926,-1.41490326\H,0,1.4
 5298526,-0.96192351,-1.78686521\H,0,0.28312139,0.27033408,-1.05786869\

 Normal termination of Gaussian 16 at Wed Apr  9 18:13:28 2025.
