 Gaussian 16, Revision C.01,

 ----------------------------------------------------------------------
 #t hf aug-cc-pvdz symm=none int=(grid=ultrafine) guess=(read,tcheck) s
 table=(opt,rrhf)
 ----------------------------------------------------------------------
 -----
 title
 -----
 Symbolic Z-matrix:
 Charge =  0 Multiplicity = 1

 SCF Done:  E(RHF) =  -307.915842587     A.U. after   14 cycles

 1\1\GINC-SE226\Stability\RHF\Aug-CC-pVDZ\C6H10O1\OHZDE\09-Apr-2025\0\\
 #t hf aug-cc-pvdz symm=none int=(grid=ultrafine) guess=(read,tcheck) s
 table=(opt,rrhf)\\title\\0,1\O,0,0.89058662,-1.07805711,0.97704501\C,0
 ,1.24504442,-0.74370086,-0.13218648\C,0,2.51192553,-1.28909086,-0.7472
 4289\C,0,-2.28868954,0.1984056,0.9959089\C,0,-1.07655841,1.11738136,0.
 81999022\C,0,-0.50573972,1.00239134,-0.55823543\C,0,0.47807021,0.20495
 3,-0.97830055\H,0,-1.98528097,-0.84396717,0.89486613\H,0,3.17932755,-0
 .47039348,-1.02662197\H,0,3.01167361,-1.95120595,-0.0441945\H,0,2.2740

 Normal termination of Gaussian 16 at Wed Apr  9 19:13:10 2025.
 Gaussian 16:  ES64L-G16RevC.01  3-Jul-2019

 ----------------------------------------------------------------------
 #t hf aug-cc-pvdz iop(5/13=1,5/36=2,99/5=2) pseudo=read geom=check gue
 ss=(read,tcheck) scf=(maxcycle=1)
 ----------------------------------------------------------------------
 -----
 title
 -----
 Structure from the checkpoint file:  "Grambow2020_wb97xd3_008420_reverse_mol2.chk"
 Charge =  0 Multiplicity = 1

                         Standard orientation:
 ---------------------------------------------------------------------
 Center     Atomic      Atomic             Coordinates (Angstroms)
 Number     Number       Type             X           Y           Z
 ---------------------------------------------------------------------
      1          8           0        0.786653   -1.298055    0.178588
      2          6           0        1.272520   -0.203871   -0.007215
      3          6           0        2.768967   -0.013082   -0.077766
      4          6           0       -2.497589   -0.617293   -0.519856
      5          6           0       -1.772562    0.105903    0.618586
      6          6           0       -0.838788    1.148390    0.089578
      7          6           0        0.459907    1.025026   -0.190451
      8          1           0       -1.779326   -1.158687   -1.136133
      9          1           0        3.092116    0.719295    0.665835
     10          1           0        3.273315   -0.961295    0.092370
     11          1           0        3.047016    0.380630   -1.058795
     12          1           0       -3.216189   -1.335350   -0.121957
     13          1           0       -3.039521    0.084106   -1.158331
     14          1           0       -2.506410    0.594491    1.265363
     15          1           0       -1.226828   -0.624826    1.212950
     16          1           0       -1.286060    2.121111   -0.105855
     17          1           0        0.993936    1.894526   -0.561410
 ---------------------------------------------------------------------

 SCF Done:  E(RHF) =  -309.384125557     A.U. after    2 cycles

 The electronic state is 1-A.
 Alpha  occ. eigenvalues --  -21.03895 -11.49545 -11.45653 -11.40823 -11.38863
 Alpha  occ. eigenvalues --  -11.38258 -11.35770  -1.70239  -1.24846  -1.13500
 Alpha  occ. eigenvalues --   -1.06009  -0.92440  -0.83453  -0.70865  -0.67309
 Alpha  occ. eigenvalues --   -0.60890  -0.59491  -0.58553  -0.57350  -0.52040
 Alpha  occ. eigenvalues --   -0.50728  -0.48097  -0.47232  -0.44843  -0.43969
 Alpha  occ. eigenvalues --   -0.33254  -0.27631
 Alpha virt. eigenvalues --    0.03416   0.04969   0.05183   0.05354   0.05600
 Alpha virt. eigenvalues --    0.06392   0.06917   0.07566   0.07712   0.08207
 Alpha virt. eigenvalues --    0.10104   0.11062   0.11792   0.13109   0.13710

 Mulliken charges:
               1
     1  O   -3.517663
     2  C    3.694672
     3  C   -5.129886
     4  C   -3.720961
     5  C   -3.898811
     6  C    0.565953
     7  C   -1.524160
     8  H    1.381690
     9  H    1.299349
    10  H    1.232313
    11  H    1.238544
    12  H    1.167424
    13  H    1.324227
    14  H    1.230321
    15  H    1.636584
    16  H    1.275149
    17  H    1.745256
 Sum of Mulliken charges =   0.00000

 Dipole moment (field-independent basis, Debye):
    X=             -0.2641    Y=              1.0403    Z=             -0.0117  Tot=              1.0733

 Test job not archived.
 1\1\GINC-SE226\SP\RHF\Aug-CC-pVDZ\C6H10O1\OHZDE\09-Apr-2025\0\\#t hf a
 ug-cc-pvdz iop(5/13=1,5/36=2,99/5=2) pseudo=read geom=check guess=(rea
 d,tcheck) scf=(maxcycle=1)\\title\\0,1\O,0,0.89058662,-1.07805711,0.97
 704501\C,0,1.24504442,-0.74370086,-0.13218648\C,0,2.51192553,-1.289090
 86,-0.74724289\C,0,-2.28868954,0.1984056,0.9959089\C,0,-1.07655841,1.1
 1738136,0.81999022\C,0,-0.50573972,1.00239134,-0.55823543\C,0,0.478070
 21,0.204953,-0.97830055\H,0,-1.98528097,-0.84396717,0.89486613\H,0,3.1
 7932755,-0.47039348,-1.02662197\H,0,3.01167361,-1.95120595,-0.0441945\

 Normal termination of Gaussian 16 at Wed Apr  9 19:13:16 2025.
