 Gaussian 16, Revision C.01,

 ----------------------------------------------------------------------
 #t hf aug-cc-pvdz symm=none int=(grid=ultrafine) guess=(read,tcheck) s
 table=(opt,rrhf)
 ----------------------------------------------------------------------
 -----
 title
 -----
 Symbolic Z-matrix:
 Charge =  0 Multiplicity = 1

 SCF Done:  E(RHF) =  -267.537813570     A.U. after   16 cycles
 Normal termination of Gaussian 16 at Wed Apr  9 03:20:54 2025.
 Gaussian 16:  ES64L-G16RevC.01  3-Jul-2019

 ----------------------------------------------------------------------
 #t hf aug-cc-pvdz iop(5/13=1,5/36=2,99/5=2) pseudo=read geom=check gue
 ss=(read,tcheck) scf=(maxcycle=1)
 ----------------------------------------------------------------------
 -----
 title
 -----
 Structure from the checkpoint file:  "Grambow2020_wb97xd3_006077_forward_mol1.chk"
 Charge =  0 Multiplicity = 1

                         Standard orientation:
 ---------------------------------------------------------------------
 Center     Atomic      Atomic             Coordinates (Angstroms)
 Number     Number       Type             X           Y           Z
 ---------------------------------------------------------------------
      1          8           0       -0.482351   -1.339964   -0.118550
      2          6           0        0.694378   -1.058702    0.307077
      3          6           0        1.474976   -0.106151   -0.314300
      4          6           0        0.338849    1.533166    0.147877
      5          6           0       -0.950712    1.082967    0.046218
      6          6           0       -1.535411   -0.025973   -0.081245
      7          1           0        0.970830   -1.431253    1.299272
      8          1           0        1.330867    0.052874   -1.375134
      9          1           0        2.471634    0.082263    0.068436
     10          1           0        0.698674    1.831089    1.128746
     11          1           0        0.749539    2.130110   -0.660347
     12          1           0       -2.495218   -0.497211   -0.146338
 ---------------------------------------------------------------------

 SCF Done:  E(RHF) =  -268.815773580     A.U. after    2 cycles

 The electronic state is 1-A.
 Alpha  occ. eigenvalues --  -21.06455 -11.46714 -11.45928 -11.44754 -11.39006
 Alpha  occ. eigenvalues --  -11.36567  -1.74651  -1.19732  -1.11209  -0.96675
 Alpha  occ. eigenvalues --   -0.83260  -0.74670  -0.64849  -0.63569  -0.58854
 Alpha  occ. eigenvalues --   -0.58592  -0.55219  -0.49088  -0.40668  -0.37507
 Alpha  occ. eigenvalues --   -0.32418  -0.27131
 Alpha virt. eigenvalues --    0.03372   0.05104   0.05545   0.05752   0.06060
 Alpha virt. eigenvalues --    0.06488   0.08600   0.10102   0.11878   0.12266
 Alpha virt. eigenvalues --    0.13117   0.13372   0.13954   0.14261   0.14949

 Mulliken charges:
               1
     1  O   -3.302489
     2  C    1.136995
     3  C   -3.148265
     4  C   -2.737606
     5  C    1.604841
     6  C   -1.064472
     7  H    1.533198
     8  H    1.419262
     9  H    1.315231
    10  H    1.170072
    11  H    1.172337
    12  H    0.900896
 Sum of Mulliken charges =  -0.00000

 Dipole moment (field-independent basis, Debye):
    X=              1.6153    Y=             -0.1499    Z=              0.1373  Tot=              1.6280

 Test job not archived.
 1\1\GINC-SE365\SP\RHF\Aug-CC-pVDZ\C5H6O1\OHZDE\09-Apr-2025\0\\#t hf au
 g-cc-pvdz iop(5/13=1,5/36=2,99/5=2) pseudo=read geom=check guess=(read
 ,tcheck) scf=(maxcycle=1)\\title\\0,1\O,0,0.20030828,-1.25962928,1.060
 85507\C,0,-0.92130414,-0.68509948,0.82240657\C,0,-1.02969072,0.6893108
 7,0.77716943\C,0,0.09478861,1.00456932,-0.9044701\C,0,1.10873269,0.089
 42352,-0.80245558\C,0,1.38483622,-0.90816752,-0.08381379\H,0,-1.733802
 16,-1.3115608,0.4389168\H,0,-0.3464533,1.2710823,1.38227549\H,0,-2.002
 96846,1.13011081,0.5934822\H,0,-0.61578703,0.88913786,-1.71816157\H,0,

 Normal termination of Gaussian 16 at Wed Apr  9 03:20:57 2025.
