 Gaussian 16, Revision C.01,

 ----------------------------------------------------------------------
 #t hf aug-cc-pvdz symm=none int=(grid=ultrafine) guess=(read,tcheck) s
 table=(opt,rrhf)
 ----------------------------------------------------------------------
 -----
 title
 -----
 Symbolic Z-matrix:
 Charge =  0 Multiplicity = 1

 SCF Done:  E(RHF) =  -324.974690797     A.U. after   15 cycles
 Normal termination of Gaussian 16 at Wed Apr  9 19:07:13 2025.
 Gaussian 16:  ES64L-G16RevC.01  3-Jul-2019

 ----------------------------------------------------------------------
 #t hf aug-cc-pvdz iop(5/13=1,5/36=2,99/5=2) pseudo=read geom=check gue
 ss=(read,tcheck) scf=(maxcycle=1)
 ----------------------------------------------------------------------
 -----
 title
 -----
 Structure from the checkpoint file:  "Grambow2020_wb97xd3_008109_reverse_mol1.chk"
 Charge =  0 Multiplicity = 1

                         Standard orientation:
 ---------------------------------------------------------------------
 Center     Atomic      Atomic             Coordinates (Angstroms)
 Number     Number       Type             X           Y           Z
 ---------------------------------------------------------------------
      1          6           0        2.410725    0.091303    0.663378
      2          6           0        1.666135    0.253225   -0.615072
      3          7           0       -0.410778    0.715557   -0.165916
      4          6           0       -1.403771    1.731669    0.059446
      5          6           0       -0.627528   -0.554704   -0.084965
      6          8           0        0.362603   -1.305097   -0.314669
      7          6           0       -1.960191   -1.159399    0.262157
      8          1           0        3.384420    0.582368    0.545936
      9          1           0        2.568737   -0.953071    0.918061
     10          1           0        1.893274    0.587604    1.483214
     11          1           0        1.941718   -0.412658   -1.421367
     12          1           0        1.567012    1.274139   -0.950844
     13          1           0       -0.936915    2.712138   -0.053473
     14          1           0       -2.230308    1.681396   -0.659701
     15          1           0       -1.829890    1.692729    1.069880
     16          1           0       -1.872688   -2.238680    0.352905
     17          1           0       -2.689465   -0.923193   -0.515367
     18          1           0       -2.333491   -0.743451    1.199859
 ---------------------------------------------------------------------

 SCF Done:  E(RHF) =  -326.543412480     A.U. after    2 cycles

 The electronic state is 1-A.
 Alpha  occ. eigenvalues --  -20.99035 -15.66975 -11.50024 -11.45660 -11.38699
 Alpha  occ. eigenvalues --  -11.37487 -11.36757  -1.69177  -1.32187  -1.16305
 Alpha  occ. eigenvalues --   -1.07049  -0.97072  -0.89113  -0.70476  -0.66977
 Alpha  occ. eigenvalues --   -0.62016  -0.60797  -0.58363  -0.56816  -0.55240
 Alpha  occ. eigenvalues --   -0.53962  -0.53924  -0.51604  -0.44049  -0.43353
 Alpha  occ. eigenvalues --   -0.34524  -0.27376  -0.25200
 Alpha virt. eigenvalues --    0.03576   0.04934   0.05373   0.05524   0.05719
 Alpha virt. eigenvalues --    0.06314   0.06896   0.07172   0.07488   0.08545
 Alpha virt. eigenvalues --    0.08798   0.10648   0.11564   0.12244   0.12715

 Mulliken charges:
               1
     1  C   -4.023349
     2  C   -2.731015
     3  N   -3.113421
     4  C   -3.328401
     5  C    5.900848
     6  O   -3.158486
     7  C   -4.652623
     8  H    1.128228
     9  H    1.431270
    10  H    1.498298
    11  H    1.374293
    12  H    1.470887
    13  H    1.401142
    14  H    1.503662
    15  H    1.470053
    16  H    1.285201
    17  H    1.285617
    18  H    1.257795
 Sum of Mulliken charges =   0.00000

 Dipole moment (field-independent basis, Debye):
    X=              1.0367    Y=              0.4457    Z=              0.0897  Tot=              1.1320

 Test job not archived.
 1\1\GINC-SE173\SP\RHF\Aug-CC-pVDZ\C5H11N1O1\OHZDE\09-Apr-2025\0\\#t hf
  aug-cc-pvdz iop(5/13=1,5/36=2,99/5=2) pseudo=read geom=check guess=(r
 ead,tcheck) scf=(maxcycle=1)\\title\\0,1\C,0,-2.24972565,0.36693477,-1
 .03529587\C,0,-1.65265976,-0.76157122,-0.27040668\N,0,0.17144928,-0.07
 202639,0.691994\C,0,0.78147175,0.49877948,1.86304421\C,0,0.79856471,-0
 .35059005,-0.40172641\O,0,0.10332511,-0.84816899,-1.33192537\C,0,2.269
 02137,-0.11374624,-0.61101635\H,0,-3.33485917,0.33823825,-0.87819355\H
 ,0,-2.04359689,0.29710841,-2.09980646\H,0,-1.89250175,1.32548164,-0.66

 Normal termination of Gaussian 16 at Wed Apr  9 19:07:20 2025.
