 Gaussian 16, Revision C.01,

 ----------------------------------------------------------------------
 #t hf aug-cc-pvdz symm=none int=(grid=ultrafine) guess=(read,tcheck) s
 table=(opt,rrhf)
 ----------------------------------------------------------------------
 -----
 title
 -----
 Symbolic Z-matrix:
 Charge =  0 Multiplicity = 1

 SCF Done:  E(RHF) =  -325.033974175     A.U. after   12 cycles
 Normal termination of Gaussian 16 at Wed Apr  9 04:04:56 2025.
 Gaussian 16:  ES64L-G16RevC.01  3-Jul-2019

 ----------------------------------------------------------------------
 #t hf aug-cc-pvdz iop(5/13=1,5/36=2,99/5=2) pseudo=read geom=check gue
 ss=(read,tcheck) scf=(maxcycle=1)
 ----------------------------------------------------------------------
 -----
 title
 -----
 Structure from the checkpoint file:  "Grambow2020_wb97xd3_009230_forward_mol2.chk"
 Charge =  0 Multiplicity = 1

                         Standard orientation:
 ---------------------------------------------------------------------
 Center     Atomic      Atomic             Coordinates (Angstroms)
 Number     Number       Type             X           Y           Z
 ---------------------------------------------------------------------
      1          6           0        2.736447   -0.387315    0.136975
      2          8           0        1.658966    0.463629    0.433866
      3          6           0        0.580619    0.290219   -0.431458
      4          6           0       -0.332848   -0.938696   -0.240255
      5          7           0       -1.484178   -0.044920   -0.404937
      6          6           0       -2.653164   -0.288416    0.398234
      7          6           0       -0.653376    1.122366   -0.085310
      8          1           0        3.531460   -0.167263    0.847857
      9          1           0        3.111138   -0.218565   -0.881055
     10          1           0        2.456963   -1.444222    0.233652
     11          1           0        0.894612    0.409887   -1.475435
     12          1           0       -0.277706   -1.763925   -0.953583
     13          1           0       -0.232162   -1.325693    0.785762
     14          1           0       -2.425265   -0.337621    1.477105
     15          1           0       -3.114833   -1.232819    0.102868
     16          1           0       -3.384518    0.506793    0.239623
     17          1           0       -0.646602    1.368860    0.986567
     18          1           0       -0.861637    2.021026   -0.668848
 ---------------------------------------------------------------------

 SCF Done:  E(RHF) =  -326.587329251     A.U. after    2 cycles

 The electronic state is 1-A.
 Alpha  occ. eigenvalues --  -21.04544 -15.69746 -11.48189 -11.41799 -11.40374
 Alpha  occ. eigenvalues --  -11.37694 -11.36694  -1.76638  -1.45994  -1.11913
 Alpha  occ. eigenvalues --   -0.99866  -0.97984  -0.88127  -0.79082  -0.69192
 Alpha  occ. eigenvalues --   -0.64978  -0.62378  -0.60389  -0.58131  -0.57583
 Alpha  occ. eigenvalues --   -0.55132  -0.52563  -0.47737  -0.44328  -0.42153
 Alpha  occ. eigenvalues --   -0.37863  -0.31945  -0.28640
 Alpha virt. eigenvalues --    0.04111   0.05233   0.05363   0.05481   0.05820
 Alpha virt. eigenvalues --    0.06140   0.06550   0.06790   0.07602   0.08810
 Alpha virt. eigenvalues --    0.09141   0.11163   0.12315   0.13669   0.14648

 Mulliken charges:
               1
     1  C   -3.134308
     2  O   -3.659158
     3  C    1.904187
     4  C   -2.432785
     5  N   -2.056556
     6  C   -3.483725
     7  C   -2.824127
     8  H    1.245831
     9  H    1.315592
    10  H    1.364494
    11  H    1.673399
    12  H    1.417774
    13  H    1.689816
    14  H    1.320907
    15  H    1.387710
    16  H    1.375670
    17  H    1.573889
    18  H    1.321389
 Sum of Mulliken charges =  -0.00000

 Dipole moment (field-independent basis, Debye):
    X=              0.2649    Y=             -0.2391    Z=              0.1741  Tot=              0.3971

 Test job not archived.
 1\1\GINC-SE456\SP\RHF\Aug-CC-pVDZ\C5H11N1O1\OHZDE\09-Apr-2025\0\\#t hf
  aug-cc-pvdz iop(5/13=1,5/36=2,99/5=2) pseudo=read geom=check guess=(r
 ead,tcheck) scf=(maxcycle=1)\\title\\0,1\C,0,2.74045605,0.61324638,0.0
 9028812\O,0,1.51730246,0.98973789,-0.48881789\C,0,0.65176634,-0.087351
 5,-0.66885472\C,0,-0.09783101,-0.64875952,0.55757883\N,0,-1.31415264,-
 0.67546132,-0.26179161\C,0,-2.56423328,-0.34037779,0.36742823\C,0,-0.7
 3001588,0.28877844,-1.20199227\H,0,3.35212704,1.51037471,0.17299995\H,
 0,3.26792257,-0.12236119,-0.53093371\H,0,2.60055202,0.18601796,1.09149

 Normal termination of Gaussian 16 at Wed Apr  9 04:05:02 2025.
