 Gaussian 16, Revision C.01,

 ----------------------------------------------------------------------
 #t hf aug-cc-pvdz symm=none int=(grid=ultrafine) guess=(read,tcheck) s
 table=(opt,rrhf)
 ----------------------------------------------------------------------
 -----
 title
 -----
 Symbolic Z-matrix:
 Charge =  0 Multiplicity = 1

 SCF Done:  E(RHF) =  -268.663219331     A.U. after   16 cycles
 Normal termination of Gaussian 16 at Wed Apr  9 17:13:24 2025.
 Gaussian 16:  ES64L-G16RevC.01  3-Jul-2019

 ----------------------------------------------------------------------
 #t hf aug-cc-pvdz iop(5/13=1,5/36=2,99/5=2) pseudo=read geom=check gue
 ss=(read,tcheck) scf=(maxcycle=1)
 ----------------------------------------------------------------------
 -----
 title
 -----
 Structure from the checkpoint file:  "Grambow2020_b97d3_007071_reverse_mol1.chk"
 Charge =  0 Multiplicity = 1

                         Standard orientation:
 ---------------------------------------------------------------------
 Center     Atomic      Atomic             Coordinates (Angstroms)
 Number     Number       Type             X           Y           Z
 ---------------------------------------------------------------------
      1          6           0       -2.210601    0.086896   -0.051050
      2          6           0       -0.718452    0.071319    0.007427
      3          6           0        0.174127    1.114740   -0.172260
      4          6           0        1.450245    0.537743   -0.133265
      5          8           0        1.465836   -0.795685   -0.054042
      6          6           0        0.067073   -1.198112    0.171025
      7          1           0       -2.602438   -0.738143   -0.669562
      8          1           0       -2.571077    1.037075   -0.464223
      9          1           0       -2.661272   -0.033358    0.950111
     10          1           0        0.287008    2.258332    0.256749
     11          1           0        0.962816    2.785466    1.041287
     12          1           0        2.422581    1.021393   -0.166109
     13          1           0        0.053951   -1.703230    1.153811
     14          1           0       -0.192608   -1.937570   -0.600993
 ---------------------------------------------------------------------

 SCF Done:  E(RHF) =  -269.931743569     A.U. after    2 cycles

 The electronic state is 1-A.
 Alpha  occ. eigenvalues --  -21.14749 -11.53387 -11.50192 -11.45912 -11.41628
 Alpha  occ. eigenvalues --  -11.38433  -1.85906  -1.26150  -1.11512  -1.04751
 Alpha  occ. eigenvalues --   -0.86654  -0.78731  -0.71324  -0.68542  -0.60824
 Alpha  occ. eigenvalues --   -0.58466  -0.57346  -0.53556  -0.51692  -0.48273
 Alpha  occ. eigenvalues --   -0.44487  -0.35343  -0.23993
 Alpha virt. eigenvalues --    0.02316   0.04101   0.04626   0.05235   0.05797
 Alpha virt. eigenvalues --    0.06080   0.06224   0.07810   0.09374   0.10231
 Alpha virt. eigenvalues --    0.11017   0.11781   0.12288   0.12979   0.13510

 Mulliken charges:
               1
     1  C   -4.505150
     2  C    3.508300
     3  C   -2.844958
     4  C    0.432698
     5  O   -3.291924
     6  C   -2.052938
     7  H    1.224937
     8  H    1.309772
     9  H    1.219366
    10  H    0.892849
    11  H   -0.115045
    12  H    1.600374
    13  H    1.328909
    14  H    1.292810
 Sum of Mulliken charges =  -0.00000

 Dipole moment (field-independent basis, Debye):
    X=             -1.2378    Y=             -7.3142    Z=             -2.1458  Tot=              7.7223

 Test job not archived.
 1\1\GINC-SE220\SP\RHF\Aug-CC-pVDZ\C5H8O1\OHZDE\09-Apr-2025\0\\#t hf au
 g-cc-pvdz iop(5/13=1,5/36=2,99/5=2) pseudo=read geom=check guess=(read
 ,tcheck) scf=(maxcycle=1)\\title\\0,1\C,0,-1.83791846,0.33782971,-0.46
 747021\C,0,-0.42873423,-0.01949047,-0.12586927\C,0,0.74215885,0.653987
 89,-0.4310731\C,0,1.78446528,-0.16868045,0.01584777\O,0,1.4033962,-1.3
 6054235,0.48360923\C,0,-0.06720193,-1.31202963,0.54785605\H,0,-2.38818
 966,-0.52478838,-0.87962932\H,0,-1.86270026,1.15300708,-1.20120571\H,0
 ,-2.40287568,0.67190317,0.42084634\H,0,1.13885569,1.81131101,-0.342592

 Normal termination of Gaussian 16 at Wed Apr  9 17:13:27 2025.
