 Gaussian 16, Revision C.01,

 ----------------------------------------------------------------------
 #t hf aug-cc-pvdz symm=none int=(grid=ultrafine) guess=(read,tcheck) s
 table=(opt,rrhf)
 ----------------------------------------------------------------------
 -----
 title
 -----
 Symbolic Z-matrix:
 Charge =  0 Multiplicity = 1

 SCF Done:  E(RHF) =  -265.025388738     A.U. after   15 cycles
 Normal termination of Gaussian 16 at Wed Apr  9 03:21:08 2025.
 Gaussian 16:  ES64L-G16RevC.01  3-Jul-2019

 ----------------------------------------------------------------------
 #t hf aug-cc-pvdz iop(5/13=1,5/36=2,99/5=2) pseudo=read geom=check gue
 ss=(read,tcheck) scf=(maxcycle=1)
 ----------------------------------------------------------------------
 -----
 title
 -----
 Structure from the checkpoint file:  "Grambow2020_wb97xd3_006061_reverse_mol2.chk"
 Charge =  0 Multiplicity = 1

                         Standard orientation:
 ---------------------------------------------------------------------
 Center     Atomic      Atomic             Coordinates (Angstroms)
 Number     Number       Type             X           Y           Z
 ---------------------------------------------------------------------
      1          6           0       -1.187038    1.356372   -0.380631
      2          6           0       -1.117036    0.105931    0.093708
      3          6           0       -1.464579   -1.094286   -0.734713
      4          7           0       -0.739575   -0.197206    1.386935
      5          6           0        2.127480    0.246846   -0.357051
      6          7           0        3.090704   -0.287841   -0.046466
      7          1           0        1.204045    0.732123   -0.632230
      8          1           0       -0.942484    2.213534    0.236652
      9          1           0       -1.567125    1.544962   -1.374079
     10          1           0       -2.257763   -1.669927   -0.253077
     11          1           0       -0.596424   -1.752514   -0.839148
     12          1           0       -1.795654   -0.802193   -1.728792
     13          1           0       -0.325443   -1.099527    1.544666
     14          1           0       -0.330013    0.539697    1.934855
 ---------------------------------------------------------------------

 SCF Done:  E(RHF) =  -266.301758531     A.U. after    2 cycles

 The electronic state is 1-A.
 Alpha  occ. eigenvalues --  -15.77249 -15.76775 -11.45912 -11.43269 -11.39387
 Alpha  occ. eigenvalues --  -11.36379  -1.39951  -1.30699  -1.13204  -1.01503
 Alpha  occ. eigenvalues --   -0.81352  -0.79752  -0.69654  -0.64751  -0.60171
 Alpha  occ. eigenvalues --   -0.55787  -0.53889  -0.53061  -0.48777  -0.47095
 Alpha  occ. eigenvalues --   -0.46172  -0.45310  -0.30445
 Alpha virt. eigenvalues --    0.03144   0.05159   0.05437   0.05672   0.05798
 Alpha virt. eigenvalues --    0.06475   0.06852   0.08795   0.10178   0.10869
 Alpha virt. eigenvalues --    0.11938   0.13420   0.13664   0.14153   0.14364

 Mulliken charges:
               1
     1  C   -3.820279
     2  C    3.055869
     3  C   -4.022947
     4  N   -3.652902
     5  C    0.612430
     6  N   -2.509479
     7  H    2.121968
     8  H    1.533180
     9  H    1.493293
    10  H    1.176258
    11  H    1.233211
    12  H    1.379244
    13  H    0.734085
    14  H    0.666069
 Sum of Mulliken charges =  -0.00000

 Dipole moment (field-independent basis, Debye):
    X=             -2.2619    Y=             -0.0451    Z=              0.2543  Tot=              2.2766

 Test job not archived.
 1\1\GINC-SE116\SP\RHF\Aug-CC-pVDZ\C4H8N2\OHZDE\09-Apr-2025\0\\#t hf au
 g-cc-pvdz iop(5/13=1,5/36=2,99/5=2) pseudo=read geom=check guess=(read
 ,tcheck) scf=(maxcycle=1)\\title\\0,1\C,0,-0.49969765,1.0776741,-1.026
 08274\C,0,0.23732147,0.01864648,-0.66724597\C,0,1.63456624,0.14684678,
 -0.13917365\N,0,-0.20618193,-1.28537655,-0.76539679\C,0,-1.47222673,-0
 .0697749,2.12910067\N,0,-1.70398355,-0.76807255,3.00592569\H,0,-1.2375
 212,0.56655808,1.29008704\H,0,-1.5048564,0.96523064,-1.41670271\H,0,-0
 .0764316,2.07138579,-1.00725771\H,0,2.32790084,-0.42407692,-0.76030817

 Normal termination of Gaussian 16 at Wed Apr  9 03:21:12 2025.
