 Gaussian 16, Revision C.01,

 ----------------------------------------------------------------------
 #t hf aug-cc-pvdz symm=none int=(grid=ultrafine) guess=(read,tcheck) s
 table=(opt,rrhf)
 ----------------------------------------------------------------------
 -----
 title
 -----
 Symbolic Z-matrix:
 Charge =  0 Multiplicity = 1

 SCF Done:  E(RHF) =  -269.843864857     A.U. after   16 cycles

 1\1\GINC-SE219\Stability\RHF\Aug-CC-pVDZ\C5H10O1\OHZDE\09-Apr-2025\0\\
 #t hf aug-cc-pvdz symm=none int=(grid=ultrafine) guess=(read,tcheck) s
 table=(opt,rrhf)\\title\\0,1\O,0,2.40113104,-0.49852789,1.17370595\C,0
 ,1.45184678,0.26988739,0.44897617\C,0,0.8209001,-0.48768998,-0.6319111
 6\C,0,-0.59885597,-0.72671697,-0.91714874\C,0,-1.43564525,-0.04460342,
 0.17189316\C,0,-1.01012071,1.35309188,0.11036431\H,0,1.97034132,-1.311
 02116,1.44842173\H,0,0.63803877,0.73953702,1.06081805\H,0,2.01096881,1
 .14259703,0.10585397\H,0,1.52296425,-1.14238529,-1.15000711\H,0,-0.811

 Normal termination of Gaussian 16 at Wed Apr  9 17:45:56 2025.
 Gaussian 16:  ES64L-G16RevC.01  3-Jul-2019

 ----------------------------------------------------------------------
 #t hf aug-cc-pvdz iop(5/13=1,5/36=2,99/5=2) pseudo=read geom=check gue
 ss=(read,tcheck) scf=(maxcycle=1)
 ----------------------------------------------------------------------
 -----
 title
 -----
 Structure from the checkpoint file:  "Grambow2020_wb97xd3_006156_forward_mol1.chk"
 Charge =  0 Multiplicity = 1

                         Standard orientation:
 ---------------------------------------------------------------------
 Center     Atomic      Atomic             Coordinates (Angstroms)
 Number     Number       Type             X           Y           Z
 ---------------------------------------------------------------------
      1          8           0       -2.399372   -0.204083    0.354762
      2          6           0       -1.156073   -0.424709   -0.295136
      3          6           0       -0.388829    0.807617   -0.476911
      4          6           0        0.983264    1.136963   -0.073063
      5          6           0        1.577989   -0.071216    0.660500
      6          6           0        1.453335   -1.159623   -0.308129
      7          1           0       -2.224106    0.284932    1.161818
      8          1           0       -0.483329   -1.181152    0.186959
      9          1           0       -1.420892   -0.919765   -1.231492
     10          1           0       -1.017916    1.656911   -0.746898
     11          1           0        1.035163    2.093442    0.466307
     12          1           0        1.644787    1.258937   -0.946472
     13          1           0        2.604807    0.179018    0.953081
     14          1           0        1.031555   -0.292962    1.584906
     15          1           0        1.404552   -2.194779    0.010843
     16          1           0        1.802242   -0.986113   -1.320709
 ---------------------------------------------------------------------

 SCF Done:  E(RHF) =  -271.147783618     A.U. after    2 cycles

 The electronic state is 1-A.
 Alpha  occ. eigenvalues --  -21.06116 -11.46729 -11.43858 -11.42005 -11.39609
 Alpha  occ. eigenvalues --  -11.37242  -1.70588  -1.27906  -1.07387  -0.98949
 Alpha  occ. eigenvalues --   -0.85888  -0.79721  -0.68499  -0.65712  -0.60321
 Alpha  occ. eigenvalues --   -0.56798  -0.54338  -0.53459  -0.50522  -0.48928
 Alpha  occ. eigenvalues --   -0.44727  -0.41328  -0.31942  -0.20588
 Alpha virt. eigenvalues --    0.03100   0.04045   0.05273   0.05448   0.05691
 Alpha virt. eigenvalues --    0.05915   0.06103   0.06583   0.06744   0.07489
 Alpha virt. eigenvalues --    0.09382   0.12947   0.13589   0.13819   0.14187

 Mulliken charges:
               1
     1  O   -2.887788
     2  C   -1.026474
     3  C   -0.548961
     4  C   -2.569338
     5  C   -3.221631
     6  C   -2.892185
     7  H    0.825704
     8  H    1.850123
     9  H    1.335167
    10  H    1.247182
    11  H    1.287249
    12  H    1.338557
    13  H    1.261639
    14  H    1.380303
    15  H    1.309760
    16  H    1.310691
 Sum of Mulliken charges =   0.00000

 Dipole moment (field-independent basis, Debye):
    X=              0.6520    Y=              0.5020    Z=              0.5830  Tot=              1.0085

 Test job not archived.
 1\1\GINC-SE219\SP\RHF\Aug-CC-pVDZ\C5H10O1\OHZDE\09-Apr-2025\0\\#t hf a
 ug-cc-pvdz iop(5/13=1,5/36=2,99/5=2) pseudo=read geom=check guess=(rea
 d,tcheck) scf=(maxcycle=1)\\title\\0,1\O,0,2.40113104,-0.49852789,1.17
 370595\C,0,1.45184678,0.26988739,0.44897617\C,0,0.8209001,-0.48768998,
 -0.63191116\C,0,-0.59885597,-0.72671697,-0.91714874\C,0,-1.43564525,-0
 .04460342,0.17189316\C,0,-1.01012071,1.35309188,0.11036431\H,0,1.97034
 132,-1.31102116,1.44842173\H,0,0.63803877,0.73953702,1.06081805\H,0,2.
 01096881,1.14259703,0.10585397\H,0,1.52296425,-1.14238529,-1.15000711\

 Normal termination of Gaussian 16 at Wed Apr  9 17:46:01 2025.
