 Gaussian 16, Revision C.01,

 ----------------------------------------------------------------------
 #t hf aug-cc-pvdz symm=none int=(grid=ultrafine) guess=(read,tcheck) s
 table=(opt,rrhf)
 ----------------------------------------------------------------------
 -----
 title
 -----
 Symbolic Z-matrix:
 Charge =  0 Multiplicity = 1

 SCF Done:  E(RHF) =  -305.731517674     A.U. after   15 cycles
 Normal termination of Gaussian 16 at Wed Apr  9 17:43:44 2025.
 Gaussian 16:  ES64L-G16RevC.01  3-Jul-2019

 ----------------------------------------------------------------------
 #t hf aug-cc-pvdz iop(5/13=1,5/36=2,99/5=2) pseudo=read geom=check gue
 ss=(read,tcheck) scf=(maxcycle=1)
 ----------------------------------------------------------------------
 -----
 title
 -----
 Structure from the checkpoint file:  "Grambow2020_wb97xd3_006137_reverse_mol2.chk"
 Charge =  0 Multiplicity = 1

                         Standard orientation:
 ---------------------------------------------------------------------
 Center     Atomic      Atomic             Coordinates (Angstroms)
 Number     Number       Type             X           Y           Z
 ---------------------------------------------------------------------
      1          8           0       -2.241280   -0.421645   -0.085084
      2          6           0       -1.211028    0.543365    0.019738
      3          6           0        0.012766   -0.153938    0.556130
      4          6           0        0.776644   -1.102547   -0.365996
      5          8           0        1.918023   -0.210111   -0.216671
      6          6           0        1.307008    0.668019    0.557570
      7          1           0       -3.018911   -0.008108   -0.462475
      8          1           0       -1.485786    1.356662    0.701404
      9          1           0       -0.989902    0.987970   -0.959507
     10          1           0       -0.195983   -0.565815    1.546549
     11          1           0        1.011538   -2.100567    0.001543
     12          1           0        0.452862   -1.143767   -1.405957
     13          1           0        0.592782    3.636030   -1.048876
     14          1           0        0.907126    3.162252   -0.563290
 ---------------------------------------------------------------------

 SCF Done:  E(RHF) =  -307.117710929     A.U. after    2 cycles

 The electronic state is 1-A.
 Alpha  occ. eigenvalues --  -21.11043 -21.08500 -11.47253 -11.45301 -11.42963
 Alpha  occ. eigenvalues --  -11.38079  -1.84543  -1.72600  -1.17437  -0.99536
 Alpha  occ. eigenvalues --   -0.92639  -0.74406  -0.68936  -0.65294  -0.63551
 Alpha  occ. eigenvalues --   -0.60957  -0.59555  -0.53474  -0.51175  -0.43117
 Alpha  occ. eigenvalues --   -0.41723  -0.38894  -0.33742  -0.31472
 Alpha virt. eigenvalues --    0.03641   0.04989   0.05200   0.05652   0.06038
 Alpha virt. eigenvalues --    0.06326   0.08080   0.09498   0.10770   0.11175
 Alpha virt. eigenvalues --    0.12554   0.13278   0.13763   0.14258   0.14820

 Mulliken charges:
               1
     1  O   -2.666162
     2  C   -1.036051
     3  C   -1.339561
     4  C   -1.356536
     5  O   -2.231864
     6  C    0.642896
     7  H    0.797785
     8  H    1.370088
     9  H    1.492767
    10  H    1.397238
    11  H    1.487966
    12  H    1.510483
    13  H    0.131453
    14  H   -0.200502
 Sum of Mulliken charges =  -0.00000

 Dipole moment (field-independent basis, Debye):
    X=             -1.6720    Y=             -2.1830    Z=             -1.3521  Tot=              3.0642

 Test job not archived.
 1\1\GINC-SE112\SP\RHF\Aug-CC-pVDZ\C4H8O2\OHZDE\09-Apr-2025\0\\#t hf au
 g-cc-pvdz iop(5/13=1,5/36=2,99/5=2) pseudo=read geom=check guess=(read
 ,tcheck) scf=(maxcycle=1)\\title\\0,1\O,0,2.06101029,0.7475017,0.06881
 397\C,0,0.95651261,-0.02563368,0.50008894\C,0,-0.29321426,0.76646902,0
 .21308022\C,0,-0.75329234,0.9060198,-1.2369332\O,0,-1.9695751,0.209597
 45,-0.8405271\C,0,-1.61956593,0.02560422,0.4194492\H,0,2.86563942,0.24
 544183,0.20539462\H,0,1.00555687,-0.23783906,1.57441455\H,0,0.92076002
 ,-0.98678575,-0.02944048\H,0,-0.27467406,1.70759325,0.7681391\H,0,-0.9

 Normal termination of Gaussian 16 at Wed Apr  9 17:43:47 2025.
