 Gaussian 16, Revision C.01,

 ----------------------------------------------------------------------
 #t hf aug-cc-pvdz symm=none int=(grid=ultrafine) guess=(read,tcheck) s
 table=(opt,rrhf)
 ----------------------------------------------------------------------
 -----
 title
 -----
 Symbolic Z-matrix:
 Charge =  0 Multiplicity = 1

 SCF Done:  E(RHF) =  -322.568469454     A.U. after   17 cycles
 Normal termination of Gaussian 16 at Wed Apr  9 18:22:24 2025.
 Gaussian 16:  ES64L-G16RevC.01  3-Jul-2019

 ----------------------------------------------------------------------
 #t hf aug-cc-pvdz iop(5/13=1,5/36=2,99/5=2) pseudo=read geom=check gue
 ss=(read,tcheck) scf=(maxcycle=1)
 ----------------------------------------------------------------------
 -----
 title
 -----
 Structure from the checkpoint file:  "Grambow2020_wb97xd3_006942_forward_mol1.chk"
 Charge =  0 Multiplicity = 1

                         Standard orientation:
 ---------------------------------------------------------------------
 Center     Atomic      Atomic             Coordinates (Angstroms)
 Number     Number       Type             X           Y           Z
 ---------------------------------------------------------------------
      1          8           0        1.973473   -0.403973   -0.948512
      2          6           0        1.606740   -0.647257    0.175426
      3          7           0        0.784048    0.148407    0.906993
      4          6           0        0.147128    1.297087    0.323889
      5          6           0       -1.082253    0.958439   -0.485360
      6          6           0       -1.765790   -0.222655   -0.332185
      7          6           0       -2.030970   -1.364960    0.232993
      8          1           0        1.930748   -1.544278    0.731014
      9          1           0        0.427277   -0.216777    1.772919
     10          1           0        0.859659    1.779199   -0.349804
     11          1           0       -0.091577    2.014968    1.112219
     12          1           0       -2.588782    0.603754   -0.168277
     13          1           0       -1.453106    1.713790   -1.168819
     14          1           0       -1.609473   -2.281632   -0.178688
 ---------------------------------------------------------------------

 SCF Done:  E(RHF) =  -324.038543032     A.U. after    2 cycles

 The electronic state is 1-A.
 Alpha  occ. eigenvalues --  -21.04075 -15.77972 -11.49712 -11.49088 -11.44835
 Alpha  occ. eigenvalues --  -11.41652 -11.38297  -1.71633  -1.42732  -1.24165
 Alpha  occ. eigenvalues --   -1.07330  -0.95543  -0.84092  -0.75769  -0.73036
 Alpha  occ. eigenvalues --   -0.68815  -0.60231  -0.59274  -0.56309  -0.52695
 Alpha  occ. eigenvalues --   -0.50923  -0.49708  -0.38277  -0.33069  -0.30667
 Alpha  occ. eigenvalues --   -0.28888
 Alpha virt. eigenvalues --    0.02671   0.04585   0.05199   0.05660   0.06018
 Alpha virt. eigenvalues --    0.06471   0.06970   0.08030   0.09514   0.10402
 Alpha virt. eigenvalues --    0.11849   0.11930   0.12281   0.12832   0.13783

 Mulliken charges:
               1
     1  O   -2.652935
     2  C    1.946381
     3  N   -2.144109
     4  C   -3.429688
     5  C   -1.213524
     6  C    2.473092
     7  C   -3.627417
     8  H    1.615128
     9  H    0.722859
    10  H    1.341235
    11  H    1.123942
    12  H    1.288233
    13  H    1.463111
    14  H    1.093692
 Sum of Mulliken charges =  -0.00000

 Dipole moment (field-independent basis, Debye):
    X=              0.8425    Y=              2.7800    Z=              0.6040  Tot=              2.9670

 Test job not archived.
 1\1\GINC-SE115\SP\RHF\Aug-CC-pVDZ\C5H7N1O1\OHZDE\09-Apr-2025\0\\#t hf
 aug-cc-pvdz iop(5/13=1,5/36=2,99/5=2) pseudo=read geom=check guess=(re
 ad,tcheck) scf=(maxcycle=1)\\title\\0,1\O,0,-2.08067575,0.38770584,-1.
 04793145\C,0,-1.69587552,0.96512807,-0.06029354\N,0,-0.99538222,0.3844
 6355,0.94828478\C,0,-0.51325221,-0.96491482,0.83932734\C,0,0.75867388,
 -1.08714757,0.03421343\C,0,1.59359664,-0.0213314,-0.19515046\C,0,2.004
 60818,1.20521759,-0.04936355\H,0,-1.90160985,2.03300325,0.12844371\H,0
 ,-0.60141213,0.98510717,1.65148393\H,0,-1.27742082,-1.56255131,0.33646

 Normal termination of Gaussian 16 at Wed Apr  9 18:22:28 2025.
