 Gaussian 16, Revision C.01,

 ----------------------------------------------------------------------
 #t hf aug-cc-pvdz symm=none int=(grid=ultrafine) guess=(read,tcheck) s
 table=(opt,rrhf)
 ----------------------------------------------------------------------
 -----
 title
 -----
 Symbolic Z-matrix:
 Charge =  0 Multiplicity = 1

 SCF Done:  E(RHF) =  -306.565940021     A.U. after   18 cycles
 Normal termination of Gaussian 16 at Wed Apr  9 18:35:35 2025.
 Gaussian 16:  ES64L-G16RevC.01  3-Jul-2019

 ----------------------------------------------------------------------
 #t hf aug-cc-pvdz iop(5/13=1,5/36=2,99/5=2) pseudo=read geom=check gue
 ss=(read,tcheck) scf=(maxcycle=1)
 ----------------------------------------------------------------------
 -----
 title
 -----
 Structure from the checkpoint file:  "Grambow2020_wb97xd3_007298_forward_mol1.chk"
 Charge =  0 Multiplicity = 1

                         Standard orientation:
 ---------------------------------------------------------------------
 Center     Atomic      Atomic             Coordinates (Angstroms)
 Number     Number       Type             X           Y           Z
 ---------------------------------------------------------------------
      1          6           0       -2.798202   -0.473780    0.316994
      2          6           0       -1.407613   -0.815312   -0.189641
      3          6           0       -0.472707    0.381420   -0.195459
      4          8           0       -0.828186    1.503766    0.109161
      5          6           0        0.863972    0.114114   -0.643465
      6          6           0        2.023969    0.015700   -0.109159
      7          6           0        3.261987   -0.445199    0.270336
      8          1           0       -2.762405   -0.092386    1.337542
      9          1           0       -3.436257   -1.358435    0.299875
     10          1           0       -3.257760    0.296907   -0.301352
     11          1           0       -1.444825   -1.209877   -1.209420
     12          1           0       -0.943605   -1.601656    0.415541
     13          1           0        4.022320    0.251670    0.597393
     14          1           0        2.149742    0.528863    0.931329
     15          1           0        3.469829   -1.506870    0.358165
 ---------------------------------------------------------------------

 SCF Done:  E(RHF) =  -307.995609610     A.U. after    2 cycles

 The electronic state is 1-A.
 Alpha  occ. eigenvalues --  -21.02617 -11.50384 -11.48505 -11.44917 -11.41005
 Alpha  occ. eigenvalues --  -11.40825 -11.35963  -1.69186  -1.25860  -1.17865
 Alpha  occ. eigenvalues --   -1.04494  -0.93577  -0.81909  -0.71828  -0.67026
 Alpha  occ. eigenvalues --   -0.63263  -0.62870  -0.56699  -0.53407  -0.50738
 Alpha  occ. eigenvalues --   -0.49477  -0.46708  -0.43515  -0.37983  -0.29407
 Alpha  occ. eigenvalues --   -0.25735
 Alpha virt. eigenvalues --    0.01307   0.04555   0.04667   0.05083   0.06155
 Alpha virt. eigenvalues --    0.06423   0.06792   0.07469   0.07728   0.09588
 Alpha virt. eigenvalues --    0.10815   0.11423   0.12403   0.13080   0.13696

 Mulliken charges:
               1
     1  C   -3.470740
     2  C   -4.376178
     3  C    4.196178
     4  O   -3.316087
     5  C   -1.533250
     6  C    2.352511
     7  C   -4.329835
     8  H    1.288566
     9  H    1.058783
    10  H    1.274605
    11  H    1.481769
    12  H    1.477588
    13  H    1.356739
    14  H    1.302574
    15  H    1.236778
 Sum of Mulliken charges =   0.00000

 Dipole moment (field-independent basis, Debye):
    X=              2.4532    Y=             -1.8565    Z=              1.8260  Tot=              3.5775

 Test job not archived.
 1\1\GINC-SE220\SP\RHF\Aug-CC-pVDZ\C6H8O1\OHZDE\09-Apr-2025\0\\#t hf au
 g-cc-pvdz iop(5/13=1,5/36=2,99/5=2) pseudo=read geom=check guess=(read
 ,tcheck) scf=(maxcycle=1)\\title\\0,1\C,0,-2.64628226,-0.33680059,0.61
 116298\C,0,-1.38127776,-0.21376987,-0.22051598\C,0,-0.35336821,0.71288
 711,0.40475064\O,0,-0.55791479,1.33887007,1.42706442\C,0,0.87379203,0.
 85085761,-0.32594354\C,0,2.08586992,0.45782927,-0.1949593\C,0,3.319511
 1,-0.10103973,-0.42932542\H,0,-2.42731491,-0.72790792,1.60481735\H,0,-
 3.35701142,-1.00598904,0.12426212\H,0,-3.1201033,0.63569118,0.74252912

 Normal termination of Gaussian 16 at Wed Apr  9 18:35:40 2025.
