 Gaussian 16, Revision C.01,

 ----------------------------------------------------------------------
 #t hf aug-cc-pvdz symm=none int=(grid=ultrafine) guess=(read,tcheck) s
 table=(opt,rrhf)
 ----------------------------------------------------------------------
 -----
 title
 -----
 Symbolic Z-matrix:
 Charge =  0 Multiplicity = 1

 SCF Done:  E(RHF) =  -307.853929735     A.U. after   13 cycles

 1\1\GINC-SE362\Stability\RHF\Aug-CC-pVDZ\C6H10O1\OHZDE\09-Apr-2025\0\\
 #t hf aug-cc-pvdz symm=none int=(grid=ultrafine) guess=(read,tcheck) s
 table=(opt,rrhf)\\title\\0,1\C,0,1.80459163,-0.55507443,-0.22013399\C,
 0,0.77313448,0.33671978,0.43986983\C,0,0.04404087,1.39558648,-0.435840
 43\C,0,-1.30900242,0.83786663,0.03020177\O,0,-1.85203215,-0.13167499,-
 0.87634463\C,0,-1.26312104,-1.21497224,-0.13448578\C,0,-0.59728101,-0.
 25712856,0.85470851\H,0,2.12571402,-1.3560709,0.45023218\H,0,2.6885355
 9,0.02253945,-0.49947448\H,0,1.41439621,-1.01294667,-1.13173698\H,0,1.

 Normal termination of Gaussian 16 at Wed Apr  9 19:15:04 2025.
 Gaussian 16:  ES64L-G16RevC.01  3-Jul-2019

 ----------------------------------------------------------------------
 #t hf aug-cc-pvdz iop(5/13=1,5/36=2,99/5=2) pseudo=read geom=check gue
 ss=(read,tcheck) scf=(maxcycle=1)
 ----------------------------------------------------------------------
 -----
 title
 -----
 Structure from the checkpoint file:  "Grambow2020_wb97xd3_008492_forward_mol2.chk"
 Charge =  0 Multiplicity = 1

                         Standard orientation:
 ---------------------------------------------------------------------
 Center     Atomic      Atomic             Coordinates (Angstroms)
 Number     Number       Type             X           Y           Z
 ---------------------------------------------------------------------
      1          6           0        2.054223   -0.635215   -0.371067
      2          6           0        1.112355    0.243879    0.425730
      3          6           0        0.345836    1.372304   -0.321767
      4          6           0       -0.979822    0.825263    0.228097
      5          8           0       -1.629434   -0.073675   -0.681097
      6          6           0       -1.014736   -1.214714   -0.055893
      7          6           0       -0.236147   -0.335706    0.924136
      8          1           0        2.405296   -1.482985    0.222347
      9          1           0        2.929334   -0.066519   -0.693233
     10          1           0        1.572958   -1.027461   -1.269647
     11          1           0        1.649074    0.661869    1.280283
     12          1           0        0.599353    2.382995   -0.000252
     13          1           0        0.391981    1.322896   -1.410803
     14          1           0       -1.678689    1.510885    0.708837
     15          1           0       -0.436142   -1.815375   -0.763410
     16          1           0       -1.766172   -1.852511    0.418640
     17          1           0       -0.321776   -0.579260    1.980589
 ---------------------------------------------------------------------

 SCF Done:  E(RHF) =  -309.329583973     A.U. after    2 cycles

 The electronic state is 1-A.
 Alpha  occ. eigenvalues --  -21.02706 -11.54707 -11.44125 -11.41140 -11.39266
 Alpha  occ. eigenvalues --  -11.38303 -11.34565  -1.76958  -1.29402  -1.06334
 Alpha  occ. eigenvalues --   -1.04474  -0.90921  -0.86390  -0.73780  -0.71460
 Alpha  occ. eigenvalues --   -0.63653  -0.60586  -0.58209  -0.56291  -0.55667
 Alpha  occ. eigenvalues --   -0.48747  -0.47792  -0.43418  -0.41710  -0.37747
 Alpha  occ. eigenvalues --   -0.33153  -0.27831
 Alpha virt. eigenvalues --    0.03915   0.04737   0.05025   0.05326   0.05517
 Alpha virt. eigenvalues --    0.05915   0.06592   0.06823   0.07717   0.09375
 Alpha virt. eigenvalues --    0.11553   0.12177   0.12591   0.13901   0.14179

 Mulliken charges:
               1
     1  C   -4.503876
     2  C   -0.619690
     3  C   -3.247363
     4  C    1.290399
     5  O   -3.003379
     6  C   -1.188894
     7  C   -2.426787
     8  H    1.226903
     9  H    1.169587
    10  H    1.373310
    11  H    1.363029
    12  H    1.333567
    13  H    1.456306
    14  H    1.578199
    15  H    1.503811
    16  H    1.434427
    17  H    1.260452
 Sum of Mulliken charges =   0.00000

 Dipole moment (field-independent basis, Debye):
    X=              0.6477    Y=             -0.0025    Z=              0.7836  Tot=              1.0166

 Test job not archived.
 1\1\GINC-SE362\SP\RHF\Aug-CC-pVDZ\C6H10O1\OHZDE\09-Apr-2025\0\\#t hf a
 ug-cc-pvdz iop(5/13=1,5/36=2,99/5=2) pseudo=read geom=check guess=(rea
 d,tcheck) scf=(maxcycle=1)\\title\\0,1\C,0,1.80459163,-0.55507443,-0.2
 2013399\C,0,0.77313448,0.33671978,0.43986983\C,0,0.04404087,1.39558648
 ,-0.43584043\C,0,-1.30900242,0.83786663,0.03020177\O,0,-1.85203215,-0.
 13167499,-0.87634463\C,0,-1.26312104,-1.21497224,-0.13448578\C,0,-0.59
 728101,-0.25712856,0.85470851\H,0,2.12571402,-1.3560709,0.45023218\H,0
 ,2.68853559,0.02253945,-0.49947448\H,0,1.41439621,-1.01294667,-1.13173

 Normal termination of Gaussian 16 at Wed Apr  9 19:15:09 2025.
