 Gaussian 16, Revision C.01,

 ----------------------------------------------------------------------
 #t hf aug-cc-pvdz symm=none int=(grid=ultrafine) guess=(read,tcheck) s
 table=(opt,rrhf)
 ----------------------------------------------------------------------
 -----
 title
 -----
 Symbolic Z-matrix:
 Charge =  0 Multiplicity = 1

 SCF Done:  E(RHF) =  -394.324016762     A.U. after   17 cycles
 Normal termination of Gaussian 16 at Wed Apr  9 18:30:05 2025.
 Gaussian 16:  ES64L-G16RevC.01  3-Jul-2019

 ----------------------------------------------------------------------
 #t hf aug-cc-pvdz iop(5/13=1,5/36=2,99/5=2) pseudo=read geom=check gue
 ss=(read,tcheck) scf=(maxcycle=1)
 ----------------------------------------------------------------------
 -----
 title
 -----
 Structure from the checkpoint file:  "Grambow2020_wb97xd3_007204_forward_mol1.chk"
 Charge =  0 Multiplicity = 1

                         Standard orientation:
 ---------------------------------------------------------------------
 Center     Atomic      Atomic             Coordinates (Angstroms)
 Number     Number       Type             X           Y           Z
 ---------------------------------------------------------------------
      1          7           0       -1.122473    1.571663   -0.382249
      2          6           0       -0.371394    0.782126    0.135018
      3          8           0        1.141517    0.930954    0.335762
      4          6           0        1.727781   -0.138121   -0.101807
      5          8           0        1.132726   -1.167859   -0.400851
      6          6           0       -0.728197   -0.600326    0.483842
      7          8           0       -1.809717   -0.990694   -0.055243
      8          1           0       -2.098216   -0.177400   -0.571879
      9          1           0        2.817016   -0.054366   -0.184091
     10          1           0       -0.346832   -1.211149    1.292043
 ---------------------------------------------------------------------

 SCF Done:  E(RHF) =  -395.981549433     A.U. after    2 cycles

 The electronic state is 1-A.
 Alpha  occ. eigenvalues --  -21.18782 -21.11924 -21.08939 -15.71307 -11.57671
 Alpha  occ. eigenvalues --  -11.53676 -11.45599  -1.89789  -1.85045  -1.69021
 Alpha  occ. eigenvalues --   -1.29325  -1.04480  -0.89606  -0.82848  -0.70852
 Alpha  occ. eigenvalues --   -0.68353  -0.65566  -0.60005  -0.57361  -0.53202
 Alpha  occ. eigenvalues --   -0.47936  -0.45096  -0.41700  -0.35286  -0.34304
 Alpha  occ. eigenvalues --   -0.29597
 Alpha virt. eigenvalues --    0.03012   0.04386   0.06413   0.07592   0.08945
 Alpha virt. eigenvalues --    0.09598   0.10341   0.10666   0.10942   0.12123
 Alpha virt. eigenvalues --    0.13436   0.14035   0.14509   0.15592   0.16403

 Mulliken charges:
               1
     1  N   -2.795537
     2  C    3.395941
     3  O   -2.850172
     4  C    2.459213
     5  O   -2.382507
     6  C    1.254971
     7  O   -3.142281
     8  H    0.824316
     9  H    1.745357
    10  H    1.490700
 Sum of Mulliken charges =  -0.00000

 Dipole moment (field-independent basis, Debye):
    X=              1.0700    Y=             -3.9075    Z=              1.4317  Tot=              4.2969

 Test job not archived.
 1\1\GINC-SE340\SP\RHF\Aug-CC-pVDZ\C3H3N1O3\OHZDE\09-Apr-2025\0\\#t hf
 aug-cc-pvdz iop(5/13=1,5/36=2,99/5=2) pseudo=read geom=check guess=(re
 ad,tcheck) scf=(maxcycle=1)\\title\\0,1\N,0,-0.47459492,1.3661396,-1.4
 9112718\C,0,-0.08245393,0.86095942,-0.46835024\O,0,1.3660408,0.7618869
 7,0.02499885\C,0,1.60993088,-0.46553569,0.35973091\O,0,0.74352246,-1.3
 2590599,0.47364485\C,0,-0.90795178,0.02962663,0.41911884\O,0,-1.996042
 54,-0.34805904,-0.115762\H,0,-1.94618939,0.0754229,-1.02667813\H,0,2.6
 6846807,-0.68261163,0.5402725\H,0,-0.83409065,-0.08902517,1.49252361\\

 Normal termination of Gaussian 16 at Wed Apr  9 18:30:08 2025.
