 Gaussian 16, Revision C.01,

 ----------------------------------------------------------------------
 #t hf aug-cc-pvdz symm=none int=(grid=ultrafine) guess=(read,tcheck) s
 table=(opt,rrhf)
 ----------------------------------------------------------------------
 -----
 title
 -----
 Symbolic Z-matrix:
 Charge =  0 Multiplicity = 1

 SCF Done:  E(RHF) =  -322.640980228     A.U. after   15 cycles
 Normal termination of Gaussian 16 at Wed Apr  9 18:18:16 2025.
 Gaussian 16:  ES64L-G16RevC.01  3-Jul-2019

 ----------------------------------------------------------------------
 #t hf aug-cc-pvdz iop(5/13=1,5/36=2,99/5=2) pseudo=read geom=check gue
 ss=(read,tcheck) scf=(maxcycle=1)
 ----------------------------------------------------------------------
 -----
 title
 -----
 Structure from the checkpoint file:  "Grambow2020_wb97xd3_006859_forward_mol1.chk"
 Charge =  0 Multiplicity = 1

                         Standard orientation:
 ---------------------------------------------------------------------
 Center     Atomic      Atomic             Coordinates (Angstroms)
 Number     Number       Type             X           Y           Z
 ---------------------------------------------------------------------
      1          6           0        2.520866   -0.412418   -0.057428
      2          6           0        1.059962   -0.173640   -0.008338
      3          6           0       -0.002119   -0.977464    0.061720
      4          6           0       -1.162861   -0.078679    0.115836
      5          7           0       -2.473978   -0.466248   -0.218784
      6          6           0       -0.686378    1.287368   -0.023091
      7          8           0        0.664350    1.147027   -0.018197
      8          1           0        2.948630    0.053291   -0.946770
      9          1           0        2.729730   -1.480500   -0.081460
     10          1           0        3.010445    0.022918    0.815407
     11          1           0       -0.006909   -2.054903    0.083004
     12          1           0       -2.879203   -1.135265    0.417419
     13          1           0       -3.078116    0.335878   -0.326641
     14          1           0       -1.098351    0.475097    1.183906
 ---------------------------------------------------------------------

 SCF Done:  E(RHF) =  -324.136579904     A.U. after    2 cycles

 The electronic state is 1-A.
 Alpha  occ. eigenvalues --  -21.10421 -15.75763 -11.48670 -11.46655 -11.41630
 Alpha  occ. eigenvalues --  -11.40899 -11.38157  -1.84373  -1.37497  -1.18191
 Alpha  occ. eigenvalues --   -1.12638  -0.99170  -0.79386  -0.76345  -0.68153
 Alpha  occ. eigenvalues --   -0.66948  -0.62938  -0.59739  -0.57516  -0.51184
 Alpha  occ. eigenvalues --   -0.49609  -0.46402  -0.41691  -0.35895  -0.34196
 Alpha  occ. eigenvalues --   -0.32813
 Alpha virt. eigenvalues --    0.03073   0.04687   0.04949   0.05731   0.06234
 Alpha virt. eigenvalues --    0.06593   0.07711   0.10279   0.10763   0.10787
 Alpha virt. eigenvalues --    0.11479   0.13093   0.13977   0.14524   0.15070

 Mulliken charges:
               1
     1  C   -4.752030
     2  C    6.314155
     3  C   -4.017664
     4  C    2.485726
     5  N   -3.221784
     6  C   -0.607947
     7  O   -3.759805
     8  H    1.142200
     9  H    1.116650
    10  H    1.089422
    11  H    1.319006
    12  H    0.500419
    13  H    0.653253
    14  H    1.738400
 Sum of Mulliken charges =  -0.00000

 Dipole moment (field-independent basis, Debye):
    X=              0.8965    Y=             -2.8889    Z=              0.9353  Tot=              3.1661

 Test job not archived.
 1\1\GINC-SE174\SP\RHF\Aug-CC-pVDZ\C5H7N1O1\OHZDE\09-Apr-2025\0\\#t hf
 aug-cc-pvdz iop(5/13=1,5/36=2,99/5=2) pseudo=read geom=check guess=(re
 ad,tcheck) scf=(maxcycle=1)\\title\\0,1\C,0,2.41480584,-0.00296573,0.0
 1151342\C,0,0.94031629,0.12894997,-0.03479396\C,0,-0.064916,-0.7434137
 9,0.05208053\C,0,-1.28713992,0.06720941,-0.03232095\N,0,-2.54657823,-0
 .44438693,-0.39741573\C,0,-0.90068879,1.44850362,-0.26705819\O,0,0.454
 08382,1.4106961,-0.18132787\H,0,2.85876617,0.41674336,-0.89266559\H,0,
 2.69923735,-1.05059796,0.09255246\H,0,2.82204841,0.53996243,0.86616364

 Normal termination of Gaussian 16 at Wed Apr  9 18:18:21 2025.
