 Gaussian 16, Revision C.01,

 ----------------------------------------------------------------------
 #t hf aug-cc-pvdz symm=none int=(grid=ultrafine) guess=(read,tcheck) s
 table=(opt,rrhf)
 ----------------------------------------------------------------------
 -----
 title
 -----
 Symbolic Z-matrix:
 Charge =  0 Multiplicity = 1

 SCF Done:  E(RHF) =  -322.537461622     A.U. after   20 cycles
 Normal termination of Gaussian 16 at Wed Apr  9 18:10:18 2025.
 Gaussian 16:  ES64L-G16RevC.01  3-Jul-2019

 ----------------------------------------------------------------------
 #t hf aug-cc-pvdz iop(5/13=1,5/36=2,99/5=2) pseudo=read geom=check gue
 ss=(read,tcheck) scf=(maxcycle=1)
 ----------------------------------------------------------------------
 -----
 title
 -----
 Structure from the checkpoint file:  "Grambow2020_wb97xd3_006624_reverse_mol1.chk"
 Charge =  0 Multiplicity = 1

                         Standard orientation:
 ---------------------------------------------------------------------
 Center     Atomic      Atomic             Coordinates (Angstroms)
 Number     Number       Type             X           Y           Z
 ---------------------------------------------------------------------
      1          8           0       -2.829937   -0.450583    0.041883
      2          6           0       -1.622390   -0.361301    0.117374
      3          6           0       -0.882729    0.861771   -0.097097
      4          6           0        0.529348    0.835032   -0.185854
      5          6           0        1.387749    0.101693    0.978200
      6          6           0        2.109910   -0.630951   -0.118918
      7          7           0        0.996979   -0.284730   -0.994692
      8          1           0       -1.010874   -1.237961    0.409911
      9          1           0       -1.458059    1.763743   -0.276813
     10          1           0        1.010076    1.795689   -0.400973
     11          1           0        0.747400   -0.530227    1.581302
     12          1           0        1.916167    0.828762    1.589201
     13          1           0        2.280651   -1.699799    0.015417
     14          1           0        3.043949   -0.159893   -0.452490
 ---------------------------------------------------------------------

 SCF Done:  E(RHF) =  -324.008724305     A.U. after    2 cycles

 The electronic state is 1-A.
 Alpha  occ. eigenvalues --  -21.04559 -15.76320 -11.50486 -11.47724 -11.46331
 Alpha  occ. eigenvalues --  -11.42416 -11.40424  -1.69347  -1.47934  -1.14885
 Alpha  occ. eigenvalues --   -1.03445  -0.96324  -0.85317  -0.76800  -0.70539
 Alpha  occ. eigenvalues --   -0.65351  -0.61967  -0.58515  -0.56129  -0.54528
 Alpha  occ. eigenvalues --   -0.49082  -0.46552  -0.44625  -0.37017  -0.28720
 Alpha  occ. eigenvalues --   -0.24389
 Alpha virt. eigenvalues --    0.00388   0.03759   0.04807   0.05047   0.05202
 Alpha virt. eigenvalues --    0.06006   0.06278   0.07399   0.09501   0.11332
 Alpha virt. eigenvalues --    0.11601   0.12622   0.12999   0.13217   0.14585

 Mulliken charges:
               1
     1  O   -2.979132
     2  C    1.521696
     3  C   -0.709971
     4  C   -0.926067
     5  C   -2.764132
     6  C   -2.086436
     7  N   -1.525647
     8  H    1.400566
     9  H    1.395383
    10  H    1.341272
    11  H    1.306292
    12  H    1.147307
    13  H    1.386292
    14  H    1.492578
 Sum of Mulliken charges =   0.00000

 Dipole moment (field-independent basis, Debye):
    X=              3.2073    Y=              1.2283    Z=              1.5617  Tot=              3.7729

 Test job not archived.
 1\1\GINC-SE114\SP\RHF\Aug-CC-pVDZ\C5H7N1O1\OHZDE\09-Apr-2025\0\\#t hf
 aug-cc-pvdz iop(5/13=1,5/36=2,99/5=2) pseudo=read geom=check guess=(re
 ad,tcheck) scf=(maxcycle=1)\\title\\0,1\O,0,2.63737313,1.90388932,0.66
 46755\C,0,1.66806164,1.18821312,0.52296273\C,0,1.11434201,0.81395541,-
 0.75857135\C,0,-0.12936455,0.14259814,-0.82947484\C,0,-0.36775825,-1.1
 9074297,0.06216929\C,0,-1.6496522,-0.55859435,0.53023689\N,0,-1.105780
 05,0.71949719,0.08734806\H,0,1.17052599,0.7345011,1.40311402\H,0,1.642
 8555,1.15066151,-1.6440992\H,0,-0.50342183,-0.05910664,-1.83924457\H,0

 Normal termination of Gaussian 16 at Wed Apr  9 18:10:22 2025.
