 Gaussian 16, Revision C.01,

 ----------------------------------------------------------------------
 #t hf aug-cc-pvdz symm=none int=(grid=ultrafine) guess=(read,tcheck) s
 table=(opt,rrhf)
 ----------------------------------------------------------------------
 -----
 title
 -----
 Symbolic Z-matrix:
 Charge =  0 Multiplicity = 1

 SCF Done:  E(RHF) =  -359.788576902     A.U. after   15 cycles
 Normal termination of Gaussian 16 at Wed Apr  9 04:05:46 2025.
 Gaussian 16:  ES64L-G16RevC.01  3-Jul-2019

 ----------------------------------------------------------------------
 #t hf aug-cc-pvdz iop(5/13=1,5/36=2,99/5=2) pseudo=read geom=check gue
 ss=(read,tcheck) scf=(maxcycle=1)
 ----------------------------------------------------------------------
 -----
 title
 -----
 Structure from the checkpoint file:  "Grambow2020_wb97xd3_009245_forward_mol2.chk"
 Charge =  0 Multiplicity = 1

                         Standard orientation:
 ---------------------------------------------------------------------
 Center     Atomic      Atomic             Coordinates (Angstroms)
 Number     Number       Type             X           Y           Z
 ---------------------------------------------------------------------
      1          6           0        0.563758    1.562689    0.525267
      2          6           0        0.230075    0.392525   -0.395959
      3          6           0        1.338921   -0.645681   -0.431372
      4          8           0        2.450255   -0.444532   -0.032579
      5          6           0       -1.061310   -0.290933    0.031106
      6          8           0       -1.053394   -1.255009    0.766423
      7          7           0       -2.208080    0.260365   -0.439677
      8          1           0        0.640515    1.217673    1.556673
      9          1           0        1.521487    1.999042    0.246058
     10          1           0       -0.203917    2.335710    0.472586
     11          1           0        0.126398    0.749649   -1.429537
     12          1           0        1.061848   -1.614169   -0.888644
     13          1           0       -2.209792    1.083760   -1.010671
     14          1           0       -3.083535   -0.109496   -0.113732
 ---------------------------------------------------------------------

 SCF Done:  E(RHF) =  -361.388932283     A.U. after    2 cycles

 The electronic state is 1-A.
 Alpha  occ. eigenvalues --  -21.06648 -21.03827 -15.79438 -11.52552 -11.48998
 Alpha  occ. eigenvalues --  -11.43701 -11.38996  -1.73425  -1.70697  -1.36741
 Alpha  occ. eigenvalues --   -1.21181  -0.98998  -0.87178  -0.77756  -0.73380
 Alpha  occ. eigenvalues --   -0.68651  -0.64646  -0.59288  -0.54567  -0.54005
 Alpha  occ. eigenvalues --   -0.50620  -0.49745  -0.47703  -0.43111  -0.33986
 Alpha  occ. eigenvalues --   -0.30915  -0.28960
 Alpha virt. eigenvalues --    0.02901   0.04555   0.04868   0.05317   0.06173
 Alpha virt. eigenvalues --    0.07338   0.07433   0.10381   0.11037   0.11723
 Alpha virt. eigenvalues --    0.12609   0.13906   0.14201   0.14305   0.15026

 Mulliken charges:
               1
     1  C   -3.680653
     2  C   -3.792686
     3  C    2.424085
     4  O   -2.889006
     5  C    6.210245
     6  O   -3.427829
     7  N   -3.267983
     8  H    1.283916
     9  H    1.264071
    10  H    1.254414
    11  H    1.720995
    12  H    1.406153
    13  H    0.739264
    14  H    0.755015
 Sum of Mulliken charges =  -0.00000

 Dipole moment (field-independent basis, Debye):
    X=             -2.0639    Y=              2.1428    Z=             -1.4530  Tot=              3.3109

 Test job not archived.
 1\1\GINC-SE054\SP\RHF\Aug-CC-pVDZ\C4H7N1O2\OHZDE\09-Apr-2025\0\\#t hf
 aug-cc-pvdz iop(5/13=1,5/36=2,99/5=2) pseudo=read geom=check guess=(re
 ad,tcheck) scf=(maxcycle=1)\\title\\0,1\C,0,-0.88733137,-1.09735746,0.
 51131053\C,0,-0.39744983,0.12801732,-0.25534254\C,0,-1.19806243,1.3747
 7078,0.08124252\O,0,-2.25717779,1.3533395,0.64014835\C,0,1.07212597,0.
 40288993,0.03095682\O,0,1.41320593,1.17616551,0.90038539\N,0,1.9629148
 8,-0.28657325,-0.72520696\H,0,-0.72901911,-0.9582125,1.58103064\H,0,-1
 .95397374,-1.24151151,0.34669359\H,0,-0.35765866,-1.99673109,0.1947095

 Normal termination of Gaussian 16 at Wed Apr  9 04:05:51 2025.
