 Gaussian 16, Revision C.01,

 ----------------------------------------------------------------------
 #t hf aug-cc-pvdz symm=none int=(grid=ultrafine) guess=(read,tcheck) s
 table=(opt,rrhf)
 ----------------------------------------------------------------------
 -----
 title
 -----
 Symbolic Z-matrix:
 Charge =  0 Multiplicity = 1

 SCF Done:  E(RHF) =  -288.044281309     A.U. after   14 cycles

 1\1\GINC-SE219\Stability\RHF\Aug-CC-pVDZ\C6H11N1\OHZDE\09-Apr-2025\0\\
 #t hf aug-cc-pvdz symm=none int=(grid=ultrafine) guess=(read,tcheck) s
 table=(opt,rrhf)\\title\\0,1\C,0,-3.20316061,0.25249217,-0.03044493\C,
 0,-1.84333091,-0.41285702,-0.2268482\C,0,-0.81028724,0.08472039,0.7511
 5853\C,0,2.63018441,-0.79169223,-0.12268879\C,0,2.56627987,0.72009926,
 -0.23672983\C,0,0.29195832,0.69254853,0.39450372\N,0,1.27094445,1.3269
 232,0.05431605\H,0,-3.9388323,-0.13854754,-0.73635236\H,0,-3.13014169,
 1.33193725,-0.17490858\H,0,-3.58189784,0.07781233,0.97928231\H,0,-1.95

 Normal termination of Gaussian 16 at Wed Apr  9 18:03:53 2025.
 Gaussian 16:  ES64L-G16RevC.01  3-Jul-2019

 ----------------------------------------------------------------------
 #t hf aug-cc-pvdz iop(5/13=1,5/36=2,99/5=2) pseudo=read geom=check gue
 ss=(read,tcheck) scf=(maxcycle=1)
 ----------------------------------------------------------------------
 -----
 title
 -----
 Structure from the checkpoint file:  "Grambow2020_wb97xd3_006566_reverse_mol2.chk"
 Charge =  0 Multiplicity = 1

                         Standard orientation:
 ---------------------------------------------------------------------
 Center     Atomic      Atomic             Coordinates (Angstroms)
 Number     Number       Type             X           Y           Z
 ---------------------------------------------------------------------
      1          6           0        3.301235   -0.124316   -0.205943
      2          6           0        1.955712    0.593782   -0.271562
      3          6           0        0.939790    0.004211    0.672667
      4          6           0       -2.499560    1.067463    0.033199
      5          6           0       -2.482930   -0.419531   -0.268751
      6          6           0       -0.190151   -0.527051    0.282030
      7          7           0       -1.197197   -1.089746   -0.099815
      8          1           0        4.025478    0.333113   -0.883187
      9          1           0        3.192599   -1.175277   -0.479954
     10          1           0        3.716218   -0.085984    0.803920
     11          1           0        2.098173    1.653228   -0.034894
     12          1           0        1.564604    0.555736   -1.290917
     13          1           0        1.152008   -0.002333    1.736530
     14          1           0       -2.209844    1.264233    1.067063
     15          1           0       -1.810166    1.610804   -0.616151
     16          1           0       -3.194065   -0.951895    0.367432
     17          1           0       -3.502406    1.468379   -0.123084
     18          1           0       -2.796801   -0.609122   -1.297887
 ---------------------------------------------------------------------

 SCF Done:  E(RHF) =  -289.480270152     A.U. after    2 cycles

 The electronic state is 1-A.
 Alpha  occ. eigenvalues --  -15.74439 -11.46341 -11.43001 -11.42184 -11.38359
 Alpha  occ. eigenvalues --  -11.36701 -11.35648  -1.40662  -1.21589  -1.11980
 Alpha  occ. eigenvalues --   -1.02885  -0.91613  -0.85946  -0.69463  -0.64447
 Alpha  occ. eigenvalues --   -0.63321  -0.61607  -0.58787  -0.56878  -0.51962
 Alpha  occ. eigenvalues --   -0.51020  -0.50001  -0.48871  -0.47534  -0.44745
 Alpha  occ. eigenvalues --   -0.39103  -0.28658
 Alpha virt. eigenvalues --    0.03482   0.05017   0.05450   0.05696   0.06038
 Alpha virt. eigenvalues --    0.06200   0.06473   0.06818   0.07175   0.07930
 Alpha virt. eigenvalues --    0.08399   0.10876   0.12015   0.12249   0.12463

 Mulliken charges:
               1
     1  C   -3.641743
     2  C   -3.500495
     3  C   -0.753483
     4  C   -3.872108
     5  C   -2.308338
     6  C    2.423475
     7  N   -3.133112
     8  H    1.173690
     9  H    1.323993
    10  H    1.257894
    11  H    1.356764
    12  H    1.424405
    13  H    1.469902
    14  H    1.335941
    15  H    1.308223
    16  H    1.518925
    17  H    1.124528
    18  H    1.491539
 Sum of Mulliken charges =  -0.00000

 Dipole moment (field-independent basis, Debye):
    X=             -0.6210    Y=              1.2416    Z=             -0.0260  Tot=              1.3884

 Test job not archived.
 1\1\GINC-SE219\SP\RHF\Aug-CC-pVDZ\C6H11N1\OHZDE\09-Apr-2025\0\\#t hf a
 ug-cc-pvdz iop(5/13=1,5/36=2,99/5=2) pseudo=read geom=check guess=(rea
 d,tcheck) scf=(maxcycle=1)\\title\\0,1\C,0,-3.20316061,0.25249217,-0.0
 3044493\C,0,-1.84333091,-0.41285702,-0.2268482\C,0,-0.81028724,0.08472
 039,0.75115853\C,0,2.63018441,-0.79169223,-0.12268879\C,0,2.56627987,0
 .72009926,-0.23672983\C,0,0.29195832,0.69254853,0.39450372\N,0,1.27094
 445,1.3269232,0.05431605\H,0,-3.9388323,-0.13854754,-0.73635236\H,0,-3
 .13014169,1.33193725,-0.17490858\H,0,-3.58189784,0.07781233,0.97928231

 Normal termination of Gaussian 16 at Wed Apr  9 18:04:00 2025.
