 Gaussian 16, Revision C.01,

 ----------------------------------------------------------------------
 #t hf aug-cc-pvdz symm=none int=(grid=ultrafine) guess=(read,tcheck) s
 table=(opt,rrhf)
 ----------------------------------------------------------------------
 -----
 title
 -----
 Symbolic Z-matrix:
 Charge =  0 Multiplicity = 1

 SCF Done:  E(RHF) =  -302.748418866     A.U. after   16 cycles
 Normal termination of Gaussian 16 at Wed Apr  9 18:23:25 2025.
 Gaussian 16:  ES64L-G16RevC.01  3-Jul-2019

 ----------------------------------------------------------------------
 #t hf aug-cc-pvdz iop(5/13=1,5/36=2,99/5=2) pseudo=read geom=check gue
 ss=(read,tcheck) scf=(maxcycle=1)
 ----------------------------------------------------------------------
 -----
 title
 -----
 Structure from the checkpoint file:  "Grambow2020_wb97xd3_006956_forward_mol1.chk"
 Charge =  0 Multiplicity = 1

                         Standard orientation:
 ---------------------------------------------------------------------
 Center     Atomic      Atomic             Coordinates (Angstroms)
 Number     Number       Type             X           Y           Z
 ---------------------------------------------------------------------
      1          6           0        0.816437   -1.149550   -1.028077
      2          6           0        0.426468   -0.121115    0.027757
      3          6           0        0.834036   -0.503761    1.437187
      4          7           0        0.900161    1.214604   -0.354001
      5          6           0       -0.429695    1.643779   -0.155904
      6          6           0       -1.161478   -0.083910   -0.074651
      7          7           0       -2.193529   -0.600622    0.021779
      8          1           0        0.419520   -2.126782   -0.755928
      9          1           0        1.906433   -1.196205   -1.075289
     10          1           0        0.425248   -0.879284   -2.008695
     11          1           0        1.905302   -0.709521    1.441176
     12          1           0        0.636858    0.306123    2.137263
     13          1           0        0.293280   -1.391523    1.764846
     14          1           0        1.096325    1.204559   -1.349415
     15          1           0       -0.544006    1.782099    0.933729
 ---------------------------------------------------------------------

 SCF Done:  E(RHF) =  -304.198817791     A.U. after    2 cycles

 The electronic state is 1-A.
 Alpha  occ. eigenvalues --  -15.76761 -15.75886 -11.53378 -11.45965 -11.43762
 Alpha  occ. eigenvalues --  -11.42689 -11.40248  -1.51697  -1.29690  -1.18059
 Alpha  occ. eigenvalues --   -1.06190  -0.95763  -0.87218  -0.73207  -0.65837
 Alpha  occ. eigenvalues --   -0.63372  -0.60289  -0.58346  -0.57545  -0.54176
 Alpha  occ. eigenvalues --   -0.51836  -0.50808  -0.47157  -0.43578  -0.39568
 Alpha  occ. eigenvalues --   -0.31561
 Alpha virt. eigenvalues --    0.03190   0.05089   0.05154   0.05300   0.05769
 Alpha virt. eigenvalues --    0.06057   0.07015   0.07318   0.08539   0.11156
 Alpha virt. eigenvalues --    0.11498   0.11833   0.12639   0.13522   0.13805

 Mulliken charges:
               1
     1  C   -3.836585
     2  C    3.548906
     3  C   -4.097583
     4  N   -3.237608
     5  C   -1.289646
     6  C    2.863453
     7  N   -2.894805
     8  H    1.132960
     9  H    1.150216
    10  H    1.076469
    11  H    1.177214
    12  H    1.191494
    13  H    1.234327
    14  H    0.779359
    15  H    1.201827
 Sum of Mulliken charges =   0.00000

 Dipole moment (field-independent basis, Debye):
    X=              4.0777    Y=             -1.0505    Z=              0.2029  Tot=              4.2157

 Test job not archived.
 1\1\GINC-SE103\SP\RHF\Aug-CC-pVDZ\C5H8N2\OHZDE\09-Apr-2025\0\\#t hf au
 g-cc-pvdz iop(5/13=1,5/36=2,99/5=2) pseudo=read geom=check guess=(read
 ,tcheck) scf=(maxcycle=1)\\title\\0,1\C,0,-0.50682561,1.3683023,-0.469
 32826\C,0,-0.00501618,-0.02232091,-0.09664624\C,0,-0.95214699,-0.79693
 64,0.79886322\N,0,0.37523978,-0.77259779,-1.29945929\C,0,1.6132636,-0.
 99503016,-0.65932487\C,0,1.34376992,0.28074999,0.6922576\N,0,1.9068692
 7,0.74453478,1.59183682\H,0,-0.74164925,1.93036204,0.43374275\H,0,-1.4
 0739792,1.25655286,-1.07676539\H,0,0.24219733,1.92190918,-1.03516248\H

 Normal termination of Gaussian 16 at Wed Apr  9 18:23:30 2025.
