 Gaussian 16, Revision C.01,

 ----------------------------------------------------------------------
 #t hf aug-cc-pvdz symm=none int=(grid=ultrafine) guess=(read,tcheck) s
 table=(opt,rrhf)
 ----------------------------------------------------------------------
 -----
 title
 -----
 Symbolic Z-matrix:
 Charge =  0 Multiplicity = 1

 SCF Done:  E(RHF) =  -343.713372071     A.U. after   14 cycles
 Normal termination of Gaussian 16 at Wed Apr  9 18:27:22 2025.
 Gaussian 16:  ES64L-G16RevC.01  3-Jul-2019

 ----------------------------------------------------------------------
 #t hf aug-cc-pvdz iop(5/13=1,5/36=2,99/5=2) pseudo=read geom=check gue
 ss=(read,tcheck) scf=(maxcycle=1)
 ----------------------------------------------------------------------
 -----
 title
 -----
 Structure from the checkpoint file:  "Grambow2020_wb97xd3_007150_reverse_mol2.chk"
 Charge =  0 Multiplicity = 1

                         Standard orientation:
 ---------------------------------------------------------------------
 Center     Atomic      Atomic             Coordinates (Angstroms)
 Number     Number       Type             X           Y           Z
 ---------------------------------------------------------------------
      1          8           0       -0.929540   -0.413514    1.333683
      2          6           0       -1.171898   -0.381692    0.012642
      3          6           0       -1.562388   -1.431750   -0.703362
      4          6           0       -0.964038    0.938497   -0.618850
      5          8           0       -0.623294    1.892111    0.037362
      6          6           0        2.360656   -0.914178    0.027906
      7          6           0        2.623498    0.369894   -0.149392
      8          1           0       -0.680662    0.488060    1.588856
      9          1           0       -1.727299   -1.315980   -1.765389
     10          1           0       -1.718597   -2.403467   -0.255243
     11          1           0       -1.136431    1.002866   -1.705580
     12          1           0        2.916958   -1.684290   -0.494515
     13          1           0        1.579909   -1.247126    0.702693
     14          1           0        2.069003    1.143147    0.370230
     15          1           0        3.404813    0.703393   -0.823079
 ---------------------------------------------------------------------

 SCF Done:  E(RHF) =  -345.257025403     A.U. after    2 cycles

 The electronic state is 1-A.
 Alpha  occ. eigenvalues --  -21.10793 -21.08431 -11.50901 -11.46140 -11.40650
 Alpha  occ. eigenvalues --  -11.40330 -11.36712  -1.79407  -1.71282  -1.16093
 Alpha  occ. eigenvalues --   -1.13320  -0.93806  -0.81817  -0.79154  -0.71680
 Alpha  occ. eigenvalues --   -0.64028  -0.62909  -0.56280  -0.56051  -0.54833
 Alpha  occ. eigenvalues --   -0.52686  -0.49233  -0.44838  -0.43278  -0.35866
 Alpha  occ. eigenvalues --   -0.32587  -0.30236
 Alpha virt. eigenvalues --    0.03507   0.04883   0.05223   0.05632   0.05829
 Alpha virt. eigenvalues --    0.07022   0.07872   0.07965   0.09168   0.10599
 Alpha virt. eigenvalues --    0.11095   0.12149   0.12491   0.13758   0.14310

 Mulliken charges:
               1
     1  O   -3.920449
     2  C    4.050524
     3  C   -3.176021
     4  C    0.288062
     5  O   -2.643911
     6  C   -2.912592
     7  C   -2.824040
     8  H    0.963489
     9  H    1.515660
    10  H    1.489965
    11  H    1.573039
    12  H    1.316077
    13  H    1.522307
    14  H    1.444767
    15  H    1.313124
 Sum of Mulliken charges =  -0.00000

 Dipole moment (field-independent basis, Debye):
    X=             -0.1763    Y=             -0.1988    Z=             -0.3871  Tot=              0.4695

 Test job not archived.
 1\1\GINC-SE229\SP\RHF\Aug-CC-pVDZ\C5H8O2\OHZDE\09-Apr-2025\0\\#t hf au
 g-cc-pvdz iop(5/13=1,5/36=2,99/5=2) pseudo=read geom=check guess=(read
 ,tcheck) scf=(maxcycle=1)\\title\\0,1\O,0,0.75056189,-1.19640821,-1.26
 157089\C,0,1.24117139,-0.8081078,-0.07269552\C,0,1.34894,-1.60121603,0
 .98896849\C,0,1.66280567,0.60741641,-0.01435867\O,0,1.57637884,1.31981
 612,-0.98447054\C,0,-2.16807888,0.20936288,0.2505322\C,0,-1.89865392,1
 .458461,-0.09082413\H,0,0.80694032,-0.42552263,-1.84675954\H,0,1.74942
 212,-1.20090546,1.90976538\H,0,1.04478785,-2.63860027,0.96120315\H,0,2

 Normal termination of Gaussian 16 at Wed Apr  9 18:27:28 2025.
