 Gaussian 16, Revision C.01,

 ----------------------------------------------------------------------
 #t hf aug-cc-pvdz symm=none int=(grid=ultrafine) guess=(read,tcheck) s
 table=(opt,rrhf)
 ----------------------------------------------------------------------
 -----
 title
 -----
 Symbolic Z-matrix:
 Charge =  0 Multiplicity = 1

 SCF Done:  E(RHF) =  -262.461684069     A.U. after   18 cycles
 Normal termination of Gaussian 16 at Wed Apr  9 17:00:58 2025.
 Gaussian 16:  ES64L-G16RevC.01  3-Jul-2019

 ----------------------------------------------------------------------
 #t hf aug-cc-pvdz iop(5/13=1,5/36=2,99/5=2) pseudo=read geom=check gue
 ss=(read,tcheck) scf=(maxcycle=1)
 ----------------------------------------------------------------------
 -----
 title
 -----
 Structure from the checkpoint file:  "Grambow2020_b97d3_006906_reverse_mol1.chk"
 Charge =  0 Multiplicity = 1

                         Standard orientation:
 ---------------------------------------------------------------------
 Center     Atomic      Atomic             Coordinates (Angstroms)
 Number     Number       Type             X           Y           Z
 ---------------------------------------------------------------------
      1          6           0        0.006643    1.416750   -0.072598
      2          6           0       -1.168254    0.695763   -0.193916
      3          7           0       -1.145362   -0.789497    0.172545
      4          7           0        0.056862   -1.315243    0.028586
      5          6           0        1.157792   -0.622571   -0.212974
      6          6           0        1.184531    0.775255    0.178079
      7          1           0       -1.406445    0.117007    0.985910
      8          1           0       -2.097958    1.000885   -0.673630
      9          1           0        2.001108   -1.186838   -0.613690
     10          1           0        2.038517    1.210949    0.701940
 ---------------------------------------------------------------------

 SCF Done:  E(RHF) =  -263.679560564     A.U. after    2 cycles

 The electronic state is 1-A.
 Alpha  occ. eigenvalues --  -15.81177 -15.80050 -11.48102 -11.47212 -11.43783
 Alpha  occ. eigenvalues --  -11.38190  -1.57641  -1.23547  -1.20505  -0.93777
 Alpha  occ. eigenvalues --   -0.89438  -0.72863  -0.68361  -0.67827  -0.61668
 Alpha  occ. eigenvalues --   -0.57648  -0.46282  -0.42598  -0.40558  -0.37323
 Alpha  occ. eigenvalues --   -0.28896
 Alpha virt. eigenvalues --    0.02704   0.05178   0.05612   0.05869   0.06458
 Alpha virt. eigenvalues --    0.08412   0.10037   0.11091   0.11712   0.12678
 Alpha virt. eigenvalues --    0.13332   0.14068   0.14323   0.14851   0.15636

 Mulliken charges:
               1
     1  C    0.012160
     2  C   -1.425980
     3  N   -1.641292
     4  N   -1.709691
     5  C   -0.457213
     6  C   -0.018054
     7  H    1.178766
     8  H    1.261912
     9  H    1.352843
    10  H    1.446548
 Sum of Mulliken charges =   0.00000

 Dipole moment (field-independent basis, Debye):
    X=              0.5914    Y=             -0.8887    Z=              0.0855  Tot=              1.0709

 Test job not archived.
 1\1\GINC-SE113\SP\RHF\Aug-CC-pVDZ\C4H4N2\OHZDE\09-Apr-2025\0\\#t hf au
 g-cc-pvdz iop(5/13=1,5/36=2,99/5=2) pseudo=read geom=check guess=(read
 ,tcheck) scf=(maxcycle=1)\\title\\0,1\C,0,0.54036381,1.08441516,0.4238
 0063\C,0,1.36664295,0.01153779,0.1389842\N,0,0.76346216,-1.1913236,-0.
 58910481\N,0,-0.53367495,-1.30139746,-0.37048428\C,0,-1.27492378,-0.38
 997672,0.23783664\C,0,-0.80707686,0.98430726,0.23364494\H,0,1.28234043
 ,-0.22135062,-1.17339475\H,0,2.37618359,-0.17526922,0.50436763\H,0,-2.
 23532702,-0.73339524,0.62493163\H,0,-1.47332334,1.81925666,0.00446116\

 Normal termination of Gaussian 16 at Wed Apr  9 17:01:01 2025.
