 Gaussian 16, Revision C.01,

 ----------------------------------------------------------------------
 #t hf aug-cc-pvdz symm=none int=(grid=ultrafine) guess=(read,tcheck) s
 table=(opt,rrhf)
 ----------------------------------------------------------------------
 -----
 title
 -----
 Symbolic Z-matrix:
 Charge =  0 Multiplicity = 1

 SCF Done:  E(RHF) =  -308.924847688     A.U. after   15 cycles

 1\1\GINC-SE112\Stability\RHF\Aug-CC-pVDZ\C6H12O1\OHZDE\09-Apr-2025\0\\
 #t hf aug-cc-pvdz symm=none int=(grid=ultrafine) guess=(read,tcheck) s
 table=(opt,rrhf)\\title\\0,1\C,0,-0.71815517,-1.68586979,-0.66791207\C
 ,0,-0.73132333,-0.16902126,-0.5074154\C,0,-1.27942015,0.29872645,0.816
 79161\C,0,0.22837714,1.98104004,0.93270566\O,0,0.51464748,1.81325081,-
 0.36746234\C,0,0.69369857,0.45082846,-0.70446478\C,0,1.79486624,-0.229
 85937,0.08910801\H,0,-1.73459829,-2.08121465,-0.681575\H,0,-0.23359446
 ,-1.98311375,-1.60170334\H,0,-0.18703164,-2.16933926,0.15486811\H,0,-1

 Normal termination of Gaussian 16 at Wed Apr  9 18:12:07 2025.
 Gaussian 16:  ES64L-G16RevC.01  3-Jul-2019

 ----------------------------------------------------------------------
 #t hf aug-cc-pvdz iop(5/13=1,5/36=2,99/5=2) pseudo=read geom=check gue
 ss=(read,tcheck) scf=(maxcycle=1)
 ----------------------------------------------------------------------
 -----
 title
 -----
 Structure from the checkpoint file:  "Grambow2020_wb97xd3_006742_forward_mol1.chk"
 Charge =  0 Multiplicity = 1

                         Standard orientation:
 ---------------------------------------------------------------------
 Center     Atomic      Atomic             Coordinates (Angstroms)
 Number     Number       Type             X           Y           Z
 ---------------------------------------------------------------------
      1          6           0        2.206380   -0.013543   -0.077433
      2          6           0        0.796315   -0.466588   -0.442440
      3          6           0        0.227829   -1.502555    0.493678
      4          6           0       -1.839757   -0.593869    0.365436
      5          8           0       -1.459770    0.117947   -0.706697
      6          6           0       -0.202002    0.738089   -0.518899
      7          6           0       -0.159569    1.671744    0.677827
      8          1           0        2.914693   -0.836608   -0.179885
      9          1           0        2.544277    0.798234   -0.727019
     10          1           0        2.257234    0.339051    0.954989
     11          1           0        0.817589   -0.876553   -1.454530
     12          1           0        0.740745   -1.588570    1.452984
     13          1           0        0.042635   -2.481398    0.065813
     14          1           0       -0.893246   -0.925259    1.058599
     15          1           0       -2.444822   -1.438515    0.006652
     16          1           0       -0.021093    1.307132   -1.432596
     17          1           0       -0.169704    1.139692    1.628902
     18          1           0        0.740826    2.285794    0.637332
     19          1           0       -1.026148    2.333748    0.653319
 ---------------------------------------------------------------------

 SCF Done:  E(RHF) =  -310.450082786     A.U. after    2 cycles

 The electronic state is 1-A.
 Alpha  occ. eigenvalues --  -21.06727 -11.47573 -11.43007 -11.41167 -11.39860
 Alpha  occ. eigenvalues --  -11.38597 -11.35956  -1.79947  -1.24853  -1.10371
 Alpha  occ. eigenvalues --   -1.02164  -0.96340  -0.83743  -0.79168  -0.70428
 Alpha  occ. eigenvalues --   -0.64188  -0.60798  -0.57621  -0.57431  -0.55293
 Alpha  occ. eigenvalues --   -0.54124  -0.51003  -0.47903  -0.46182  -0.45324
 Alpha  occ. eigenvalues --   -0.40500  -0.37040  -0.23073
 Alpha virt. eigenvalues --    0.03793   0.04787   0.05082   0.05230   0.05289
 Alpha virt. eigenvalues --    0.05805   0.06271   0.06796   0.07259   0.08754
 Alpha virt. eigenvalues --    0.09148   0.09858   0.11782   0.12515   0.12599

 Mulliken charges:
               1
     1  C   -3.982025
     2  C   -0.330002
     3  C   -4.111492
     4  C   -2.133022
     5  O   -3.447169
     6  C    1.492210
     7  C   -4.095744
     8  H    1.074257
     9  H    1.207607
    10  H    1.433089
    11  H    1.520812
    12  H    0.979886
    13  H    1.117637
    14  H    2.721695
    15  H    1.195875
    16  H    1.634010
    17  H    1.248249
    18  H    1.300612
    19  H    1.173516
 Sum of Mulliken charges =   0.00000

 Dipole moment (field-independent basis, Debye):
    X=              1.6692    Y=              0.0683    Z=             -1.0007  Tot=              1.9474

 Test job not archived.
 1\1\GINC-SE112\SP\RHF\Aug-CC-pVDZ\C6H12O1\OHZDE\09-Apr-2025\0\\#t hf a
 ug-cc-pvdz iop(5/13=1,5/36=2,99/5=2) pseudo=read geom=check guess=(rea
 d,tcheck) scf=(maxcycle=1)\\title\\0,1\C,0,-0.71815517,-1.68586979,-0.
 66791207\C,0,-0.73132333,-0.16902126,-0.5074154\C,0,-1.27942015,0.2987
 2645,0.81679161\C,0,0.22837714,1.98104004,0.93270566\O,0,0.51464748,1.
 81325081,-0.36746234\C,0,0.69369857,0.45082846,-0.70446478\C,0,1.79486
 624,-0.22985937,0.08910801\H,0,-1.73459829,-2.08121465,-0.681575\H,0,-
 0.23359446,-1.98311375,-1.60170334\H,0,-0.18703164,-2.16933926,0.15486

 Normal termination of Gaussian 16 at Wed Apr  9 18:12:15 2025.
