 Gaussian 16, Revision C.01,

 ----------------------------------------------------------------------
 #t hf aug-cc-pvdz symm=none int=(grid=ultrafine) guess=(read,tcheck) s
 table=(opt,rrhf)
 ----------------------------------------------------------------------
 -----
 title
 -----
 Symbolic Z-matrix:
 Charge =  0 Multiplicity = 1

 SCF Done:  E(RHF) =  -306.891304308     A.U. after   15 cycles

 1\1\GINC-SE113\Stability\RHF\Aug-CC-pVDZ\C4H10O2\OHZDE\09-Apr-2025\0\\
 #t hf aug-cc-pvdz symm=none int=(grid=ultrafine) guess=(read,tcheck) s
 table=(opt,rrhf)\\title\\0,1\C,0,1.88006037,0.82401609,-0.97650639\O,0
 ,0.56474857,0.27817968,-0.93903019\C,0,0.44275396,-0.83188277,-0.02332
 356\C,0,-1.05602545,-1.10810478,0.13906047\C,0,-1.87739453,-0.16335993
 ,0.99351204\O,0,-1.34936122,1.58074781,0.40302312\H,0,2.61061054,0.067
 33625,-1.30848942\H,0,1.8620043,1.64950749,-1.69734478\H,0,2.18636517,
 1.206583,0.01220855\H,0,0.89707249,-0.57060828,0.94840823\H,0,0.987592

 Normal termination of Gaussian 16 at Wed Apr  9 16:18:01 2025.
 Gaussian 16:  ES64L-G16RevC.01  3-Jul-2019

 ----------------------------------------------------------------------
 #t hf aug-cc-pvdz iop(5/13=1,5/36=2,99/5=2) pseudo=read geom=check gue
 ss=(read,tcheck) scf=(maxcycle=1)
 ----------------------------------------------------------------------
 -----
 title
 -----
 Structure from the checkpoint file:  "Grambow2020_b97d3_006772_forward_mol1.chk"
 Charge =  0 Multiplicity = 1

                         Standard orientation:
 ---------------------------------------------------------------------
 Center     Atomic      Atomic             Coordinates (Angstroms)
 Number     Number       Type             X           Y           Z
 ---------------------------------------------------------------------
      1          6           0        2.299731    0.394645    0.144908
      2          8           0        1.046805    0.043206   -0.434792
      3          6           0        0.396757   -1.048903    0.251047
      4          6           0       -1.041021   -1.108696   -0.276427
      5          6           0       -2.031393   -0.066190    0.202761
      6          8           0       -1.085700    1.590957    0.032648
      7          1           0        3.001952   -0.455102    0.108893
      8          1           0        2.704079    1.222916   -0.448253
      9          1           0        2.182667    0.717055    1.193757
     10          1           0        0.403724   -0.867592    1.340088
     11          1           0        0.959911   -1.977797    0.046209
     12          1           0       -0.991128   -1.160989   -1.377263
     13          1           0       -1.494826   -2.064687    0.049353
     14          1           0       -1.902954    1.327915   -0.539911
     15          1           0       -2.032674   -0.065285    1.307054
     16          1           0       -0.264037    1.225120   -0.396506
 ---------------------------------------------------------------------

 SCF Done:  E(RHF) =  -308.318198016     A.U. after    2 cycles

 The electronic state is 1-A.
 Alpha  occ. eigenvalues --  -21.08037 -21.06402 -11.45306 -11.41792 -11.40768
 Alpha  occ. eigenvalues --  -11.36867  -1.76995  -1.67661  -1.17192  -1.00802
 Alpha  occ. eigenvalues --   -0.91747  -0.81252  -0.68970  -0.63794  -0.63099
 Alpha  occ. eigenvalues --   -0.62007  -0.58222  -0.55193  -0.50090  -0.48256
 Alpha  occ. eigenvalues --   -0.46427  -0.39441  -0.37919  -0.31885  -0.28141
 Alpha virt. eigenvalues --    0.03691   0.04831   0.05169   0.05314   0.06037
 Alpha virt. eigenvalues --    0.06541   0.06769   0.07492   0.07745   0.10161
 Alpha virt. eigenvalues --    0.11880   0.12501   0.13969   0.14330   0.15058

 Mulliken charges:
               1
     1  C   -2.919238
     2  O   -2.992459
     3  C   -1.399154
     4  C   -2.731712
     5  C   -1.963426
     6  O   -2.152691
     7  H    1.325488
     8  H    1.331899
     9  H    1.408689
    10  H    1.731312
    11  H    1.439888
    12  H    1.488973
    13  H    1.365962
    14  H    1.305200
    15  H    1.308383
    16  H    1.452885
 Sum of Mulliken charges =   0.00000

 Dipole moment (field-independent basis, Debye):
    X=              3.1673    Y=             -0.0240    Z=              0.2962  Tot=              3.1812

 Test job not archived.
 1\1\GINC-SE113\SP\RHF\Aug-CC-pVDZ\C4H10O2\OHZDE\09-Apr-2025\0\\#t hf a
 ug-cc-pvdz iop(5/13=1,5/36=2,99/5=2) pseudo=read geom=check guess=(rea
 d,tcheck) scf=(maxcycle=1)\\title\\0,1\C,0,1.88006037,0.82401609,-0.97
 650639\O,0,0.56474857,0.27817968,-0.93903019\C,0,0.44275396,-0.8318827
 7,-0.02332356\C,0,-1.05602545,-1.10810478,0.13906047\C,0,-1.87739453,-
 0.16335993,0.99351204\O,0,-1.34936122,1.58074781,0.40302312\H,0,2.6106
 1054,0.06733625,-1.30848942\H,0,1.8620043,1.64950749,-1.69734478\H,0,2
 .18636517,1.206583,0.01220855\H,0,0.89707249,-0.57060828,0.94840823\H,

 Normal termination of Gaussian 16 at Wed Apr  9 16:18:06 2025.
