 Gaussian 16, Revision C.01,

 ----------------------------------------------------------------------
 #t hf aug-cc-pvdz symm=none int=(grid=ultrafine) guess=(read,tcheck) s
 table=(opt,rrhf)
 ----------------------------------------------------------------------
 -----
 title
 -----
 Symbolic Z-matrix:
 Charge =  0 Multiplicity = 1

 SCF Done:  E(RHF) =  -305.637150041     A.U. after   15 cycles
 Normal termination of Gaussian 16 at Wed Apr  9 03:15:35 2025.
 Gaussian 16:  ES64L-G16RevC.01  3-Jul-2019

 ----------------------------------------------------------------------
 #t hf aug-cc-pvdz iop(5/13=1,5/36=2,99/5=2) pseudo=read geom=check gue
 ss=(read,tcheck) scf=(maxcycle=1)
 ----------------------------------------------------------------------
 -----
 title
 -----
 Structure from the checkpoint file:  "Grambow2020_b97d3_006971_reverse_mol1.chk"
 Charge =  0 Multiplicity = 1

                         Standard orientation:
 ---------------------------------------------------------------------
 Center     Atomic      Atomic             Coordinates (Angstroms)
 Number     Number       Type             X           Y           Z
 ---------------------------------------------------------------------
      1          8           0        1.755590   -1.054651   -0.286326
      2          6           0        1.880875    0.149900    0.232785
      3          6           0        0.839804    1.124131   -0.175342
      4          6           0       -0.753516   -0.255555    0.424387
      5          6           0       -1.883128    0.590566   -0.094063
      6          8           0       -1.973480   -0.813682   -0.152253
      7          1           0        0.141903   -0.805906   -0.087319
      8          1           0        2.125331    0.243719    1.320219
      9          1           0        2.687977    0.783335   -0.288389
     10          1           0        0.692747    2.069625    0.360631
     11          1           0        0.596127    1.135676   -1.238073
     12          1           0       -0.695298   -0.328299    1.516168
     13          1           0       -1.797536    1.107770   -1.054722
     14          1           0       -2.512339    1.086489    0.653505
 ---------------------------------------------------------------------

 SCF Done:  E(RHF) =  -307.034803159     A.U. after    2 cycles

 The electronic state is 1-A.
 Alpha  occ. eigenvalues --  -21.08534 -20.95589 -11.52861 -11.49662 -11.42904
 Alpha  occ. eigenvalues --  -11.42471  -1.79015  -1.61705  -1.15093  -0.99983
 Alpha  occ. eigenvalues --   -0.92429  -0.86023  -0.71846  -0.68695  -0.66582
 Alpha  occ. eigenvalues --   -0.59976  -0.58218  -0.53383  -0.45939  -0.43313
 Alpha  occ. eigenvalues --   -0.40921  -0.32434  -0.24840  -0.24211
 Alpha virt. eigenvalues --    0.02693   0.03800   0.04289   0.04864   0.05401
 Alpha virt. eigenvalues --    0.05774   0.06738   0.08319   0.09455   0.10395
 Alpha virt. eigenvalues --    0.12016   0.12708   0.13183   0.13745   0.14076

 Mulliken charges:
               1
     1  O   -2.563000
     2  C   -0.307634
     3  C   -2.844166
     4  C   -0.714709
     5  C   -1.791446
     6  O   -2.618961
     7  H    1.581239
     8  H    1.393630
     9  H    0.912366
    10  H    1.472514
    11  H    1.391452
    12  H    1.292528
    13  H    1.382960
    14  H    1.413227
 Sum of Mulliken charges =  -0.00000

 Dipole moment (field-independent basis, Debye):
    X=             -2.1880    Y=              3.1930    Z=              0.2319  Tot=              3.8777

 Test job not archived.
 1\1\GINC-SE220\SP\RHF\Aug-CC-pVDZ\C4H8O2\OHZDE\09-Apr-2025\0\\#t hf au
 g-cc-pvdz iop(5/13=1,5/36=2,99/5=2) pseudo=read geom=check guess=(read
 ,tcheck) scf=(maxcycle=1)\\title\\0,1\O,0,2.0348548,0.87071226,0.11639
 41\C,0,1.77817563,-0.39090517,-0.16388121\C,0,0.49485186,-0.90742624,0
 .37072784\C,0,-0.60824846,0.74936065,-0.54584219\C,0,-1.93509175,0.400
 30751,0.06928689\O,0,-1.59060479,1.74999885,-0.13837183\H,0,0.41979512
 ,1.08944731,-0.10542145\H,0,1.96672435,-0.7597411,-1.20286298\H,0,2.36
 006962,-1.12762859,0.50163575\H,0,0.05794709,-1.84784385,0.01354285\H,

 Normal termination of Gaussian 16 at Wed Apr  9 03:15:40 2025.
