 Gaussian 16, Revision C.01,

 ----------------------------------------------------------------------
 #t hf aug-cc-pvdz symm=none int=(grid=ultrafine) guess=(read,tcheck) s
 table=(opt,rrhf)
 ----------------------------------------------------------------------
 -----
 title
 -----
 Symbolic Z-matrix:
 Charge =  0 Multiplicity = 1

 SCF Done:  E(RHF) =  -344.709266576     A.U. after   16 cycles

 1\1\GINC-SE090\Stability\RHF\Aug-CC-pVDZ\C5H10O2\OHZDE\09-Apr-2025\0\\
 #t hf aug-cc-pvdz symm=none int=(grid=ultrafine) guess=(read,tcheck) s
 table=(opt,rrhf)\\title\\0,1\C,0,2.31773352,-0.02001615,-0.20466543\C,
 0,1.11253796,0.50834385,0.5296395\O,0,0.03512829,0.64412894,-0.6004078
 8\C,0,-1.18825629,1.09719955,-0.03772737\C,0,-1.65551224,-0.18171633,0
 .65480983\C,0,-0.59586494,-1.06978755,0.06269824\O,0,-0.80569498,-1.74
 406045,-1.04289797\H,0,2.60019181,0.56077648,-1.09674016\H,0,2.1989084
 7,-1.0626279,-0.52945751\H,0,3.1672094,-0.00210752,0.48352218\H,0,1.30

 Normal termination of Gaussian 16 at Wed Apr  9 03:39:43 2025.
 Gaussian 16:  ES64L-G16RevC.01  3-Jul-2019

 ----------------------------------------------------------------------
 #t hf aug-cc-pvdz iop(5/13=1,5/36=2,99/5=2) pseudo=read geom=check gue
 ss=(read,tcheck) scf=(maxcycle=1)
 ----------------------------------------------------------------------
 -----
 title
 -----
 Structure from the checkpoint file:  "Grambow2020_wb97xd3_007398_reverse_mol1.chk"
 Charge =  0 Multiplicity = 1

                         Standard orientation:
 ---------------------------------------------------------------------
 Center     Atomic      Atomic             Coordinates (Angstroms)
 Number     Number       Type             X           Y           Z
 ---------------------------------------------------------------------
      1          6           0       -2.378449    0.425106    0.034485
      2          6           0       -1.315714   -0.553281    0.463691
      3          8           0       -0.275257   -0.488884   -0.706590
      4          6           0        0.822750   -1.341314   -0.412828
      5          6           0        1.533233   -0.507282    0.651675
      6          6           0        0.684793    0.721505    0.471814
      7          8           0        1.041403    1.687949   -0.340486
      8          1           0       -2.762895    0.264132   -0.984921
      9          1           0       -2.045034    1.470471    0.086387
     10          1           0       -3.221892    0.331647    0.723979
     11          1           0       -1.722532   -1.570050    0.362201
     12          1           0        1.411877   -1.467207   -1.324392
     13          1           0        0.493969   -2.321210   -0.063339
     14          1           0        1.410115   -0.889206    1.661929
     15          1           0        2.588319   -0.302090    0.453689
     16          1           0        0.018501    1.053724    1.250884
     17          1           0        1.620738    1.368869   -1.042837
 ---------------------------------------------------------------------

 SCF Done:  E(RHF) =  -346.323129421     A.U. after    2 cycles

 The electronic state is 1-A.
 Alpha  occ. eigenvalues --  -21.17070 -21.03081 -11.57184 -11.46980 -11.40714
 Alpha  occ. eigenvalues --  -11.34300 -11.29420  -1.84441  -1.72998  -1.18397
 Alpha  occ. eigenvalues --   -1.06392  -0.97265  -0.86948  -0.78445  -0.70402
 Alpha  occ. eigenvalues --   -0.69925  -0.63643  -0.61945  -0.56521  -0.53934
 Alpha  occ. eigenvalues --   -0.52042  -0.50996  -0.45731  -0.43663  -0.40964
 Alpha  occ. eigenvalues --   -0.38107  -0.31669  -0.20292
 Alpha virt. eigenvalues --    0.03193   0.04386   0.04690   0.05310   0.05629
 Alpha virt. eigenvalues --    0.06083   0.06838   0.07286   0.07775   0.09465
 Alpha virt. eigenvalues --    0.09979   0.11342   0.12597   0.13044   0.13183

 Mulliken charges:
               1
     1  C   -3.756996
     2  C   -1.303684
     3  O   -2.307927
     4  C   -1.315963
     5  C   -3.491716
     6  C    2.611846
     7  O   -3.630339
     8  H    1.283152
     9  H    1.344110
    10  H    1.221316
    11  H    1.277988
    12  H    1.294690
    13  H    1.637485
    14  H    1.380908
    15  H    1.223312
    16  H    1.740225
    17  H    0.791591
 Sum of Mulliken charges =  -0.00000

 Dipole moment (field-independent basis, Debye):
    X=              4.7527    Y=              1.3389    Z=             -1.6804  Tot=              5.2158

 Test job not archived.
 1\1\GINC-SE090\SP\RHF\Aug-CC-pVDZ\C5H10O2\OHZDE\09-Apr-2025\0\\#t hf a
 ug-cc-pvdz iop(5/13=1,5/36=2,99/5=2) pseudo=read geom=check guess=(rea
 d,tcheck) scf=(maxcycle=1)\\title\\0,1\C,0,2.31773352,-0.02001615,-0.2
 0466543\C,0,1.11253796,0.50834385,0.5296395\O,0,0.03512829,0.64412894,
 -0.60040788\C,0,-1.18825629,1.09719955,-0.03772737\C,0,-1.65551224,-0.
 18171633,0.65480983\C,0,-0.59586494,-1.06978755,0.06269824\O,0,-0.8056
 9498,-1.74406045,-1.04289797\H,0,2.60019181,0.56077648,-1.09674016\H,0
 ,2.19890847,-1.0626279,-0.52945751\H,0,3.1672094,-0.00210752,0.4835221

 Normal termination of Gaussian 16 at Wed Apr  9 03:39:49 2025.
