 Gaussian 16, Revision C.01,

 ----------------------------------------------------------------------
 #t hf aug-cc-pvdz symm=none int=(grid=ultrafine) guess=(read,tcheck) s
 table=(opt,rrhf)
 ----------------------------------------------------------------------
 -----
 title
 -----
 Symbolic Z-matrix:
 Charge =  0 Multiplicity = 1

 SCF Done:  E(RHF) =  -358.548895142     A.U. after   16 cycles
 Normal termination of Gaussian 16 at Wed Apr  9 18:11:25 2025.
 Gaussian 16:  ES64L-G16RevC.01  3-Jul-2019

 ----------------------------------------------------------------------
 #t hf aug-cc-pvdz iop(5/13=1,5/36=2,99/5=2) pseudo=read geom=check gue
 ss=(read,tcheck) scf=(maxcycle=1)
 ----------------------------------------------------------------------
 -----
 title
 -----
 Structure from the checkpoint file:  "Grambow2020_wb97xd3_006745_forward_mol2.chk"
 Charge =  0 Multiplicity = 1

                         Standard orientation:
 ---------------------------------------------------------------------
 Center     Atomic      Atomic             Coordinates (Angstroms)
 Number     Number       Type             X           Y           Z
 ---------------------------------------------------------------------
      1          8           0        1.779761   -1.271808    0.000591
      2          6           0        1.695240   -0.079136    0.007346
      3          6           0        0.374513    0.694019   -0.085570
      4          8           0        0.378919    1.883456    0.121534
      5          7           0       -0.711030   -0.036506   -0.469361
      6          6           0       -2.035418    0.107558    0.065339
      7          6           0       -1.280439   -1.173651    0.205642
      8          1           0        2.567720    0.590951    0.120469
      9          1           0       -2.831704    0.181344   -0.664743
     10          1           0       -2.140445    0.740525    0.939505
     11          1           0       -0.886195   -1.425192    1.183108
     12          1           0       -1.524977   -2.018007   -0.426357
 ---------------------------------------------------------------------

 SCF Done:  E(RHF) =  -360.103458210     A.U. after    2 cycles

 The electronic state is 1-A.
 Alpha  occ. eigenvalues --  -21.10013 -21.06846 -15.76350 -11.52852 -11.48404
 Alpha  occ. eigenvalues --  -11.48377 -11.41974  -1.76177  -1.72230  -1.50447
 Alpha  occ. eigenvalues --   -1.08612  -0.95425  -0.91618  -0.78107  -0.71825
 Alpha  occ. eigenvalues --   -0.68283  -0.59972  -0.56477  -0.54769  -0.54410
 Alpha  occ. eigenvalues --   -0.48637  -0.46204  -0.44878  -0.36813  -0.33762
 Alpha  occ. eigenvalues --   -0.28590
 Alpha virt. eigenvalues --    0.03519   0.05488   0.05669   0.06008   0.06303
 Alpha virt. eigenvalues --    0.08985   0.10033   0.10425   0.11386   0.11712
 Alpha virt. eigenvalues --    0.12497   0.13246   0.13885   0.14178   0.14916

 Mulliken charges:
               1
     1  O   -2.753886
     2  C    0.862109
     3  C    4.953718
     4  O   -3.384003
     5  N   -2.214404
     6  C   -2.145384
     7  C   -2.321038
     8  H    1.676564
     9  H    1.335771
    10  H    1.229470
    11  H    1.448240
    12  H    1.312841
 Sum of Mulliken charges =   0.00000

 Dipole moment (field-independent basis, Debye):
    X=             -1.3879    Y=             -1.1994    Z=              0.5420  Tot=              1.9127

 Test job not archived.
 1\1\GINC-SE173\SP\RHF\Aug-CC-pVDZ\C4H5N1O2\OHZDE\09-Apr-2025\0\\#t hf
 aug-cc-pvdz iop(5/13=1,5/36=2,99/5=2) pseudo=read geom=check guess=(re
 ad,tcheck) scf=(maxcycle=1)\\title\\0,1\O,0,1.71354152,1.57913571,0.71
 986953\C,0,1.99394432,0.46937741,0.37423005\C,0,0.96539062,-0.61942398
 ,0.04664743\O,0,1.34298812,-1.64091588,-0.47454935\N,0,-0.3135743,-0.3
 6119932,0.44279678\C,0,-1.49300724,-0.68395853,-0.30915073\C,0,-1.1526
 5924,0.73159443,0.02483378\H,0,3.03366569,0.12616527,0.21859953\H,0,-2
 .27748098,-1.18888421,0.24056406\H,0,-1.34224213,-1.02199654,-1.328388

 Normal termination of Gaussian 16 at Wed Apr  9 18:11:30 2025.
