 Gaussian 16, Revision C.01,

 ----------------------------------------------------------------------
 #t hf aug-cc-pvdz symm=none int=(grid=ultrafine) guess=(read,tcheck) s
 table=(opt,rrhf)
 ----------------------------------------------------------------------
 -----
 title
 -----
 Symbolic Z-matrix:
 Charge =  0 Multiplicity = 1

 SCF Done:  E(RHF) =  -268.773758238     A.U. after   15 cycles
 Normal termination of Gaussian 16 at Wed Apr  9 17:49:28 2025.
 Gaussian 16:  ES64L-G16RevC.01  3-Jul-2019

 ----------------------------------------------------------------------
 #t hf aug-cc-pvdz iop(5/13=1,5/36=2,99/5=2) pseudo=read geom=check gue
 ss=(read,tcheck) scf=(maxcycle=1)
 ----------------------------------------------------------------------
 -----
 title
 -----
 Structure from the checkpoint file:  "Grambow2020_wb97xd3_006188_reverse_mol2.chk"
 Charge =  0 Multiplicity = 1

                         Standard orientation:
 ---------------------------------------------------------------------
 Center     Atomic      Atomic             Coordinates (Angstroms)
 Number     Number       Type             X           Y           Z
 ---------------------------------------------------------------------
      1          8           0        2.393436    0.006022   -0.138419
      2          6           0        1.176455   -0.024280   -0.596153
      3          6           0       -0.903929    1.077752    0.220036
      4          6           0        0.161810   -0.023676    0.492660
      5          6           0       -0.948955   -1.072530    0.209435
      6          6           0       -1.777079    0.023979   -0.484852
      7          1           0        2.435255    0.016518    0.841159
      8          1           0       -0.580564    1.942609   -0.358117
      9          1           0       -1.340521    1.416995    1.159940
     10          1           0        0.609066   -0.036831    1.503554
     11          1           0       -0.661334   -1.942789   -0.379185
     12          1           0       -1.403471   -1.403762    1.143609
     13          1           0       -1.606891    0.025640   -1.560483
     14          1           0       -2.848833    0.045966   -0.289882
 ---------------------------------------------------------------------

 SCF Done:  E(RHF) =  -270.048984019     A.U. after    2 cycles

 The electronic state is 1-A.
 Alpha  occ. eigenvalues --  -21.13758 -11.48577 -11.42390 -11.40272 -11.38810
 Alpha  occ. eigenvalues --  -11.34691  -1.78730  -1.33952  -1.00292  -0.96250
 Alpha  occ. eigenvalues --   -0.84651  -0.76747  -0.68154  -0.67517  -0.57982
 Alpha  occ. eigenvalues --   -0.55339  -0.51251  -0.50850  -0.45679  -0.44379
 Alpha  occ. eigenvalues --   -0.40178  -0.38288  -0.32806
 Alpha virt. eigenvalues --    0.04107   0.04942   0.05345   0.05482   0.05692
 Alpha virt. eigenvalues --    0.06634   0.06934   0.08153   0.10615   0.11782
 Alpha virt. eigenvalues --    0.12586   0.12813   0.13434   0.13762   0.14673

 Mulliken charges:
               1
     1  O   -2.754299
     2  C    0.486632
     3  C   -2.491500
     4  C   -0.493568
     5  C   -2.497222
     6  C   -2.596175
     7  H    0.860023
     8  H    1.451186
     9  H    1.270804
    10  H    1.364987
    11  H    1.450036
    12  H    1.267065
    13  H    1.434540
    14  H    1.247490
 Sum of Mulliken charges =   0.00000

 Dipole moment (field-independent basis, Debye):
    X=             -0.1068    Y=              0.0533    Z=              2.4211  Tot=              2.4241

 Test job not archived.
 1\1\GINC-SE135\SP\RHF\Aug-CC-pVDZ\C5H8O1\OHZDE\09-Apr-2025\0\\#t hf au
 g-cc-pvdz iop(5/13=1,5/36=2,99/5=2) pseudo=read geom=check guess=(read
 ,tcheck) scf=(maxcycle=1)\\title\\0,1\O,0,0.70460098,1.70352976,2.0732
 5927\C,0,0.56615638,0.5372155,1.51466625\C,0,0.83468304,-0.18099558,-0
 .85613533\C,0,-0.0301111,0.62824209,0.15407882\C,0,-1.13516087,-0.4475
 3009,-0.03483838\C,0,-0.07791141,-1.39882274,-0.62426149\H,0,0.3873263
 5,2.43987028,1.50883725\H,0,1.89394875,-0.28499067,-0.62387801\H,0,0.7
 2594196,0.23416334,-1.85860031\H,0,-0.29050649,1.66215007,-0.13806078\

 Normal termination of Gaussian 16 at Wed Apr  9 17:49:32 2025.
