 Gaussian 16, Revision C.01,

 ----------------------------------------------------------------------
 #t hf aug-cc-pvdz symm=none int=(grid=ultrafine) guess=(read,tcheck) s
 table=(opt,rrhf)
 ----------------------------------------------------------------------
 -----
 title
 -----
 Symbolic Z-matrix:
 Charge =  0 Multiplicity = 1

 SCF Done:  E(RHF) =  -322.769988224     A.U. after   14 cycles
 Normal termination of Gaussian 16 at Wed Apr  9 18:55:46 2025.
 Gaussian 16:  ES64L-G16RevC.01  3-Jul-2019

 ----------------------------------------------------------------------
 #t hf aug-cc-pvdz iop(5/13=1,5/36=2,99/5=2) pseudo=read geom=check gue
 ss=(read,tcheck) scf=(maxcycle=1)
 ----------------------------------------------------------------------
 -----
 title
 -----
 Structure from the checkpoint file:  "Grambow2020_wb97xd3_007795_reverse_mol2.chk"
 Charge =  0 Multiplicity = 1

                         Standard orientation:
 ---------------------------------------------------------------------
 Center     Atomic      Atomic             Coordinates (Angstroms)
 Number     Number       Type             X           Y           Z
 ---------------------------------------------------------------------
      1          6           0       -2.444096   -0.493949   -0.080139
      2          6           0       -1.168887   -0.162025    0.021131
      3          6           0       -0.649368    1.264075    0.063945
      4          7           0        0.781486    1.091952   -0.044064
      5          6           0        1.229973   -0.191740   -0.013096
      6          8           0        2.386816   -0.537454   -0.053317
      7          6           0        0.010371   -1.094622    0.089005
      8          1           0       -2.758973   -1.529969   -0.110207
      9          1           0       -3.222193    0.258855   -0.137426
     10          1           0       -0.926016    1.756389    1.002514
     11          1           0       -1.050632    1.858405   -0.761123
     12          1           0        1.435299    1.854347   -0.062863
     13          1           0        0.062040   -1.641170    1.033508
     14          1           0        0.027578   -1.831325   -0.714496
 ---------------------------------------------------------------------

 SCF Done:  E(RHF) =  -324.251051493     A.U. after    2 cycles

 The electronic state is 1-A.
 Alpha  occ. eigenvalues --  -21.02042 -15.76237 -11.50063 -11.46786 -11.43142
 Alpha  occ. eigenvalues --  -11.40537 -11.38010  -1.70307  -1.45048  -1.20427
 Alpha  occ. eigenvalues --   -1.07381  -0.99155  -0.82059  -0.77838  -0.67024
 Alpha  occ. eigenvalues --   -0.66861  -0.61463  -0.59362  -0.57237  -0.54380
 Alpha  occ. eigenvalues --   -0.48909  -0.47970  -0.45693  -0.35204  -0.30930
 Alpha  occ. eigenvalues --   -0.27722
 Alpha virt. eigenvalues --    0.02968   0.04883   0.05156   0.05337   0.06026
 Alpha virt. eigenvalues --    0.06871   0.06989   0.08458   0.10276   0.11560
 Alpha virt. eigenvalues --    0.12100   0.13112   0.13874   0.14092   0.14569

 Mulliken charges:
               1
     1  C   -4.135967
     2  C    4.384520
     3  C   -2.832432
     4  N   -2.620816
     5  C    5.140034
     6  O   -3.613031
     7  C   -5.334628
     8  H    1.568398
     9  H    1.626455
    10  H    1.223209
    11  H    1.254749
    12  H    0.773643
    13  H    1.278059
    14  H    1.287808
 Sum of Mulliken charges =   0.00000

 Dipole moment (field-independent basis, Debye):
    X=             -2.2638    Y=              1.4696    Z=              0.1670  Tot=              2.7041

 Test job not archived.
 1\1\GINC-SE028\SP\RHF\Aug-CC-pVDZ\C5H7N1O1\OHZDE\09-Apr-2025\0\\#t hf
 aug-cc-pvdz iop(5/13=1,5/36=2,99/5=2) pseudo=read geom=check guess=(re
 ad,tcheck) scf=(maxcycle=1)\\title\\0,1\C,0,-1.84587947,0.52344615,-0.
 74551502\C,0,-0.67773586,0.16839885,-0.23958069\C,0,0.19948449,1.06396
 269,0.61712442\N,0,1.42734363,0.30933131,0.724495\C,0,1.40395502,-0.94
 292218,0.19413902\O,0,2.31393992,-1.73717728,0.21667505\C,0,0.02664831
 ,-1.14970965,-0.41685571\H,0,-2.42939664,-0.15622275,-1.35456876\H,0,-
 2.26295534,1.50865935,-0.56992317\H,0,-0.25393966,1.23709237,1.5990873

 Normal termination of Gaussian 16 at Wed Apr  9 18:55:51 2025.
