 Gaussian 16, Revision C.01,

 ----------------------------------------------------------------------
 #t hf aug-cc-pvdz symm=none int=(grid=ultrafine) guess=(read,tcheck) s
 table=(opt,rrhf)
 ----------------------------------------------------------------------
 -----
 title
 -----
 Symbolic Z-matrix:
 Charge =  0 Multiplicity = 1

 SCF Done:  E(RHF) =  -323.670066530     A.U. after   16 cycles
 Normal termination of Gaussian 16 at Wed Apr  9 18:16:18 2025.
 Gaussian 16:  ES64L-G16RevC.01  3-Jul-2019

 ----------------------------------------------------------------------
 #t hf aug-cc-pvdz iop(5/13=1,5/36=2,99/5=2) pseudo=read geom=check gue
 ss=(read,tcheck) scf=(maxcycle=1)
 ----------------------------------------------------------------------
 -----
 title
 -----
 Structure from the checkpoint file:  "Grambow2020_wb97xd3_006827_forward_mol1.chk"
 Charge =  0 Multiplicity = 1

                         Standard orientation:
 ---------------------------------------------------------------------
 Center     Atomic      Atomic             Coordinates (Angstroms)
 Number     Number       Type             X           Y           Z
 ---------------------------------------------------------------------
      1          6           0       -1.631571   -1.562883    0.294496
      2          6           0       -0.898314   -0.388695   -0.294491
      3          6           0       -1.504529    1.035804   -0.363313
      4          6           0       -0.221558    1.581606    0.391540
      5          6           0        0.299090    0.207898    0.106628
      6          7           0        1.342054   -0.397139   -0.434975
      7          8           0        2.556572   -0.275968    0.254513
      8          1           0       -2.313696   -2.011123   -0.430239
      9          1           0       -2.229301   -1.258776    1.162200
     10          1           0       -0.935261   -2.340252    0.615253
     11          1           0        0.313018   -1.130834   -0.922861
     12          1           0       -1.596136    1.452060   -1.367009
     13          1           0       -2.445178    1.171228    0.175992
     14          1           0       -0.441950    1.768922    1.441975
     15          1           0        0.324664    2.422600   -0.035414
     16          1           0        3.218177   -0.328479   -0.440333
 ---------------------------------------------------------------------

 SCF Done:  E(RHF) =  -325.233045077     A.U. after    2 cycles

 The electronic state is 1-A.
 Alpha  occ. eigenvalues --  -21.09552 -15.76376 -11.48592 -11.44020 -11.40009
 Alpha  occ. eigenvalues --  -11.39219 -11.35094  -1.77805  -1.40165  -1.18263
 Alpha  occ. eigenvalues --   -1.07919  -0.92079  -0.88066  -0.71275  -0.67445
 Alpha  occ. eigenvalues --   -0.63512  -0.61760  -0.58874  -0.56059  -0.53611
 Alpha  occ. eigenvalues --   -0.50569  -0.47340  -0.43766  -0.42230  -0.40154
 Alpha  occ. eigenvalues --   -0.29842  -0.26900
 Alpha virt. eigenvalues --    0.03594   0.05347   0.05698   0.05941   0.06011
 Alpha virt. eigenvalues --    0.06428   0.06480   0.07038   0.07896   0.10829
 Alpha virt. eigenvalues --    0.11831   0.13125   0.13284   0.13860   0.14270

 Mulliken charges:
               1
     1  C   -4.044153
     2  C    0.422522
     3  C   -3.921091
     4  C   -3.112733
     5  C    3.715165
     6  N   -0.900411
     7  O   -2.442200
     8  H    1.257745
     9  H    1.220436
    10  H    1.162188
    11  H    0.634117
    12  H    1.240540
    13  H    1.297372
    14  H    1.373310
    15  H    1.266707
    16  H    0.830486
 Sum of Mulliken charges =   0.00000

 Dipole moment (field-independent basis, Debye):
    X=              0.4778    Y=              0.9962    Z=              0.5771  Tot=              1.2465

 Test job not archived.
 1\1\GINC-SE340\SP\RHF\Aug-CC-pVDZ\C5H9N1O1\OHZDE\09-Apr-2025\0\\#t hf
 aug-cc-pvdz iop(5/13=1,5/36=2,99/5=2) pseudo=read geom=check guess=(re
 ad,tcheck) scf=(maxcycle=1)\\title\\0,1\C,0,-1.6654279,-1.12613659,0.1
 606199\C,0,-0.57084512,-0.22847809,-0.34867994\C,0,-0.72863961,1.30833
 283,-0.47010367\C,0,0.57986224,1.4781632,0.40892815\C,0,0.70443097,0.0
 0615713,0.17017724\N,0,1.57361911,-0.88732025,-0.26958245\O,0,2.700015
 26,-1.10567368,0.53582629\H,0,-2.37628967,-1.37549047,-0.62928708\H,0,
 -2.22876678,-0.64145198,0.96709456\H,0,-1.25809552,-2.06357832,0.54444

 Normal termination of Gaussian 16 at Wed Apr  9 18:16:22 2025.
