 Gaussian 16, Revision C.01,

 ----------------------------------------------------------------------
 #t hf aug-cc-pvdz symm=none int=(grid=ultrafine) guess=(read,tcheck) s
 table=(opt,rrhf)
 ----------------------------------------------------------------------
 -----
 title
 -----
 Symbolic Z-matrix:
 Charge =  0 Multiplicity = 1

 SCF Done:  E(RHF) =  -375.781025395     A.U. after   14 cycles
 Normal termination of Gaussian 16 at Wed Apr  9 18:56:40 2025.
 Gaussian 16:  ES64L-G16RevC.01  3-Jul-2019

 ----------------------------------------------------------------------
 #t hf aug-cc-pvdz iop(5/13=1,5/36=2,99/5=2) pseudo=read geom=check gue
 ss=(read,tcheck) scf=(maxcycle=1)
 ----------------------------------------------------------------------
 -----
 title
 -----
 Structure from the checkpoint file:  "Grambow2020_wb97xd3_007856_forward_mol2.chk"
 Charge =  0 Multiplicity = 1

                         Standard orientation:
 ---------------------------------------------------------------------
 Center     Atomic      Atomic             Coordinates (Angstroms)
 Number     Number       Type             X           Y           Z
 ---------------------------------------------------------------------
      1          7           0        0.917305    1.334992   -0.198069
      2          6           0        1.315746    0.067670    0.039379
      3          8           0        2.458067   -0.319655   -0.082345
      4          6           0        0.218887   -0.887890    0.512824
      5          8           0       -0.865777   -1.033572   -0.409414
      6          6           0       -1.899870   -0.204529   -0.325050
      7          7           0       -1.935006    0.812397    0.422782
      8          1           0        1.612321    2.006484   -0.471306
      9          1           0       -0.018462    1.623720    0.045966
     10          1           0       -0.166614   -0.562634    1.482196
     11          1           0        0.668183   -1.873346    0.591885
     12          1           0       -2.691802   -0.537649   -0.997100
     13          1           0       -2.826621    1.286007    0.346513
 ---------------------------------------------------------------------

 SCF Done:  E(RHF) =  -377.429552561     A.U. after    2 cycles

 The electronic state is 1-A.
 Alpha  occ. eigenvalues --  -21.10919 -21.02336 -15.76712 -15.74964 -11.50684
 Alpha  occ. eigenvalues --  -11.48572 -11.43626  -1.83607  -1.70000  -1.34205
 Alpha  occ. eigenvalues --   -1.33534  -1.07374  -0.86225  -0.79509  -0.75573
 Alpha  occ. eigenvalues --   -0.71692  -0.65489  -0.61453  -0.57998  -0.53283
 Alpha  occ. eigenvalues --   -0.52387  -0.48294  -0.43086  -0.42856  -0.34663
 Alpha  occ. eigenvalues --   -0.32019  -0.27782
 Alpha virt. eigenvalues --    0.03180   0.04783   0.05103   0.06155   0.06836
 Alpha virt. eigenvalues --    0.07974   0.09809   0.10267   0.11537   0.12373
 Alpha virt. eigenvalues --    0.13096   0.13806   0.14594   0.15200   0.16276

 Mulliken charges:
               1
     1  N   -2.845902
     2  C    5.013358
     3  O   -3.187570
     4  C   -2.092519
     5  O   -3.025653
     6  C    2.096138
     7  N   -2.734399
     8  H    0.760066
     9  H    0.773814
    10  H    1.581965
    11  H    1.127728
    12  H    1.722637
    13  H    0.810336
 Sum of Mulliken charges =   0.00000

 Dipole moment (field-independent basis, Debye):
    X=             -2.8991    Y=              0.4971    Z=             -0.5010  Tot=              2.9837

 Test job not archived.
 1\1\GINC-SE232\SP\RHF\Aug-CC-pVDZ\C3H6N2O2\OHZDE\09-Apr-2025\0\\#t hf
 aug-cc-pvdz iop(5/13=1,5/36=2,99/5=2) pseudo=read geom=check guess=(re
 ad,tcheck) scf=(maxcycle=1)\\title\\0,1\N,0,-1.51414699,0.34649421,-0.
 68203862\C,0,-1.4487876,-0.1474138,0.57216384\O,0,-2.39668922,-0.21914
 939,1.32454145\C,0,-0.07306206,-0.6560734,1.0068939\O,0,0.95428119,0.3
 3976462,0.97354516\C,0,1.64920383,0.51232106,-0.14497434\N,0,1.3714241
 7,-0.04102614,-1.24555144\H,0,-2.40701635,0.65396478,-1.02387625\H,0,-
 0.72149289,0.259046,-1.30060914\H,0,0.22262211,-1.50723763,0.38869181\

 Normal termination of Gaussian 16 at Wed Apr  9 18:56:44 2025.
