 Gaussian 16, Revision C.01,

 ----------------------------------------------------------------------
 #t hf aug-cc-pvdz symm=none int=(grid=ultrafine) guess=(read,tcheck) s
 table=(opt,rrhf)
 ----------------------------------------------------------------------
 -----
 title
 -----
 Symbolic Z-matrix:
 Charge =  0 Multiplicity = 1

 SCF Done:  E(RHF) =  -333.587941816     A.U. after   15 cycles
 Normal termination of Gaussian 16 at Wed Apr  9 18:25:03 2025.
 Gaussian 16:  ES64L-G16RevC.01  3-Jul-2019

 ----------------------------------------------------------------------
 #t hf aug-cc-pvdz iop(5/13=1,5/36=2,99/5=2) pseudo=read geom=check gue
 ss=(read,tcheck) scf=(maxcycle=1)
 ----------------------------------------------------------------------
 -----
 title
 -----
 Structure from the checkpoint file:  "Grambow2020_wb97xd3_006980_reverse_mol1.chk"
 Charge =  0 Multiplicity = 1

                         Standard orientation:
 ---------------------------------------------------------------------
 Center     Atomic      Atomic             Coordinates (Angstroms)
 Number     Number       Type             X           Y           Z
 ---------------------------------------------------------------------
      1          7           0       -2.190852    0.030408    0.000200
      2          6           0       -0.740912   -0.134945    0.000192
      3          6           0       -0.254152    1.182074   -0.000629
      4          7           0        1.075557    1.275593    0.000059
      5          6           0        1.722758    0.099406    0.000270
      6          7           0        1.223200   -1.129374   -0.000210
      7          7           0       -0.105335   -1.262734   -0.000184
      8          1           0       -2.660901   -0.311120   -0.832101
      9          1           0       -2.661008   -0.309188    0.833386
     10          1           0       -1.870095    1.207187   -0.000653
     11          1           0        2.807842    0.136654    0.001311
 ---------------------------------------------------------------------

 SCF Done:  E(RHF) =  -335.112251802     A.U. after    2 cycles

 The electronic state is 1-A.
 Alpha  occ. eigenvalues --  -15.86388 -15.79670 -15.75969 -15.74104 -11.45301
 Alpha  occ. eigenvalues --  -11.42948 -11.37680  -1.60290  -1.44844  -1.35360
 Alpha  occ. eigenvalues --   -1.17519  -0.97487  -0.90654  -0.75907  -0.74984
 Alpha  occ. eigenvalues --   -0.67638  -0.64337  -0.59422  -0.59231  -0.47477
 Alpha  occ. eigenvalues --   -0.42121  -0.41743  -0.39562  -0.37184  -0.28637
 Alpha virt. eigenvalues --    0.01895   0.04591   0.05503   0.06053   0.09232
 Alpha virt. eigenvalues --    0.09373   0.10710   0.11222   0.11387   0.11781
 Alpha virt. eigenvalues --    0.12602   0.13028   0.14768   0.14872   0.17014

 Mulliken charges:
               1
     1  N   -3.260952
     2  C    4.762209
     3  C   -0.356639
     4  N   -2.420208
     5  C    1.144814
     6  N   -1.611529
     7  N   -2.022381
     8  H    0.548515
     9  H    0.548615
    10  H    1.023922
    11  H    1.643634
 Sum of Mulliken charges =  -0.00000

 Dipole moment (field-independent basis, Debye):
    X=             -5.1063    Y=             -1.3955    Z=              0.0031  Tot=              5.2936

 Test job not archived.
 1\1\GINC-SE103\SP\RHF\Aug-CC-pVDZ\C3H4N4\OHZDE\09-Apr-2025\0\\#t hf au
 g-cc-pvdz iop(5/13=1,5/36=2,99/5=2) pseudo=read geom=check guess=(read
 ,tcheck) scf=(maxcycle=1)\\title\\0,1\N,0,1.81773136,0.10342555,-0.399
 60123\C,0,0.40812236,-0.17677879,-0.14631207\C,0,-0.10889501,1.0600618
 9,0.27129186\N,0,-1.40962253,1.04101077,0.56218425\C,0,-2.00354883,-0.
 15311328,0.40855025\N,0,-1.47658707,-1.30361951,0.01092417\N,0,-0.1758
 8393,-1.32314019,-0.29003953\H,0,2.46724977,-0.37988717,0.21264642\H,0
 ,2.10733422,0.00409025,-1.36750323\H,0,1.46720592,1.21797333,-0.049442

 Normal termination of Gaussian 16 at Wed Apr  9 18:25:07 2025.
