 Gaussian 16, Revision C.01,

 ----------------------------------------------------------------------
 #t hf aug-cc-pvdz symm=none int=(grid=ultrafine) guess=(read,tcheck) s
 table=(opt,rrhf)
 ----------------------------------------------------------------------
 -----
 title
 -----
 Symbolic Z-matrix:
 Charge =  0 Multiplicity = 1

 SCF Done:  E(RHF) =  -305.464376070     A.U. after   15 cycles
 Normal termination of Gaussian 16 at Wed Apr  9 19:02:48 2025.
 Gaussian 16:  ES64L-G16RevC.01  3-Jul-2019

 ----------------------------------------------------------------------
 #t hf aug-cc-pvdz iop(5/13=1,5/36=2,99/5=2) pseudo=read geom=check gue
 ss=(read,tcheck) scf=(maxcycle=1)
 ----------------------------------------------------------------------
 -----
 title
 -----
 Structure from the checkpoint file:  "Grambow2020_wb97xd3_008020_reverse_mol2.chk"
 Charge =  0 Multiplicity = 1

                         Standard orientation:
 ---------------------------------------------------------------------
 Center     Atomic      Atomic             Coordinates (Angstroms)
 Number     Number       Type             X           Y           Z
 ---------------------------------------------------------------------
      1          8           0       -1.752062   -1.456754   -0.069127
      2          6           0       -0.355317   -1.419585    0.002783
      3          6           0        0.230488   -0.016101   -0.007869
      4          6           0       -0.524161    1.052374   -0.009078
      5          6           0       -1.297514    2.093740   -0.008781
      6          6           0        1.658887    0.076284    0.000182
      7          6           0        2.857461    0.086349    0.008571
      8          1           0       -2.115386   -0.892437    0.617572
      9          1           0        0.023862   -1.937997    0.893727
     10          1           0        0.020051   -1.958046   -0.869726
     11          1           0       -1.630015    2.541953   -0.938619
     12          1           0       -1.622536    2.552573    0.918588
     13          1           0        3.921453    0.109623    0.016632
 ---------------------------------------------------------------------

 SCF Done:  E(RHF) =  -306.872126139     A.U. after    2 cycles

 The electronic state is 1-A.
 Alpha  occ. eigenvalues --  -21.07701 -11.47620 -11.44553 -11.44003 -11.43302
 Alpha  occ. eigenvalues --  -11.41059 -11.40664  -1.72575  -1.26242  -1.11235
 Alpha  occ. eigenvalues --   -1.04415  -0.93706  -0.79202  -0.70389  -0.66096
 Alpha  occ. eigenvalues --   -0.64291  -0.62005  -0.60523  -0.54497  -0.45317
 Alpha  occ. eigenvalues --   -0.43122  -0.37704  -0.37464  -0.32547  -0.32091
 Alpha virt. eigenvalues --    0.02888   0.04584   0.05218   0.05950   0.06638
 Alpha virt. eigenvalues --    0.07411   0.08892   0.09901   0.10823   0.11109
 Alpha virt. eigenvalues --    0.11472   0.11876   0.12431   0.13906   0.14198

 Mulliken charges:
               1
     1  O   -2.810245
     2  C   -1.713377
     3  C    0.186214
     4  C    2.983853
     5  C   -4.992168
     6  C    5.235039
     7  C   -4.636339
     8  H    0.723132
     9  H    0.902271
    10  H    0.918463
    11  H    1.263001
    12  H    1.252075
    13  H    0.688082
 Sum of Mulliken charges =  -0.00000

 Dipole moment (field-independent basis, Debye):
    X=             -0.1542    Y=              0.5496    Z=              0.3697  Tot=              0.6801

 Test job not archived.
 1\1\GINC-SE108\SP\RHF\Aug-CC-pVDZ\C6H6O1\OHZDE\09-Apr-2025\0\\#t hf au
 g-cc-pvdz iop(5/13=1,5/36=2,99/5=2) pseudo=read geom=check guess=(read
 ,tcheck) scf=(maxcycle=1)\\title\\0,1\O,0,2.04941378,-0.99345677,0.176
 1941\C,0,1.42263271,0.16459376,0.64896587\C,0,-0.04610496,0.27529669,0
 .2700164\C,0,-0.67060098,-0.67428067,-0.37762719\C,0,-1.26400248,-1.63
 289712,-1.01906915\C,0,-0.71841285,1.47221661,0.67536906\C,0,-1.223853
 52,2.49492994,1.04325233\H,0,1.53377349,-1.75857163,0.44214257\H,0,1.4
 9839665,0.25585463,1.74086333\H,0,1.95694853,1.0121776,0.21512179\H,0,

 Normal termination of Gaussian 16 at Wed Apr  9 19:02:52 2025.
