 Gaussian 16, Revision C.01,

 ----------------------------------------------------------------------
 #t hf aug-cc-pvdz symm=none int=(grid=ultrafine) guess=(read,tcheck) s
 table=(opt,rrhf)
 ----------------------------------------------------------------------
 -----
 title
 -----
 Symbolic Z-matrix:
 Charge =  0 Multiplicity = 1

 SCF Done:  E(RHF) =  -268.746548608     A.U. after   17 cycles
 Normal termination of Gaussian 16 at Wed Apr  9 03:05:30 2025.
 Gaussian 16:  ES64L-G16RevC.01  3-Jul-2019

 ----------------------------------------------------------------------
 #t hf aug-cc-pvdz iop(5/13=1,5/36=2,99/5=2) pseudo=read geom=check gue
 ss=(read,tcheck) scf=(maxcycle=1)
 ----------------------------------------------------------------------
 -----
 title
 -----
 Structure from the checkpoint file:  "Grambow2020_b97d3_006488_forward_mol1.chk"
 Charge =  0 Multiplicity = 1

                         Standard orientation:
 ---------------------------------------------------------------------
 Center     Atomic      Atomic             Coordinates (Angstroms)
 Number     Number       Type             X           Y           Z
 ---------------------------------------------------------------------
      1          8           0       -2.217919   -0.154600   -0.101054
      2          6           0       -0.983229   -0.003027    0.037066
      3          6           0        0.037065   -1.108396    0.273544
      4          6           0        1.366466   -0.693333   -0.375315
      5          6           0        1.810009    0.676714    0.147863
      6          6           0       -0.632040    1.374288    0.101765
      7          1           0        0.162089   -1.238972    1.361195
      8          1           0       -0.356035   -2.050676   -0.129409
      9          1           0        2.154713   -1.437117   -0.182754
     10          1           0        1.230943   -0.644749   -1.465631
     11          1           0        2.510461    1.205616   -0.508942
     12          1           0        2.208900    0.625942    1.170296
     13          1           0        0.902591    1.383310    0.310778
     14          1           0       -0.659939    1.915963   -0.856639
 ---------------------------------------------------------------------

 SCF Done:  E(RHF) =  -270.007470016     A.U. after    2 cycles

 The electronic state is 1-A.
 Alpha  occ. eigenvalues --  -21.03544 -11.50061 -11.44944 -11.42865 -11.42118
 Alpha  occ. eigenvalues --  -11.39072  -1.68579  -1.27206  -1.05745  -1.03672
 Alpha  occ. eigenvalues --   -0.88142  -0.74153  -0.67268  -0.64890  -0.59547
 Alpha  occ. eigenvalues --   -0.57143  -0.54847  -0.50201  -0.49678  -0.46982
 Alpha  occ. eigenvalues --   -0.43565  -0.30824  -0.28082
 Alpha virt. eigenvalues --    0.02955   0.04699   0.05011   0.05242   0.05474
 Alpha virt. eigenvalues --    0.05845   0.06754   0.07986   0.09086   0.11055
 Alpha virt. eigenvalues --    0.11933   0.12825   0.13054   0.14027   0.14536

 Mulliken charges:
               1
     1  O   -3.123066
     2  C    4.624707
     3  C   -3.525246
     4  C   -3.097708
     5  C   -3.767338
     6  C   -2.605130
     7  H    1.383485
     8  H    1.356979
     9  H    1.367860
    10  H    1.450691
    11  H    1.079535
    12  H    1.077786
    13  H    2.597557
    14  H    1.179888
 Sum of Mulliken charges =  -0.00000

 Dipole moment (field-independent basis, Debye):
    X=              3.1607    Y=             -1.2766    Z=             -0.9842  Tot=              3.5480

 Test job not archived.
 1\1\GINC-SE249\SP\RHF\Aug-CC-pVDZ\C5H8O1\OHZDE\09-Apr-2025\0\\#t hf au
 g-cc-pvdz iop(5/13=1,5/36=2,99/5=2) pseudo=read geom=check guess=(read
 ,tcheck) scf=(maxcycle=1)\\title\\0,1\O,0,-0.91634265,2.53238128,-0.46
 839998\C,0,-0.41579721,1.42925026,-0.1536521\C,0,-1.18026936,0.1891320
 4,0.28957742\C,0,-0.40431959,-1.05413318,-0.17172072\C,0,1.03815469,-1
 .0031623,0.34222979\C,0,1.00467638,1.49678549,-0.10663529\H,0,-1.26365
 301,0.20676971,1.3888507\H,0,-2.19787953,0.23050673,-0.11974825\H,0,-0
 .88932961,-1.97948309,0.17486199\H,0,-0.40250268,-1.08544736,-1.271053

 Normal termination of Gaussian 16 at Wed Apr  9 03:05:35 2025.
