 Gaussian 16, Revision C.01,

 ----------------------------------------------------------------------
 #t hf aug-cc-pvdz symm=none int=(grid=ultrafine) guess=(read,tcheck) s
 table=(opt,rrhf)
 ----------------------------------------------------------------------
 -----
 title
 -----
 Symbolic Z-matrix:
 Charge =  0 Multiplicity = 1

 SCF Done:  E(RHF) =  -305.894046136     A.U. after   13 cycles
 Normal termination of Gaussian 16 at Wed Apr  9 16:12:53 2025.
 Gaussian 16:  ES64L-G16RevC.01  3-Jul-2019

 ----------------------------------------------------------------------
 #t hf aug-cc-pvdz iop(5/13=1,5/36=2,99/5=2) pseudo=read geom=check gue
 ss=(read,tcheck) scf=(maxcycle=1)
 ----------------------------------------------------------------------
 -----
 title
 -----
 Structure from the checkpoint file:  "Grambow2020_b97d3_006752_forward_mol2.chk"
 Charge =  0 Multiplicity = 1

                         Standard orientation:
 ---------------------------------------------------------------------
 Center     Atomic      Atomic             Coordinates (Angstroms)
 Number     Number       Type             X           Y           Z
 ---------------------------------------------------------------------
      1          6           0        2.510345    0.145622    0.031670
      2          6           0        1.259122   -0.732525   -0.032963
      3          6           0       -0.041853    0.049087   -0.012518
      4          8           0       -0.089940    1.275645   -0.019239
      5          6           0       -1.352787   -0.737400    0.015773
      6          8           0       -2.465248    0.115691    0.009691
      7          1           0        2.535845    0.847815   -0.810470
      8          1           0        3.415950   -0.474002   -0.000664
      9          1           0        2.525001    0.736655    0.955874
     10          1           0        1.233754   -1.455814    0.799500
     11          1           0        1.258360   -1.350998   -0.947072
     12          1           0       -1.362163   -1.420363   -0.855935
     13          1           0       -1.340213   -1.382437    0.916648
     14          1           0       -2.073994    1.019755    0.006731
 ---------------------------------------------------------------------

 SCF Done:  E(RHF) =  -307.279489994     A.U. after    2 cycles

 The electronic state is 1-A.
 Alpha  occ. eigenvalues --  -21.06724 -21.06522 -11.50747 -11.44720 -11.42205
 Alpha  occ. eigenvalues --  -11.37827  -1.75188  -1.67681  -1.20242  -1.04882
 Alpha  occ. eigenvalues --   -0.92626  -0.75510  -0.68309  -0.66138  -0.61518
 Alpha  occ. eigenvalues --   -0.58409  -0.54570  -0.52095  -0.50839  -0.47388
 Alpha  occ. eigenvalues --   -0.42492  -0.40422  -0.32373  -0.30845
 Alpha virt. eigenvalues --    0.03186   0.04795   0.05249   0.05574   0.06003
 Alpha virt. eigenvalues --    0.06998   0.07476   0.08101   0.09254   0.12297
 Alpha virt. eigenvalues --    0.13038   0.13688   0.13801   0.14694   0.15121

 Mulliken charges:
               1
     1  C   -3.669579
     2  C   -3.248019
     3  C    4.030126
     4  O   -3.255781
     5  C   -1.122389
     6  O   -2.705339
     7  H    1.293617
     8  H    1.078481
     9  H    1.282334
    10  H    1.457712
    11  H    1.428727
    12  H    1.358571
    13  H    1.340346
    14  H    0.731192
 Sum of Mulliken charges =   0.00000

 Dipole moment (field-independent basis, Debye):
    X=              1.4603    Y=             -0.9178    Z=             -0.0127  Tot=              1.7249

 Test job not archived.
 1\1\GINC-SE229\SP\RHF\Aug-CC-pVDZ\C4H8O2\OHZDE\09-Apr-2025\0\\#t hf au
 g-cc-pvdz iop(5/13=1,5/36=2,99/5=2) pseudo=read geom=check guess=(read
 ,tcheck) scf=(maxcycle=1)\\title\\0,1\C,0,-2.08052044,0.31926786,-0.25
 258028\C,0,-0.821522,-0.50384531,0.02721704\C,0,0.46390437,0.3014706,-
 0.0276981\O,0,0.4899443,1.51573699,-0.20568797\C,0,1.78724539,-0.44350
 11,0.15033586\O,0,2.88155911,0.43122496,0.09833573\H,0,-2.17611927,1.1
 3999238,0.46866646\H,0,-2.97522446,-0.31321101,-0.18493936\H,0,-2.0419
 6811,0.76277571,-1.25532716\H,0,-0.7263507,-1.34395152,-0.68126706\H,0

 Normal termination of Gaussian 16 at Wed Apr  9 16:12:57 2025.
