 Gaussian 16, Revision C.01,

 ----------------------------------------------------------------------
 #t hf aug-cc-pvdz symm=none int=(grid=ultrafine) guess=(read,tcheck) s
 table=(opt,rrhf)
 ----------------------------------------------------------------------
 -----
 title
 -----
 Symbolic Z-matrix:
 Charge =  0 Multiplicity = 1

 SCF Done:  E(RHF) =  -344.879785290     A.U. after   13 cycles

 1\1\GINC-SE453\Stability\RHF\Aug-CC-pVDZ\C5H10O2\OHZDE\09-Apr-2025\0\\
 #t hf aug-cc-pvdz symm=none int=(grid=ultrafine) guess=(read,tcheck) s
 table=(opt,rrhf)\\title\\0,1\C,0,-2.12064785,-1.07744497,-0.8438148\C,
 0,-1.75929358,0.08282387,0.02882103\C,0,-0.80351598,0.07171854,0.95228
 229\O,0,-0.05840796,-1.03370962,1.22143441\C,0,2.44325932,1.03180735,0
 .31749808\C,0,2.34073278,0.25879814,-0.7602376\O,0,1.2483236,0.0478105
 2,-1.51332664\H,0,-2.1749181,-0.77780215,-1.89285221\H,0,-1.38953031,-
 1.87913784,-0.74975974\H,0,-3.10106127,-1.47725422,-0.57224159\H,0,0.4

 Normal termination of Gaussian 16 at Wed Apr  9 03:45:39 2025.
 Gaussian 16:  ES64L-G16RevC.01  3-Jul-2019

 ----------------------------------------------------------------------
 #t hf aug-cc-pvdz iop(5/13=1,5/36=2,99/5=2) pseudo=read geom=check gue
 ss=(read,tcheck) scf=(maxcycle=1)
 ----------------------------------------------------------------------
 -----
 title
 -----
 Structure from the checkpoint file:  "Grambow2020_wb97xd3_007843_reverse_mol2.chk"
 Charge =  0 Multiplicity = 1

                         Standard orientation:
 ---------------------------------------------------------------------
 Center     Atomic      Atomic             Coordinates (Angstroms)
 Number     Number       Type             X           Y           Z
 ---------------------------------------------------------------------
      1          6           0       -2.434295    0.911870   -0.213502
      2          6           0       -1.815763   -0.093242    0.705989
      3          6           0       -0.951109   -1.032283    0.335868
      4          8           0       -0.553998   -1.194078   -0.954762
      5          6           0        2.463844   -0.586493    0.410989
      6          6           0        2.211245    0.572950   -0.190222
      7          8           0        1.145214    1.370797   -0.011235
      8          1           0       -2.347450    1.921890    0.193348
      9          1           0       -1.957724    0.890450   -1.192538
     10          1           0       -3.499994    0.710158   -0.349176
     11          1           0        0.469046    0.919944    0.514820
     12          1           0       -2.113325   -0.095214    1.748638
     13          1           0       -0.551992   -1.746137    1.051840
     14          1           0        0.345124   -1.535486   -0.971926
     15          1           0        3.370501   -1.123721    0.173971
     16          1           0        1.816309   -0.989672    1.180911
     17          1           0        2.896244    0.997218   -0.916652
 ---------------------------------------------------------------------

 SCF Done:  E(RHF) =  -346.469380705     A.U. after    2 cycles

 The electronic state is 1-A.
 Alpha  occ. eigenvalues --  -21.09741 -21.09436 -11.45758 -11.45366 -11.39935
 Alpha  occ. eigenvalues --  -11.37281 -11.36337  -1.75395  -1.74826  -1.17775
 Alpha  occ. eigenvalues --   -1.10475  -0.98420  -0.83553  -0.77520  -0.70583
 Alpha  occ. eigenvalues --   -0.65159  -0.62719  -0.58860  -0.56672  -0.52866
 Alpha  occ. eigenvalues --   -0.51620  -0.50984  -0.49074  -0.46478  -0.43557
 Alpha  occ. eigenvalues --   -0.40607  -0.29200  -0.28581
 Alpha virt. eigenvalues --    0.03605   0.04787   0.05212   0.05360   0.06081
 Alpha virt. eigenvalues --    0.06228   0.06680   0.07116   0.07999   0.09167
 Alpha virt. eigenvalues --    0.11271   0.12602   0.13282   0.13416   0.13736

 Mulliken charges:
               1
     1  C   -4.079743
     2  C   -1.053860
     3  C    0.320904
     4  O   -3.162321
     5  C   -3.336741
     6  C    1.166943
     7  O   -3.646787
     8  H    1.238492
     9  H    1.367927
    10  H    1.223307
    11  H    1.364656
    12  H    1.393320
    13  H    1.744149
    14  H    0.951487
    15  H    1.256716
    16  H    1.590048
    17  H    1.661503
 Sum of Mulliken charges =  -0.00000

 Dipole moment (field-independent basis, Debye):
    X=             -0.0982    Y=             -0.0452    Z=             -0.0964  Tot=              0.1449

 Test job not archived.
 1\1\GINC-SE453\SP\RHF\Aug-CC-pVDZ\C5H10O2\OHZDE\09-Apr-2025\0\\#t hf a
 ug-cc-pvdz iop(5/13=1,5/36=2,99/5=2) pseudo=read geom=check guess=(rea
 d,tcheck) scf=(maxcycle=1)\\title\\0,1\C,0,-2.12064785,-1.07744497,-0.
 8438148\C,0,-1.75929358,0.08282387,0.02882103\C,0,-0.80351598,0.071718
 54,0.95228229\O,0,-0.05840796,-1.03370962,1.22143441\C,0,2.44325932,1.
 03180735,0.31749808\C,0,2.34073278,0.25879814,-0.7602376\O,0,1.2483236
 ,0.04781052,-1.51332664\H,0,-2.1749181,-0.77780215,-1.89285221\H,0,-1.
 38953031,-1.87913784,-0.74975974\H,0,-3.10106127,-1.47725422,-0.572241

 Normal termination of Gaussian 16 at Wed Apr  9 03:45:44 2025.
