 Gaussian 16, Revision C.01,

 ----------------------------------------------------------------------
 #t hf aug-cc-pvdz symm=none int=(grid=ultrafine) guess=(read,tcheck) s
 table=(opt,rrhf)
 ----------------------------------------------------------------------
 -----
 title
 -----
 Symbolic Z-matrix:
 Charge =  0 Multiplicity = 1

 SCF Done:  E(RHF) =  -267.530658542     A.U. after   17 cycles
 Normal termination of Gaussian 16 at Wed Apr  9 03:20:57 2025.
 Gaussian 16:  ES64L-G16RevC.01  3-Jul-2019

 ----------------------------------------------------------------------
 #t hf aug-cc-pvdz iop(5/13=1,5/36=2,99/5=2) pseudo=read geom=check gue
 ss=(read,tcheck) scf=(maxcycle=1)
 ----------------------------------------------------------------------
 -----
 title
 -----
 Structure from the checkpoint file:  "Grambow2020_wb97xd3_006075_reverse_mol1.chk"
 Charge =  0 Multiplicity = 1

                         Standard orientation:
 ---------------------------------------------------------------------
 Center     Atomic      Atomic             Coordinates (Angstroms)
 Number     Number       Type             X           Y           Z
 ---------------------------------------------------------------------
      1          8           0       -1.338012   -0.406512    0.693480
      2          6           0       -0.680955   -0.631557   -0.401365
      3          6           0        0.784863   -1.028588   -0.261753
      4          6           0        1.412192    0.224239    0.369509
      5          6           0        0.530372    1.287749   -0.203098
      6          6           0       -0.754661    1.034423   -0.244059
      7          1           0       -1.230422   -0.962371   -1.290934
      8          1           0        1.218982   -1.230615   -1.242127
      9          1           0        0.871678   -1.930024    0.349226
     10          1           0        1.317229    0.213804    1.458815
     11          1           0        2.463936    0.343729    0.117386
     12          1           0       -1.688176    1.499974   -0.495602
 ---------------------------------------------------------------------

 SCF Done:  E(RHF) =  -268.780056885     A.U. after    2 cycles

 The electronic state is 1-A.
 Alpha  occ. eigenvalues --  -21.06679 -11.51998 -11.45622 -11.44135 -11.40802
 Alpha  occ. eigenvalues --  -11.38238  -1.75405  -1.28560  -1.06821  -0.98431
 Alpha  occ. eigenvalues --   -0.82865  -0.78129  -0.68332  -0.64938  -0.56221
 Alpha  occ. eigenvalues --   -0.55724  -0.52010  -0.50166  -0.46104  -0.39274
 Alpha  occ. eigenvalues --   -0.31073  -0.28580
 Alpha virt. eigenvalues --    0.03866   0.04848   0.05512   0.05799   0.06211
 Alpha virt. eigenvalues --    0.06853   0.08221   0.09373   0.10987   0.12101
 Alpha virt. eigenvalues --    0.13305   0.14187   0.14268   0.14710   0.15283

 Mulliken charges:
               1
     1  O   -2.751450
     2  C    1.347618
     3  C   -3.000900
     4  C   -2.914291
     5  C   -0.062121
     6  C   -0.828767
     7  H    1.556198
     8  H    1.371370
     9  H    1.339758
    10  H    1.381965
    11  H    1.312985
    12  H    1.247635
 Sum of Mulliken charges =  -0.00000

 Dipole moment (field-independent basis, Debye):
    X=             -0.8648    Y=             -2.7186    Z=              0.2744  Tot=              2.8660

 Test job not archived.
 1\1\GINC-SE336\SP\RHF\Aug-CC-pVDZ\C5H6O1\OHZDE\09-Apr-2025\0\\#t hf au
 g-cc-pvdz iop(5/13=1,5/36=2,99/5=2) pseudo=read geom=check guess=(read
 ,tcheck) scf=(maxcycle=1)\\title\\0,1\O,0,-0.68736806,-1.59282516,0.13
 158972\C,0,-0.48884039,-0.56350756,0.89457594\C,0,-0.82150312,0.806210
 34,0.31237671\C,0,0.1786748,0.92847205,-0.84792688\C,0,1.31862584,0.12
 359723,-0.31012867\C,0,1.01795212,-0.99456376,0.30344725\H,0,-0.531103
 1,-0.69409574,1.98262223\H,0,-0.65341308,1.58644086,1.05628074\H,0,-1.
 86967146,0.83796939,0.00618317\H,0,-0.20557695,0.46054704,-1.75848271\

 Normal termination of Gaussian 16 at Wed Apr  9 03:21:01 2025.
