 Gaussian 16, Revision C.01,

 ----------------------------------------------------------------------
 #t hf aug-cc-pvdz symm=none int=(grid=ultrafine) guess=(read,tcheck) s
 table=(opt,rrhf)
 ----------------------------------------------------------------------
 -----
 title
 -----
 Symbolic Z-matrix:
 Charge =  0 Multiplicity = 1

 SCF Done:  E(RHF) =  -286.720620070     A.U. after   16 cycles
 Normal termination of Gaussian 16 at Wed Apr  9 18:42:45 2025.
 Gaussian 16:  ES64L-G16RevC.01  3-Jul-2019

 ----------------------------------------------------------------------
 #t hf aug-cc-pvdz iop(5/13=1,5/36=2,99/5=2) pseudo=read geom=check gue
 ss=(read,tcheck) scf=(maxcycle=1)
 ----------------------------------------------------------------------
 -----
 title
 -----
 Structure from the checkpoint file:  "Grambow2020_wb97xd3_007560_forward_mol1.chk"
 Charge =  0 Multiplicity = 1

                         Standard orientation:
 ---------------------------------------------------------------------
 Center     Atomic      Atomic             Coordinates (Angstroms)
 Number     Number       Type             X           Y           Z
 ---------------------------------------------------------------------
      1          6           0        0.711506    1.591973   -0.221487
      2          6           0        0.744231    0.126399    0.198266
      3          6           0       -0.522472   -0.312670    0.969165
      4          6           0       -1.761349   -0.178123    0.210501
      5          6           0       -2.760651   -0.075522   -0.442479
      6          6           0        1.125223   -0.869419   -0.954540
      7          7           0        1.925270   -0.455676    0.537208
      8          1           0       -0.178127    1.828573   -0.807430
      9          1           0        1.607154    1.835460   -0.791810
     10          1           0        0.700021    2.216945    0.674087
     11          1           0       -0.585331    0.292022    1.878160
     12          1           0       -0.385258   -1.348288    1.285458
     13          1           0       -3.654653    0.015874   -1.012593
     14          1           0        0.382321   -1.659044   -1.010199
     15          1           0        1.321425   -0.313158   -1.864537
     16          1           0        2.096626   -1.374476   -0.668150
 ---------------------------------------------------------------------

 SCF Done:  E(RHF) =  -288.113627341     A.U. after    2 cycles

 The electronic state is 1-A.
 Alpha  occ. eigenvalues --  -15.73163 -11.48134 -11.45562 -11.42069 -11.40676
 Alpha  occ. eigenvalues --  -11.40107 -11.37535  -1.43787  -1.18005  -1.06928
 Alpha  occ. eigenvalues --   -1.01041  -0.97063  -0.79544  -0.73537  -0.66518
 Alpha  occ. eigenvalues --   -0.63473  -0.62009  -0.57427  -0.55097  -0.54643
 Alpha  occ. eigenvalues --   -0.50761  -0.49020  -0.40355  -0.37823  -0.37042
 Alpha  occ. eigenvalues --   -0.30031
 Alpha virt. eigenvalues --    0.03305   0.04685   0.05453   0.05742   0.06295
 Alpha virt. eigenvalues --    0.06430   0.06925   0.07262   0.08797   0.09948
 Alpha virt. eigenvalues --    0.10549   0.11868   0.12531   0.12702   0.13919

 Mulliken charges:
               1
     1  C   -4.440328
     2  C    3.641999
     3  C   -3.934546
     4  C    4.594763
     5  C   -4.205995
     6  C   -3.829283
     7  N   -2.712643
     8  H    1.324765
     9  H    1.266575
    10  H    1.152754
    11  H    1.162418
    12  H    1.261621
    13  H    0.711151
    14  H    1.366391
    15  H    1.426257
    16  H    1.214101
 Sum of Mulliken charges =   0.00000

 Dipole moment (field-independent basis, Debye):
    X=             -0.8371    Y=              0.0844    Z=             -1.2675  Tot=              1.5213

 Test job not archived.
 1\1\GINC-SE113\SP\RHF\Aug-CC-pVDZ\C6H9N1\OHZDE\09-Apr-2025\0\\#t hf au
 g-cc-pvdz iop(5/13=1,5/36=2,99/5=2) pseudo=read geom=check guess=(read
 ,tcheck) scf=(maxcycle=1)\\title\\0,1\C,0,0.08273055,1.59938116,-0.165
 85956\C,0,-0.60830551,0.24010515,-0.16286938\C,0,0.30894759,-0.9082388
 ,-0.64407194\C,0,1.50174401,-1.10366714,0.1729556\C,0,2.46249961,-1.25
 423418,0.87280811\C,0,-1.35562906,-0.10389492,1.17464303\N,0,-1.934683
 77,0.15309273,-0.44869481\H,0,1.00250857,1.59053524,0.42124015\H,0,-0.
 59471719,2.36171264,0.21709462\H,0,0.34254414,1.86259937,-1.19347303\H

 Normal termination of Gaussian 16 at Wed Apr  9 18:42:50 2025.
