 Gaussian 16, Revision C.01,

 ----------------------------------------------------------------------
 #t hf aug-cc-pvdz symm=none int=(grid=ultrafine) guess=(read,tcheck) s
 table=(opt,rrhf)
 ----------------------------------------------------------------------
 -----
 title
 -----
 Symbolic Z-matrix:
 Charge =  0 Multiplicity = 1

 SCF Done:  E(RHF) =  -343.548928457     A.U. after   15 cycles
 Normal termination of Gaussian 16 at Wed Apr  9 18:27:27 2025.
 Gaussian 16:  ES64L-G16RevC.01  3-Jul-2019

 ----------------------------------------------------------------------
 #t hf aug-cc-pvdz iop(5/13=1,5/36=2,99/5=2) pseudo=read geom=check gue
 ss=(read,tcheck) scf=(maxcycle=1)
 ----------------------------------------------------------------------
 -----
 title
 -----
 Structure from the checkpoint file:  "Grambow2020_wb97xd3_007154_forward_mol1.chk"
 Charge =  0 Multiplicity = 1

                         Standard orientation:
 ---------------------------------------------------------------------
 Center     Atomic      Atomic             Coordinates (Angstroms)
 Number     Number       Type             X           Y           Z
 ---------------------------------------------------------------------
      1          8           0       -2.107237   -0.587403   -0.195766
      2          6           0       -0.807637   -0.120386   -0.050414
      3          6           0        0.242700   -1.234344   -0.015499
      4          6           0        1.489238   -0.481315    0.380235
      5          8           0        1.957838    0.294129   -0.567164
      6          6           0       -0.401532    0.942505    0.914555
      7          6           0       -0.358910    1.238395   -0.438336
      8          1           0       -2.627586    0.073399   -0.654270
      9          1           0       -0.053202   -1.979416    0.725529
     10          1           0        0.366900   -1.712410   -0.987434
     11          1           0        2.220336   -0.866668    1.087255
     12          1           0        0.803646    0.374890    1.211109
     13          1           0       -0.795777    1.423706    1.798441
     14          1           0       -0.765741    2.042817   -1.030356
     15          1           0        1.063462    0.920751   -0.790077
 ---------------------------------------------------------------------

 SCF Done:  E(RHF) =  -345.158088392     A.U. after    2 cycles

 The electronic state is 1-A.
 Alpha  occ. eigenvalues --  -21.08413 -21.05519 -11.49618 -11.46511 -11.44740
 Alpha  occ. eigenvalues --  -11.39858 -11.38196  -1.76168  -1.71605  -1.32041
 Alpha  occ. eigenvalues --   -1.10565  -0.91045  -0.82934  -0.79429  -0.73861
 Alpha  occ. eigenvalues --   -0.67695  -0.63008  -0.57660  -0.54986  -0.53819
 Alpha  occ. eigenvalues --   -0.49100  -0.46933  -0.42566  -0.38750  -0.34850
 Alpha  occ. eigenvalues --   -0.30596  -0.25546
 Alpha virt. eigenvalues --    0.03745   0.04233   0.05203   0.05826   0.06499
 Alpha virt. eigenvalues --    0.06620   0.07524   0.08182   0.09214   0.11309
 Alpha virt. eigenvalues --    0.12357   0.12861   0.14068   0.14415   0.15014

 Mulliken charges:
               1
     1  O   -3.587730
     2  C    3.959198
     3  C   -3.764448
     4  C    0.440752
     5  O   -3.322447
     6  C   -1.846147
     7  C   -1.949007
     8  H    0.660632
     9  H    1.245297
    10  H    1.319268
    11  H    1.426328
    12  H    1.510258
    13  H    1.088957
    14  H    1.091070
    15  H    1.728018
 Sum of Mulliken charges =   0.00000

 Dipole moment (field-independent basis, Debye):
    X=             -0.4527    Y=              0.0214    Z=              0.4835  Tot=              0.6627

 Test job not archived.
 1\1\GINC-SE114\SP\RHF\Aug-CC-pVDZ\C5H8O2\OHZDE\09-Apr-2025\0\\#t hf au
 g-cc-pvdz iop(5/13=1,5/36=2,99/5=2) pseudo=read geom=check guess=(read
 ,tcheck) scf=(maxcycle=1)\\title\\0,1\O,0,-0.27898594,-1.53012983,-1.5
 6683819\C,0,-0.13728153,-0.52494244,-0.61936287\C,0,1.12772583,-0.6612
 245,0.23299404\C,0,0.9062009,0.38555313,1.29727589\O,0,1.01602475,1.61
 508028,0.85606694\C,0,-1.24341019,-0.03189316,0.25196115\C,0,-0.754908
 76,0.81861648,-0.72665049\H,0,-0.76163968,-1.18518019,-2.31897207\H,0,
 1.17537747,-1.67311723,0.63995215\H,0,2.03247312,-0.45231789,-0.338339

 Normal termination of Gaussian 16 at Wed Apr  9 18:27:32 2025.
