 Gaussian 16, Revision C.01,

 ----------------------------------------------------------------------
 #t hf aug-cc-pvdz symm=none int=(grid=ultrafine) guess=(read,tcheck) s
 table=(opt,rrhf)
 ----------------------------------------------------------------------
 -----
 title
 -----
 Symbolic Z-matrix:
 Charge =  0 Multiplicity = 1

 SCF Done:  E(RHF) =  -308.933652546     A.U. after   15 cycles

 1\1\GINC-SE229\Stability\RHF\Aug-CC-pVDZ\C6H12O1\OHZDE\09-Apr-2025\0\\
 #t hf aug-cc-pvdz symm=none int=(grid=ultrafine) guess=(read,tcheck) s
 table=(opt,rrhf)\\title\\0,1\C,0,1.68755832,-0.20310065,-1.30595982\C,
 0,1.14464612,-0.20621859,-0.00323637\O,0,1.07264692,1.68387619,0.14533
 816\C,0,-0.33297741,1.45553817,0.10434524\C,0,-0.35972293,-0.0727529,0
 .27404861\C,0,-0.65868211,-0.47360681,1.71487376\C,0,-1.26524776,-0.82
 810691,-0.68826428\H,0,1.55350545,1.09858798,-0.93261894\H,0,2.7148092
 2,-0.52010561,-1.4336031\H,0,1.02722486,-0.38670229,-2.14496029\H,0,1.

 Normal termination of Gaussian 16 at Wed Apr  9 18:05:37 2025.
 Gaussian 16:  ES64L-G16RevC.01  3-Jul-2019

 ----------------------------------------------------------------------
 #t hf aug-cc-pvdz iop(5/13=1,5/36=2,99/5=2) pseudo=read geom=check gue
 ss=(read,tcheck) scf=(maxcycle=1)
 ----------------------------------------------------------------------
 -----
 title
 -----
 Structure from the checkpoint file:  "Grambow2020_wb97xd3_006581_forward_mol1.chk"
 Charge =  0 Multiplicity = 1

                         Standard orientation:
 ---------------------------------------------------------------------
 Center     Atomic      Atomic             Coordinates (Angstroms)
 Number     Number       Type             X           Y           Z
 ---------------------------------------------------------------------
      1          6           0       -1.766441    1.038573    0.290604
      2          6           0       -0.692020    0.257585    0.767605
      3          8           0       -1.178405   -1.296521   -0.205996
      4          6           0        0.015638   -1.002969   -0.925500
      5          6           0        0.618693    0.077039   -0.011665
      6          6           0        1.692328   -0.498097    0.906248
      7          6           0        1.131485    1.325738   -0.714784
      8          1           0       -1.901185   -0.196543   -0.264445
      9          1           0       -2.557730    1.298213    0.982325
     10          1           0       -1.579095    1.750680   -0.504051
     11          1           0       -0.722486   -0.118952    1.785403
     12          1           0       -0.197108   -0.654118   -1.943522
     13          1           0        0.655863   -1.886315   -0.996365
     14          1           0        1.341282   -1.413232    1.387447
     15          1           0        1.968677    0.216760    1.686209
     16          1           0        2.593426   -0.737555    0.337633
     17          1           0        1.434846    2.091537    0.003025
     18          1           0        0.386685    1.761183   -1.381576
     19          1           0        2.005965    1.073294   -1.319158
 ---------------------------------------------------------------------

 SCF Done:  E(RHF) =  -310.470163878     A.U. after    2 cycles

 The electronic state is 1-A.
 Alpha  occ. eigenvalues --  -20.98507 -11.51966 -11.44286 -11.40851 -11.40105
 Alpha  occ. eigenvalues --  -11.37578 -11.36030  -1.68709  -1.27049  -1.13082
 Alpha  occ. eigenvalues --   -1.02071  -0.96523  -0.89063  -0.76550  -0.67645
 Alpha  occ. eigenvalues --   -0.65126  -0.63325  -0.59342  -0.56925  -0.54400
 Alpha  occ. eigenvalues --   -0.53709  -0.52775  -0.51144  -0.44655  -0.41694
 Alpha  occ. eigenvalues --   -0.38259  -0.29884  -0.23010
 Alpha virt. eigenvalues --    0.03643   0.04840   0.04911   0.05294   0.05390
 Alpha virt. eigenvalues --    0.05419   0.06372   0.06721   0.08203   0.08720
 Alpha virt. eigenvalues --    0.09100   0.09556   0.10010   0.12601   0.13145

 Mulliken charges:
               1
     1  C   -3.437209
     2  C   -0.155307
     3  O   -2.457986
     4  C   -1.190450
     5  C   -0.116992
     6  C   -4.507214
     7  C   -4.146384
     8  H    1.756887
     9  H    1.181111
    10  H    1.201563
    11  H    1.449480
    12  H    1.458842
    13  H    1.445348
    14  H    1.268775
    15  H    1.193517
    16  H    1.182572
    17  H    1.181512
    18  H    1.452732
    19  H    1.239205
 Sum of Mulliken charges =   0.00000

 Dipole moment (field-independent basis, Debye):
    X=              1.5311    Y=              0.2591    Z=              0.5181  Tot=              1.6370

 Test job not archived.
 1\1\GINC-SE229\SP\RHF\Aug-CC-pVDZ\C6H12O1\OHZDE\09-Apr-2025\0\\#t hf a
 ug-cc-pvdz iop(5/13=1,5/36=2,99/5=2) pseudo=read geom=check guess=(rea
 d,tcheck) scf=(maxcycle=1)\\title\\0,1\C,0,1.68755832,-0.20310065,-1.3
 0595982\C,0,1.14464612,-0.20621859,-0.00323637\O,0,1.07264692,1.683876
 19,0.14533816\C,0,-0.33297741,1.45553817,0.10434524\C,0,-0.35972293,-0
 .0727529,0.27404861\C,0,-0.65868211,-0.47360681,1.71487376\C,0,-1.2652
 4776,-0.82810691,-0.68826428\H,0,1.55350545,1.09858798,-0.93261894\H,0
 ,2.71480922,-0.52010561,-1.4336031\H,0,1.02722486,-0.38670229,-2.14496

 Normal termination of Gaussian 16 at Wed Apr  9 18:05:45 2025.
