 Gaussian 16, Revision C.01,

 ----------------------------------------------------------------------
 #t hf aug-cc-pvdz symm=none int=(grid=ultrafine) guess=(read,tcheck) s
 table=(opt,rrhf)
 ----------------------------------------------------------------------
 -----
 title
 -----
 Symbolic Z-matrix:
 Charge =  0 Multiplicity = 1

 SCF Done:  E(RHF) =  -279.718377201     A.U. after   16 cycles
 Normal termination of Gaussian 16 at Wed Apr  9 17:09:06 2025.
 Gaussian 16:  ES64L-G16RevC.01  3-Jul-2019

 ----------------------------------------------------------------------
 #t hf aug-cc-pvdz iop(5/13=1,5/36=2,99/5=2) pseudo=read geom=check gue
 ss=(read,tcheck) scf=(maxcycle=1)
 ----------------------------------------------------------------------
 -----
 title
 -----
 Structure from the checkpoint file:  "Grambow2020_b97d3_007055_forward_mol1.chk"
 Charge =  0 Multiplicity = 1

                         Standard orientation:
 ---------------------------------------------------------------------
 Center     Atomic      Atomic             Coordinates (Angstroms)
 Number     Number       Type             X           Y           Z
 ---------------------------------------------------------------------
      1          7           0       -2.070529   -0.017707    0.084826
      2          6           0       -0.676944   -0.120749    0.004566
      3          6           0        0.122064   -1.287087   -0.099194
      4          6           0        1.456708   -0.605539   -0.031608
      5          7           0        1.417991    0.801039   -0.034994
      6          7           0        0.107352    1.009472    0.021551
      7          1           0       -2.469422   -0.954592    0.038554
      8          1           0       -2.495646    0.568992   -0.634912
      9          1           0        1.183986   -0.989966    1.036026
     10          1           0        2.402765   -1.065495   -0.315851
     11          1           0       -0.216354    1.971679    0.133920
 ---------------------------------------------------------------------

 SCF Done:  E(RHF) =  -281.010512461     A.U. after    2 cycles

 The electronic state is 1-A.
 Alpha  occ. eigenvalues --  -15.86096 -15.77322 -15.76887 -11.45972 -11.42341
 Alpha  occ. eigenvalues --  -11.36756  -1.62669  -1.35807  -1.19442  -1.10625
 Alpha  occ. eigenvalues --   -0.87238  -0.79759  -0.72461  -0.66754  -0.64135
 Alpha  occ. eigenvalues --   -0.58213  -0.52836  -0.49255  -0.45826  -0.40420
 Alpha  occ. eigenvalues --   -0.32922  -0.27981
 Alpha virt. eigenvalues --    0.03159   0.05050   0.05291   0.06487   0.06816
 Alpha virt. eigenvalues --    0.09397   0.10347   0.10986   0.11607   0.13028
 Alpha virt. eigenvalues --    0.13735   0.14667   0.15459   0.16037   0.16822

 Mulliken charges:
               1
     1  N   -3.091320
     2  C    5.046250
     3  C   -2.141489
     4  C   -1.088047
     5  N   -1.550378
     6  N   -2.119497
     7  H    0.619611
     8  H    0.546433
     9  H    1.384861
    10  H    1.437814
    11  H    0.955761
 Sum of Mulliken charges =  -0.00000

 Dipole moment (field-independent basis, Debye):
    X=             -1.2868    Y=              3.2546    Z=             -0.3699  Tot=              3.5192

 Test job not archived.
 1\1\GINC-SE226\SP\RHF\Aug-CC-pVDZ\C3H5N3\OHZDE\09-Apr-2025\0\\#t hf au
 g-cc-pvdz iop(5/13=1,5/36=2,99/5=2) pseudo=read geom=check guess=(read
 ,tcheck) scf=(maxcycle=1)\\title\\0,1\N,0,-1.9400275,0.01641336,0.1325
 219\C,0,-0.54779103,-0.0517611,0.00536352\C,0,0.26956682,-1.19127718,-
 0.20188695\C,0,1.59256343,-0.48828287,-0.12553059\N,0,1.52727072,0.914
 08493,-0.03028092\N,0,0.21523044,1.09074001,0.07815617\H,0,-2.32241063
 ,-0.92319471,0.03287076\H,0,-2.39756564,0.64220244,-0.53231669\H,0,1.3
 5934962,-0.95080202,0.92026652\H,0,2.53814459,-0.9077669,-0.46800221\H

 Normal termination of Gaussian 16 at Wed Apr  9 17:09:09 2025.
