 Gaussian 16, Revision C.01,

 ----------------------------------------------------------------------
 #t hf aug-cc-pvdz symm=none int=(grid=ultrafine) guess=(read,tcheck) s
 table=(opt,rrhf)
 ----------------------------------------------------------------------
 -----
 title
 -----
 Symbolic Z-matrix:
 Charge =  0 Multiplicity = 1

 SCF Done:  E(RHF) =  -338.639443386     A.U. after   14 cycles
 Normal termination of Gaussian 16 at Wed Apr  9 03:59:37 2025.
 Gaussian 16:  ES64L-G16RevC.01  3-Jul-2019

 ----------------------------------------------------------------------
 #t hf aug-cc-pvdz iop(5/13=1,5/36=2,99/5=2) pseudo=read geom=check gue
 ss=(read,tcheck) scf=(maxcycle=1)
 ----------------------------------------------------------------------
 -----
 title
 -----
 Structure from the checkpoint file:  "Grambow2020_wb97xd3_008805_reverse_mol1.chk"
 Charge =  0 Multiplicity = 1

                         Standard orientation:
 ---------------------------------------------------------------------
 Center     Atomic      Atomic             Coordinates (Angstroms)
 Number     Number       Type             X           Y           Z
 ---------------------------------------------------------------------
      1          7           0        1.964774   -1.300173    0.214024
      2          6           0        1.742424   -0.334635   -0.622992
      3          6           0       -1.260726   -0.495515    0.230664
      4          8           0       -2.525313   -0.775117   -0.132462
      5          7           0       -1.058142    0.789223   -0.022157
      6          6           0        0.163726    1.470181    0.158455
      7          6           0        1.369863    0.940840   -0.039875
      8          1           0        1.762485   -1.244328    1.208350
      9          1           0        2.237115   -2.207431   -0.129649
     10          1           0       -2.677912   -1.698410    0.070391
     11          1           0       -1.834219    1.341850   -0.375851
     12          1           0        0.055116    2.503861    0.459668
     13          1           0        2.221766    1.596825    0.126202
 ---------------------------------------------------------------------

 SCF Done:  E(RHF) =  -340.162476552     A.U. after    2 cycles

 The electronic state is 1-A.
 Alpha  occ. eigenvalues --  -21.10925 -15.79832 -15.77425 -11.45090 -11.40538
 Alpha  occ. eigenvalues --  -11.39824 -11.37261  -1.77187  -1.42258  -1.37506
 Alpha  occ. eigenvalues --   -1.12097  -0.93485  -0.83172  -0.75576  -0.71517
 Alpha  occ. eigenvalues --   -0.68703  -0.61602  -0.57453  -0.54893  -0.52779
 Alpha  occ. eigenvalues --   -0.51340  -0.44734  -0.42083  -0.34689  -0.31950
 Alpha  occ. eigenvalues --   -0.27012
 Alpha virt. eigenvalues --    0.03852   0.05189   0.05223   0.05880   0.06387
 Alpha virt. eigenvalues --    0.07037   0.10646   0.11017   0.11256   0.12451
 Alpha virt. eigenvalues --    0.12876   0.13031   0.13684   0.15334   0.15600

 Mulliken charges:
               1
     1  N   -2.146177
     2  C   -1.021773
     3  C    1.098437
     4  O   -2.536778
     5  N   -2.360717
     6  C   -0.319439
     7  C    1.050844
     8  H    0.819084
     9  H    0.798776
    10  H    1.124895
    11  H    0.616087
    12  H    1.545498
    13  H    1.331263
 Sum of Mulliken charges =  -0.00000

 Dipole moment (field-independent basis, Debye):
    X=             -1.0274    Y=             -0.2857    Z=              1.7545  Tot=              2.0532

 Test job not archived.
 1\1\GINC-SE080\SP\RHF\Aug-CC-pVDZ\C4H6N2O1\OHZDE\09-Apr-2025\0\\#t hf
 aug-cc-pvdz iop(5/13=1,5/36=2,99/5=2) pseudo=read geom=check guess=(re
 ad,tcheck) scf=(maxcycle=1)\\title\\0,1\N,0,-1.79130266,1.35600195,0.1
 2267591\C,0,-0.74099226,1.34372575,0.88359384\C,0,-0.14044898,-1.50445
 319,-0.25691027\O,0,-0.03579218,-2.82222806,-0.00845034\N,0,1.05556134
 ,-0.97313904,-0.05008866\C,0,1.36135048,0.40068554,-0.14165616\C,0,0.5
 3955739,1.39083139,0.20268463\H,0,-1.75814486,1.25971555,-0.88843944\H
 ,0,-2.7095789,1.33535516,0.53708943\H,0,-0.89501579,-3.20903135,-0.178

 Normal termination of Gaussian 16 at Wed Apr  9 03:59:41 2025.
