 Gaussian 16, Revision C.01,

 ----------------------------------------------------------------------
 #t hf aug-cc-pvdz symm=none int=(grid=ultrafine) guess=(read,tcheck) s
 table=(opt,rrhf)
 ----------------------------------------------------------------------
 -----
 title
 -----
 Symbolic Z-matrix:
 Charge =  0 Multiplicity = 1

 SCF Done:  E(RHF) =  -331.637176038     A.U. after   17 cycles
 Normal termination of Gaussian 16 at Wed Apr  9 03:15:22 2025.
 Gaussian 16:  ES64L-G16RevC.01  3-Jul-2019

 ----------------------------------------------------------------------
 #t hf aug-cc-pvdz iop(5/13=1,5/36=2,99/5=2) pseudo=read geom=check gue
 ss=(read,tcheck) scf=(maxcycle=1)
 ----------------------------------------------------------------------
 -----
 title
 -----
 Structure from the checkpoint file:  "Grambow2020_b97d3_006978_reverse_mol2.chk"
 Charge =  0 Multiplicity = 1

                         Standard orientation:
 ---------------------------------------------------------------------
 Center     Atomic      Atomic             Coordinates (Angstroms)
 Number     Number       Type             X           Y           Z
 ---------------------------------------------------------------------
      1          7           0        2.135929   -0.782594   -0.121491
      2          6           0        1.613970    0.455712   -0.001366
      3          7           0        1.157687    1.539051    0.037606
      4          8           0       -2.327435    0.664196   -0.036895
      5          7           0       -1.642723   -0.304715    0.010722
      6          7           0       -0.992921   -1.246231    0.057143
      7          1           0        1.423731   -1.512925   -0.101850
      8          1           0        2.906125   -0.973492    0.517343
 ---------------------------------------------------------------------

 SCF Done:  E(RHF) =  -333.075521916     A.U. after    2 cycles

 The electronic state is 1-A.
 Alpha  occ. eigenvalues --  -21.16431 -16.03435 -15.88546 -15.82710 -15.75818
 Alpha  occ. eigenvalues --  -11.46320  -1.93795  -1.51931  -1.42074  -1.25494
 Alpha  occ. eigenvalues --   -0.80075  -0.77831  -0.73167  -0.70632  -0.70333
 Alpha  occ. eigenvalues --   -0.64210  -0.55833  -0.52137  -0.44020  -0.38902
 Alpha  occ. eigenvalues --   -0.38832  -0.37218
 Alpha virt. eigenvalues --    0.02813   0.05838   0.09565   0.10597   0.11498
 Alpha virt. eigenvalues --    0.12013   0.12598   0.13046   0.14746   0.15155
 Alpha virt. eigenvalues --    0.17121   0.17975   0.18585   0.19166   0.20156

 Mulliken charges:
               1
     1  N   -2.389164
     2  C    3.128537
     3  N   -2.194223
     4  O   -2.135700
     5  N    2.616767
     6  N   -0.489526
     7  H    0.719069
     8  H    0.744240
 Sum of Mulliken charges =  -0.00000

 Dipole moment (field-independent basis, Debye):
    X=             -0.0610    Y=             -2.1062    Z=              0.6568  Tot=              2.2071

 Test job not archived.
 1\1\GINC-SE106\SP\RHF\Aug-CC-pVDZ\C1H2N4O1\OHZDE\09-Apr-2025\0\\#t hf
 aug-cc-pvdz iop(5/13=1,5/36=2,99/5=2) pseudo=read geom=check guess=(re
 ad,tcheck) scf=(maxcycle=1)\\title\\0,1\N,0,1.65633807,0.17856426,-0.2
 9777349\C,0,0.61127654,0.96768493,-0.62243791\N,0,-0.30269609,1.624673
 07,-0.96354825\O,0,-2.96099956,-0.49678837,0.19826929\N,0,-1.89975254,
 -0.92993317,0.50814919\N,0,-0.88221576,-1.35708629,0.81312293\H,0,1.37
 369257,-0.65630275,0.21613568\H,0,2.42542176,0.67103833,0.15359455\\Ve
 rsion=ES64L-G16RevC.01\State=1-A\HF=-333.0755219\RMSD=1.106e-01\Dipole

 Normal termination of Gaussian 16 at Wed Apr  9 03:15:24 2025.
