 Gaussian 16, Revision C.01,

 ----------------------------------------------------------------------
 #t hf aug-cc-pvdz symm=none int=(grid=ultrafine) guess=(read,tcheck) s
 table=(opt,rrhf)
 ----------------------------------------------------------------------
 -----
 title
 -----
 Symbolic Z-matrix:
 Charge =  0 Multiplicity = 1

 SCF Done:  E(RHF) =  -302.831783376     A.U. after   15 cycles
 Normal termination of Gaussian 16 at Wed Apr  9 18:32:28 2025.
 Gaussian 16:  ES64L-G16RevC.01  3-Jul-2019

 ----------------------------------------------------------------------
 #t hf aug-cc-pvdz iop(5/13=1,5/36=2,99/5=2) pseudo=read geom=check gue
 ss=(read,tcheck) scf=(maxcycle=1)
 ----------------------------------------------------------------------
 -----
 title
 -----
 Structure from the checkpoint file:  "Grambow2020_wb97xd3_007242_reverse_mol2.chk"
 Charge =  0 Multiplicity = 1

                         Standard orientation:
 ---------------------------------------------------------------------
 Center     Atomic      Atomic             Coordinates (Angstroms)
 Number     Number       Type             X           Y           Z
 ---------------------------------------------------------------------
      1          6           0       -2.433264   -0.470013    0.008515
      2          7           0       -1.043006   -0.077689   -0.004627
      3          6           0       -0.610060    1.162585   -0.001090
      4          7           0        0.740495    1.116893   -0.004894
      5          6           0        1.220422   -0.211390   -0.003415
      6          6           0        2.538771   -0.544553    0.008546
      7          6           0        0.012203   -0.960236   -0.013848
      8          1           0       -2.637339   -1.068574    0.896474
      9          1           0       -3.062590    0.417438    0.020783
     10          1           0       -2.657542   -1.060313   -0.879748
     11          1           0       -1.224835    2.044280    0.005780
     12          1           0        3.307286    0.215114    0.021655
     13          1           0        1.336294    1.922480    0.006755
     14          1           0        2.837220   -1.581142    0.008228
     15          1           0       -0.149355   -2.022063   -0.005532
 ---------------------------------------------------------------------

 SCF Done:  E(RHF) =  -304.280406062     A.U. after    2 cycles

 The electronic state is 1-A.
 Alpha  occ. eigenvalues --  -15.81744 -15.78432 -11.45779 -11.43566 -11.43468
 Alpha  occ. eigenvalues --  -11.36751 -11.29829  -1.60621  -1.35847  -1.12488
 Alpha  occ. eigenvalues --   -1.07191  -0.95852  -0.83094  -0.80853  -0.72169
 Alpha  occ. eigenvalues --   -0.66853  -0.63560  -0.58956  -0.57360  -0.56886
 Alpha  occ. eigenvalues --   -0.55960  -0.50201  -0.45575  -0.40370  -0.35206
 Alpha  occ. eigenvalues --   -0.16891
 Alpha virt. eigenvalues --    0.02611   0.04141   0.04826   0.05847   0.06287
 Alpha virt. eigenvalues --    0.06956   0.07589   0.08235   0.09679   0.09796
 Alpha virt. eigenvalues --    0.11773   0.13182   0.13398   0.13780   0.14532

 Mulliken charges:
               1
     1  C   -3.269867
     2  N   -3.305967
     3  C    0.813210
     4  N   -3.810533
     5  C    4.081182
     6  C   -4.565042
     7  C   -0.686407
     8  H    1.440407
     9  H    1.470198
    10  H    1.443782
    11  H    1.649316
    12  H    1.324038
    13  H    0.771859
    14  H    1.287293
    15  H    1.356532
 Sum of Mulliken charges =   0.00000

 Dipole moment (field-independent basis, Debye):
    X=             -5.6507    Y=              2.8946    Z=              0.0536  Tot=              6.3492

 Test job not archived.
 1\1\GINC-SE229\SP\RHF\Aug-CC-pVDZ\C5H8N2\OHZDE\09-Apr-2025\0\\#t hf au
 g-cc-pvdz iop(5/13=1,5/36=2,99/5=2) pseudo=read geom=check guess=(read
 ,tcheck) scf=(maxcycle=1)\\title\\0,1\C,0,-2.34332127,0.03168079,-0.20
 327491\N,0,-0.92603792,-0.08472349,0.05102033\C,0,-0.38695051,-0.83967
 317,0.98116568\N,0,0.95306569,-0.68749147,0.89573671\C,0,1.3150794,0.2
 0093704,-0.14075278\C,0,2.59868025,0.52147167,-0.45509238\C,0,0.046900
 45,0.57888158,-0.65993708\H,0,-2.5602811,-0.28435538,-1.22378568\H,0,-
 2.89183363,-0.59949825,0.49279904\H,0,-2.65625904,1.06782178,-0.075810

 Normal termination of Gaussian 16 at Wed Apr  9 18:32:32 2025.
