 Gaussian 16, Revision C.01,

 ----------------------------------------------------------------------
 #t hf aug-cc-pvdz symm=none int=(grid=ultrafine) guess=(read,tcheck) s
 table=(opt,rrhf)
 ----------------------------------------------------------------------
 -----
 title
 -----
 Symbolic Z-matrix:
 Charge =  0 Multiplicity = 1

 SCF Done:  E(RHF) =  -307.915196951     A.U. after   13 cycles

 1\1\GINC-SE219\Stability\RHF\Aug-CC-pVDZ\C6H10O1\OHZDE\09-Apr-2025\0\\
 #t hf aug-cc-pvdz symm=none int=(grid=ultrafine) guess=(read,tcheck) s
 table=(opt,rrhf)\\title\\0,1\C,0,2.22858633,0.05008558,0.01068193\C,0,
 0.7519106,-0.15987296,0.01227092\C,0,0.06678208,-1.16611008,0.54595939
 \C,0,-1.42074912,-1.02893294,0.37013453\C,0,-1.54302936,0.15562864,-0.
 60533441\C,0,-0.18767921,0.87940683,-0.56019272\O,0,-0.18666323,2.0604
 4021,0.23620215\H,0,2.47891124,1.01570726,0.45602761\H,0,2.61535537,0.
 06251019,-1.01213118\H,0,2.74766413,-0.734056,0.56237142\H,0,0.5178687

 Normal termination of Gaussian 16 at Wed Apr  9 18:51:52 2025.
 Gaussian 16:  ES64L-G16RevC.01  3-Jul-2019

 ----------------------------------------------------------------------
 #t hf aug-cc-pvdz iop(5/13=1,5/36=2,99/5=2) pseudo=read geom=check gue
 ss=(read,tcheck) scf=(maxcycle=1)
 ----------------------------------------------------------------------
 -----
 title
 -----
 Structure from the checkpoint file:  "Grambow2020_wb97xd3_007728_forward_mol2.chk"
 Charge =  0 Multiplicity = 1

                         Standard orientation:
 ---------------------------------------------------------------------
 Center     Atomic      Atomic             Coordinates (Angstroms)
 Number     Number       Type             X           Y           Z
 ---------------------------------------------------------------------
      1          6           0       -2.205997   -0.484652    0.164814
      2          6           0       -0.716577   -0.434742    0.103231
      3          6           0        0.120856   -1.389336   -0.289443
      4          6           0        1.564159   -0.968920   -0.238355
      5          6           0        1.502922    0.378213    0.504047
      6          6           0        0.038382    0.837775    0.421638
      7          8           0       -0.202548    1.833823   -0.567770
      8          1           0       -2.641364    0.324834   -0.425617
      9          1           0       -2.554294   -0.350517    1.192719
     10          1           0       -2.592998   -1.434265   -0.205521
     11          1           0       -0.189002   -2.372377   -0.627720
     12          1           0        1.982587   -0.878004   -1.246558
     13          1           0        2.187620   -1.697209    0.285265
     14          1           0        1.774159    0.230785    1.551154
     15          1           0        2.170395    1.138665    0.097867
     16          1           0       -0.295156    1.300999    1.352991
     17          1           0       -0.044030    1.436479   -1.428012
 ---------------------------------------------------------------------

 SCF Done:  E(RHF) =  -309.393732047     A.U. after    2 cycles

 The electronic state is 1-A.
 Alpha  occ. eigenvalues --  -21.05995 -11.46928 -11.44876 -11.40664 -11.39322
 Alpha  occ. eigenvalues --  -11.37511 -11.34730  -1.70971  -1.31457  -1.11175
 Alpha  occ. eigenvalues --   -1.01181  -0.95932  -0.82625  -0.75077  -0.66505
 Alpha  occ. eigenvalues --   -0.64083  -0.58359  -0.56908  -0.54927  -0.53886
 Alpha  occ. eigenvalues --   -0.48938  -0.47433  -0.46442  -0.44696  -0.39587
 Alpha  occ. eigenvalues --   -0.32160  -0.29909
 Alpha virt. eigenvalues --    0.03755   0.05033   0.05223   0.05304   0.05867
 Alpha virt. eigenvalues --    0.06440   0.06690   0.07035   0.07548   0.08525
 Alpha virt. eigenvalues --    0.11720   0.12409   0.12767   0.13489   0.14255

 Mulliken charges:
               1
     1  C   -4.579547
     2  C    4.442332
     3  C   -2.036907
     4  C   -3.792265
     5  C   -3.318037
     6  C   -0.247571
     7  O   -3.091493
     8  H    1.221720
     9  H    1.173930
    10  H    1.265399
    11  H    1.593581
    12  H    1.241442
    13  H    1.134323
    14  H    1.280635
    15  H    1.279121
    16  H    1.588952
    17  H    0.844387
 Sum of Mulliken charges =   0.00000

 Dipole moment (field-independent basis, Debye):
    X=              0.0802    Y=             -0.6779    Z=              0.0078  Tot=              0.6826

 Test job not archived.
 1\1\GINC-SE219\SP\RHF\Aug-CC-pVDZ\C6H10O1\OHZDE\09-Apr-2025\0\\#t hf a
 ug-cc-pvdz iop(5/13=1,5/36=2,99/5=2) pseudo=read geom=check guess=(rea
 d,tcheck) scf=(maxcycle=1)\\title\\0,1\C,0,2.22858633,0.05008558,0.010
 68193\C,0,0.7519106,-0.15987296,0.01227092\C,0,0.06678208,-1.16611008,
 0.54595939\C,0,-1.42074912,-1.02893294,0.37013453\C,0,-1.54302936,0.15
 562864,-0.60533441\C,0,-0.18767921,0.87940683,-0.56019272\O,0,-0.18666
 323,2.06044021,0.23620215\H,0,2.47891124,1.01570726,0.45602761\H,0,2.6
 1535537,0.06251019,-1.01213118\H,0,2.74766413,-0.734056,0.56237142\H,0

 Normal termination of Gaussian 16 at Wed Apr  9 18:51:58 2025.
