 Gaussian 16, Revision C.01,

 ----------------------------------------------------------------------
 #t hf aug-cc-pvdz symm=none int=(grid=ultrafine) guess=(read,tcheck) s
 table=(opt,rrhf)
 ----------------------------------------------------------------------
 -----
 title
 -----
 Symbolic Z-matrix:
 Charge =  0 Multiplicity = 1

 SCF Done:  E(RHF) =  -320.571633442     A.U. after   16 cycles
 Normal termination of Gaussian 16 at Wed Apr  9 17:26:19 2025.
 Gaussian 16:  ES64L-G16RevC.01  3-Jul-2019

 ----------------------------------------------------------------------
 #t hf aug-cc-pvdz iop(5/13=1,5/36=2,99/5=2) pseudo=read geom=check gue
 ss=(read,tcheck) scf=(maxcycle=1)
 ----------------------------------------------------------------------
 -----
 title
 -----
 Structure from the checkpoint file:  "Grambow2020_b97d3_007136_forward_mol1.chk"
 Charge =  0 Multiplicity = 1

                         Standard orientation:
 ---------------------------------------------------------------------
 Center     Atomic      Atomic             Coordinates (Angstroms)
 Number     Number       Type             X           Y           Z
 ---------------------------------------------------------------------
      1          8           0       -2.059667   -0.272776    0.148684
      2          6           0       -0.947611    0.120524    0.114979
      3          7           0       -0.181030    1.209866   -0.169922
      4          6           0        1.235519    0.868144    0.036838
      5          6           0        1.102787   -0.655318    0.384438
      6          8           0        0.522145   -1.367778   -0.534066
      7          1           0       -0.440936    1.642568   -1.059369
      8          1           0        1.806850    1.005090   -0.889748
      9          1           0        1.661583    1.472005    0.848411
     10          1           0        0.191155   -0.405570    1.261709
     11          1           0        2.004565   -1.058824    0.893982
 ---------------------------------------------------------------------

 SCF Done:  E(RHF) =  -322.015552394     A.U. after    2 cycles

 The electronic state is 1-A.
 Alpha  occ. eigenvalues --  -21.16749 -20.97391 -15.83582 -11.63225 -11.48630
 Alpha  occ. eigenvalues --  -11.42616  -1.80472  -1.65325  -1.46052  -1.07719
 Alpha  occ. eigenvalues --   -0.92300  -0.81064  -0.71516  -0.68807  -0.65565
 Alpha  occ. eigenvalues --   -0.58845  -0.56594  -0.53743  -0.46686  -0.43136
 Alpha  occ. eigenvalues --   -0.40316  -0.26195  -0.25425
 Alpha virt. eigenvalues --    0.03271   0.04534   0.05218   0.05746   0.06413
 Alpha virt. eigenvalues --    0.08486   0.10340   0.10510   0.11340   0.12438
 Alpha virt. eigenvalues --    0.13549   0.14340   0.15257   0.15383   0.16620

 Mulliken charges:
               1
     1  O   -2.810265
     2  C    4.230367
     3  N   -2.299510
     4  C   -2.276362
     5  C    0.032421
     6  O   -2.428657
     7  H    0.660716
     8  H    1.431227
     9  H    1.419958
    10  H    0.765650
    11  H    1.274454
 Sum of Mulliken charges =  -0.00000

 Dipole moment (field-independent basis, Debye):
    X=             -0.7747    Y=              2.7592    Z=             -0.5142  Tot=              2.9117

 Test job not archived.
 1\1\GINC-SE174\SP\RHF\Aug-CC-pVDZ\C3H5N1O2\OHZDE\09-Apr-2025\0\\#t hf
 aug-cc-pvdz iop(5/13=1,5/36=2,99/5=2) pseudo=read geom=check guess=(re
 ad,tcheck) scf=(maxcycle=1)\\title\\0,1\O,0,2.4521136,0.63719248,0.395
 31168\C,0,1.34581305,0.23088512,0.33612573\N,0,0.53708685,-0.79826923,
 0.7133315\C,0,-0.8193161,-0.55863329,0.19479381\C,0,-0.56949559,0.7487
 6021,-0.63447691\O,0,0.33187357,0.63243585,-1.56312941\H,0,0.96214358,
 -1.71017046,0.52986099\H,0,-1.13406441,-1.37909328,-0.46210417\H,0,-1.
 52923756,-0.42947099,1.02193213\H,0,0.0276638,1.30336026,0.36495817\H,

 Normal termination of Gaussian 16 at Wed Apr  9 17:26:22 2025.
