 Gaussian 16, Revision C.01,

 ----------------------------------------------------------------------
 #t hf aug-cc-pvdz symm=none int=(grid=ultrafine) guess=(read,tcheck) s
 table=(opt,rrhf)
 ----------------------------------------------------------------------
 -----
 title
 -----
 Symbolic Z-matrix:
 Charge =  0 Multiplicity = 1

 SCF Done:  E(RHF) =  -359.557590190     A.U. after   16 cycles
 Normal termination of Gaussian 16 at Wed Apr  9 18:07:09 2025.
 Gaussian 16:  ES64L-G16RevC.01  3-Jul-2019

 ----------------------------------------------------------------------
 #t hf aug-cc-pvdz iop(5/13=1,5/36=2,99/5=2) pseudo=read geom=check gue
 ss=(read,tcheck) scf=(maxcycle=1)
 ----------------------------------------------------------------------
 -----
 title
 -----
 Structure from the checkpoint file:  "Grambow2020_wb97xd3_006600_forward_mol1.chk"
 Charge =  0 Multiplicity = 1

                         Standard orientation:
 ---------------------------------------------------------------------
 Center     Atomic      Atomic             Coordinates (Angstroms)
 Number     Number       Type             X           Y           Z
 ---------------------------------------------------------------------
      1          6           0        2.218840   -0.659596   -0.185382
      2          7           0        1.223179    1.462298   -0.056665
      3          6           0        0.191149    0.869568    0.135798
      4          6           0       -1.307530    0.989662    0.091411
      5          8           0       -1.746750   -0.252558   -0.443637
      6          6           0       -0.918492   -1.251966    0.091783
      7          8           0        0.319225   -0.620318    0.370763
      8          1           0        2.313383   -0.282406   -1.190511
      9          1           0        2.828688   -0.174671    0.558088
     10          1           0        2.092001   -1.727898   -0.074556
     11          1           0       -1.619289    1.783090   -0.581754
     12          1           0       -1.727707    1.161082    1.090226
     13          1           0       -0.796829   -2.045189   -0.648755
     14          1           0       -1.336090   -1.653096    1.025239
 ---------------------------------------------------------------------

 SCF Done:  E(RHF) =  -361.164177904     A.U. after    2 cycles

 The electronic state is 1-A.
 Alpha  occ. eigenvalues --  -21.06477 -21.06017 -15.65883 -11.50815 -11.47120
 Alpha  occ. eigenvalues --  -11.44871 -11.39758  -1.86922  -1.67757  -1.24821
 Alpha  occ. eigenvalues --   -1.06064  -1.04785  -0.90223  -0.75445  -0.69965
 Alpha  occ. eigenvalues --   -0.65691  -0.63922  -0.63304  -0.61415  -0.53134
 Alpha  occ. eigenvalues --   -0.49691  -0.44964  -0.43088  -0.37783  -0.32747
 Alpha  occ. eigenvalues --   -0.30851  -0.24354
 Alpha virt. eigenvalues --    0.01973   0.04257   0.04945   0.05244   0.06051
 Alpha virt. eigenvalues --    0.06215   0.07069   0.08482   0.10240   0.11414
 Alpha virt. eigenvalues --    0.11944   0.13123   0.13813   0.14476   0.14977

 Mulliken charges:
               1
     1  C   -3.782252
     2  N   -3.027610
     3  C    4.482407
     4  C   -1.978184
     5  O   -2.749886
     6  C   -0.261568
     7  O   -2.654968
     8  H    1.336109
     9  H    1.343951
    10  H    1.342880
    11  H    1.291142
    12  H    1.385077
    13  H    1.632581
    14  H    1.640322
 Sum of Mulliken charges =   0.00000

 Dipole moment (field-independent basis, Debye):
    X=              0.0636    Y=             -4.2503    Z=             -0.0459  Tot=              4.2510

 Test job not archived.
 1\1\GINC-SE454\SP\RHF\Aug-CC-pVDZ\C4H7N1O2\OHZDE\09-Apr-2025\0\\#t hf
 aug-cc-pvdz iop(5/13=1,5/36=2,99/5=2) pseudo=read geom=check guess=(re
 ad,tcheck) scf=(maxcycle=1)\\title\\0,1\C,0,1.89679871,-0.82351847,-0.
 87162012\N,0,1.44528041,1.28196095,0.0629557\C,0,0.30850137,0.89428782
 ,0.16736082\C,0,-1.11802971,1.33942067,0.33852667\O,0,-1.86139253,0.48
 473348,-0.52125285\C,0,-1.27920223,-0.79066978,-0.44440665\O,0,0.08304
 849,-0.57510807,-0.11797574\H,0,2.04376474,-0.15023047,-1.70022115\H,0
 ,2.6310676,-0.76915335,-0.08567602\H,0,1.52098277,-1.81040828,-1.10496

 Normal termination of Gaussian 16 at Wed Apr  9 18:07:13 2025.
