 Gaussian 16, Revision C.01,

 ----------------------------------------------------------------------
 #t hf aug-cc-pvdz symm=none int=(grid=ultrafine) guess=(read,tcheck) s
 table=(opt,rrhf)
 ----------------------------------------------------------------------
 -----
 title
 -----
 Symbolic Z-matrix:
 Charge =  0 Multiplicity = 1

 SCF Done:  E(RHF) =  -289.173546859     A.U. after   13 cycles

 1\1\GINC-SE036\Stability\RHF\Aug-CC-pVDZ\C6H13N1\OHZDE\09-Apr-2025\0\\
 #t hf aug-cc-pvdz symm=none int=(grid=ultrafine) guess=(read,tcheck) s
 table=(opt,rrhf)\\title\\0,1\C,0,-1.08761578,1.54960626,0.98501967\C,0
 ,-1.00136675,0.05222601,1.08083802\N,0,-0.68978133,-0.69803706,-0.1544
 018\C,0,-1.42356082,-1.90506744,-0.48385506\C,0,0.2207444,-0.70697124,
 0.88349076\C,0,1.35629715,-1.23246417,1.29276776\C,0,1.78600866,1.4518
 6129,-1.90127304\H,0,-2.06431967,1.85962674,0.60797788\H,0,-0.94289556
 ,2.00324618,1.96753791\H,0,-0.31887769,1.92850377,0.31195871\H,0,-1.72

 Normal termination of Gaussian 16 at Wed Apr  9 19:32:38 2025.
 Gaussian 16:  ES64L-G16RevC.01  3-Jul-2019

 ----------------------------------------------------------------------
 #t hf aug-cc-pvdz iop(5/13=1,5/36=2,99/5=2) pseudo=read geom=check gue
 ss=(read,tcheck) scf=(maxcycle=1)
 ----------------------------------------------------------------------
 -----
 title
 -----
 Structure from the checkpoint file:  "Grambow2020_wb97xd3_009133_reverse_mol2.chk"
 Charge =  0 Multiplicity = 1

                         Standard orientation:
 ---------------------------------------------------------------------
 Center     Atomic      Atomic             Coordinates (Angstroms)
 Number     Number       Type             X           Y           Z
 ---------------------------------------------------------------------
      1          6           0        0.033682    2.129280    0.185801
      2          6           0       -0.892051    0.946410    0.236864
      3          7           0       -0.573956   -0.212138   -0.624750
      4          6           0       -1.620839   -0.873224   -1.380328
      5          6           0       -0.515786   -0.360231    0.746761
      6          6           0       -0.338663   -1.238374    1.711449
      7          6           0        3.132996   -0.425243   -0.497295
      8          1           0       -0.195103    2.765529   -0.671560
      9          1           0       -0.066146    2.730626    1.091611
     10          1           0        1.067592    1.794720    0.104370
     11          1           0       -1.954153    1.180626    0.326100
     12          1           0       -1.316825   -1.899250   -1.589098
     13          1           0       -2.573733   -0.897544   -0.835092
     14          1           0       -1.763000   -0.356380   -2.329700
     15          1           0        3.118336   -0.443403    0.591895
     16          1           0       -0.380337   -0.929692    2.746791
     17          1           0       -0.128795   -2.277324    1.490555
     18          1           0        2.113153   -0.524137   -0.867576
     19          1           0        3.743553   -1.249015   -0.865121
     20          1           0        3.557114    0.518497   -0.839442
 ---------------------------------------------------------------------

 SCF Done:  E(RHF) =  -290.637491743     A.U. after    2 cycles

 The electronic state is 1-A.
 Alpha  occ. eigenvalues --  -15.72988 -11.46826 -11.42882 -11.39272 -11.38585
 Alpha  occ. eigenvalues --  -11.37437 -11.34276  -1.50175  -1.13073  -1.08282
 Alpha  occ. eigenvalues --   -1.01490  -1.00560  -0.83640  -0.74401  -0.66276
 Alpha  occ. eigenvalues --   -0.61614  -0.60445  -0.58594  -0.56482  -0.54492
 Alpha  occ. eigenvalues --   -0.52798  -0.52347  -0.52143  -0.51914  -0.43514
 Alpha  occ. eigenvalues --   -0.41682  -0.37627  -0.30349
 Alpha virt. eigenvalues --    0.03552   0.05033   0.05301   0.05631   0.05739
 Alpha virt. eigenvalues --    0.05854   0.05971   0.06169   0.07336   0.07949
 Alpha virt. eigenvalues --    0.08334   0.09462   0.10295   0.11428   0.12319

 Mulliken charges:
               1
     1  C   -4.277651
     2  C   -1.134502
     3  N   -2.584306
     4  C   -3.862617
     5  C    4.921287
     6  C   -5.518775
     7  C   -5.517169
     8  H    1.197746
     9  H    1.152244
    10  H    1.507449
    11  H    1.542777
    12  H    1.453848
    13  H    1.364089
    14  H    1.438934
    15  H    1.316045
    16  H    1.334101
    17  H    1.457973
    18  H    1.735730
    19  H    1.209954
    20  H    1.262844
 Sum of Mulliken charges =   0.00000

 Dipole moment (field-independent basis, Debye):
    X=             -1.1228    Y=              0.4297    Z=             -0.4766  Tot=              1.2932

 Test job not archived.
 1\1\GINC-SE036\SP\RHF\Aug-CC-pVDZ\C6H13N1\OHZDE\09-Apr-2025\0\\#t hf a
 ug-cc-pvdz iop(5/13=1,5/36=2,99/5=2) pseudo=read geom=check guess=(rea
 d,tcheck) scf=(maxcycle=1)\\title\\0,1\C,0,-1.08761578,1.54960626,0.98
 501967\C,0,-1.00136675,0.05222601,1.08083802\N,0,-0.68978133,-0.698037
 06,-0.1544018\C,0,-1.42356082,-1.90506744,-0.48385506\C,0,0.2207444,-0
 .70697124,0.88349076\C,0,1.35629715,-1.23246417,1.29276776\C,0,1.78600
 866,1.45186129,-1.90127304\H,0,-2.06431967,1.85962674,0.60797788\H,0,-
 0.94289556,2.00324618,1.96753791\H,0,-0.31887769,1.92850377,0.31195871

 Normal termination of Gaussian 16 at Wed Apr  9 19:32:45 2025.
