 Gaussian 16, Revision C.01,

 ----------------------------------------------------------------------
 #t hf aug-cc-pvdz symm=none int=(grid=ultrafine) guess=(read,tcheck) s
 table=(opt,rrhf)
 ----------------------------------------------------------------------
 -----
 title
 -----
 Symbolic Z-matrix:
 Charge =  0 Multiplicity = 1

 SCF Done:  E(RHF) =  -309.060867720     A.U. after   13 cycles

 1\1\GINC-SE220\Stability\RHF\Aug-CC-pVDZ\C6H12O1\OHZDE\09-Apr-2025\0\\
 #t hf aug-cc-pvdz symm=none int=(grid=ultrafine) guess=(read,tcheck) s
 table=(opt,rrhf)\\title\\0,1\C,0,1.76380866,-0.32253521,-1.18890494\C,
 0,1.04837275,0.38614601,-0.06895253\O,0,0.67280409,1.73452118,-0.40190
 648\C,0,-0.60363669,1.56526034,0.22691057\C,0,-0.41419414,0.04020327,0
 .31352056\C,0,-0.60382272,-0.5976009,1.67696338\C,0,-1.1911162,-0.7045
 0707,-0.76058579\H,0,2.70963609,0.18033103,-1.39823824\H,0,1.98513743,
 -1.35483006,-0.90706438\H,0,1.17199978,-0.32680037,-2.10424482\H,0,1.6

 Normal termination of Gaussian 16 at Wed Apr  9 18:04:32 2025.
 Gaussian 16:  ES64L-G16RevC.01  3-Jul-2019

 ----------------------------------------------------------------------
 #t hf aug-cc-pvdz iop(5/13=1,5/36=2,99/5=2) pseudo=read geom=check gue
 ss=(read,tcheck) scf=(maxcycle=1)
 ----------------------------------------------------------------------
 -----
 title
 -----
 Structure from the checkpoint file:  "Grambow2020_wb97xd3_006571_forward_mol2.chk"
 Charge =  0 Multiplicity = 1

                         Standard orientation:
 ---------------------------------------------------------------------
 Center     Atomic      Atomic             Coordinates (Angstroms)
 Number     Number       Type             X           Y           Z
 ---------------------------------------------------------------------
      1          6           0       -1.866720   -0.972327   -0.237022
      2          6           0       -0.805822    0.051147   -0.545837
      3          8           0       -0.996598    1.292521    0.156033
      4          6           0        0.406261    1.385126    0.433109
      5          6           0        0.637135   -0.076099    0.008010
      6          6           0        1.718564   -0.326245   -1.026238
      7          6           0        0.779328   -1.012520    1.197465
      8          1           0       -2.837853   -0.611285   -0.580291
      9          1           0       -1.653111   -1.910900   -0.754231
     10          1           0       -1.936431   -1.168099    0.832985
     11          1           0       -0.783502    0.240278   -1.628523
     12          1           0        0.601631    1.633166    1.480097
     13          1           0        0.896312    2.123226   -0.212910
     14          1           0        1.626243    0.357221   -1.872897
     15          1           0        1.659523   -1.348074   -1.410837
     16          1           0        2.713715   -0.194078   -0.593832
     17          1           0        0.674552   -2.057996    0.896775
     18          1           0        0.033219   -0.803372    1.965789
     19          1           0        1.766006   -0.894749    1.652691
 ---------------------------------------------------------------------

 SCF Done:  E(RHF) =  -310.569397071     A.U. after    2 cycles

 The electronic state is 1-A.
 Alpha  occ. eigenvalues --  -21.02496 -11.46690 -11.44519 -11.39671 -11.39253
 Alpha  occ. eigenvalues --  -11.38386 -11.35241  -1.76608  -1.23784  -1.10595
 Alpha  occ. eigenvalues --   -1.01304  -0.96141  -0.90885  -0.75121  -0.65350
 Alpha  occ. eigenvalues --   -0.63674  -0.62655  -0.58707  -0.55809  -0.54412
 Alpha  occ. eigenvalues --   -0.53135  -0.52595  -0.50588  -0.46018  -0.44094
 Alpha  occ. eigenvalues --   -0.38092  -0.33724  -0.28296
 Alpha virt. eigenvalues --    0.03926   0.04871   0.05069   0.05200   0.05420
 Alpha virt. eigenvalues --    0.05799   0.06248   0.06949   0.07473   0.08896
 Alpha virt. eigenvalues --    0.09162   0.09580   0.11456   0.12388   0.13602

 Mulliken charges:
               1
     1  C   -3.833813
     2  C    2.004870
     3  O   -3.305486
     4  C   -1.389903
     5  C   -0.508889
     6  C   -4.509239
     7  C   -4.204795
     8  H    1.110169
     9  H    1.242983
    10  H    1.236798
    11  H    1.648186
    12  H    1.592335
    13  H    1.578706
    14  H    1.245901
    15  H    1.218734
    16  H    1.206045
    17  H    1.248260
    18  H    1.354183
    19  H    1.064955
 Sum of Mulliken charges =   0.00000

 Dipole moment (field-independent basis, Debye):
    X=              0.5911    Y=             -0.5884    Z=             -0.0809  Tot=              0.8380

 Test job not archived.
 1\1\GINC-SE220\SP\RHF\Aug-CC-pVDZ\C6H12O1\OHZDE\09-Apr-2025\0\\#t hf a
 ug-cc-pvdz iop(5/13=1,5/36=2,99/5=2) pseudo=read geom=check guess=(rea
 d,tcheck) scf=(maxcycle=1)\\title\\0,1\C,0,1.76380866,-0.32253521,-1.1
 8890494\C,0,1.04837275,0.38614601,-0.06895253\O,0,0.67280409,1.7345211
 8,-0.40190648\C,0,-0.60363669,1.56526034,0.22691057\C,0,-0.41419414,0.
 04020327,0.31352056\C,0,-0.60382272,-0.5976009,1.67696338\C,0,-1.19111
 62,-0.70450707,-0.76058579\H,0,2.70963609,0.18033103,-1.39823824\H,0,1
 .98513743,-1.35483006,-0.90706438\H,0,1.17199978,-0.32680037,-2.104244

 Normal termination of Gaussian 16 at Wed Apr  9 18:04:39 2025.
