 Gaussian 16, Revision C.01,

 ----------------------------------------------------------------------
 #t hf aug-cc-pvdz symm=none int=(grid=ultrafine) guess=(read,tcheck) s
 table=(opt,rrhf)
 ----------------------------------------------------------------------
 -----
 title
 -----
 Symbolic Z-matrix:
 Charge =  0 Multiplicity = 1

 SCF Done:  E(RHF) =  -358.455722257     A.U. after   15 cycles
 Normal termination of Gaussian 16 at Wed Apr  9 18:14:27 2025.
 Gaussian 16:  ES64L-G16RevC.01  3-Jul-2019

 ----------------------------------------------------------------------
 #t hf aug-cc-pvdz iop(5/13=1,5/36=2,99/5=2) pseudo=read geom=check gue
 ss=(read,tcheck) scf=(maxcycle=1)
 ----------------------------------------------------------------------
 -----
 title
 -----
 Structure from the checkpoint file:  "Grambow2020_wb97xd3_006793_reverse_mol2.chk"
 Charge =  0 Multiplicity = 1

                         Standard orientation:
 ---------------------------------------------------------------------
 Center     Atomic      Atomic             Coordinates (Angstroms)
 Number     Number       Type             X           Y           Z
 ---------------------------------------------------------------------
      1          8           0       -2.715232   -0.602376    0.188558
      2          6           0       -1.527177   -0.721396   -0.038288
      3          6           0       -0.647257    0.311154   -0.454328
      4          6           0       -0.264227    1.643281    0.039509
      5          7           0        0.660458    0.517188   -0.062221
      6          6           0        1.850224    0.145237    0.164479
      7          8           0        2.260716   -1.115504    0.011031
      8          1           0       -1.043265   -1.726621    0.010429
      9          1           0        1.542474   -1.661994   -0.328337
     10          1           0       -0.475286    1.944457    1.064425
     11          1           0       -0.090691    2.454783   -0.661927
     12          1           0        2.610314    0.842438    0.486014
 ---------------------------------------------------------------------

 SCF Done:  E(RHF) =  -360.022128525     A.U. after    2 cycles

 The electronic state is 1-A.
 Alpha  occ. eigenvalues --  -21.16382 -21.01125 -15.84626 -11.53554 -11.47775
 Alpha  occ. eigenvalues --  -11.46706 -11.39231  -1.82863  -1.66840  -1.53971
 Alpha  occ. eigenvalues --   -1.14534  -0.98251  -0.89196  -0.80347  -0.70610
 Alpha  occ. eigenvalues --   -0.69883  -0.67625  -0.56952  -0.56484  -0.52676
 Alpha  occ. eigenvalues --   -0.46865  -0.46480  -0.45946  -0.39506  -0.26885
 Alpha  occ. eigenvalues --   -0.23683
 Alpha virt. eigenvalues --    0.02603   0.04625   0.05113   0.05658   0.07055
 Alpha virt. eigenvalues --    0.08218   0.09014   0.09970   0.11210   0.12404
 Alpha virt. eigenvalues --    0.12829   0.12974   0.13819   0.13959   0.14598

 Mulliken charges:
               1
     1  O   -2.779974
     2  C    1.482920
     3  C    0.735191
     4  C   -2.392441
     5  N   -2.585132
     6  C    1.727584
     7  O   -3.109995
     8  H    1.266969
     9  H    0.964782
    10  H    1.422700
    11  H    1.454113
    12  H    1.813282
 Sum of Mulliken charges =  -0.00000

 Dipole moment (field-independent basis, Debye):
    X=              4.9093    Y=              1.1000    Z=              1.1158  Tot=              5.1533

 Test job not archived.
 1\1\GINC-SE014\SP\RHF\Aug-CC-pVDZ\C4H5N1O2\OHZDE\09-Apr-2025\0\\#t hf
 aug-cc-pvdz iop(5/13=1,5/36=2,99/5=2) pseudo=read geom=check guess=(re
 ad,tcheck) scf=(maxcycle=1)\\title\\0,1\O,0,2.25298032,0.65720369,-1.6
 928151\C,0,1.58498173,0.06283163,-0.86965173\C,0,0.5843759,0.62869611,
 -0.03773024\C,0,-0.64073881,1.41891972,-0.23720692\N,0,-0.62500927,0.0
 7248691,0.32878673\C,0,-1.35872631,-0.86326601,0.7661757\O,0,-0.883970
 93,-2.06501166,1.10073984\H,0,1.7764937,-1.01799431,-0.66432012\H,0,0.
 07469614,-2.08574422,0.99964532\H,0,-1.1188443,1.47708241,-1.21380244\

 Normal termination of Gaussian 16 at Wed Apr  9 18:14:31 2025.
