 Gaussian 16, Revision C.01,

 ----------------------------------------------------------------------
 #t hf aug-cc-pvdz symm=none int=(grid=ultrafine) guess=(read,tcheck) s
 table=(opt,rrhf)
 ----------------------------------------------------------------------
 -----
 title
 -----
 Symbolic Z-matrix:
 Charge =  0 Multiplicity = 1

 SCF Done:  E(RHF) =  -269.501865597     A.U. after   16 cycles
 Normal termination of Gaussian 16 at Wed Apr  9 18:05:48 2025.
 Gaussian 16:  ES64L-G16RevC.01  3-Jul-2019

 ----------------------------------------------------------------------
 #t hf aug-cc-pvdz iop(5/13=1,5/36=2,99/5=2) pseudo=read geom=check gue
 ss=(read,tcheck) scf=(maxcycle=1)
 ----------------------------------------------------------------------
 -----
 title
 -----
 Structure from the checkpoint file:  "Grambow2020_wb97xd3_006587_forward_mol1.chk"
 Charge =  0 Multiplicity = 1

                         Standard orientation:
 ---------------------------------------------------------------------
 Center     Atomic      Atomic             Coordinates (Angstroms)
 Number     Number       Type             X           Y           Z
 ---------------------------------------------------------------------
      1          6           0       -0.143272    1.596118    0.197405
      2          6           0        0.550505    0.475183    0.680672
      3          6           0       -0.638467   -1.344132    0.506100
      4          6           0       -1.690073   -0.836807   -0.175463
      5          6           0       -2.228225    0.174062   -0.682897
      6          6           0        1.702866    0.000421   -0.030269
      7          6           0        2.666713   -0.394350   -0.625915
      8          1           0       -0.605662    2.252553    0.926308
      9          1           0        0.249442    2.088476   -0.685465
     10          1           0       -1.304174    1.065009   -0.369749
     11          1           0        0.582585    0.322615    1.752110
     12          1           0        0.090924   -1.946686   -0.022489
     13          1           0       -0.770826   -1.593937    1.553634
     14          1           0       -3.089137    0.523434   -1.219721
     15          1           0        3.526569   -0.734427   -1.152431
 ---------------------------------------------------------------------

 SCF Done:  E(RHF) =  -270.874166602     A.U. after    2 cycles

 The electronic state is 1-A.
 Alpha  occ. eigenvalues --  -11.47138 -11.43642 -11.42067 -11.41559 -11.40318
 Alpha  occ. eigenvalues --  -11.39749 -11.38814  -1.26302  -1.15624  -1.05687
 Alpha  occ. eigenvalues --   -1.00050  -0.88157  -0.73391  -0.73139  -0.65707
 Alpha  occ. eigenvalues --   -0.62195  -0.60670  -0.58865  -0.56244  -0.51772
 Alpha  occ. eigenvalues --   -0.43812  -0.37589  -0.36419  -0.34807  -0.29270
 Alpha virt. eigenvalues --    0.03215   0.04900   0.05307   0.05473   0.06081
 Alpha virt. eigenvalues --    0.07019   0.07285   0.08386   0.08836   0.10333
 Alpha virt. eigenvalues --    0.10959   0.11918   0.12071   0.13337   0.13717

 Mulliken charges:
               1
     1  C   -3.982866
     2  C   -2.219188
     3  C   -3.912468
     4  C    3.023863
     5  C   -3.639881
     6  C    4.527516
     7  C   -4.476929
     8  H    0.872499
     9  H    0.880159
    10  H    3.727599
    11  H    1.205038
    12  H    1.299221
    13  H    1.071664
    14  H    0.878258
    15  H    0.745513
 Sum of Mulliken charges =   0.00000

 Dipole moment (field-independent basis, Debye):
    X=             -0.0730    Y=              0.5505    Z=              0.3836  Tot=              0.6749

 Test job not archived.
 1\1\GINC-SE219\SP\RHF\Aug-CC-pVDZ\C7H8\OHZDE\09-Apr-2025\0\\#t hf aug-
 cc-pvdz iop(5/13=1,5/36=2,99/5=2) pseudo=read geom=check guess=(read,t
 check) scf=(maxcycle=1)\\title\\0,1\C,0,0.14633412,-1.40551617,0.51116
 958\C,0,-0.58066488,-0.23019139,0.75906861\C,0,0.54081623,1.54737762,0
 .17892555\C,0,1.60117547,0.94053277,-0.40000376\C,0,2.16845782,-0.1374
 2459,-0.69181136\C,0,-1.75788863,0.04529765,-0.01360367\C,0,-2.7424611
 6,0.27323455,-0.66036533\H,0,0.64073534,-1.87666754,1.35354401\H,0,-0.
 23964327,-2.08677921,-0.23916521\H,0,1.28053318,-0.97041341,-0.1785486

 Normal termination of Gaussian 16 at Wed Apr  9 18:05:53 2025.
