 Gaussian 16, Revision C.01,

 ----------------------------------------------------------------------
 #t hf aug-cc-pvdz symm=none int=(grid=ultrafine) guess=(read,tcheck) s
 table=(opt,rrhf)
 ----------------------------------------------------------------------
 -----
 title
 -----
 Symbolic Z-matrix:
 Charge =  0 Multiplicity = 1

 SCF Done:  E(RHF) =  -305.507064791     A.U. after   14 cycles
 Normal termination of Gaussian 16 at Wed Apr  9 03:53:01 2025.
 Gaussian 16:  ES64L-G16RevC.01  3-Jul-2019

 ----------------------------------------------------------------------
 #t hf aug-cc-pvdz iop(5/13=1,5/36=2,99/5=2) pseudo=read geom=check gue
 ss=(read,tcheck) scf=(maxcycle=1)
 ----------------------------------------------------------------------
 -----
 title
 -----
 Structure from the checkpoint file:  "Grambow2020_wb97xd3_008359_reverse_mol2.chk"
 Charge =  0 Multiplicity = 1

                         Standard orientation:
 ---------------------------------------------------------------------
 Center     Atomic      Atomic             Coordinates (Angstroms)
 Number     Number       Type             X           Y           Z
 ---------------------------------------------------------------------
      1          6           0        2.951667    0.011520    0.001256
      2          6           0        1.651498    0.038913   -0.001203
      3          6           0        0.347451    0.055840   -0.000688
      4          6           0       -0.566460    1.199826   -0.000911
      5          6           0       -1.806580    0.714677    0.000603
      6          8           0       -1.900834   -0.634959    0.001633
      7          6           0       -0.564067   -1.160191   -0.001117
      8          1           0        3.518706    0.000540   -0.924410
      9          1           0       -0.280761    2.238195   -0.001488
     10          1           0        3.515549    0.002136    0.929018
     11          1           0       -2.753279    1.235385    0.000886
     12          1           0       -0.438575   -1.778516   -0.891631
     13          1           0       -0.436020   -1.781573    0.886917
 ---------------------------------------------------------------------

 SCF Done:  E(RHF) =  -306.911463689     A.U. after    2 cycles

 The electronic state is 1-A.
 Alpha  occ. eigenvalues --  -21.07650 -11.49062 -11.45308 -11.43757 -11.41758
 Alpha  occ. eigenvalues --  -11.40979 -11.38062  -1.80892  -1.24494  -1.11285
 Alpha  occ. eigenvalues --   -1.06240  -0.90251  -0.81453  -0.74850  -0.66045
 Alpha  occ. eigenvalues --   -0.65174  -0.59936  -0.54220  -0.53342  -0.52541
 Alpha  occ. eigenvalues --   -0.47372  -0.43112  -0.38989  -0.34213  -0.24097
 Alpha virt. eigenvalues --    0.03110   0.05099   0.05525   0.05920   0.06511
 Alpha virt. eigenvalues --    0.06671   0.08664   0.09997   0.10512   0.11559
 Alpha virt. eigenvalues --    0.11603   0.12668   0.12982   0.13813   0.14573

 Mulliken charges:
               1
     1  C   -4.703014
     2  C    2.774134
     3  C    2.781207
     4  C   -3.427288
     5  C    0.575420
     6  O   -3.500152
     7  C   -1.954530
     8  H    1.191094
     9  H    1.203279
    10  H    1.190221
    11  H    1.447326
    12  H    1.211535
    13  H    1.210769
 Sum of Mulliken charges =  -0.00000

 Dipole moment (field-independent basis, Debye):
    X=             -0.6900    Y=             -0.2148    Z=              0.0020  Tot=              0.7227

 Test job not archived.
 1\1\GINC-SE329\SP\RHF\Aug-CC-pVDZ\C6H6O1\OHZDE\09-Apr-2025\0\\#t hf au
 g-cc-pvdz iop(5/13=1,5/36=2,99/5=2) pseudo=read geom=check guess=(read
 ,tcheck) scf=(maxcycle=1)\\title\\0,1\C,0,2.28315438,-0.19015257,1.677
 40837\C,0,1.19070875,-0.07314374,0.98165935\C,0,0.09311932,0.03353444,
 0.2854239\C,0,-0.64606172,1.23578185,-0.10464083\C,0,-1.7035565,0.8379
 9242,-0.80943658\O,0,-1.81889034,-0.49963918,-0.97629717\C,0,-0.705897
 98,-1.11464659,-0.30858665\H,0,3.25926701,-0.18546329,1.20233605\H,0,-
 0.37798516,2.25021385,0.13804813\H,0,2.25739416,-0.29316773,2.75792573

 Normal termination of Gaussian 16 at Wed Apr  9 03:53:05 2025.
