 Gaussian 16, Revision C.01,

 ----------------------------------------------------------------------
 #t hf aug-cc-pvdz symm=none int=(grid=ultrafine) guess=(read,tcheck) s
 table=(opt,rrhf)
 ----------------------------------------------------------------------
 -----
 title
 -----
 Symbolic Z-matrix:
 Charge =  0 Multiplicity = 1

 SCF Done:  E(RHF) =  -344.925255585     A.U. after   12 cycles

 1\1\GINC-SE331\Stability\RHF\Aug-CC-pVDZ\C5H10O2\OHZDE\09-Apr-2025\0\\
 #t hf aug-cc-pvdz symm=none int=(grid=ultrafine) guess=(read,tcheck) s
 table=(opt,rrhf)\\title\\0,1\C,0,2.19112331,0.41978715,-0.63908662\C,0
 ,1.00786832,-0.38940222,-0.17016544\C,0,0.60704545,-0.17906428,1.29639
 96\O,0,-0.80902885,-0.1880435,1.28159648\C,0,-1.22469579,-0.413704,-0.
 05210856\C,0,-2.47575387,0.36018096,-0.35950044\O,0,-0.16303073,0.0100
 2816,-0.86137699\H,0,2.37836558,0.24807558,-1.69927938\H,0,3.08741877,
 0.13774576,-0.08309685\H,0,2.00375176,1.48378599,-0.48543111\H,0,1.182

 Normal termination of Gaussian 16 at Wed Apr  9 03:34:31 2025.
 Gaussian 16:  ES64L-G16RevC.01  3-Jul-2019

 ----------------------------------------------------------------------
 #t hf aug-cc-pvdz iop(5/13=1,5/36=2,99/5=2) pseudo=read geom=check gue
 ss=(read,tcheck) scf=(maxcycle=1)
 ----------------------------------------------------------------------
 -----
 title
 -----
 Structure from the checkpoint file:  "Grambow2020_wb97xd3_007101_forward_mol2.chk"
 Charge =  0 Multiplicity = 1

                         Standard orientation:
 ---------------------------------------------------------------------
 Center     Atomic      Atomic             Coordinates (Angstroms)
 Number     Number       Type             X           Y           Z
 ---------------------------------------------------------------------
      1          6           0        2.340343   -0.661679   -0.298518
      2          6           0        1.124772   -0.096725    0.392844
      3          6           0        0.656648    1.273711   -0.115565
      4          8           0       -0.757054    1.190232   -0.108899
      5          6           0       -1.111010   -0.088043    0.384253
      6          6           0       -2.334965   -0.609660   -0.314592
      7          8           0       -0.005798   -0.912804    0.139566
      8          1           0        2.576095   -1.653480    0.087880
      9          1           0        3.204799   -0.015568   -0.133367
     10          1           0        2.160518   -0.738835   -1.372073
     11          1           0        1.293699   -0.048984    1.478507
     12          1           0        0.998893    1.459760   -1.138325
     13          1           0        0.994485    2.092071    0.526303
     14          1           0       -1.273799   -0.012689    1.473718
     15          1           0       -2.139191   -0.684697   -1.384151
     16          1           0       -2.596746   -1.593041    0.076290
     17          1           0       -3.170660    0.070422   -0.150653
 ---------------------------------------------------------------------

 SCF Done:  E(RHF) =  -346.506317890     A.U. after    2 cycles

 The electronic state is 1-A.
 Alpha  occ. eigenvalues --  -21.04530 -21.03989 -11.47753 -11.46559 -11.41991
 Alpha  occ. eigenvalues --  -11.38000 -11.36310  -1.86444  -1.66355  -1.19093
 Alpha  occ. eigenvalues --   -1.08158  -0.98374  -0.84641  -0.83821  -0.70001
 Alpha  occ. eigenvalues --   -0.64983  -0.64427  -0.58899  -0.56531  -0.56097
 Alpha  occ. eigenvalues --   -0.52702  -0.50661  -0.48055  -0.44940  -0.40220
 Alpha  occ. eigenvalues --   -0.36625  -0.30908  -0.29604
 Alpha virt. eigenvalues --    0.04099   0.04932   0.05171   0.05399   0.05894
 Alpha virt. eigenvalues --    0.06133   0.06163   0.06805   0.07048   0.09170
 Alpha virt. eigenvalues --    0.11851   0.12529   0.13211   0.13854   0.14584

 Mulliken charges:
               1
     1  C   -4.154197
     2  C    0.015963
     3  C   -0.847679
     4  O   -3.313849
     5  C    2.105867
     6  C   -3.628495
     7  O   -3.470500
     8  H    1.228747
     9  H    1.170407
    10  H    1.197114
    11  H    1.468646
    12  H    1.474737
    13  H    1.342478
    14  H    1.705897
    15  H    1.285129
    16  H    1.223868
    17  H    1.195868
 Sum of Mulliken charges =  -0.00000

 Dipole moment (field-independent basis, Debye):
    X=              0.7134    Y=             -0.1322    Z=              0.1828  Tot=              0.7483

 Test job not archived.
 1\1\GINC-SE331\SP\RHF\Aug-CC-pVDZ\C5H10O2\OHZDE\09-Apr-2025\0\\#t hf a
 ug-cc-pvdz iop(5/13=1,5/36=2,99/5=2) pseudo=read geom=check guess=(rea
 d,tcheck) scf=(maxcycle=1)\\title\\0,1\C,0,2.19112331,0.41978715,-0.63
 908662\C,0,1.00786832,-0.38940222,-0.17016544\C,0,0.60704545,-0.179064
 28,1.2963996\O,0,-0.80902885,-0.1880435,1.28159648\C,0,-1.22469579,-0.
 413704,-0.05210856\C,0,-2.47575387,0.36018096,-0.35950044\O,0,-0.16303
 073,0.01002816,-0.86137699\H,0,2.37836558,0.24807558,-1.69927938\H,0,3
 .08741877,0.13774576,-0.08309685\H,0,2.00375176,1.48378599,-0.48543111

 Normal termination of Gaussian 16 at Wed Apr  9 03:34:36 2025.
