 Gaussian 16, Revision C.01,

 ----------------------------------------------------------------------
 #t hf aug-cc-pvdz symm=none int=(grid=ultrafine) guess=(read,tcheck) s
 table=(opt,rrhf)
 ----------------------------------------------------------------------
 -----
 title
 -----
 Symbolic Z-matrix:
 Charge =  0 Multiplicity = 1

 SCF Done:  E(RHF) =  -306.692008503     A.U. after   14 cycles
 Normal termination of Gaussian 16 at Wed Apr  9 19:14:02 2025.
 Gaussian 16:  ES64L-G16RevC.01  3-Jul-2019

 ----------------------------------------------------------------------
 #t hf aug-cc-pvdz iop(5/13=1,5/36=2,99/5=2) pseudo=read geom=check gue
 ss=(read,tcheck) scf=(maxcycle=1)
 ----------------------------------------------------------------------
 -----
 title
 -----
 Structure from the checkpoint file:  "Grambow2020_wb97xd3_008443_reverse_mol2.chk"
 Charge =  0 Multiplicity = 1

                         Standard orientation:
 ---------------------------------------------------------------------
 Center     Atomic      Atomic             Coordinates (Angstroms)
 Number     Number       Type             X           Y           Z
 ---------------------------------------------------------------------
      1          6           0       -1.746727   -0.841860   -0.487029
      2          6           0       -1.223587    0.397421    0.183995
      3          6           0       -0.004396    0.414185    1.045953
      4          8           0        0.901707   -0.663929    0.948114
      5          6           0        1.442409   -0.618999   -0.301335
      6          6           0        1.018432    0.394643   -1.049446
      7          6           0        0.011500    1.159686   -0.272821
      8          1           0       -2.297115   -1.460439    0.224494
      9          1           0       -2.423307   -0.579990   -1.302924
     10          1           0       -1.995318    1.056721    0.567607
     11          1           0       -0.003374    0.868555    2.027312
     12          1           0       -0.942801   -1.448647   -0.902317
     13          1           0        2.141001   -1.412464   -0.522915
     14          1           0        1.350435    0.618202   -2.050540
     15          1           0       -0.028975    2.239041   -0.341538
 ---------------------------------------------------------------------

 SCF Done:  E(RHF) =  -308.134477792     A.U. after    2 cycles

 The electronic state is 1-A.
 Alpha  occ. eigenvalues --  -21.07056 -11.47054 -11.44273 -11.43650 -11.39241
 Alpha  occ. eigenvalues --  -11.37768 -11.35899  -1.80947  -1.30463  -1.11768
 Alpha  occ. eigenvalues --   -1.04545  -0.86229  -0.82448  -0.74705  -0.74012
 Alpha  occ. eigenvalues --   -0.64808  -0.57114  -0.54297  -0.53789  -0.51926
 Alpha  occ. eigenvalues --   -0.49660  -0.46199  -0.43807  -0.41041  -0.34990
 Alpha  occ. eigenvalues --   -0.24868
 Alpha virt. eigenvalues --    0.03659   0.04742   0.05085   0.05677   0.05778
 Alpha virt. eigenvalues --    0.06348   0.06449   0.07847   0.10463   0.11990
 Alpha virt. eigenvalues --    0.12490   0.12734   0.13612   0.13998   0.14874

 Mulliken charges:
               1
     1  C   -4.718391
     2  C   -0.769781
     3  C    1.200822
     4  O   -3.778077
     5  C    0.411490
     6  C   -1.269762
     7  C   -1.507491
     8  H    1.194506
     9  H    1.155383
    10  H    1.241959
    11  H    1.348414
    12  H    1.522613
    13  H    1.431383
    14  H    1.335685
    15  H    1.201248
 Sum of Mulliken charges =   0.00000

 Dipole moment (field-independent basis, Debye):
    X=             -0.2815    Y=              0.3232    Z=              0.0681  Tot=              0.4340

 Test job not archived.
 1\1\GINC-SE028\SP\RHF\Aug-CC-pVDZ\C6H8O1\OHZDE\09-Apr-2025\0\\#t hf au
 g-cc-pvdz iop(5/13=1,5/36=2,99/5=2) pseudo=read geom=check guess=(read
 ,tcheck) scf=(maxcycle=1)\\title\\0,1\C,0,0.90799748,1.28159506,0.8015
 3711\C,0,1.1046092,0.03682359,-0.01800812\C,0,0.33138974,-1.22201015,0
 .19913253\O,0,-0.86913401,-1.15325539,0.93868754\C,0,-1.74597418,-0.40
 93763,0.20841637\C,0,-1.27368809,0.00803784,-0.96188555\C,0,0.13406418
 ,-0.44485286,-1.08627736\H,0,1.41400256,1.19101324,1.76464919\H,0,1.31
 802181,2.15084843,0.28355989\H,0,2.13791932,-0.1669274,-0.27908285\H,0

 Normal termination of Gaussian 16 at Wed Apr  9 19:14:07 2025.
