 Gaussian 16, Revision C.01,

 ----------------------------------------------------------------------
 #t hf aug-cc-pvdz symm=none int=(grid=ultrafine) guess=(read,tcheck) s
 table=(opt,rrhf)
 ----------------------------------------------------------------------
 -----
 title
 -----
 Symbolic Z-matrix:
 Charge =  0 Multiplicity = 1

 SCF Done:  E(RHF) =  -266.743502412     A.U. after   13 cycles
 Normal termination of Gaussian 16 at Wed Apr  9 03:09:41 2025.
 Gaussian 16:  ES64L-G16RevC.01  3-Jul-2019

 ----------------------------------------------------------------------
 #t hf aug-cc-pvdz iop(5/13=1,5/36=2,99/5=2) pseudo=read geom=check gue
 ss=(read,tcheck) scf=(maxcycle=1)
 ----------------------------------------------------------------------
 -----
 title
 -----
 Structure from the checkpoint file:  "Grambow2020_b97d3_006690_reverse_mol2.chk"
 Charge =  0 Multiplicity = 1

                         Standard orientation:
 ---------------------------------------------------------------------
 Center     Atomic      Atomic             Coordinates (Angstroms)
 Number     Number       Type             X           Y           Z
 ---------------------------------------------------------------------
      1          6           0        1.118575    0.349707    0.388623
      2          6           0       -0.088144    1.046058   -0.227474
      3          8           0       -1.368656    0.314201   -0.024987
      4          6           0       -1.303025   -0.984031    0.116992
      5          8           0        1.463452   -0.843645   -0.277096
      6          1           0        0.917832    0.198981    1.468647
      7          1           0        1.972558    1.040225    0.309352
      8          1           0       -0.280015    2.029067    0.219947
      9          1           0        0.018749    1.145938   -1.314067
     10          1           0       -2.382097   -1.265403    0.250835
     11          1           0        0.630173   -1.383654   -0.186895
 ---------------------------------------------------------------------

 SCF Done:  E(RHF) =  -267.929093955     A.U. after    2 cycles

 The electronic state is 1-A.
 Alpha  occ. eigenvalues --  -21.12948 -21.04446 -11.46639 -11.43011 -11.40596
 Alpha  occ. eigenvalues --   -1.81542  -1.68821  -1.11003  -0.92140  -0.80416
 Alpha  occ. eigenvalues --   -0.69164  -0.67115  -0.58108  -0.55546  -0.50994
 Alpha  occ. eigenvalues --   -0.50829  -0.43931  -0.42810  -0.32556  -0.29456
 Alpha virt. eigenvalues --    0.03603   0.05206   0.05723   0.05919   0.06192
 Alpha virt. eigenvalues --    0.07805   0.08616   0.10767   0.11751   0.13229
 Alpha virt. eigenvalues --    0.13483   0.14653   0.15283   0.16937   0.17524

 Mulliken charges:
               1
     1  C   -1.163656
     2  C   -1.347775
     3  O   -2.451494
     4  C   -0.800534
     5  O   -2.610688
     6  H    1.422929
     7  H    1.286357
     8  H    1.407453
     9  H    1.446618
    10  H    1.532552
    11  H    1.278237
 Sum of Mulliken charges =   0.00000

 Dipole moment (field-independent basis, Debye):
    X=             -1.1763    Y=              2.3355    Z=              0.0475  Tot=              2.6154

 Test job not archived.
 1\1\GINC-SE322\SP\RHF\Aug-CC-pVDZ\C3H6O2\OHZDE\09-Apr-2025\0\\#t hf au
 g-cc-pvdz iop(5/13=1,5/36=2,99/5=2) pseudo=read geom=check guess=(read
 ,tcheck) scf=(maxcycle=1)\\title\\0,1\C,0,0.48800142,0.93160894,0.4071
 8285\C,0,0.82047633,-0.48373022,-0.04770943\O,0,-0.23487058,-1.1025347
 4,-0.89603246\C,0,-1.46368627,-0.69037377,-0.72280632\O,0,-0.56821261,
 0.97532303,1.33922951\H,0,0.29475248,1.54882127,-0.49346787\H,0,1.3867
 6045,1.33980177,0.89503197\H,0,1.71530181,-0.52244931,-0.68102941\H,0,
 0.93892369,-1.16131069,0.80607158\H,0,-2.03091444,-1.30636254,-1.47133

 Normal termination of Gaussian 16 at Wed Apr  9 03:09:44 2025.
