 Gaussian 16, Revision C.01,

 ----------------------------------------------------------------------
 #t hf aug-cc-pvdz symm=none int=(grid=ultrafine) guess=(read,tcheck) s
 table=(opt,rrhf)
 ----------------------------------------------------------------------
 -----
 title
 -----
 Symbolic Z-matrix:
 Charge =  0 Multiplicity = 1

 SCF Done:  E(RHF) =  -304.532002990     A.U. after   14 cycles
 Normal termination of Gaussian 16 at Wed Apr  9 03:14:23 2025.
 Gaussian 16:  ES64L-G16RevC.01  3-Jul-2019

 ----------------------------------------------------------------------
 #t hf aug-cc-pvdz iop(5/13=1,5/36=2,99/5=2) pseudo=read geom=check gue
 ss=(read,tcheck) scf=(maxcycle=1)
 ----------------------------------------------------------------------
 -----
 title
 -----
 Structure from the checkpoint file:  "Grambow2020_b97d3_006920_forward_mol1.chk"
 Charge =  0 Multiplicity = 1

                         Standard orientation:
 ---------------------------------------------------------------------
 Center     Atomic      Atomic             Coordinates (Angstroms)
 Number     Number       Type             X           Y           Z
 ---------------------------------------------------------------------
      1          8           0       -1.934178   -0.355384   -0.218553
      2          6           0       -0.608932   -0.033102   -0.053455
      3          6           0       -0.035359    1.228365    0.468219
      4          6           0        1.075282    0.822309   -0.586183
      5          8           0        1.579140   -0.395707   -0.078689
      6          6           0        0.392821   -1.119463    0.311540
      7          1           0       -2.473765    0.402056    0.078825
      8          1           0       -0.573300    2.132661    0.159689
      9          1           0        0.283535    1.255444    1.515003
     10          1           0       -0.022730    0.255459   -1.273712
     11          1           0        0.359870   -1.408726    1.375566
     12          1           0        0.323816   -2.016819   -0.318160
 ---------------------------------------------------------------------

 SCF Done:  E(RHF) =  -305.910651571     A.U. after    2 cycles

 The electronic state is 1-A.
 Alpha  occ. eigenvalues --  -21.12946 -21.06375 -11.51586 -11.45558 -11.44702
 Alpha  occ. eigenvalues --  -11.39836  -1.81379  -1.74814  -1.22161  -1.04126
 Alpha  occ. eigenvalues --   -0.87382  -0.76495  -0.70565  -0.67648  -0.63062
 Alpha  occ. eigenvalues --   -0.57130  -0.52551  -0.51189  -0.44865  -0.42654
 Alpha  occ. eigenvalues --   -0.40103  -0.32221  -0.27868
 Alpha virt. eigenvalues --    0.03404   0.05033   0.05128   0.05480   0.06307
 Alpha virt. eigenvalues --    0.07448   0.09310   0.10749   0.11610   0.12606
 Alpha virt. eigenvalues --    0.13527   0.13752   0.14614   0.15187   0.15403

 Mulliken charges:
               1
     1  O   -3.254238
     2  C    2.418461
     3  C   -3.087657
     4  C    0.766061
     5  O   -2.508783
     6  C   -1.307016
     7  H    0.660597
     8  H    1.344879
     9  H    1.331175
    10  H    0.899938
    11  H    1.434645
    12  H    1.301938
 Sum of Mulliken charges =  -0.00000

 Dipole moment (field-independent basis, Debye):
    X=             -2.9562    Y=             -1.1445    Z=              2.0459  Tot=              3.7729

 Test job not archived.
 1\1\GINC-SE049\SP\RHF\Aug-CC-pVDZ\C4H6O2\OHZDE\09-Apr-2025\0\\#t hf au
 g-cc-pvdz iop(5/13=1,5/36=2,99/5=2) pseudo=read geom=check guess=(read
 ,tcheck) scf=(maxcycle=1)\\title\\0,1\O,0,0.25330988,-1.50542757,-1.10
 27622\C,0,0.04863612,-0.36694145,-0.36157521\C,0,-1.10869718,-0.035929
 42,0.50065374\C,0,-0.72740043,1.40583069,-0.0342374\O,0,0.56903302,1.6
 1583317,0.48551911\C,0,1.23742907,0.35766617,0.25375206\H,0,-0.5090610
 5,-2.10046153,-0.96849026\H,0,-2.07666637,-0.36912706,0.10779826\H,0,-
 1.00814355,-0.18969718,1.57974044\H,0,-0.31484012,0.68803232,-1.180624

 Normal termination of Gaussian 16 at Wed Apr  9 03:14:27 2025.
