 Gaussian 16, Revision C.01,

 ----------------------------------------------------------------------
 #t hf aug-cc-pvdz symm=none int=(grid=ultrafine) guess=(read,tcheck) s
 table=(opt,rrhf)
 ----------------------------------------------------------------------
 -----
 title
 -----
 Symbolic Z-matrix:
 Charge =  0 Multiplicity = 1

 SCF Done:  E(RHF) =  -343.621066698     A.U. after   13 cycles
 Normal termination of Gaussian 16 at Wed Apr  9 18:49:41 2025.
 Gaussian 16:  ES64L-G16RevC.01  3-Jul-2019

 ----------------------------------------------------------------------
 #t hf aug-cc-pvdz iop(5/13=1,5/36=2,99/5=2) pseudo=read geom=check gue
 ss=(read,tcheck) scf=(maxcycle=1)
 ----------------------------------------------------------------------
 -----
 title
 -----
 Structure from the checkpoint file:  "Grambow2020_wb97xd3_007688_reverse_mol2.chk"
 Charge =  0 Multiplicity = 1

                         Standard orientation:
 ---------------------------------------------------------------------
 Center     Atomic      Atomic             Coordinates (Angstroms)
 Number     Number       Type             X           Y           Z
 ---------------------------------------------------------------------
      1          6           0       -0.386582    1.446989   -0.008549
      2          6           0       -1.303667    0.523607   -0.745049
      3          6           0       -0.799668   -0.943012   -0.717096
      4          8           0        0.439964   -1.015663   -0.017307
      5          6           0       -0.770307   -0.938149    0.732507
      6          6           0       -1.273084    0.528802    0.771404
      7          8           0        3.026372    0.298411   -0.096313
      8          1           0        0.686661    1.319105   -0.031713
      9          1           0        3.386679    0.164954    0.780670
     10          1           0       -0.717051    2.478409   -0.006446
     11          1           0       -2.095531    0.865362   -1.394535
     12          1           0       -1.015498   -1.726492   -1.429714
     13          1           0       -0.956091   -1.716604    1.459298
     14          1           0       -2.037683    0.873158    1.451675
     15          1           0        2.217665   -0.229295   -0.119585
 ---------------------------------------------------------------------

 SCF Done:  E(RHF) =  -345.186138196     A.U. after    2 cycles

 The electronic state is 1-A.
 Alpha  occ. eigenvalues --  -21.07158 -21.06649 -11.54114 -11.48167 -11.42490
 Alpha  occ. eigenvalues --  -11.41968 -11.37215  -1.82168  -1.63294  -1.33978
 Alpha  occ. eigenvalues --   -1.01965  -0.94591  -0.83178  -0.78745  -0.76294
 Alpha  occ. eigenvalues --   -0.65156  -0.61349  -0.60368  -0.51468  -0.50979
 Alpha  occ. eigenvalues --   -0.48167  -0.44395  -0.43541  -0.39842  -0.33366
 Alpha  occ. eigenvalues --   -0.31391  -0.29771
 Alpha virt. eigenvalues --    0.03705   0.04616   0.04935   0.04982   0.05580
 Alpha virt. eigenvalues --    0.06445   0.08407   0.09635   0.10658   0.11517
 Alpha virt. eigenvalues --    0.12204   0.12403   0.13090   0.13946   0.14714

 Mulliken charges:
               1
     1  C   -2.560045
     2  C   -1.057403
     3  C   -0.106532
     4  O   -3.074814
     5  C    0.022091
     6  C   -1.121843
     7  O   -2.079513
     8  H    1.257114
     9  H    0.681033
    10  H    1.169544
    11  H    1.278558
    12  H    1.365132
    13  H    1.372155
    14  H    1.278678
    15  H    1.575846
 Sum of Mulliken charges =   0.00000

 Dipole moment (field-independent basis, Debye):
    X=             -1.7358    Y=             -0.4356    Z=              0.6792  Tot=              1.9142

 Test job not archived.
 1\1\GINC-SE097\SP\RHF\Aug-CC-pVDZ\C5H8O2\OHZDE\09-Apr-2025\0\\#t hf au
 g-cc-pvdz iop(5/13=1,5/36=2,99/5=2) pseudo=read geom=check guess=(read
 ,tcheck) scf=(maxcycle=1)\\title\\0,1\C,0,0.77090246,-0.5210424,0.9697
 9049\C,0,0.76928465,0.96582427,0.81061627\C,0,-0.06324435,1.41961029,-
 0.41687779\O,0,-0.58318767,0.28010536,-1.09721465\C,0,-1.23703507,0.73
 301187,0.08614727\C,0,-0.45858358,0.247595,1.33699741\O,0,0.42974767,-
 2.20845012,-2.19429828\H,0,0.79472231,-1.18351284,0.1157954\H,0,-0.333
 97214,-2.78546676,-2.21699673\H,0,1.3404561,-0.86675997,1.82368161\H,0

 Normal termination of Gaussian 16 at Wed Apr  9 18:49:46 2025.
