 Gaussian 16, Revision C.01,

 ----------------------------------------------------------------------
 #t hf aug-cc-pvdz symm=none int=(grid=ultrafine) guess=(read,tcheck) s
 table=(opt,rrhf)
 ----------------------------------------------------------------------
 -----
 title
 -----
 Symbolic Z-matrix:
 Charge =  0 Multiplicity = 1

 SCF Done:  E(RHF) =  -289.235198789     A.U. after   13 cycles

 1\1\GINC-SE014\Stability\RHF\Aug-CC-pVDZ\C6H13N1\OHZDE\09-Apr-2025\0\\
 #t hf aug-cc-pvdz symm=none int=(grid=ultrafine) guess=(read,tcheck) s
 table=(opt,rrhf)\\title\\0,1\C,0,-0.7185628,2.01752894,1.15723577\C,0,
 -1.44225766,0.70953449,0.97948263\N,0,-1.13530661,-0.36646419,0.400578
 64\C,0,-0.00418093,-2.03927303,-0.87136412\C,0,0.12869501,-0.62183434,
 -0.30647191\C,0,1.31752718,-0.59574242,0.65955294\C,0,0.3268443,0.3454
 1696,-1.47850634\H,0,-1.28738009,2.80766684,0.65951863\H,0,-0.69805104
 ,2.26796943,2.22072189\H,0,0.29732318,2.03245405,0.77708008\H,0,-2.431

 Normal termination of Gaussian 16 at Wed Apr  9 19:32:42 2025.
 Gaussian 16:  ES64L-G16RevC.01  3-Jul-2019

 ----------------------------------------------------------------------
 #t hf aug-cc-pvdz iop(5/13=1,5/36=2,99/5=2) pseudo=read geom=check gue
 ss=(read,tcheck) scf=(maxcycle=1)
 ----------------------------------------------------------------------
 -----
 title
 -----
 Structure from the checkpoint file:  "Grambow2020_wb97xd3_009132_reverse_mol2.chk"
 Charge =  0 Multiplicity = 1

                         Standard orientation:
 ---------------------------------------------------------------------
 Center     Atomic      Atomic             Coordinates (Angstroms)
 Number     Number       Type             X           Y           Z
 ---------------------------------------------------------------------
      1          6           0        2.384940   -0.379342    0.007384
      2          6           0        1.535326    0.863143   -0.016445
      3          7           0        0.289109    1.047667   -0.020300
      4          6           0       -2.073758    0.715235   -0.064152
      5          6           0       -0.728414   -0.013951    0.000878
      6          6           0       -0.671593   -0.808107    1.309807
      7          6           0       -0.618077   -0.927987   -1.224221
      8          1           0        2.972181   -0.424735   -0.913854
      9          1           0        3.098884   -0.303083    0.831163
     10          1           0        1.833243   -1.307652    0.110516
     11          1           0        2.132638    1.780769   -0.037729
     12          1           0       -2.907398    0.009090   -0.046360
     13          1           0       -2.173628    1.397486    0.781326
     14          1           0       -2.136351    1.308394   -0.977855
     15          1           0        0.233531   -1.408048    1.400444
     16          1           0       -0.711974   -0.126276    2.161370
     17          1           0       -1.527859   -1.482638    1.376356
     18          1           0       -0.603288   -0.328771   -2.136829
     19          1           0       -1.481977   -1.594418   -1.272502
     20          1           0        0.277691   -1.547732   -1.213451
 ---------------------------------------------------------------------

 SCF Done:  E(RHF) =  -290.711951291     A.U. after    2 cycles

 The electronic state is 1-A.
 Alpha  occ. eigenvalues --  -15.70912 -11.44577 -11.42718 -11.38463 -11.38240
 Alpha  occ. eigenvalues --  -11.38223 -11.34041  -1.40357  -1.20017  -1.07490
 Alpha  occ. eigenvalues --   -1.01131  -0.99542  -0.85529  -0.72905  -0.64598
 Alpha  occ. eigenvalues --   -0.61708  -0.60928  -0.58412  -0.57916  -0.54278
 Alpha  occ. eigenvalues --   -0.54050  -0.52982  -0.50557  -0.48206  -0.45330
 Alpha  occ. eigenvalues --   -0.42122  -0.36734  -0.31912
 Alpha virt. eigenvalues --    0.03707   0.05339   0.05536   0.05619   0.05851
 Alpha virt. eigenvalues --    0.05966   0.06145   0.06566   0.06690   0.08472
 Alpha virt. eigenvalues --    0.08622   0.09141   0.09354   0.11500   0.12552

 Mulliken charges:
               1
     1  C   -4.176910
     2  C    0.106358
     3  N   -4.738422
     4  C   -4.251022
     5  C    4.646117
     6  C   -4.500504
     7  C   -4.441059
     8  H    1.163648
     9  H    1.133835
    10  H    1.946268
    11  H    1.746671
    12  H    1.172674
    13  H    1.247332
    14  H    1.252427
    15  H    1.450750
    16  H    1.255386
    17  H    1.136244
    18  H    1.238574
    19  H    1.127821
    20  H    1.483813
 Sum of Mulliken charges =  -0.00000

 Dipole moment (field-independent basis, Debye):
    X=              1.0833    Y=             -1.2538    Z=              0.0234  Tot=              1.6571

 Test job not archived.
 1\1\GINC-SE014\SP\RHF\Aug-CC-pVDZ\C6H13N1\OHZDE\09-Apr-2025\0\\#t hf a
 ug-cc-pvdz iop(5/13=1,5/36=2,99/5=2) pseudo=read geom=check guess=(rea
 d,tcheck) scf=(maxcycle=1)\\title\\0,1\C,0,-0.7185628,2.01752894,1.157
 23577\C,0,-1.44225766,0.70953449,0.97948263\N,0,-1.13530661,-0.3664641
 9,0.40057864\C,0,-0.00418093,-2.03927303,-0.87136412\C,0,0.12869501,-0
 .62183434,-0.30647191\C,0,1.31752718,-0.59574242,0.65955294\C,0,0.3268
 443,0.34541696,-1.47850634\H,0,-1.28738009,2.80766684,0.65951863\H,0,-
 0.69805104,2.26796943,2.22072189\H,0,0.29732318,2.03245405,0.77708008\

 Normal termination of Gaussian 16 at Wed Apr  9 19:33:10 2025.
