 Gaussian 16, Revision C.01,

 ----------------------------------------------------------------------
 #t hf aug-cc-pvdz symm=none int=(grid=ultrafine) guess=(read,tcheck) s
 table=(opt,rrhf)
 ----------------------------------------------------------------------
 -----
 title
 -----
 Symbolic Z-matrix:
 Charge =  0 Multiplicity = 1

 SCF Done:  E(RHF) =  -341.162079496     A.U. after   16 cycles
 Normal termination of Gaussian 16 at Wed Apr  9 19:29:54 2025.
 Gaussian 16:  ES64L-G16RevC.01  3-Jul-2019

 ----------------------------------------------------------------------
 #t hf aug-cc-pvdz iop(5/13=1,5/36=2,99/5=2) pseudo=read geom=check gue
 ss=(read,tcheck) scf=(maxcycle=1)
 ----------------------------------------------------------------------
 -----
 title
 -----
 Structure from the checkpoint file:  "Grambow2020_wb97xd3_009086_forward_mol1.chk"
 Charge =  0 Multiplicity = 1

                         Standard orientation:
 ---------------------------------------------------------------------
 Center     Atomic      Atomic             Coordinates (Angstroms)
 Number     Number       Type             X           Y           Z
 ---------------------------------------------------------------------
      1          8           0       -0.392430    1.641408    0.174358
      2          6           0       -0.151348    0.572106   -0.528759
      3          6           0       -1.230949   -0.493467   -0.891235
      4          6           0       -1.139232   -0.940446    0.543316
      5          6           0        0.016803   -0.430943    1.059150
      6          6           0        1.031432   -0.131090   -0.039583
      7          8           0        2.165337   -0.395566   -0.235923
      8          1           0       -2.196875   -0.049658   -1.124459
      9          1           0       -0.927052   -1.174800   -1.683723
     10          1           0       -2.003543   -1.155487    1.163488
     11          1           0       -0.216020    0.956247    1.279882
 ---------------------------------------------------------------------

 SCF Done:  E(RHF) =  -342.684305959     A.U. after    2 cycles

 The electronic state is 1-A.
 Alpha  occ. eigenvalues --  -21.10488 -21.07306 -11.55089 -11.53598 -11.48288
 Alpha  occ. eigenvalues --  -11.44869 -11.42061  -1.79600  -1.73096  -1.35750
 Alpha  occ. eigenvalues --   -1.07134  -1.00179  -0.80301  -0.73944  -0.68047
 Alpha  occ. eigenvalues --   -0.64625  -0.62898  -0.57818  -0.55292  -0.52889
 Alpha  occ. eigenvalues --   -0.46593  -0.38966  -0.36867  -0.31723  -0.26727
 Alpha virt. eigenvalues --    0.03197   0.04405   0.05116   0.05692   0.06947
 Alpha virt. eigenvalues --    0.08101   0.08334   0.09046   0.11192   0.11516
 Alpha virt. eigenvalues --    0.12061   0.13787   0.14597   0.14749   0.14858

 Mulliken charges:
               1
     1  O   -2.798572
     2  C    2.127758
     3  C   -3.752850
     4  C    0.031218
     5  C   -2.398519
     6  C    4.852494
     7  O   -3.252903
     8  H    1.252886
     9  H    1.282526
    10  H    1.452524
    11  H    1.203437
 Sum of Mulliken charges =  -0.00000

 Dipole moment (field-independent basis, Debye):
    X=             -2.0018    Y=             -0.1417    Z=             -1.3016  Tot=              2.3919

 Test job not archived.
 1\1\GINC-SE220\SP\RHF\Aug-CC-pVDZ\C5H4O2\OHZDE\09-Apr-2025\0\\#t hf au
 g-cc-pvdz iop(5/13=1,5/36=2,99/5=2) pseudo=read geom=check guess=(read
 ,tcheck) scf=(maxcycle=1)\\title\\0,1\O,0,0.05415827,0.98993802,1.5240
 2865\C,0,-0.11519581,0.91856311,0.2347949\C,0,-1.12889323,-0.04281332,
 -0.45842137\C,0,-0.16319808,-1.14978334,-0.12950161\C,0,1.03691461,-0.
 57277875,0.16864229\C,0,1.16217291,0.80922777,-0.4645766\O,0,1.9606798
 4,1.35931161,-1.13839606\H,0,-2.06391516,-0.13378559,0.09096947\H,0,-1
 .32534487,0.20292474,-1.5003545\H,0,-0.46297814,-2.10724197,0.28437765

 Normal termination of Gaussian 16 at Wed Apr  9 19:29:58 2025.
