 Gaussian 16, Revision C.01,

 ----------------------------------------------------------------------
 #t hf aug-cc-pvdz symm=none int=(grid=ultrafine) guess=(read,tcheck) s
 table=(opt,rrhf)
 ----------------------------------------------------------------------
 -----
 title
 -----
 Symbolic Z-matrix:
 Charge =  0 Multiplicity = 1

 SCF Done:  E(RHF) =  -337.407249035     A.U. after   17 cycles
 Normal termination of Gaussian 16 at Wed Apr  9 04:04:28 2025.
 Gaussian 16:  ES64L-G16RevC.01  3-Jul-2019

 ----------------------------------------------------------------------
 #t hf aug-cc-pvdz iop(5/13=1,5/36=2,99/5=2) pseudo=read geom=check gue
 ss=(read,tcheck) scf=(maxcycle=1)
 ----------------------------------------------------------------------
 -----
 title
 -----
 Structure from the checkpoint file:  "Grambow2020_wb97xd3_009185_forward_mol1.chk"
 Charge =  0 Multiplicity = 1

                         Standard orientation:
 ---------------------------------------------------------------------
 Center     Atomic      Atomic             Coordinates (Angstroms)
 Number     Number       Type             X           Y           Z
 ---------------------------------------------------------------------
      1          8           0        2.185895   -0.459325   -0.237024
      2          6           0        1.127347    0.031451    0.004668
      3          6           0        0.472792    1.284222   -0.132602
      4          6           0       -0.818352    1.004698    0.298508
      5          7           0       -1.705231   -0.048005   -0.338975
      6          6           0       -0.995141   -1.118614   -0.077081
      7          7           0       -0.004980   -0.733451    0.691376
      8          1           0        0.875774    2.228586   -0.465262
      9          1           0       -1.441785    1.739415    0.810452
     10          1           0       -2.448117    0.078173   -1.014944
     11          1           0       -1.221430   -2.111925   -0.461817
 ---------------------------------------------------------------------

 SCF Done:  E(RHF) =  -338.919541009     A.U. after    2 cycles

 The electronic state is 1-A.
 Alpha  occ. eigenvalues --  -21.03367 -15.81650 -15.70814 -11.53225 -11.50917
 Alpha  occ. eigenvalues --  -11.50626 -11.37775  -1.70529  -1.57107  -1.27161
 Alpha  occ. eigenvalues --   -1.16496  -0.92762  -0.89281  -0.78456  -0.71445
 Alpha  occ. eigenvalues --   -0.65939  -0.63104  -0.59639  -0.54452  -0.48608
 Alpha  occ. eigenvalues --   -0.47159  -0.38763  -0.36492  -0.27083  -0.25414
 Alpha virt. eigenvalues --    0.02605   0.04083   0.04556   0.05530   0.06073
 Alpha virt. eigenvalues --    0.08846   0.09834   0.10654   0.11531   0.12232
 Alpha virt. eigenvalues --    0.13368   0.14092   0.14564   0.14735   0.15415

 Mulliken charges:
               1
     1  O   -3.249925
     2  C    3.789475
     3  C   -1.545143
     4  C   -0.111702
     5  N   -2.264818
     6  C    1.004982
     7  N   -2.348631
     8  H    1.204097
     9  H    1.314671
    10  H    0.738426
    11  H    1.468569
 Sum of Mulliken charges =  -0.00000

 Dipole moment (field-independent basis, Debye):
    X=             -4.8798    Y=             -0.0076    Z=             -1.6443  Tot=              5.1494

 Test job not archived.
 1\1\GINC-SE419\SP\RHF\Aug-CC-pVDZ\C4H4N2O1\OHZDE\09-Apr-2025\0\\#t hf
 aug-cc-pvdz iop(5/13=1,5/36=2,99/5=2) pseudo=read geom=check guess=(re
 ad,tcheck) scf=(maxcycle=1)\\title\\0,1\O,0,2.06587807,-1.5970308,-0.3
 0288569\C,0,1.31918001,-0.70862449,-0.03274542\C,0,1.17905651,0.683000
 22,-0.27864723\C,0,-0.04722468,0.97591732,0.30571444\N,0,-1.34796518,0
 .30641317,-0.09548411\C,0,-1.07026215,-0.92940414,0.24312578\N,0,0.088
 85327,-0.8993018,0.85536704\H,0,1.86065806,1.3575178,-0.77394952\H,0,-
 0.26553374,1.93979254,0.76815231\H,0,-2.07333933,0.65450706,-0.7098114

 Normal termination of Gaussian 16 at Wed Apr  9 04:04:32 2025.
