 Gaussian 16, Revision C.01,

 ----------------------------------------------------------------------
 #t hf aug-cc-pvdz symm=none int=(grid=ultrafine) guess=(read,tcheck) s
 table=(opt,rrhf)
 ----------------------------------------------------------------------
 -----
 title
 -----
 Symbolic Z-matrix:
 Charge =  0 Multiplicity = 1

 SCF Done:  E(RHF) =  -207.621115284     A.U. after   13 cycles
 Normal termination of Gaussian 16 at Wed Apr  9 17:48:10 2025.
 Gaussian 16:  ES64L-G16RevC.01  3-Jul-2019

 ----------------------------------------------------------------------
 #t hf aug-cc-pvdz iop(5/13=1,5/36=2,99/5=2) pseudo=read geom=check gue
 ss=(read,tcheck) scf=(maxcycle=1)
 ----------------------------------------------------------------------
 -----
 title
 -----
 Structure from the checkpoint file:  "Grambow2020_wb97xd3_006176_forward_mol2.chk"
 Charge =  0 Multiplicity = 1

                         Standard orientation:
 ---------------------------------------------------------------------
 Center     Atomic      Atomic             Coordinates (Angstroms)
 Number     Number       Type             X           Y           Z
 ---------------------------------------------------------------------
      1          6           0       -2.467762   -0.000207   -0.000799
      2          6           0       -1.016487   -0.000015    0.000895
      3          6           0        0.183156    0.000659    0.001216
      4          6           0        1.561076    0.000262    0.000310
      5          7           0        2.711639   -0.000489   -0.000935
      6          1           0       -2.846480   -0.663449   -0.779227
      7          1           0       -2.846411    1.005581   -0.186051
      8          1           0       -2.848484   -0.342898    0.962087
 ---------------------------------------------------------------------

 SCF Done:  E(RHF) =  -208.573793268     A.U. after    2 cycles

 The electronic state is 1-A.
 Alpha  occ. eigenvalues --  -15.77722 -11.49200 -11.47802 -11.45174 -11.44173
 Alpha  occ. eigenvalues --   -1.33221  -1.21312  -1.06847  -0.86633  -0.64340
 Alpha  occ. eigenvalues --   -0.62271  -0.62253  -0.54060  -0.51428  -0.51427
 Alpha  occ. eigenvalues --   -0.37425  -0.37424
 Alpha virt. eigenvalues --    0.01732   0.05602   0.05602   0.06511   0.09559
 Alpha virt. eigenvalues --    0.11181   0.11183   0.11206   0.12374   0.12561
 Alpha virt. eigenvalues --    0.12563   0.14720   0.14731   0.17119   0.17121

 Mulliken charges:
               1
     1  C   -4.675981
     2  C    2.999288
     3  C    1.066775
     4  C    1.227685
     5  N   -2.834073
     6  H    0.738350
     7  H    0.738126
     8  H    0.739830
 Sum of Mulliken charges =  -0.00000

 Dipole moment (field-independent basis, Debye):
    X=             -4.7215    Y=              0.0002    Z=             -0.0006  Tot=              4.7215

 Test job not archived.
 1\1\GINC-SE135\SP\RHF\Aug-CC-pVDZ\C4H3N1\OHZDE\09-Apr-2025\0\\#t hf au
 g-cc-pvdz iop(5/13=1,5/36=2,99/5=2) pseudo=read geom=check guess=(read
 ,tcheck) scf=(maxcycle=1)\\title\\0,1\C,0,-1.51200933,0.11469131,-0.25
 564897\C,0,-0.06976644,0.00484409,-0.13702883\C,0,1.12230122,-0.086097
 09,-0.03779375\C,0,2.4915657,-0.1890374,0.07702522\N,0,3.63491542,-0.2
 7443953,0.17322896\H,0,-1.86596017,1.01933781,0.23993311\H,0,-1.996623
 14,-0.74679726,0.20510094\H,0,-1.8044233,0.15749807,-1.30550486\\Versi
 on=ES64L-G16RevC.01\State=1-A\HF=-208.5737933\RMSD=2.489e+00\Dipole=-1

 Normal termination of Gaussian 16 at Wed Apr  9 17:48:12 2025.
