 Gaussian 16, Revision C.01,

 ----------------------------------------------------------------------
 #t hf aug-cc-pvdz symm=none int=(grid=ultrafine) guess=(read,tcheck) s
 table=(opt,rrhf)
 ----------------------------------------------------------------------
 -----
 title
 -----
 Symbolic Z-matrix:
 Charge =  0 Multiplicity = 1

 SCF Done:  E(RHF) =  -260.576633682     A.U. after   16 cycles
 Normal termination of Gaussian 16 at Wed Apr  9 17:40:07 2025.
 Gaussian 16:  ES64L-G16RevC.01  3-Jul-2019

 ----------------------------------------------------------------------
 #t hf aug-cc-pvdz iop(5/13=1,5/36=2,99/5=2) pseudo=read geom=check gue
 ss=(read,tcheck) scf=(maxcycle=1)
 ----------------------------------------------------------------------
 -----
 title
 -----
 Structure from the checkpoint file:  "Grambow2020_wb97xd3_006039_reverse_mol2.chk"
 Charge =  0 Multiplicity = 1

                         Standard orientation:
 ---------------------------------------------------------------------
 Center     Atomic      Atomic             Coordinates (Angstroms)
 Number     Number       Type             X           Y           Z
 ---------------------------------------------------------------------
      1          8           0        2.205579    0.022408    0.000439
      2          6           0        0.918007    0.361819   -0.000513
      3          6           0       -0.069571   -0.546362   -0.000832
      4          7           0       -1.295947   -0.081131   -0.000187
      5          7           0       -2.388584    0.142083    0.000643
      6          1           0        0.797516    1.443239   -0.000485
      7          1           0        2.258953   -0.941910    0.001847
 ---------------------------------------------------------------------

 SCF Done:  E(RHF) =  -261.711738620     A.U. after    2 cycles

 The electronic state is 1-A.
 Alpha  occ. eigenvalues --  -21.12735 -15.95726 -15.88103 -11.48062 -11.38251
 Alpha  occ. eigenvalues --   -1.78670  -1.63574  -1.20535  -0.94208  -0.76052
 Alpha  occ. eigenvalues --   -0.66720  -0.65887  -0.65207  -0.59485  -0.50236
 Alpha  occ. eigenvalues --   -0.47052  -0.34870  -0.30347
 Alpha virt. eigenvalues --    0.03947   0.05865   0.08516   0.08580   0.09891
 Alpha virt. eigenvalues --    0.10971   0.11046   0.12117   0.13010   0.13452
 Alpha virt. eigenvalues --    0.14802   0.17682   0.19625   0.20497   0.21637

 Mulliken charges:
               1
     1  O   -3.098293
     2  C    2.187144
     3  C   -0.788742
     4  N    0.830130
     5  N   -1.678638
     6  H    1.537963
     7  H    1.010436
 Sum of Mulliken charges =   0.00000

 Dipole moment (field-independent basis, Debye):
    X=              1.0677    Y=              1.5941    Z=              0.0024  Tot=              1.9186

 Test job not archived.
 1\1\GINC-SE029\SP\RHF\Aug-CC-pVDZ\C2H2N2O1\OHZDE\09-Apr-2025\0\\#t hf
 aug-cc-pvdz iop(5/13=1,5/36=2,99/5=2) pseudo=read geom=check guess=(re
 ad,tcheck) scf=(maxcycle=1)\\title\\0,1\O,0,-0.88696668,1.35585412,-0.
 70027805\C,0,-0.37202044,0.5120527,0.19183926\C,0,0.42689133,-0.508568
 01,-0.15482475\N,0,0.86957098,-1.26595226,0.82028667\N,0,1.33025099,-2
 .00175765,1.52031782\H,0,-0.68630148,0.76881477,1.20143759\H,0,-0.5789
 9269,1.08777633,-1.57551954\\Version=ES64L-G16RevC.01\State=1-A\HF=-26
 1.7117386\RMSD=2.902e-01\Dipole=-0.4223754,0.5116053,0.3600647\Quadrup

 Normal termination of Gaussian 16 at Wed Apr  9 17:40:09 2025.
