 Gaussian 16, Revision C.01,

 ----------------------------------------------------------------------
 #t hf aug-cc-pvdz symm=none int=(grid=ultrafine) guess=(read,tcheck) s
 table=(opt,rrhf)
 ----------------------------------------------------------------------
 -----
 title
 -----
 Symbolic Z-matrix:
 Charge =  0 Multiplicity = 1

 SCF Done:  E(RHF) =  -343.590172947     A.U. after   14 cycles
 Normal termination of Gaussian 16 at Wed Apr  9 18:19:20 2025.
 Gaussian 16:  ES64L-G16RevC.01  3-Jul-2019

 ----------------------------------------------------------------------
 #t hf aug-cc-pvdz iop(5/13=1,5/36=2,99/5=2) pseudo=read geom=check gue
 ss=(read,tcheck) scf=(maxcycle=1)
 ----------------------------------------------------------------------
 -----
 title
 -----
 Structure from the checkpoint file:  "Grambow2020_wb97xd3_006879_forward_mol1.chk"
 Charge =  0 Multiplicity = 1

                         Standard orientation:
 ---------------------------------------------------------------------
 Center     Atomic      Atomic             Coordinates (Angstroms)
 Number     Number       Type             X           Y           Z
 ---------------------------------------------------------------------
      1          6           0        0.612632    1.644014    0.041070
      2          6           0        0.579640    0.152948   -0.129330
      3          6           0        1.031015   -0.784772    0.936130
      4          6           0        1.828323   -0.631354   -0.333974
      5          8           0       -0.498765   -0.303112   -0.972012
      6          6           0       -1.710388   -0.346443   -0.489032
      7          8           0       -1.942820    0.013352    0.724856
      8          1           0       -0.251094    1.995969    0.604154
      9          1           0        0.625783    2.136161   -0.933005
     10          1           0        1.516259    1.931941    0.579783
     11          1           0        1.410985   -0.351748    1.852183
     12          1           0        0.473154   -1.701446    1.066069
     13          1           0        2.767501   -0.094935   -0.300175
     14          1           0        1.787131   -1.443232   -1.047366
     15          1           0       -2.844369   -0.360982    0.006425
 ---------------------------------------------------------------------

 SCF Done:  E(RHF) =  -345.160290027     A.U. after    2 cycles

 The electronic state is 1-A.
 Alpha  occ. eigenvalues --  -21.10749 -21.08122 -11.48097 -11.46337 -11.43332
 Alpha  occ. eigenvalues --  -11.39379 -11.37428  -1.86397  -1.70656  -1.30574
 Alpha  occ. eigenvalues --   -1.06572  -0.88532  -0.86201  -0.75420  -0.70639
 Alpha  occ. eigenvalues --   -0.66272  -0.63437  -0.57762  -0.56537  -0.53763
 Alpha  occ. eigenvalues --   -0.52201  -0.51273  -0.42955  -0.41987  -0.35730
 Alpha  occ. eigenvalues --   -0.33890  -0.28070
 Alpha virt. eigenvalues --    0.03955   0.05177   0.05404   0.05673   0.05807
 Alpha virt. eigenvalues --    0.06206   0.07116   0.07925   0.10101   0.11175
 Alpha virt. eigenvalues --    0.12202   0.12805   0.13660   0.14208   0.15021

 Mulliken charges:
               1
     1  C   -4.330575
     2  C    3.462363
     3  C   -2.659200
     4  C   -2.892236
     5  O   -3.315301
     6  C    0.997453
     7  O   -1.994810
     8  H    1.292708
     9  H    1.234011
    10  H    1.150846
    11  H    1.421768
    12  H    1.267081
    13  H    1.453856
    14  H    1.193098
    15  H    1.718937
 Sum of Mulliken charges =  -0.00000

 Dipole moment (field-independent basis, Debye):
    X=              1.6890    Y=              0.6065    Z=              1.4296  Tot=              2.2944

 Test job not archived.
 1\1\GINC-SE114\SP\RHF\Aug-CC-pVDZ\C5H8O2\OHZDE\09-Apr-2025\0\\#t hf au
 g-cc-pvdz iop(5/13=1,5/36=2,99/5=2) pseudo=read geom=check guess=(read
 ,tcheck) scf=(maxcycle=1)\\title\\0,1\C,0,-0.27590144,1.50371285,-0.20
 760518\C,0,-0.16018332,0.08457779,0.26785893\C,0,-0.82034161,-1.051193
 75,-0.43390857\C,0,-1.30283361,-0.60840731,0.9238633\O,0,1.09824691,-0
 .20238849,0.91211509\C,0,2.16414439,-0.37662104,0.17952869\O,0,2.09571
 551,-0.29358442,-1.1032123\H,0,0.42154992,1.70578772,-1.01981615\H,0,-
 0.0754595,2.19529584,0.61260199\H,0,-1.28847934,1.68846358,-0.56844981

 Normal termination of Gaussian 16 at Wed Apr  9 18:19:25 2025.
