 Gaussian 16, Revision C.01,

 ----------------------------------------------------------------------
 #t hf aug-cc-pvdz symm=none int=(grid=ultrafine) guess=(read,tcheck) s
 table=(opt,rrhf)
 ----------------------------------------------------------------------
 -----
 title
 -----
 Symbolic Z-matrix:
 Charge =  0 Multiplicity = 1

 SCF Done:  E(RHF) =  -305.731177581     A.U. after   14 cycles
 Normal termination of Gaussian 16 at Wed Apr  9 17:52:29 2025.
 Gaussian 16:  ES64L-G16RevC.01  3-Jul-2019

 ----------------------------------------------------------------------
 #t hf aug-cc-pvdz iop(5/13=1,5/36=2,99/5=2) pseudo=read geom=check gue
 ss=(read,tcheck) scf=(maxcycle=1)
 ----------------------------------------------------------------------
 -----
 title
 -----
 Structure from the checkpoint file:  "Grambow2020_wb97xd3_006219_reverse_mol1.chk"
 Charge =  0 Multiplicity = 1

                         Standard orientation:
 ---------------------------------------------------------------------
 Center     Atomic      Atomic             Coordinates (Angstroms)
 Number     Number       Type             X           Y           Z
 ---------------------------------------------------------------------
      1          6           0       -2.211438    0.282999    0.160877
      2          8           0       -1.009276   -0.153926   -0.456993
      3          6           0       -0.226066   -0.923043    0.364023
      4          6           0        1.123903   -1.088573   -0.321740
      5          6           0        1.353036    0.160893    0.445970
      6          8           0        1.214255    1.370435   -0.182903
      7          1           0       -2.001903    1.074336    0.886910
      8          1           0       -2.695134   -0.551850    0.669460
      9          1           0       -2.852648    0.672600   -0.628166
     10          1           0        0.311976   -0.078284    1.245840
     11          1           0        1.119364   -0.966303   -1.400937
     12          1           0        1.684975   -1.960568   -0.003497
     13          1           0        2.109373    0.186290    1.224019
     14          1           0        0.447563    1.298056   -0.769243
 ---------------------------------------------------------------------

 SCF Done:  E(RHF) =  -307.141689386     A.U. after    2 cycles

 The electronic state is 1-A.
 Alpha  occ. eigenvalues --  -21.09048 -21.07283 -11.47796 -11.43406 -11.40925
 Alpha  occ. eigenvalues --  -11.38537  -1.80307  -1.73467  -1.22844  -0.99992
 Alpha  occ. eigenvalues --   -0.88903  -0.81724  -0.67858  -0.65870  -0.62394
 Alpha  occ. eigenvalues --   -0.59874  -0.56381  -0.54824  -0.49381  -0.46882
 Alpha  occ. eigenvalues --   -0.42035  -0.37410  -0.34930  -0.25722
 Alpha virt. eigenvalues --    0.04124   0.05251   0.05537   0.05613   0.06430
 Alpha virt. eigenvalues --    0.06605   0.07005   0.08041   0.10357   0.11839
 Alpha virt. eigenvalues --    0.12995   0.13766   0.14139   0.15143   0.15517

 Mulliken charges:
               1
     1  C   -2.838320
     2  O   -2.578788
     3  C    0.670264
     4  C   -3.214155
     5  C    0.897443
     6  O   -3.164528
     7  H    1.393749
     8  H    1.357887
     9  H    1.293946
    10  H    1.312225
    11  H    1.237748
    12  H    1.391077
    13  H    1.416905
    14  H    0.824545
 Sum of Mulliken charges =  -0.00000

 Dipole moment (field-independent basis, Debye):
    X=              0.4654    Y=              1.0020    Z=             -0.8232  Tot=              1.3778

 Test job not archived.
 1\1\GINC-SE041\SP\RHF\Aug-CC-pVDZ\C4H8O2\OHZDE\09-Apr-2025\0\\#t hf au
 g-cc-pvdz iop(5/13=1,5/36=2,99/5=2) pseudo=read geom=check guess=(read
 ,tcheck) scf=(maxcycle=1)\\title\\0,1\C,0,1.6563751,-0.44369325,-1.239
 1326\O,0,1.02155031,0.14628058,-0.11361513\C,0,0.17854073,-0.71103361,
 0.54469537\C,0,-0.62144199,0.11657259,1.54228438\C,0,-1.48529002,0.218
 9232,0.33964771\O,0,-1.39261837,1.32684795,-0.46138189\H,0,0.9457193,-
 0.55482692,-2.06366911\H,0,2.05354979,-1.42400624,-0.97299473\H,0,2.46
 106368,0.22565849,-1.53908537\H,0,-0.89687182,-0.8313239,-0.23615465\H

 Normal termination of Gaussian 16 at Wed Apr  9 17:52:32 2025.
