 Gaussian 16, Revision C.01,

 ----------------------------------------------------------------------
 #t hf aug-cc-pvdz symm=none int=(grid=ultrafine) guess=(read,tcheck) s
 table=(opt,rrhf)
 ----------------------------------------------------------------------
 -----
 title
 -----
 Symbolic Z-matrix:
 Charge =  0 Multiplicity = 1

 SCF Done:  E(RHF) =  -270.012108029     A.U. after   12 cycles

 1\1\GINC-SE162\Stability\RHF\Aug-CC-pVDZ\C5H10O1\OHZDE\09-Apr-2025\0\\
 #t hf aug-cc-pvdz symm=none int=(grid=ultrafine) guess=(read,tcheck) s
 table=(opt,rrhf)\\title\\0,1\C,0,2.38236698,0.00026069,0.13305712\O,0,
 1.23099955,-0.70355235,0.52026655\C,0,0.10713236,-0.36383726,-0.237167
 76\C,0,-0.57238278,1.00375226,-0.00336741\C,0,-1.9282704,0.27165746,-0
 .10461934\C,0,-1.19007867,-1.05261688,0.18873259\H,0,2.25789428,1.0830
 7995,0.26138307\H,0,2.6378041,-0.19815888,-0.9165353\H,0,3.20185804,-0
 .33626674,0.76663127\H,0,0.31166502,-0.51807436,-1.30709464\H,0,-0.379

 Normal termination of Gaussian 16 at Wed Apr  9 17:50:32 2025.
 Gaussian 16:  ES64L-G16RevC.01  3-Jul-2019

 ----------------------------------------------------------------------
 #t hf aug-cc-pvdz iop(5/13=1,5/36=2,99/5=2) pseudo=read geom=check gue
 ss=(read,tcheck) scf=(maxcycle=1)
 ----------------------------------------------------------------------
 -----
 title
 -----
 Structure from the checkpoint file:  "Grambow2020_wb97xd3_006204_forward_mol2.chk"
 Charge =  0 Multiplicity = 1

                         Standard orientation:
 ---------------------------------------------------------------------
 Center     Atomic      Atomic             Coordinates (Angstroms)
 Number     Number       Type             X           Y           Z
 ---------------------------------------------------------------------
      1          6           0       -2.318132    0.245758    0.051962
      2          8           0       -1.230770   -0.575112   -0.286782
      3          6           0       -0.045270   -0.194048    0.346916
      4          6           0        0.686244    1.080642   -0.129274
      5          6           0        2.007091    0.292328    0.007007
      6          6           0        1.185752   -1.014517   -0.040356
      7          1           0       -2.147508    1.288093   -0.246172
      8          1           0       -2.515991    0.221220    1.132014
      9          1           0       -3.192222   -0.131861   -0.476814
     10          1           0       -0.188867   -0.174981    1.437504
     11          1           0        0.446171    1.274267   -1.176743
     12          1           0        0.567977    1.997758    0.447659
     13          1           0        2.472716    0.445421    0.981333
     14          1           0        2.760524    0.438748   -0.765304
     15          1           0        1.073270   -1.377099   -1.063233
     16          1           0        1.475981   -1.841646    0.606477
 ---------------------------------------------------------------------

 SCF Done:  E(RHF) =  -271.317992777     A.U. after    2 cycles

 The electronic state is 1-A.
 Alpha  occ. eigenvalues --  -21.03841 -11.49297 -11.40521 -11.39544 -11.38827
 Alpha  occ. eigenvalues --  -11.33949  -1.75653  -1.30168  -1.00120  -0.95521
 Alpha  occ. eigenvalues --   -0.89626  -0.78858  -0.67722  -0.64718  -0.60791
 Alpha  occ. eigenvalues --   -0.58401  -0.55714  -0.53796  -0.49224  -0.45170
 Alpha  occ. eigenvalues --   -0.42395  -0.40234  -0.37102  -0.28525
 Alpha virt. eigenvalues --    0.04283   0.05328   0.05426   0.05528   0.05702
 Alpha virt. eigenvalues --    0.06010   0.06540   0.07009   0.07641   0.08861
 Alpha virt. eigenvalues --    0.11741   0.12812   0.13623   0.14027   0.14854

 Mulliken charges:
               1
     1  C   -3.228034
     2  O   -3.630414
     3  C    2.124520
     4  C   -2.884193
     5  C   -2.723321
     6  C   -3.121290
     7  H    1.386788
     8  H    1.302238
     9  H    1.250912
    10  H    1.705417
    11  H    1.433025
    12  H    1.294924
    13  H    1.298100
    14  H    1.210623
    15  H    1.374949
    16  H    1.205755
 Sum of Mulliken charges =  -0.00000

 Dipole moment (field-independent basis, Debye):
    X=              0.0547    Y=              0.2835    Z=              0.2531  Tot=              0.3839

 Test job not archived.
 1\1\GINC-SE162\SP\RHF\Aug-CC-pVDZ\C5H10O1\OHZDE\09-Apr-2025\0\\#t hf a
 ug-cc-pvdz iop(5/13=1,5/36=2,99/5=2) pseudo=read geom=check guess=(rea
 d,tcheck) scf=(maxcycle=1)\\title\\0,1\C,0,2.38236698,0.00026069,0.133
 05712\O,0,1.23099955,-0.70355235,0.52026655\C,0,0.10713236,-0.36383726
 ,-0.23716776\C,0,-0.57238278,1.00375226,-0.00336741\C,0,-1.9282704,0.2
 7165746,-0.10461934\C,0,-1.19007867,-1.05261688,0.18873259\H,0,2.25789
 428,1.08307995,0.26138307\H,0,2.6378041,-0.19815888,-0.9165353\H,0,3.2
 0185804,-0.33626674,0.76663127\H,0,0.31166502,-0.51807436,-1.30709464\

 Normal termination of Gaussian 16 at Wed Apr  9 17:50:36 2025.
