 Gaussian 16, Revision C.01,

 ----------------------------------------------------------------------
 #t hf aug-cc-pvdz symm=none int=(grid=ultrafine) guess=(read,tcheck) s
 table=(opt,rrhf)
 ----------------------------------------------------------------------
 -----
 title
 -----
 Symbolic Z-matrix:
 Charge =  0 Multiplicity = 1

 SCF Done:  E(RHF) =  -306.734423386     A.U. after   14 cycles
 Normal termination of Gaussian 16 at Wed Apr  9 03:59:42 2025.
 Gaussian 16:  ES64L-G16RevC.01  3-Jul-2019

 ----------------------------------------------------------------------
 #t hf aug-cc-pvdz iop(5/13=1,5/36=2,99/5=2) pseudo=read geom=check gue
 ss=(read,tcheck) scf=(maxcycle=1)
 ----------------------------------------------------------------------
 -----
 title
 -----
 Structure from the checkpoint file:  "Grambow2020_wb97xd3_008800_reverse_mol2.chk"
 Charge =  0 Multiplicity = 1

                         Standard orientation:
 ---------------------------------------------------------------------
 Center     Atomic      Atomic             Coordinates (Angstroms)
 Number     Number       Type             X           Y           Z
 ---------------------------------------------------------------------
      1          8           0       -2.348815    0.088131    0.124280
      2          6           0       -0.999882   -0.042867   -0.008315
      3          6           0       -0.330643   -1.196790   -0.006113
      4          6           0        1.158082   -1.197300   -0.233989
      5          6           0        1.810747    0.073981    0.304904
      6          6           0        1.015309    1.299843   -0.047883
      7          6           0       -0.306656    1.236216   -0.177539
      8          1           0       -0.856161   -2.142763    0.081001
      9          1           0       -2.743142   -0.783487    0.205148
     10          1           0        1.614220   -2.070756    0.235983
     11          1           0        1.361512   -1.285639   -1.310201
     12          1           0        1.879100    0.018409    1.400104
     13          1           0        2.834799    0.159609   -0.063499
     14          1           0        1.528644    2.250266   -0.141862
     15          1           0       -0.910183    2.110814   -0.387304
 ---------------------------------------------------------------------

 SCF Done:  E(RHF) =  -308.177247984     A.U. after    2 cycles

 The electronic state is 1-A.
 Alpha  occ. eigenvalues --  -21.09575 -11.47720 -11.43875 -11.41736 -11.39573
 Alpha  occ. eigenvalues --  -11.38394 -11.35232  -1.75206  -1.30282  -1.09465
 Alpha  occ. eigenvalues --   -1.06833  -0.88455  -0.85343  -0.69718  -0.68904
 Alpha  occ. eigenvalues --   -0.62418  -0.59327  -0.56911  -0.53264  -0.51467
 Alpha  occ. eigenvalues --   -0.49365  -0.47586  -0.42051  -0.40754  -0.34966
 Alpha  occ. eigenvalues --   -0.25826
 Alpha virt. eigenvalues --    0.03630   0.05135   0.05290   0.05860   0.05952
 Alpha virt. eigenvalues --    0.06599   0.06901   0.08045   0.11054   0.12355
 Alpha virt. eigenvalues --    0.12739   0.12906   0.13771   0.14077   0.14407

 Mulliken charges:
               1
     1  O   -4.258010
     2  C    5.020973
     3  C   -2.130386
     4  C   -3.436174
     5  C   -3.914016
     6  C    0.114339
     7  C   -1.749345
     8  H    1.551112
     9  H    0.979829
    10  H    1.147951
    11  H    1.225397
    12  H    1.272791
    13  H    1.180567
    14  H    1.374013
    15  H    1.620957
 Sum of Mulliken charges =  -0.00000

 Dipole moment (field-independent basis, Debye):
    X=              0.1899    Y=             -0.1743    Z=              0.0415  Tot=              0.2611

 Test job not archived.
 1\1\GINC-SE340\SP\RHF\Aug-CC-pVDZ\C6H8O1\OHZDE\09-Apr-2025\0\\#t hf au
 g-cc-pvdz iop(5/13=1,5/36=2,99/5=2) pseudo=read geom=check guess=(read
 ,tcheck) scf=(maxcycle=1)\\title\\0,1\O,0,0.57057258,-2.60211302,0.250
 33751\C,0,0.24087947,-1.28233542,0.18828248\C,0,-0.98481325,-0.8001121
 9,-0.0228129\C,0,-1.21702195,0.6876999,0.0040619\C,0,0.00914968,1.4579
 3563,-0.48150203\C,0,1.27999555,0.90347522,0.09939681\C,0,1.38262595,-
 0.388762,0.39611232\H,0,-1.83210913,-1.46914251,-0.13732077\H,0,-0.222
 35871,-3.13039221,0.13230253\H,0,-2.0806646,0.94874737,-0.61062185\H,0

 Normal termination of Gaussian 16 at Wed Apr  9 03:59:46 2025.
