 Gaussian 16, Revision C.01,

 ----------------------------------------------------------------------
 #t hf aug-cc-pvdz symm=none int=(grid=ultrafine) guess=(read,tcheck) s
 table=(opt,rrhf)
 ----------------------------------------------------------------------
 -----
 title
 -----
 Symbolic Z-matrix:
 Charge =  0 Multiplicity = 1

 SCF Done:  E(RHF) =  -281.711023114     A.U. after   12 cycles
 Normal termination of Gaussian 16 at Wed Apr  9 03:07:35 2025.
 Gaussian 16:  ES64L-G16RevC.01  3-Jul-2019

 ----------------------------------------------------------------------
 #t hf aug-cc-pvdz iop(5/13=1,5/36=2,99/5=2) pseudo=read geom=check gue
 ss=(read,tcheck) scf=(maxcycle=1)
 ----------------------------------------------------------------------
 -----
 title
 -----
 Structure from the checkpoint file:  "Grambow2020_b97d3_006582_forward_mol2.chk"
 Charge =  0 Multiplicity = 1

                         Standard orientation:
 ---------------------------------------------------------------------
 Center     Atomic      Atomic             Coordinates (Angstroms)
 Number     Number       Type             X           Y           Z
 ---------------------------------------------------------------------
      1          8           0        2.304951   -0.229104   -0.000597
      2          6           0        1.234892    0.347440   -0.000115
      3          7           0       -0.000066   -0.298185    0.000954
      4          6           0       -1.234916    0.347219    0.000519
      5          8           0       -2.305194   -0.228915   -0.000979
      6          1           0        1.121370    1.451524   -0.000528
      7          1           0        0.001046   -1.319101    0.002460
      8          1           0       -1.119867    1.451070    0.001568
 ---------------------------------------------------------------------

 SCF Done:  E(RHF) =  -282.895461972     A.U. after    2 cycles

 The electronic state is 1-A.
 Alpha  occ. eigenvalues --  -21.07925 -21.07920 -15.81864 -11.52835 -11.52465
 Alpha  occ. eigenvalues --   -1.74313  -1.72970  -1.41444  -0.94081  -0.91292
 Alpha  occ. eigenvalues --   -0.72670  -0.65037  -0.60556  -0.57433  -0.52265
 Alpha  occ. eigenvalues --   -0.47544  -0.36196  -0.34126  -0.31152
 Alpha virt. eigenvalues --    0.03155   0.05602   0.05737   0.08417   0.10445
 Alpha virt. eigenvalues --    0.11484   0.11970   0.12683   0.14452   0.14522
 Alpha virt. eigenvalues --    0.14803   0.15906   0.17182   0.18232   0.21198

 Mulliken charges:
               1
     1  O   -2.564619
     2  C    1.870040
     3  N   -2.280167
     4  C    1.870069
     5  O   -2.565298
     6  H    1.548177
     7  H    0.573669
     8  H    1.548128
 Sum of Mulliken charges =  -0.00000

 Dipole moment (field-independent basis, Debye):
    X=              0.0017    Y=              0.6113    Z=              0.0031  Tot=              0.6113

 Test job not archived.
 1\1\GINC-SE228\SP\RHF\Aug-CC-pVDZ\C2H3N1O2\OHZDE\09-Apr-2025\0\\#t hf
 aug-cc-pvdz iop(5/13=1,5/36=2,99/5=2) pseudo=read geom=check guess=(re
 ad,tcheck) scf=(maxcycle=1)\\title\\0,1\O,0,-2.33481396,0.18668619,-0.
 03417062\C,0,-1.197517,-0.1445858,-0.30664785\N,0,-0.06780669,0.312451
 28,0.36924121\C,0,1.24192666,-0.05631244,0.06921967\O,0,2.21884575,0.3
 5227424,0.6659708\H,0,-0.93140206,-0.84740197,-1.1234234\H,0,-0.211370
 75,0.96519013,1.14098944\H,0,1.28213806,-0.76830163,-0.78117926\\Versi
 on=ES64L-G16RevC.01\State=1-A\HF=-282.895462\RMSD=5.307e-02\Dipole=0.0

 Normal termination of Gaussian 16 at Wed Apr  9 03:07:37 2025.
