 Gaussian 16, Revision C.01,

 ----------------------------------------------------------------------
 #t hf aug-cc-pvdz symm=none int=(grid=ultrafine) guess=(read,tcheck) s
 table=(opt,rrhf)
 ----------------------------------------------------------------------
 -----
 title
 -----
 Symbolic Z-matrix:
 Charge =  0 Multiplicity = 1

 SCF Done:  E(RHF) =  -344.862330145     A.U. after   13 cycles

 1\1\GINC-SE292\Stability\RHF\Aug-CC-pVDZ\C5H10O2\OHZDE\09-Apr-2025\0\\
 #t hf aug-cc-pvdz symm=none int=(grid=ultrafine) guess=(read,tcheck) s
 table=(opt,rrhf)\\title\\0,1\C,0,-2.37731971,0.20004382,-0.10276094\C,
 0,-1.58598503,-1.06253293,-0.26102646\O,0,-0.26242729,-0.93558056,-0.7
 8734207\C,0,-0.42224359,-1.36294711,0.56578435\C,0,2.77643422,0.393747
 79,0.22026449\C,0,2.03646158,1.49415041,0.14224984\O,0,0.81972844,1.61
 392381,-0.42231397\H,0,-3.23396517,0.02231627,0.55025125\H,0,-1.765108
 64,0.99225183,0.32960669\H,0,-2.75253984,0.54180118,-1.06880882\H,0,-2

 Normal termination of Gaussian 16 at Wed Apr  9 03:34:28 2025.
 Gaussian 16:  ES64L-G16RevC.01  3-Jul-2019

 ----------------------------------------------------------------------
 #t hf aug-cc-pvdz iop(5/13=1,5/36=2,99/5=2) pseudo=read geom=check gue
 ss=(read,tcheck) scf=(maxcycle=1)
 ----------------------------------------------------------------------
 -----
 title
 -----
 Structure from the checkpoint file:  "Grambow2020_wb97xd3_007088_reverse_mol2.chk"
 Charge =  0 Multiplicity = 1

                         Standard orientation:
 ---------------------------------------------------------------------
 Center     Atomic      Atomic             Coordinates (Angstroms)
 Number     Number       Type             X           Y           Z
 ---------------------------------------------------------------------
      1          6           0       -2.211254    1.109750    0.268411
      2          6           0       -2.006985   -0.326096   -0.108388
      3          8           0       -0.777060   -0.656230   -0.758948
      4          6           0       -1.018291   -1.172700    0.550327
      5          6           0        2.591858   -0.783552    0.048048
      6          6           0        2.355597    0.518066    0.168476
      7          8           0        1.260581    1.184327   -0.244506
      8          1           0       -3.028044    1.192523    0.988033
      9          1           0       -1.307909    1.528324    0.713496
     10          1           0       -2.471106    1.703926   -0.609238
     11          1           0       -2.859544   -0.824658   -0.563644
     12          1           0        0.608213    0.558688   -0.609220
     13          1           0       -0.390830   -0.747169    1.328512
     14          1           0       -1.160991   -2.247360    0.593543
     15          1           0        1.889879   -1.451848   -0.436748
     16          1           0        3.515579   -1.196907    0.425922
     17          1           0        3.071041    1.186893    0.635732
 ---------------------------------------------------------------------

 SCF Done:  E(RHF) =  -346.447278664     A.U. after    2 cycles

 The electronic state is 1-A.
 Alpha  occ. eigenvalues --  -21.07425 -21.07375 -11.49643 -11.43375 -11.42874
 Alpha  occ. eigenvalues --  -11.38877 -11.35419  -1.80304  -1.73175  -1.12747
 Alpha  occ. eigenvalues --   -1.08539  -0.97525  -0.86348  -0.81449  -0.70968
 Alpha  occ. eigenvalues --   -0.63738  -0.63179  -0.60298  -0.58536  -0.55149
 Alpha  occ. eigenvalues --   -0.51485  -0.50210  -0.47112  -0.44924  -0.42540
 Alpha  occ. eigenvalues --   -0.37860  -0.32441  -0.26870
 Alpha virt. eigenvalues --    0.03723   0.04928   0.05062   0.05237   0.05766
 Alpha virt. eigenvalues --    0.06105   0.06436   0.07437   0.08227   0.09454
 Alpha virt. eigenvalues --    0.11300   0.12404   0.13266   0.13690   0.14288

 Mulliken charges:
               1
     1  C   -4.324022
     2  C    0.946221
     3  O   -2.537250
     4  C   -2.462565
     5  C   -3.299973
     6  C    1.101878
     7  O   -3.655185
     8  H    1.224590
     9  H    1.302608
    10  H    1.233483
    11  H    1.463943
    12  H    1.466011
    13  H    1.738411
    14  H    1.317393
    15  H    1.561506
    16  H    1.277009
    17  H    1.645941
 Sum of Mulliken charges =   0.00000

 Dipole moment (field-independent basis, Debye):
    X=             -1.8890    Y=             -0.0100    Z=              0.2366  Tot=              1.9038

 Test job not archived.
 1\1\GINC-SE292\SP\RHF\Aug-CC-pVDZ\C5H10O2\OHZDE\09-Apr-2025\0\\#t hf a
 ug-cc-pvdz iop(5/13=1,5/36=2,99/5=2) pseudo=read geom=check guess=(rea
 d,tcheck) scf=(maxcycle=1)\\title\\0,1\C,0,-2.37731971,0.20004382,-0.1
 0276094\C,0,-1.58598503,-1.06253293,-0.26102646\O,0,-0.26242729,-0.935
 58056,-0.78734207\C,0,-0.42224359,-1.36294711,0.56578435\C,0,2.7764342
 2,0.39374779,0.22026449\C,0,2.03646158,1.49415041,0.14224984\O,0,0.819
 72844,1.61392381,-0.42231397\H,0,-3.23396517,0.02231627,0.55025125\H,0
 ,-1.76510864,0.99225183,0.32960669\H,0,-2.75253984,0.54180118,-1.06880

 Normal termination of Gaussian 16 at Wed Apr  9 03:34:33 2025.
