 Gaussian 16, Revision C.01,

 ----------------------------------------------------------------------
 #t hf aug-cc-pvdz symm=none int=(grid=ultrafine) guess=(read,tcheck) s
 table=(opt,rrhf)
 ----------------------------------------------------------------------
 -----
 title
 -----
 Symbolic Z-matrix:
 Charge =  0 Multiplicity = 1

 SCF Done:  E(RHF) =  -305.454828773     A.U. after   15 cycles
 Normal termination of Gaussian 16 at Wed Apr  9 19:02:49 2025.
 Gaussian 16:  ES64L-G16RevC.01  3-Jul-2019

 ----------------------------------------------------------------------
 #t hf aug-cc-pvdz iop(5/13=1,5/36=2,99/5=2) pseudo=read geom=check gue
 ss=(read,tcheck) scf=(maxcycle=1)
 ----------------------------------------------------------------------
 -----
 title
 -----
 Structure from the checkpoint file:  "Grambow2020_wb97xd3_008023_reverse_mol2.chk"
 Charge =  0 Multiplicity = 1

                         Standard orientation:
 ---------------------------------------------------------------------
 Center     Atomic      Atomic             Coordinates (Angstroms)
 Number     Number       Type             X           Y           Z
 ---------------------------------------------------------------------
      1          8           0       -2.713922   -0.424320   -0.350186
      2          6           0        0.051988    1.439626   -0.385027
      3          6           0        0.847121    0.546233    0.581583
      4          6           0       -0.538416    0.245224    0.193142
      5          6           0       -1.531166   -0.604440    0.299781
      6          6           0        1.938634   -0.251998    0.080042
      7          6           0        2.847464   -0.913973   -0.333939
      8          1           0       -3.297834   -1.158309   -0.158446
      9          1           0        0.348344    1.416517   -1.427296
     10          1           0       -0.248707    2.412383   -0.012686
     11          1           0        1.007038    0.955078    1.574440
     12          1           0       -1.444331   -1.493663    0.917141
     13          1           0        3.653112   -1.501476   -0.705161
 ---------------------------------------------------------------------

 SCF Done:  E(RHF) =  -306.861608173     A.U. after    2 cycles

 The electronic state is 1-A.
 Alpha  occ. eigenvalues --  -21.10442 -11.49118 -11.46454 -11.43048 -11.40876
 Alpha  occ. eigenvalues --  -11.39681 -11.38627  -1.75245  -1.33491  -1.09083
 Alpha  occ. eigenvalues --   -1.01282  -0.90260  -0.77537  -0.72884  -0.69153
 Alpha  occ. eigenvalues --   -0.66137  -0.61932  -0.53583  -0.48278  -0.47301
 Alpha  occ. eigenvalues --   -0.46763  -0.41819  -0.35840  -0.33412  -0.27956
 Alpha virt. eigenvalues --    0.03217   0.04646   0.05556   0.05826   0.06080
 Alpha virt. eigenvalues --    0.07164   0.09950   0.10448   0.10712   0.11490
 Alpha virt. eigenvalues --    0.11960   0.12838   0.13399   0.14327   0.14725

 Mulliken charges:
               1
     1  O   -3.244068
     2  C   -2.601826
     3  C   -2.609026
     4  C    2.805690
     5  C   -0.050682
     6  C    4.596521
     7  C   -4.845524
     8  H    0.826912
     9  H    1.109035
    10  H    1.020734
    11  H    0.728620
    12  H    1.489991
    13  H    0.773622
 Sum of Mulliken charges =   0.00000

 Dipole moment (field-independent basis, Debye):
    X=             -1.3000    Y=             -0.5575    Z=              0.2777  Tot=              1.4415

 Test job not archived.
 1\1\GINC-SE232\SP\RHF\Aug-CC-pVDZ\C6H6O1\OHZDE\09-Apr-2025\0\\#t hf au
 g-cc-pvdz iop(5/13=1,5/36=2,99/5=2) pseudo=read geom=check guess=(read
 ,tcheck) scf=(maxcycle=1)\\title\\0,1\O,0,0.22711168,-2.7719396,0.8477
 0932\C,0,1.42788851,0.27914184,0.23550106\C,0,0.17955425,0.78563859,-0
 .50601333\C,0,0.27697697,-0.58153702,0.02553562\C,0,-0.34821953,-1.720
 32389,0.2020245\C,0,-0.67899294,1.75770168,0.12494445\C,0,-1.39222088,
 2.56717587,0.64611674\H,0,-0.39414373,-3.49913755,0.88873376\H,0,1.600
 9547,0.6767777,1.22878906\H,0,2.31970302,0.12579009,-0.36154329\H,0,0.

 Normal termination of Gaussian 16 at Wed Apr  9 19:02:53 2025.
