 Gaussian 16, Revision C.01,

 ----------------------------------------------------------------------
 #t hf aug-cc-pvdz symm=none int=(grid=ultrafine) guess=(read,tcheck) s
 table=(opt,rrhf)
 ----------------------------------------------------------------------
 -----
 title
 -----
 Symbolic Z-matrix:
 Charge =  0 Multiplicity = 1

 SCF Done:  E(RHF) =  -306.515250314     A.U. after   17 cycles
 Normal termination of Gaussian 16 at Wed Apr  9 19:14:08 2025.
 Gaussian 16:  ES64L-G16RevC.01  3-Jul-2019

 ----------------------------------------------------------------------
 #t hf aug-cc-pvdz iop(5/13=1,5/36=2,99/5=2) pseudo=read geom=check gue
 ss=(read,tcheck) scf=(maxcycle=1)
 ----------------------------------------------------------------------
 -----
 title
 -----
 Structure from the checkpoint file:  "Grambow2020_wb97xd3_008453_forward_mol1.chk"
 Charge =  0 Multiplicity = 1

                         Standard orientation:
 ---------------------------------------------------------------------
 Center     Atomic      Atomic             Coordinates (Angstroms)
 Number     Number       Type             X           Y           Z
 ---------------------------------------------------------------------
      1          6           0       -1.775370    0.276720   -0.121827
      2          6           0       -0.862727   -0.776413   -0.749171
      3          6           0        1.279508   -0.835612    0.111182
      4          8           0        1.643687    0.364748   -0.205977
      5          6           0        0.505950    1.166978   -0.254506
      6          6           0       -0.528788    0.612704    0.725459
      7          6           0       -0.109892   -0.889406    0.570698
      8          1           0       -2.195695    1.071492   -0.744871
      9          1           0       -2.557991   -0.164901    0.502228
     10          1           0       -1.135897   -1.630851   -1.354003
     11          1           0        2.006615   -1.622617   -0.029643
     12          1           0       -0.079851    0.397694   -1.190911
     13          1           0        0.782736    2.215135   -0.263894
     14          1           0       -0.610093    1.090974    1.702407
     15          1           0       -0.411404   -1.604739    1.335496
 ---------------------------------------------------------------------

 SCF Done:  E(RHF) =  -307.999593887     A.U. after    2 cycles

 The electronic state is 1-A.
 Alpha  occ. eigenvalues --  -21.13816 -11.51651 -11.47235 -11.44244 -11.41170
 Alpha  occ. eigenvalues --  -11.37700 -11.34311  -1.87361  -1.36593  -1.07609
 Alpha  occ. eigenvalues --   -0.98165  -0.90073  -0.82402  -0.77612  -0.73613
 Alpha  occ. eigenvalues --   -0.66413  -0.59960  -0.58036  -0.54717  -0.52496
 Alpha  occ. eigenvalues --   -0.46412  -0.43121  -0.41846  -0.40183  -0.35296
 Alpha  occ. eigenvalues --   -0.22918
 Alpha virt. eigenvalues --    0.03855   0.04743   0.04903   0.05427   0.05894
 Alpha virt. eigenvalues --    0.06398   0.06595   0.08399   0.09564   0.11375
 Alpha virt. eigenvalues --    0.11873   0.12802   0.13083   0.14224   0.14616

 Mulliken charges:
               1
     1  C   -2.974337
     2  C   -1.116321
     3  C    1.423871
     4  O   -3.552119
     5  C   -0.110797
     6  C   -2.014336
     7  C   -2.606833
     8  H    1.142325
     9  H    1.345072
    10  H    1.110626
    11  H    1.496962
    12  H    1.404172
    13  H    1.439501
    14  H    1.531746
    15  H    1.480468
 Sum of Mulliken charges =   0.00000

 Dipole moment (field-independent basis, Debye):
    X=              1.0530    Y=             -0.2486    Z=              1.4201  Tot=              1.7853

 Test job not archived.
 1\1\GINC-SE219\SP\RHF\Aug-CC-pVDZ\C6H8O1\OHZDE\09-Apr-2025\0\\#t hf au
 g-cc-pvdz iop(5/13=1,5/36=2,99/5=2) pseudo=read geom=check guess=(read
 ,tcheck) scf=(maxcycle=1)\\title\\0,1\C,0,0.51647905,1.46158096,0.0669
 5637\C,0,1.1512192,0.11920902,0.42849059\C,0,-0.0876282,-1.73171208,-0
 .1816169\O,0,-1.14365691,-1.49423746,0.52724775\C,0,-1.24949238,-0.116
 54586,0.70370489\C,0,-0.6196635,0.58339836,-0.50113084\C,0,0.46551402,
 -0.51315706,-0.77629306\H,0,0.26202557,2.17252716,0.85836601\H,0,1.048
 77379,1.97306751,-0.74051696\H,0,2.17564984,-0.08848773,0.70761824\H,0

 Normal termination of Gaussian 16 at Wed Apr  9 19:14:13 2025.
