 Gaussian 16, Revision C.01,

 ----------------------------------------------------------------------
 #t hf aug-cc-pvdz symm=none int=(grid=ultrafine) guess=(read,tcheck) s
 table=(opt,rrhf)
 ----------------------------------------------------------------------
 -----
 title
 -----
 Symbolic Z-matrix:
 Charge =  0 Multiplicity = 1

 SCF Done:  E(RHF) =  -321.544883174     A.U. after   14 cycles
 Normal termination of Gaussian 16 at Wed Apr  9 19:33:34 2025.
 Gaussian 16:  ES64L-G16RevC.01  3-Jul-2019

 ----------------------------------------------------------------------
 #t hf aug-cc-pvdz iop(5/13=1,5/36=2,99/5=2) pseudo=read geom=check gue
 ss=(read,tcheck) scf=(maxcycle=1)
 ----------------------------------------------------------------------
 -----
 title
 -----
 Structure from the checkpoint file:  "Grambow2020_wb97xd3_009374_reverse_mol2.chk"
 Charge =  0 Multiplicity = 1

                         Standard orientation:
 ---------------------------------------------------------------------
 Center     Atomic      Atomic             Coordinates (Angstroms)
 Number     Number       Type             X           Y           Z
 ---------------------------------------------------------------------
      1          8           0       -0.953164    1.482352   -0.717480
      2          6           0       -0.611431    0.608392    0.014596
      3          6           0        0.592223    0.623077    0.914838
      4          6           0        1.736750   -0.203032    0.385536
      5          6           0        1.848395   -0.681376   -0.841945
      6          6           0       -1.965097   -1.589401    0.167216
      7          7           0       -1.359454   -0.592865    0.086601
      8          1           0        0.901296    1.664014    1.028330
      9          1           0        0.296894    0.247055    1.897754
     10          1           0        2.528578   -0.387263    1.104749
     11          1           0        1.091463   -0.524042   -1.603204
     12          1           0        2.718222   -1.254481   -1.135436
 ---------------------------------------------------------------------

 SCF Done:  E(RHF) =  -322.979377506     A.U. after    2 cycles

 The electronic state is 1-A.
 Alpha  occ. eigenvalues --  -21.09712 -15.79680 -11.57166 -11.47014 -11.45817
 Alpha  occ. eigenvalues --  -11.42624 -11.39648  -1.76863  -1.41262  -1.24633
 Alpha  occ. eigenvalues --   -1.07215  -0.95095  -0.82731  -0.70411  -0.66898
 Alpha  occ. eigenvalues --   -0.63579  -0.58795  -0.57069  -0.54038  -0.50828
 Alpha  occ. eigenvalues --   -0.49256  -0.46876  -0.42739  -0.37521  -0.33856
 Alpha virt. eigenvalues --    0.03185   0.04914   0.05310   0.05776   0.07034
 Alpha virt. eigenvalues --    0.08378   0.09170   0.09307   0.10074   0.11161
 Alpha virt. eigenvalues --    0.11779   0.11973   0.13381   0.13983   0.14196

 Mulliken charges:
               1
     1  O   -3.247657
     2  C    5.396598
     3  C   -4.400806
     4  C   -0.140833
     5  C   -2.977813
     6  C   -0.601290
     7  N   -0.804313
     8  H    1.285758
     9  H    1.374210
    10  H    1.271105
    11  H    1.509201
    12  H    1.335839
 Sum of Mulliken charges =   0.00000

 Dipole moment (field-independent basis, Debye):
    X=              2.6628    Y=              1.7762    Z=              0.6976  Tot=              3.2760

 Test job not archived.
 1\1\GINC-SE048\SP\RHF\Aug-CC-pVDZ\C5H5N1O1\OHZDE\09-Apr-2025\0\\#t hf
 aug-cc-pvdz iop(5/13=1,5/36=2,99/5=2) pseudo=read geom=check guess=(re
 ad,tcheck) scf=(maxcycle=1)\\title\\0,1\O,0,-1.33156816,0.32227172,1.8
 1629159\C,0,-0.39158454,0.55994032,1.12602553\C,0,-0.42820991,0.910653
 88,-0.3351701\C,0,-0.02282407,-0.23400512,-1.22846537\C,0,0.09271736,-
 1.50025895,-0.86619535\C,0,2.00563954,0.49233613,2.09284743\N,0,0.9174
 753,0.51599341,1.66655611\H,0,-1.4467411,1.2268925,-0.56871825\H,0,0.2
 3899751,1.75926223,-0.50673085\H,0,0.16847345,0.04625181,-2.25951413\H

 Normal termination of Gaussian 16 at Wed Apr  9 19:33:38 2025.
