 Gaussian 16, Revision C.01,

 ----------------------------------------------------------------------
 #t hf aug-cc-pvdz symm=none int=(grid=ultrafine) guess=(read,tcheck) s
 table=(opt,rrhf)
 ----------------------------------------------------------------------
 -----
 title
 -----
 Symbolic Z-matrix:
 Charge =  0 Multiplicity = 1

 SCF Done:  E(RHF) =  -308.917610393     A.U. after   15 cycles

 1\1\GINC-SE114\Stability\RHF\Aug-CC-pVDZ\C6H12O1\OHZDE\09-Apr-2025\0\\
 #t hf aug-cc-pvdz symm=none int=(grid=ultrafine) guess=(read,tcheck) s
 table=(opt,rrhf)\\title\\0,1\C,0,2.61694194,-0.79961622,0.10929687\O,0
 ,1.21360654,-0.91885965,-0.04471933\C,0,0.49341084,-0.05070002,0.67144
 56\C,0,-0.18607465,1.59603922,-0.45647299\C,0,-1.41060717,1.18284499,0
 .33600621\C,0,-1.01081029,-0.27436135,0.5904109\C,0,-1.4747852,-1.2019
 0596,-0.53089076\H,0,2.88215528,-0.76225398,1.16732832\H,0,2.97503755,
 0.10782698,-0.38694335\H,0,3.06623049,-1.67081761,-0.36488774\H,0,0.75

 Normal termination of Gaussian 16 at Wed Apr  9 19:12:23 2025.
 Gaussian 16:  ES64L-G16RevC.01  3-Jul-2019

 ----------------------------------------------------------------------
 #t hf aug-cc-pvdz iop(5/13=1,5/36=2,99/5=2) pseudo=read geom=check gue
 ss=(read,tcheck) scf=(maxcycle=1)
 ----------------------------------------------------------------------
 -----
 title
 -----
 Structure from the checkpoint file:  "Grambow2020_wb97xd3_008398_reverse_mol1.chk"
 Charge =  0 Multiplicity = 1

                         Standard orientation:
 ---------------------------------------------------------------------
 Center     Atomic      Atomic             Coordinates (Angstroms)
 Number     Number       Type             X           Y           Z
 ---------------------------------------------------------------------
      1          6           0        2.651439   -0.149583    0.015977
      2          8           0        1.362050    0.431399    0.100977
      3          6           0        0.412409   -0.203157   -0.592417
      4          6           0       -0.794234   -1.453527    0.601836
      5          6           0       -1.797823   -0.721194   -0.266916
      6          6           0       -0.936393    0.503952   -0.590900
      7          6           0       -1.094254    1.609491    0.451113
      8          1           0        2.912480   -0.346669   -1.025263
      9          1           0        2.680969   -1.086399    0.581172
     10          1           0        3.351482    0.558937    0.456025
     11          1           0        0.271752   -1.376007   -0.356657
     12          1           0       -0.840827   -2.541354    0.651770
     13          1           0       -0.615296   -1.013501    1.579305
     14          1           0       -2.759483   -0.491855    0.198703
     15          1           0       -1.994592   -1.298629   -1.172687
     16          1           0       -1.128585    0.938449   -1.577293
     17          1           0       -2.096641    2.038712    0.382863
     18          1           0       -0.953722    1.241092    1.468953
     19          1           0       -0.370801    2.410145    0.293133
 ---------------------------------------------------------------------

 SCF Done:  E(RHF) =  -310.442652381     A.U. after    2 cycles

 The electronic state is 1-A.
 Alpha  occ. eigenvalues --  -21.07070 -11.46095 -11.41411 -11.40527 -11.39573
 Alpha  occ. eigenvalues --  -11.37029 -11.34914  -1.78815  -1.29501  -1.06357
 Alpha  occ. eigenvalues --   -1.01291  -0.91347  -0.88909  -0.75381  -0.66490
 Alpha  occ. eigenvalues --   -0.64502  -0.63154  -0.60608  -0.56763  -0.53973
 Alpha  occ. eigenvalues --   -0.52431  -0.51828  -0.48373  -0.43321  -0.42885
 Alpha  occ. eigenvalues --   -0.41099  -0.36128  -0.22992
 Alpha virt. eigenvalues --    0.04125   0.04948   0.05168   0.05507   0.05556
 Alpha virt. eigenvalues --    0.05985   0.06199   0.06733   0.06880   0.08293
 Alpha virt. eigenvalues --    0.09078   0.09963   0.10872   0.12359   0.13497

 Mulliken charges:
               1
     1  C   -3.184767
     2  O   -3.285836
     3  C    1.538535
     4  C   -3.291571
     5  C   -2.949690
     6  C   -2.238092
     7  C   -3.739868
     8  H    1.334113
     9  H    1.350936
    10  H    1.350612
    11  H    2.111093
    12  H    1.117994
    13  H    1.493812
    14  H    1.531840
    15  H    1.167207
    16  H    1.854334
    17  H    1.167607
    18  H    1.373481
    19  H    1.298260
 Sum of Mulliken charges =  -0.00000

 Dipole moment (field-independent basis, Debye):
    X=              0.2054    Y=              0.0587    Z=              0.7673  Tot=              0.7965

 Test job not archived.
 1\1\GINC-SE114\SP\RHF\Aug-CC-pVDZ\C6H12O1\OHZDE\09-Apr-2025\0\\#t hf a
 ug-cc-pvdz iop(5/13=1,5/36=2,99/5=2) pseudo=read geom=check guess=(rea
 d,tcheck) scf=(maxcycle=1)\\title\\0,1\C,0,2.61694194,-0.79961622,0.10
 929687\O,0,1.21360654,-0.91885965,-0.04471933\C,0,0.49341084,-0.050700
 02,0.6714456\C,0,-0.18607465,1.59603922,-0.45647299\C,0,-1.41060717,1.
 18284499,0.33600621\C,0,-1.01081029,-0.27436135,0.5904109\C,0,-1.47478
 52,-1.20190596,-0.53089076\H,0,2.88215528,-0.76225398,1.16732832\H,0,2
 .97503755,0.10782698,-0.38694335\H,0,3.06623049,-1.67081761,-0.3648877

 Normal termination of Gaussian 16 at Wed Apr  9 19:12:30 2025.
