 Gaussian 16, Revision C.01,

 ----------------------------------------------------------------------
 #t hf aug-cc-pvdz symm=none int=(grid=ultrafine) guess=(read,tcheck) s
 table=(opt,rrhf)
 ----------------------------------------------------------------------
 -----
 title
 -----
 Symbolic Z-matrix:
 Charge =  0 Multiplicity = 1

 SCF Done:  E(RHF) =  -305.848073741     A.U. after   13 cycles
 Normal termination of Gaussian 16 at Wed Apr  9 03:05:53 2025.
 Gaussian 16:  ES64L-G16RevC.01  3-Jul-2019

 ----------------------------------------------------------------------
 #t hf aug-cc-pvdz iop(5/13=1,5/36=2,99/5=2) pseudo=read geom=check gue
 ss=(read,tcheck) scf=(maxcycle=1)
 ----------------------------------------------------------------------
 -----
 title
 -----
 Structure from the checkpoint file:  "Grambow2020_b97d3_006510_forward_mol2.chk"
 Charge =  0 Multiplicity = 1

                         Standard orientation:
 ---------------------------------------------------------------------
 Center     Atomic      Atomic             Coordinates (Angstroms)
 Number     Number       Type             X           Y           Z
 ---------------------------------------------------------------------
      1          8           0        1.699499   -0.567855   -0.690746
      2          6           0        1.462842    0.383916    0.335807
      3          6           0       -0.029272    0.565079    0.578445
      4          6           0       -0.928704    0.858629   -0.641702
      5          6           0       -1.647165   -0.446926   -0.257060
      6          8           0       -0.657719   -0.747960    0.771425
      7          1           0        1.116177   -1.317832   -0.450749
      8          1           0        1.945685    0.087269    1.287291
      9          1           0        1.906609    1.336209    0.011461
     10          1           0       -0.209456    1.222982    1.445152
     11          1           0       -1.522313    1.778636   -0.600164
     12          1           0       -0.381215    0.799199   -1.588583
     13          1           0       -1.688037   -1.234175   -1.024260
     14          1           0       -2.647895   -0.309956    0.181478
 ---------------------------------------------------------------------

 SCF Done:  E(RHF) =  -307.236996607     A.U. after    2 cycles

 The electronic state is 1-A.
 Alpha  occ. eigenvalues --  -21.06043 -21.04000 -11.47116 -11.44542 -11.41950
 Alpha  occ. eigenvalues --  -11.37668  -1.77050  -1.68865  -1.13488  -1.05694
 Alpha  occ. eigenvalues --   -0.91291  -0.78269  -0.69382  -0.66663  -0.63254
 Alpha  occ. eigenvalues --   -0.59098  -0.54744  -0.52109  -0.49295  -0.42368
 Alpha  occ. eigenvalues --   -0.40446  -0.35951  -0.31674  -0.30049
 Alpha virt. eigenvalues --    0.03970   0.05203   0.05247   0.05738   0.05774
 Alpha virt. eigenvalues --    0.06154   0.06793   0.07700   0.10999   0.12481
 Alpha virt. eigenvalues --    0.12765   0.13393   0.14040   0.14541   0.15113

 Mulliken charges:
               1
     1  O   -2.575017
     2  C   -0.984089
     3  C    0.416325
     4  C   -3.137732
     5  C   -1.573538
     6  O   -2.592333
     7  H    0.872602
     8  H    1.258669
     9  H    1.421622
    10  H    1.490999
    11  H    1.171803
    12  H    1.378756
    13  H    1.424940
    14  H    1.426993
 Sum of Mulliken charges =  -0.00000

 Dipole moment (field-independent basis, Debye):
    X=             -0.7642    Y=              0.6246    Z=              0.0067  Tot=              0.9870

 Test job not archived.
 1\1\GINC-SE109\SP\RHF\Aug-CC-pVDZ\C4H8O2\OHZDE\09-Apr-2025\0\\#t hf au
 g-cc-pvdz iop(5/13=1,5/36=2,99/5=2) pseudo=read geom=check guess=(read
 ,tcheck) scf=(maxcycle=1)\\title\\0,1\O,0,-1.88213506,0.58702278,-0.60
 085004\C,0,-1.51430137,-0.61384209,0.06119826\C,0,-0.03820923,-0.60115
 161,0.43414422\C,0,0.98350529,-0.26590849,-0.67383534\C,0,1.37412571,0
 .91661161,0.23041676\O,0,0.27602361,0.64173405,1.15021019\H,0,-1.49288
 072,1.28987473,-0.03977321\H,0,-2.11290423,-0.77429967,0.97901408\H,0,
 -1.71808792,-1.44615476,-0.62779978\H,0,0.22164253,-1.48532454,1.04011

 Normal termination of Gaussian 16 at Wed Apr  9 03:05:57 2025.
