 Gaussian 16, Revision C.01,

 ----------------------------------------------------------------------
 #t hf aug-cc-pvdz symm=none int=(grid=ultrafine) guess=(read,tcheck) s
 table=(opt,rrhf)
 ----------------------------------------------------------------------
 -----
 title
 -----
 Symbolic Z-matrix:
 Charge =  0 Multiplicity = 1

 SCF Done:  E(RHF) =  -308.839919782     A.U. after   15 cycles

 1\1\GINC-SE219\Stability\RHF\Aug-CC-pVDZ\C6H12O1\OHZDE\09-Apr-2025\0\\
 #t hf aug-cc-pvdz symm=none int=(grid=ultrafine) guess=(read,tcheck) s
 table=(opt,rrhf)\\title\\0,1\C,0,-2.07230092,-1.10851213,-0.25298602\C
 ,0,-1.13252916,0.05402789,-0.33250805\C,0,-1.44763432,1.28501705,0.313
 85948\C,0,0.51035684,-0.88446734,0.61408843\O,0,1.37092712,-1.31627591
 ,-0.42816919\C,0,1.88854593,-0.39267259,0.51856113\C,0,2.23593075,0.97
 880036,0.01206011\H,0,-2.90216224,-0.89510415,-0.93262191\H,0,-1.60078
 096,-2.04238319,-0.55515493\H,0,-2.48582059,-1.21579808,0.75006524\H,0

 Normal termination of Gaussian 16 at Wed Apr  9 18:50:05 2025.
 Gaussian 16:  ES64L-G16RevC.01  3-Jul-2019

 ----------------------------------------------------------------------
 #t hf aug-cc-pvdz iop(5/13=1,5/36=2,99/5=2) pseudo=read geom=check gue
 ss=(read,tcheck) scf=(maxcycle=1)
 ----------------------------------------------------------------------
 -----
 title
 -----
 Structure from the checkpoint file:  "Grambow2020_wb97xd3_007695_forward_mol1.chk"
 Charge =  0 Multiplicity = 1

                         Standard orientation:
 ---------------------------------------------------------------------
 Center     Atomic      Atomic             Coordinates (Angstroms)
 Number     Number       Type             X           Y           Z
 ---------------------------------------------------------------------
      1          6           0       -2.306049   -0.823039   -0.130668
      2          6           0       -1.309083    0.272234   -0.348450
      3          6           0       -1.519071    1.564748    0.215225
      4          6           0        0.329168   -0.688927    0.583321
      5          8           0        1.105324   -1.248064   -0.464672
      6          6           0        1.725098   -0.288634    0.379511
      7          6           0        2.119414    1.017924   -0.249438
      8          1           0       -3.159206   -0.612075   -0.781618
      9          1           0       -1.904555   -1.803340   -0.382790
     10          1           0       -2.668618   -0.830087    0.897493
     11          1           0       -0.750593    0.211152   -1.278057
     12          1           0       -2.282516    1.695818    0.968352
     13          1           0       -1.046369    2.429583   -0.224335
     14          1           0       -0.504790    0.618788    0.616592
     15          1           0        0.086397   -1.385238    1.391209
     16          1           0        2.474206   -0.722028    1.041830
     17          1           0        1.341768    1.386614   -0.918471
     18          1           0        3.036228    0.897519   -0.829211
     19          1           0        2.298594    1.771968    0.519370
 ---------------------------------------------------------------------

 SCF Done:  E(RHF) =  -310.370512367     A.U. after    2 cycles

 The electronic state is 1-A.
 Alpha  occ. eigenvalues --  -21.05116 -11.51147 -11.48871 -11.40584 -11.39669
 Alpha  occ. eigenvalues --  -11.37439 -11.35832  -1.77495  -1.26590  -1.10908
 Alpha  occ. eigenvalues --   -1.02274  -0.92493  -0.84290  -0.80062  -0.68383
 Alpha  occ. eigenvalues --   -0.67012  -0.63061  -0.58722  -0.57228  -0.54876
 Alpha  occ. eigenvalues --   -0.53664  -0.53265  -0.50031  -0.47768  -0.43217
 Alpha  occ. eigenvalues --   -0.35412  -0.32750  -0.21831
 Alpha virt. eigenvalues --    0.03902   0.04986   0.05207   0.05306   0.05726
 Alpha virt. eigenvalues --    0.05848   0.06445   0.06657   0.07371   0.07926
 Alpha virt. eigenvalues --    0.08918   0.09720   0.11772   0.12406   0.13071

 Mulliken charges:
               1
     1  C   -4.382909
     2  C   -2.582600
     3  C   -3.471464
     4  C   -0.788975
     5  O   -2.733391
     6  C    0.006459
     7  C   -4.375600
     8  H    1.134174
     9  H    1.296087
    10  H    1.291818
    11  H    1.632463
    12  H    1.309474
    13  H    1.235673
    14  H    3.766837
    15  H    1.443545
    16  H    1.481633
    17  H    1.320977
    18  H    1.153263
    19  H    1.262538
 Sum of Mulliken charges =   0.00000

 Dipole moment (field-independent basis, Debye):
    X=             -0.4940    Y=             -0.6423    Z=             -0.5612  Tot=              0.9856

 Test job not archived.
 1\1\GINC-SE219\SP\RHF\Aug-CC-pVDZ\C6H12O1\OHZDE\09-Apr-2025\0\\#t hf a
 ug-cc-pvdz iop(5/13=1,5/36=2,99/5=2) pseudo=read geom=check guess=(rea
 d,tcheck) scf=(maxcycle=1)\\title\\0,1\C,0,-2.07230092,-1.10851213,-0.
 25298602\C,0,-1.13252916,0.05402789,-0.33250805\C,0,-1.44763432,1.2850
 1705,0.31385948\C,0,0.51035684,-0.88446734,0.61408843\O,0,1.37092712,-
 1.31627591,-0.42816919\C,0,1.88854593,-0.39267259,0.51856113\C,0,2.235
 93075,0.97880036,0.01206011\H,0,-2.90216224,-0.89510415,-0.93262191\H,
 0,-1.60078096,-2.04238319,-0.55515493\H,0,-2.48582059,-1.21579808,0.75

 Normal termination of Gaussian 16 at Wed Apr  9 18:50:12 2025.
