 Gaussian 16, Revision C.01,

 ----------------------------------------------------------------------
 #t hf aug-cc-pvdz symm=none int=(grid=ultrafine) guess=(read,tcheck) s
 table=(opt,rrhf)
 ----------------------------------------------------------------------
 -----
 title
 -----
 Symbolic Z-matrix:
 Charge =  0 Multiplicity = 1

 SCF Done:  E(RHF) =  -343.623069795     A.U. after   15 cycles
 Normal termination of Gaussian 16 at Wed Apr  9 19:31:15 2025.
 Gaussian 16:  ES64L-G16RevC.01  3-Jul-2019

 ----------------------------------------------------------------------
 #t hf aug-cc-pvdz iop(5/13=1,5/36=2,99/5=2) pseudo=read geom=check gue
 ss=(read,tcheck) scf=(maxcycle=1)
 ----------------------------------------------------------------------
 -----
 title
 -----
 Structure from the checkpoint file:  "Grambow2020_wb97xd3_009099_reverse_mol2.chk"
 Charge =  0 Multiplicity = 1

                         Standard orientation:
 ---------------------------------------------------------------------
 Center     Atomic      Atomic             Coordinates (Angstroms)
 Number     Number       Type             X           Y           Z
 ---------------------------------------------------------------------
      1          6           0        1.640750    1.209492    0.563795
      2          6           0        1.762489    0.311296   -0.404136
      3          8           0        1.078377   -0.840260   -0.595903
      4          6           0        0.175160   -1.291480    0.391901
      5          6           0       -1.256587   -0.919711    0.090832
      6          8           0       -1.485365    0.479713    0.338888
      7          6           0       -1.940038    1.181773   -0.646140
      8          1           0        0.902787    1.155745    1.351131
      9          1           0        2.301908    2.063823    0.552725
     10          1           0        2.492540    0.428546   -1.196672
     11          1           0        0.474490   -0.945658    1.384960
     12          1           0        0.241141   -2.381778    0.379995
     13          1           0       -1.513704   -1.118155   -0.950673
     14          1           0       -1.923610   -1.467266    0.759833
     15          1           0       -2.010295    2.200904   -0.202692
 ---------------------------------------------------------------------

 SCF Done:  E(RHF) =  -345.173636828     A.U. after    2 cycles

 The electronic state is 1-A.
 Alpha  occ. eigenvalues --  -21.12103 -21.07971 -11.48548 -11.44966 -11.41560
 Alpha  occ. eigenvalues --  -11.41142 -11.36935  -1.83380  -1.78766  -1.15081
 Alpha  occ. eigenvalues --   -1.09274  -0.93851  -0.82181  -0.78807  -0.69759
 Alpha  occ. eigenvalues --   -0.67112  -0.64515  -0.59675  -0.58815  -0.53147
 Alpha  occ. eigenvalues --   -0.50080  -0.49139  -0.46023  -0.43618  -0.39949
 Alpha  occ. eigenvalues --   -0.31886  -0.27793
 Alpha virt. eigenvalues --    0.03556   0.05118   0.05266   0.05590   0.05930
 Alpha virt. eigenvalues --    0.06184   0.06561   0.08191   0.09752   0.11519
 Alpha virt. eigenvalues --    0.11857   0.12188   0.12976   0.13743   0.14495

 Mulliken charges:
               1
     1  C   -3.054714
     2  C    0.503651
     3  O   -3.724312
     4  C   -1.040599
     5  C   -1.580742
     6  O   -2.069367
     7  C   -1.224986
     8  H    1.692593
     9  H    1.239013
    10  H    1.628884
    11  H    1.756574
    12  H    1.275684
    13  H    1.829692
    14  H    1.217354
    15  H    1.551276
 Sum of Mulliken charges =   0.00000

 Dipole moment (field-independent basis, Debye):
    X=              0.5514    Y=             -1.6079    Z=              1.9397  Tot=              2.5791

 Test job not archived.
 1\1\GINC-SE056\SP\RHF\Aug-CC-pVDZ\C5H8O2\OHZDE\09-Apr-2025\0\\#t hf au
 g-cc-pvdz iop(5/13=1,5/36=2,99/5=2) pseudo=read geom=check guess=(read
 ,tcheck) scf=(maxcycle=1)\\title\\0,1\C,0,-1.85698991,0.63501078,0.584
 10717\C,0,-1.51444454,0.71234343,-0.69462229\O,0,-0.28234783,0.7863995
 4,-1.24898579\C,0,0.85144769,0.93389302,-0.41958252\C,0,1.54927911,-0.
 37564763,-0.14229455\O,0,0.80220123,-1.16409983,0.80241443\C,0,0.45486
 52,-2.35126277,0.42838288\H,0,-1.14949486,0.57388668,1.39841016\H,0,-2
 .90869151,0.60426746,0.82928719\H,0,-2.26072865,0.73094963,-1.48046479

 Normal termination of Gaussian 16 at Wed Apr  9 19:31:19 2025.
