 Gaussian 16, Revision C.01,

 ----------------------------------------------------------------------
 #t hf aug-cc-pvdz symm=none int=(grid=ultrafine) guess=(read,tcheck) s
 table=(opt,rrhf)
 ----------------------------------------------------------------------
 -----
 title
 -----
 Symbolic Z-matrix:
 Charge =  0 Multiplicity = 1

 SCF Done:  E(RHF) =  -272.041579690     A.U. after   13 cycles
 Normal termination of Gaussian 16 at Wed Apr  9 03:39:50 2025.
 Gaussian 16:  ES64L-G16RevC.01  3-Jul-2019

 ----------------------------------------------------------------------
 #t hf aug-cc-pvdz iop(5/13=1,5/36=2,99/5=2) pseudo=read geom=check gue
 ss=(read,tcheck) scf=(maxcycle=1)
 ----------------------------------------------------------------------
 -----
 title
 -----
 Structure from the checkpoint file:  "Grambow2020_wb97xd3_007415_reverse_mol2.chk"
 Charge =  0 Multiplicity = 1

                         Standard orientation:
 ---------------------------------------------------------------------
 Center     Atomic      Atomic             Coordinates (Angstroms)
 Number     Number       Type             X           Y           Z
 ---------------------------------------------------------------------
      1          6           0       -1.685752    1.497313   -0.137862
      2          6           0       -1.841660    0.040719    0.209826
      3          6           0       -1.351789   -1.018679   -0.732519
      4          6           0        1.630618   -0.219766   -0.281796
      5          6           0        2.998587    0.368600   -0.141781
      6          6           0        0.716701   -0.247522    0.678560
      7          6           0       -0.650383   -0.814584    0.577747
      8          1           0       -0.735667    1.681647   -0.641816
      9          1           0       -2.487914    1.825183   -0.802716
     10          1           0       -1.714529    2.122944    0.757297
     11          1           0       -2.752685   -0.195391    0.749394
     12          1           0       -1.938638   -1.918247   -0.863983
     13          1           0       -0.852291   -0.679181   -1.631816
     14          1           0        1.388585   -0.655927   -1.248481
     15          1           0        3.159009    0.767408    0.861093
     16          1           0        3.154551    1.179505   -0.858505
     17          1           0        3.770350   -0.380217   -0.338630
     18          1           0        0.972562    0.177729    1.648444
     19          1           0       -0.861259   -1.561940    1.336667
 ---------------------------------------------------------------------

 SCF Done:  E(RHF) =  -273.430458893     A.U. after    2 cycles

 The electronic state is 1-A.
 Alpha  occ. eigenvalues --  -11.43998 -11.42791 -11.40628 -11.38732 -11.37258
 Alpha  occ. eigenvalues --  -11.36573 -11.34873  -1.33899  -1.18047  -1.04408
 Alpha  occ. eigenvalues --   -0.99456  -0.86203  -0.80769  -0.74666  -0.68120
 Alpha  occ. eigenvalues --   -0.62066  -0.57149  -0.56283  -0.55782  -0.54369
 Alpha  occ. eigenvalues --   -0.52705  -0.48156  -0.47676  -0.44559  -0.39085
 Alpha  occ. eigenvalues --   -0.37614  -0.31166
 Alpha virt. eigenvalues --    0.03930   0.05152   0.05304   0.05652   0.05825
 Alpha virt. eigenvalues --    0.05889   0.06178   0.06571   0.06697   0.08321
 Alpha virt. eigenvalues --    0.08605   0.09036   0.11841   0.12437   0.13348

 Mulliken charges:
               1
     1  C   -4.623422
     2  C   -0.752164
     3  C   -2.834060
     4  C   -0.377727
     5  C   -4.936938
     6  C   -1.088006
     7  C   -0.907900
     8  H    1.490818
     9  H    1.123773
    10  H    1.261659
    11  H    1.342485
    12  H    1.140063
    13  H    1.619643
    14  H    1.454288
    15  H    1.273223
    16  H    1.172351
    17  H    1.116853
    18  H    1.448040
    19  H    1.077020
 Sum of Mulliken charges =   0.00000

 Dipole moment (field-independent basis, Debye):
    X=             -0.0471    Y=             -0.0086    Z=             -0.0183  Tot=              0.0512

 Test job not archived.
 1\1\GINC-SE115\SP\RHF\Aug-CC-pVDZ\C7H12\OHZDE\09-Apr-2025\0\\#t hf aug
 -cc-pvdz iop(5/13=1,5/36=2,99/5=2) pseudo=read geom=check guess=(read,
 tcheck) scf=(maxcycle=1)\\title\\0,1\C,0,-2.03599061,-0.85766022,0.112
 72622\C,0,-1.78549604,0.61911393,-0.03975817\C,0,-0.94308953,1.3510710
 8,0.96268925\C,0,1.63801582,-0.17298277,0.09590316\C,0,2.76206249,-1.0
 924126,-0.26226968\C,0,0.70611357,0.24788278,-0.74832895\C,0,-0.426064
 18,1.15254736,-0.4314765\H,0,-1.14746639,-1.37081064,0.48395848\H,0,-2
 .84965606,-1.04209044,0.81765682\H,0,-2.30890065,-1.3132392,-0.8420084

 Normal termination of Gaussian 16 at Wed Apr  9 03:39:58 2025.
