 Gaussian 16, Revision C.01,

 ----------------------------------------------------------------------
 #t hf aug-cc-pvdz symm=none int=(grid=ultrafine) guess=(read,tcheck) s
 table=(opt,rrhf)
 ----------------------------------------------------------------------
 -----
 title
 -----
 Symbolic Z-matrix:
 Charge =  0 Multiplicity = 1

 SCF Done:  E(RHF) =  -289.056458574     A.U. after   15 cycles

 1\1\GINC-SE362\Stability\RHF\Aug-CC-pVDZ\C6H13N1\OHZDE\09-Apr-2025\0\\
 #t hf aug-cc-pvdz symm=none int=(grid=ultrafine) guess=(read,tcheck) s
 table=(opt,rrhf)\\title\\0,1\C,0,-1.12104922,1.94977542,0.59623198\C,0
 ,-0.76351564,0.49798986,0.8632037\N,0,-1.50535315,-0.48526804,0.197261
 81\C,0,-0.511871,-1.72727454,-0.71369448\C,0,0.23724643,-0.20324656,0.
 00527731\C,0,1.3188992,-0.87596839,0.82750857\C,0,0.73354778,0.5537706
 2,-1.20307274\H,0,-2.0264981,2.19857878,1.15323527\H,0,-0.32989556,2.6
 2692661,0.9307186\H,0,-1.32463446,2.12447528,-0.45941318\H,0,-0.576960

 Normal termination of Gaussian 16 at Wed Apr  9 19:31:35 2025.
 Gaussian 16:  ES64L-G16RevC.01  3-Jul-2019

 ----------------------------------------------------------------------
 #t hf aug-cc-pvdz iop(5/13=1,5/36=2,99/5=2) pseudo=read geom=check gue
 ss=(read,tcheck) scf=(maxcycle=1)
 ----------------------------------------------------------------------
 -----
 title
 -----
 Structure from the checkpoint file:  "Grambow2020_wb97xd3_009132_reverse_mol1.chk"
 Charge =  0 Multiplicity = 1

                         Standard orientation:
 ---------------------------------------------------------------------
 Center     Atomic      Atomic             Coordinates (Angstroms)
 Number     Number       Type             X           Y           Z
 ---------------------------------------------------------------------
      1          6           0        2.264753   -0.076970   -0.001071
      2          6           0        0.920008    0.314449    0.586496
      3          7           0        0.247167    1.394639    0.002482
      4          6           0       -1.487588    1.060108   -0.485516
      5          6           0       -0.340177   -0.280406    0.050420
      6          6           0       -1.206443   -0.862963    1.149876
      7          6           0       -0.204146   -1.145569   -1.179413
      8          1           0        3.020338    0.631863    0.343373
      9          1           0        2.572135   -1.074098    0.326942
     10          1           0        2.251579   -0.042114   -1.089632
     11          1           0        0.961088    0.287246    1.688663
     12          1           0       -2.134685    0.268080   -0.885905
     13          1           0       -1.995826    1.530322    0.347453
     14          1           0       -1.327723    1.757047   -1.297668
     15          1           0       -0.722083   -1.763270    1.535640
     16          1           0       -1.319105   -0.159767    1.974759
     17          1           0       -2.198071   -1.135570    0.780552
     18          1           0        0.257154   -0.596712   -1.998468
     19          1           0       -1.184155   -1.497028   -1.511035
     20          1           0        0.410748   -2.020370   -0.956808
 ---------------------------------------------------------------------

 SCF Done:  E(RHF) =  -290.540843053     A.U. after    2 cycles

 The electronic state is 1-A.
 Alpha  occ. eigenvalues --  -15.69394 -11.50193 -11.43374 -11.41068 -11.40447
 Alpha  occ. eigenvalues --  -11.38758 -11.36124  -1.43355  -1.14807  -1.08352
 Alpha  occ. eigenvalues --   -1.03020  -0.99006  -0.82657  -0.76503  -0.65857
 Alpha  occ. eigenvalues --   -0.64103  -0.62019  -0.59110  -0.56038  -0.54315
 Alpha  occ. eigenvalues --   -0.53161  -0.52191  -0.51002  -0.47808  -0.44740
 Alpha  occ. eigenvalues --   -0.43177  -0.33231  -0.28104
 Alpha virt. eigenvalues --    0.03981   0.05082   0.05368   0.05584   0.05615
 Alpha virt. eigenvalues --    0.05794   0.05861   0.06582   0.06975   0.08560
 Alpha virt. eigenvalues --    0.08811   0.08909   0.09247   0.11841   0.12746

 Mulliken charges:
               1
     1  C   -3.421486
     2  C   -0.854725
     3  N   -1.848384
     4  C   -3.487767
     5  C    2.908284
     6  C   -4.446973
     7  C   -4.657958
     8  H    1.061700
     9  H    1.266129
    10  H    1.275225
    11  H    1.494629
    12  H    1.220037
    13  H    1.117785
    14  H    1.072987
    15  H    1.163003
    16  H    1.240342
    17  H    1.111525
    18  H    1.383365
    19  H    1.129675
    20  H    1.272608
 Sum of Mulliken charges =   0.00000

 Dipole moment (field-independent basis, Debye):
    X=             -0.8971    Y=             -1.7097    Z=              0.0767  Tot=              1.9323

 Test job not archived.
 1\1\GINC-SE362\SP\RHF\Aug-CC-pVDZ\C6H13N1\OHZDE\09-Apr-2025\0\\#t hf a
 ug-cc-pvdz iop(5/13=1,5/36=2,99/5=2) pseudo=read geom=check guess=(rea
 d,tcheck) scf=(maxcycle=1)\\title\\0,1\C,0,-1.12104922,1.94977542,0.59
 623198\C,0,-0.76351564,0.49798986,0.8632037\N,0,-1.50535315,-0.4852680
 4,0.19726181\C,0,-0.511871,-1.72727454,-0.71369448\C,0,0.23724643,-0.2
 0324656,0.00527731\C,0,1.3188992,-0.87596839,0.82750857\C,0,0.73354778
 ,0.55377062,-1.20307274\H,0,-2.0264981,2.19857878,1.15323527\H,0,-0.32
 989556,2.62692661,0.9307186\H,0,-1.32463446,2.12447528,-0.45941318\H,0

 Normal termination of Gaussian 16 at Wed Apr  9 19:31:42 2025.
