 Gaussian 16, Revision C.01,

 ----------------------------------------------------------------------
 #t hf aug-cc-pvdz symm=none int=(grid=ultrafine) guess=(read,tcheck) s
 table=(opt,rrhf)
 ----------------------------------------------------------------------
 -----
 title
 -----
 Symbolic Z-matrix:
 Charge =  0 Multiplicity = 1

 SCF Done:  E(RHF) =  -307.906013128     A.U. after   14 cycles

 1\1\GINC-SE045\Stability\RHF\Aug-CC-pVDZ\C6H10O1\OHZDE\09-Apr-2025\0\\
 #t hf aug-cc-pvdz symm=none int=(grid=ultrafine) guess=(read,tcheck) s
 table=(opt,rrhf)\\title\\0,1\C,0,1.68603925,-0.7891864,0.33873488\C,0,
 0.75033818,0.42025493,0.32243146\C,0,0.12065978,0.6594874,-1.054493\C,
 0,-1.63109507,0.16556699,0.99870402\O,0,-2.10122374,0.0477874,-0.26501
 591\C,0,-1.10217059,-0.22115633,-1.23984175\C,0,-0.35323104,0.30262008
 ,1.33778325\H,0,2.07727877,-0.96767695,1.34232079\H,0,2.53424681,-0.63
 507616,-0.33303117\H,0,1.16296914,-1.69618043,0.02688788\H,0,1.3482404

 Normal termination of Gaussian 16 at Wed Apr  9 19:16:12 2025.
 Gaussian 16:  ES64L-G16RevC.01  3-Jul-2019

 ----------------------------------------------------------------------
 #t hf aug-cc-pvdz iop(5/13=1,5/36=2,99/5=2) pseudo=read geom=check gue
 ss=(read,tcheck) scf=(maxcycle=1)
 ----------------------------------------------------------------------
 -----
 title
 -----
 Structure from the checkpoint file:  "Grambow2020_wb97xd3_008493_reverse_mol2.chk"
 Charge =  0 Multiplicity = 1

                         Standard orientation:
 ---------------------------------------------------------------------
 Center     Atomic      Atomic             Coordinates (Angstroms)
 Number     Number       Type             X           Y           Z
 ---------------------------------------------------------------------
      1          6           0       -2.110586    0.020119   -0.607963
      2          6           0       -1.049970    0.155471    0.485347
      3          6           0       -0.214598   -1.118276    0.656728
      4          6           0        1.171838    1.142757   -0.045940
      5          8           0        1.794083   -0.047771   -0.211279
      6          6           0        0.913859   -1.154245   -0.358403
      7          6           0       -0.116441    1.308337    0.236220
      8          1           0       -2.653298    0.957590   -0.744794
      9          1           0       -2.835726   -0.757062   -0.353726
     10          1           0       -1.656387   -0.236488   -1.567830
     11          1           0       -1.573227    0.346955    1.428383
     12          1           0        0.218942   -1.147555    1.659788
     13          1           0       -0.834519   -2.011145    0.541641
     14          1           0        1.862927    1.968465   -0.164999
     15          1           0        1.532329   -2.044275   -0.246209
     16          1           0        0.513064   -1.140207   -1.379572
     17          1           0       -0.491381    2.320905    0.321611
 ---------------------------------------------------------------------

 SCF Done:  E(RHF) =  -309.382538073     A.U. after    2 cycles

 The electronic state is 1-A.
 Alpha  occ. eigenvalues --  -21.06221 -11.45512 -11.44564 -11.42011 -11.38719
 Alpha  occ. eigenvalues --  -11.38293 -11.35101  -1.78544  -1.26560  -1.11793
 Alpha  occ. eigenvalues --   -1.03406  -0.90508  -0.87219  -0.72568  -0.70708
 Alpha  occ. eigenvalues --   -0.63152  -0.60062  -0.57935  -0.56629  -0.54336
 Alpha  occ. eigenvalues --   -0.52564  -0.48197  -0.46983  -0.42490  -0.40831
 Alpha  occ. eigenvalues --   -0.36569  -0.26012
 Alpha virt. eigenvalues --    0.03765   0.04905   0.05214   0.05450   0.05822
 Alpha virt. eigenvalues --    0.06329   0.06483   0.06840   0.08165   0.09415
 Alpha virt. eigenvalues --    0.11176   0.11977   0.13155   0.13498   0.14099

 Mulliken charges:
               1
     1  C   -3.810404
     2  C   -1.548051
     3  C   -3.233170
     4  C    1.094647
     5  O   -3.673966
     6  C   -1.813774
     7  C   -1.072591
     8  H    1.205200
     9  H    1.254094
    10  H    1.384930
    11  H    1.529000
    12  H    1.279183
    13  H    1.447423
    14  H    1.621857
    15  H    1.267085
    16  H    1.661028
    17  H    1.407510
 Sum of Mulliken charges =  -0.00000

 Dipole moment (field-independent basis, Debye):
    X=             -0.1216    Y=             -0.6201    Z=              0.1417  Tot=              0.6477

 Test job not archived.
 1\1\GINC-SE045\SP\RHF\Aug-CC-pVDZ\C6H10O1\OHZDE\09-Apr-2025\0\\#t hf a
 ug-cc-pvdz iop(5/13=1,5/36=2,99/5=2) pseudo=read geom=check guess=(rea
 d,tcheck) scf=(maxcycle=1)\\title\\0,1\C,0,1.68603925,-0.7891864,0.338
 73488\C,0,0.75033818,0.42025493,0.32243146\C,0,0.12065978,0.6594874,-1
 .054493\C,0,-1.63109507,0.16556699,0.99870402\O,0,-2.10122374,0.047787
 4,-0.26501591\C,0,-1.10217059,-0.22115633,-1.23984175\C,0,-0.35323104,
 0.30262008,1.33778325\H,0,2.07727877,-0.96767695,1.34232079\H,0,2.5342
 4681,-0.63507616,-0.33303117\H,0,1.16296914,-1.69618043,0.02688788\H,0

 Normal termination of Gaussian 16 at Wed Apr  9 19:16:18 2025.
