 Gaussian 16, Revision C.01,

 ----------------------------------------------------------------------
 #t hf aug-cc-pvdz symm=none int=(grid=ultrafine) guess=(read,tcheck) s
 table=(opt,rrhf)
 ----------------------------------------------------------------------
 -----
 title
 -----
 Symbolic Z-matrix:
 Charge =  0 Multiplicity = 1

 SCF Done:  E(RHF) =  -289.111921268     A.U. after   16 cycles

 1\1\GINC-SE054\Stability\RHF\Aug-CC-pVDZ\C6H13N1\OHZDE\09-Apr-2025\0\\
 #t hf aug-cc-pvdz symm=none int=(grid=ultrafine) guess=(read,tcheck) s
 table=(opt,rrhf)\\title\\0,1\C,0,-1.86216732,1.67325456,0.37301346\C,0
 ,-0.74715672,0.77072842,0.78983024\N,0,-0.42997013,-0.3531895,0.079510
 66\C,0,-1.19495597,-1.57623753,-0.03499653\C,0,0.89098156,-0.17265398,
 -0.12273873\C,0,1.86483887,-1.23314467,0.30345008\C,0,1.40147835,0.903
 45018,-1.03531467\H,0,-2.65151133,1.10819188,-0.13405405\H,0,-2.305615
 4,2.18022794,1.23253658\H,0,-1.54014611,2.45312221,-0.33005363\H,0,-0.

 Normal termination of Gaussian 16 at Wed Apr  9 19:32:49 2025.
 Gaussian 16:  ES64L-G16RevC.01  3-Jul-2019

 ----------------------------------------------------------------------
 #t hf aug-cc-pvdz iop(5/13=1,5/36=2,99/5=2) pseudo=read geom=check gue
 ss=(read,tcheck) scf=(maxcycle=1)
 ----------------------------------------------------------------------
 -----
 title
 -----
 Structure from the checkpoint file:  "Grambow2020_wb97xd3_009135_forward_mol1.chk"
 Charge =  0 Multiplicity = 1

                         Standard orientation:
 ---------------------------------------------------------------------
 Center     Atomic      Atomic             Coordinates (Angstroms)
 Number     Number       Type             X           Y           Z
 ---------------------------------------------------------------------
      1          6           0        2.449069   -0.579452    0.108025
      2          6           0        1.113538   -0.196962    0.657203
      3          7           0        0.203041    0.497756   -0.088931
      4          6           0        0.272336    1.879624   -0.512960
      5          6           0       -0.888638   -0.284441    0.032791
      6          6           0       -2.174917    0.300204    0.541075
      7          6           0       -0.955268   -1.638090   -0.611099
      8          1           0        2.794001    0.157375   -0.625178
      9          1           0        3.198941   -0.648845    0.898800
     10          1           0        2.436391   -1.547936   -0.409733
     11          1           0        0.851720   -0.427116    1.680846
     12          1           0       -0.201490    2.012095   -1.487876
     13          1           0       -0.209460    2.546259    0.210152
     14          1           0        1.322660    2.163738   -0.584188
     15          1           0       -2.794585   -0.468365    1.007478
     16          1           0       -1.997970    1.086186    1.278639
     17          1           0       -2.771162    0.735924   -0.271557
     18          1           0       -0.002269   -1.899142   -1.068888
     19          1           0       -1.727793   -1.650567   -1.394240
     20          1           0       -1.216995   -2.429198    0.098050
 ---------------------------------------------------------------------

 SCF Done:  E(RHF) =  -290.599179740     A.U. after    2 cycles

 The electronic state is 1-A.
 Alpha  occ. eigenvalues --  -15.74655 -11.43108 -11.39754 -11.39027 -11.37911
 Alpha  occ. eigenvalues --  -11.36104 -11.34736  -1.47681  -1.15503  -1.09951
 Alpha  occ. eigenvalues --   -1.01649  -0.99593  -0.83601  -0.73900  -0.65108
 Alpha  occ. eigenvalues --   -0.62901  -0.61391  -0.57546  -0.55838  -0.55580
 Alpha  occ. eigenvalues --   -0.53780  -0.53248  -0.52752  -0.50146  -0.46924
 Alpha  occ. eigenvalues --   -0.46358  -0.31241  -0.22535
 Alpha virt. eigenvalues --    0.03470   0.05412   0.05539   0.05720   0.05820
 Alpha virt. eigenvalues --    0.05912   0.06460   0.06518   0.06663   0.08095
 Alpha virt. eigenvalues --    0.08546   0.09027   0.09604   0.11306   0.12256

 Mulliken charges:
               1
     1  C   -3.735531
     2  C   -0.429739
     3  N   -3.828944
     4  C   -3.983808
     5  C    3.141503
     6  C   -4.405396
     7  C   -4.559864
     8  H    1.326951
     9  H    1.171129
    10  H    1.303420
    11  H    1.671099
    12  H    1.407995
    13  H    1.510285
    14  H    1.390454
    15  H    1.339387
    16  H    1.330910
    17  H    1.253457
    18  H    1.546248
    19  H    1.247715
    20  H    1.302729
 Sum of Mulliken charges =  -0.00000

 Dipole moment (field-independent basis, Debye):
    X=             -0.5976    Y=              1.0064    Z=             -0.4650  Tot=              1.2594

 Test job not archived.
 1\1\GINC-SE054\SP\RHF\Aug-CC-pVDZ\C6H13N1\OHZDE\09-Apr-2025\0\\#t hf a
 ug-cc-pvdz iop(5/13=1,5/36=2,99/5=2) pseudo=read geom=check guess=(rea
 d,tcheck) scf=(maxcycle=1)\\title\\0,1\C,0,-1.86216732,1.67325456,0.37
 301346\C,0,-0.74715672,0.77072842,0.78983024\N,0,-0.42997013,-0.353189
 5,0.07951066\C,0,-1.19495597,-1.57623753,-0.03499653\C,0,0.89098156,-0
 .17265398,-0.12273873\C,0,1.86483887,-1.23314467,0.30345008\C,0,1.4014
 7835,0.90345018,-1.03531467\H,0,-2.65151133,1.10819188,-0.13405405\H,0
 ,-2.3056154,2.18022794,1.23253658\H,0,-1.54014611,2.45312221,-0.330053

 Normal termination of Gaussian 16 at Wed Apr  9 19:33:10 2025.
