 Gaussian 16, Revision C.01,

 ----------------------------------------------------------------------
 #t hf aug-cc-pvdz symm=none int=(grid=ultrafine) guess=(read,tcheck) s
 table=(opt,rrhf)
 ----------------------------------------------------------------------
 -----
 title
 -----
 Symbolic Z-matrix:
 Charge =  0 Multiplicity = 1

 SCF Done:  E(RHF) =  -342.366446283     A.U. after   15 cycles
 Normal termination of Gaussian 16 at Wed Apr  9 19:25:01 2025.
 Gaussian 16:  ES64L-G16RevC.01  3-Jul-2019

 ----------------------------------------------------------------------
 #t hf aug-cc-pvdz iop(5/13=1,5/36=2,99/5=2) pseudo=read geom=check gue
 ss=(read,tcheck) scf=(maxcycle=1)
 ----------------------------------------------------------------------
 -----
 title
 -----
 Structure from the checkpoint file:  "Grambow2020_wb97xd3_008952_reverse_mol1.chk"
 Charge =  0 Multiplicity = 1

                         Standard orientation:
 ---------------------------------------------------------------------
 Center     Atomic      Atomic             Coordinates (Angstroms)
 Number     Number       Type             X           Y           Z
 ---------------------------------------------------------------------
      1          8           0        2.445121   -0.112909    0.117516
      2          6           0        1.263150    0.011298    0.011368
      3          6           0        0.245204   -1.079440   -0.326414
      4          6           0       -0.724183    0.464031   -0.650340
      5          6           0       -1.428387   -0.653260    0.501400
      6          8           0       -2.032658    0.398288   -0.114460
      7          6           0        0.343143    1.205373    0.156270
      8          1           0        0.316487   -1.863357    0.440272
      9          1           0        0.350897   -1.551496   -1.299493
     10          1           0       -1.888948   -1.612640    0.286417
     11          1           0       -1.111619   -0.486970    1.528379
     12          1           0        0.691630    2.107025   -0.346171
     13          1           0        0.148285    1.436393    1.212443
 ---------------------------------------------------------------------

 SCF Done:  E(RHF) =  -343.913085745     A.U. after    2 cycles

 The electronic state is 1-A.
 Alpha  occ. eigenvalues --  -21.09882 -21.07427 -11.52766 -11.51004 -11.46504
 Alpha  occ. eigenvalues --  -11.44190 -11.40041  -1.83832  -1.72420  -1.27977
 Alpha  occ. eigenvalues --   -1.06482  -0.95248  -0.83680  -0.77720  -0.72054
 Alpha  occ. eigenvalues --   -0.65241  -0.62522  -0.58398  -0.56870  -0.56075
 Alpha  occ. eigenvalues --   -0.50461  -0.43653  -0.40885  -0.38117  -0.30533
 Alpha  occ. eigenvalues --   -0.26435
 Alpha virt. eigenvalues --    0.03218   0.04468   0.04897   0.05337   0.06432
 Alpha virt. eigenvalues --    0.07075   0.08630   0.09652   0.10447   0.12376
 Alpha virt. eigenvalues --    0.13161   0.13525   0.13659   0.13968   0.14323

 Mulliken charges:
               1
     1  O   -3.209609
     2  C    4.416387
     3  C   -2.983994
     4  C    1.509751
     5  C   -0.992360
     6  O   -2.824030
     7  C   -3.575165
     8  H    1.122558
     9  H    1.193779
    10  H    1.241696
    11  H    1.350808
    12  H    1.420213
    13  H    1.329968
 Sum of Mulliken charges =   0.00000

 Dipole moment (field-independent basis, Debye):
    X=             -1.3213    Y=             -1.0839    Z=              1.6234  Tot=              2.3572

 Test job not archived.
 1\1\GINC-SE454\SP\RHF\Aug-CC-pVDZ\C5H6O2\OHZDE\09-Apr-2025\0\\#t hf au
 g-cc-pvdz iop(5/13=1,5/36=2,99/5=2) pseudo=read geom=check guess=(read
 ,tcheck) scf=(maxcycle=1)\\title\\0,1\O,0,-2.45796344,-0.42994506,0.54
 983188\C,0,-1.34614955,-0.2936521,0.13868325\C,0,-0.4890409,0.97226388
 ,0.19199665\C,0,0.39892849,-0.03937929,-1.07884208\C,0,1.35764936,0.47
 528179,0.29473917\O,0,1.8013474,-0.03115635,-0.88713751\C,0,-0.3882564
 8,-1.24078167,-0.55313469\H,0,-0.37153836,1.26188678,1.24543175\H,0,-0
 .86800946,1.83315583,-0.35218873\H,0,1.71551854,1.47844282,0.5053172\H

 Normal termination of Gaussian 16 at Wed Apr  9 19:25:05 2025.
