 Gaussian 16, Revision C.01,

 ----------------------------------------------------------------------
 #t hf aug-cc-pvdz symm=none int=(grid=ultrafine) guess=(read,tcheck) s
 table=(opt,rrhf)
 ----------------------------------------------------------------------
 -----
 title
 -----
 Symbolic Z-matrix:
 Charge =  0 Multiplicity = 1

 SCF Done:  E(RHF) =  -338.609964573     A.U. after   16 cycles
 Normal termination of Gaussian 16 at Wed Apr  9 03:52:35 2025.
 Gaussian 16:  ES64L-G16RevC.01  3-Jul-2019

 ----------------------------------------------------------------------
 #t hf aug-cc-pvdz iop(5/13=1,5/36=2,99/5=2) pseudo=read geom=check gue
 ss=(read,tcheck) scf=(maxcycle=1)
 ----------------------------------------------------------------------
 -----
 title
 -----
 Structure from the checkpoint file:  "Grambow2020_wb97xd3_008311_reverse_mol1.chk"
 Charge =  0 Multiplicity = 1

                         Standard orientation:
 ---------------------------------------------------------------------
 Center     Atomic      Atomic             Coordinates (Angstroms)
 Number     Number       Type             X           Y           Z
 ---------------------------------------------------------------------
      1          6           0        2.306013    0.378605   -0.193594
      2          8           0        1.447476   -0.724044   -0.000871
      3          6           0        0.231605   -0.394333    0.207161
      4          6           0       -0.125809    1.010939    0.118050
      5          7           0       -1.530036    0.884929   -0.106407
      6          6           0       -1.839802   -0.426865   -0.102319
      7          7           0       -0.827683   -1.232144    0.085222
      8          1           0        3.262239   -0.009719   -0.529129
      9          1           0        2.394253    0.976114    0.715829
     10          1           0        0.743377    1.267986   -0.692375
     11          1           0        0.133916    1.709664    0.913956
     12          1           0       -2.189639    1.637629   -0.156773
     13          1           0       -2.851965   -0.768894   -0.272037
 ---------------------------------------------------------------------

 SCF Done:  E(RHF) =  -340.155831009     A.U. after    2 cycles

 The electronic state is 1-A.
 Alpha  occ. eigenvalues --  -21.11864 -15.81107 -15.74627 -11.51417 -11.48280
 Alpha  occ. eigenvalues --  -11.42939 -11.33375  -1.84481  -1.57253  -1.30743
 Alpha  occ. eigenvalues --   -1.11135  -0.96390  -0.87778  -0.79900  -0.76181
 Alpha  occ. eigenvalues --   -0.68604  -0.63449  -0.60077  -0.58329  -0.52486
 Alpha  occ. eigenvalues --   -0.50933  -0.48345  -0.44843  -0.39530  -0.33051
 Alpha  occ. eigenvalues --   -0.24143
 Alpha virt. eigenvalues --    0.02441   0.04292   0.04988   0.06771   0.07188
 Alpha virt. eigenvalues --    0.07574   0.08744   0.09213   0.10160   0.11887
 Alpha virt. eigenvalues --    0.12368   0.12871   0.13612   0.14339   0.15107

 Mulliken charges:
               1
     1  C   -2.423117
     2  O   -3.447570
     3  C    5.039040
     4  C   -2.078237
     5  N   -2.837293
     6  C    1.328651
     7  N   -3.189655
     8  H    1.379616
     9  H    1.192358
    10  H    1.298309
    11  H    1.399248
    12  H    0.789834
    13  H    1.548816
 Sum of Mulliken charges =  -0.00000

 Dipole moment (field-independent basis, Debye):
    X=             -4.1862    Y=              2.0891    Z=              0.6956  Tot=              4.7300

 Test job not archived.
 1\1\GINC-SE166\SP\RHF\Aug-CC-pVDZ\C4H6N2O1\OHZDE\09-Apr-2025\0\\#t hf
 aug-cc-pvdz iop(5/13=1,5/36=2,99/5=2) pseudo=read geom=check guess=(re
 ad,tcheck) scf=(maxcycle=1)\\title\\0,1\C,0,2.22563692,-0.04976597,-0.
 11867073\O,0,1.28965976,0.60639144,-0.94539113\C,0,0.07729311,0.299744
 71,-0.68758589\C,0,-0.18725057,-0.56820736,0.44694173\N,0,-1.55576794,
 -0.23813974,0.68427776\C,0,-1.93571839,0.66673934,-0.23963073\N,0,-1.0
 023198,1.01806889,-1.08423945\H,0,3.19406244,0.40485052,-0.30094383\H,
 0,2.22919301,-1.1262315,-0.30050415\H,0,0.79182532,-0.19881262,1.06605

 Normal termination of Gaussian 16 at Wed Apr  9 03:52:39 2025.
