 Gaussian 16, Revision C.01,

 ----------------------------------------------------------------------
 #t hf aug-cc-pvdz symm=none int=(grid=ultrafine) guess=(read,tcheck) s
 table=(opt,rrhf)
 ----------------------------------------------------------------------
 -----
 title
 -----
 Symbolic Z-matrix:
 Charge =  0 Multiplicity = 1

 SCF Done:  E(RHF) =  -359.528980600     A.U. after   17 cycles
 Normal termination of Gaussian 16 at Wed Apr  9 18:35:30 2025.
 Gaussian 16:  ES64L-G16RevC.01  3-Jul-2019

 ----------------------------------------------------------------------
 #t hf aug-cc-pvdz iop(5/13=1,5/36=2,99/5=2) pseudo=read geom=check gue
 ss=(read,tcheck) scf=(maxcycle=1)
 ----------------------------------------------------------------------
 -----
 title
 -----
 Structure from the checkpoint file:  "Grambow2020_wb97xd3_007295_forward_mol1.chk"
 Charge =  0 Multiplicity = 1

                         Standard orientation:
 ---------------------------------------------------------------------
 Center     Atomic      Atomic             Coordinates (Angstroms)
 Number     Number       Type             X           Y           Z
 ---------------------------------------------------------------------
      1          8           0        1.964390   -1.150702   -0.064598
      2          6           0        0.691769   -0.801230   -0.170100
      3          6           0       -1.769493   -0.929773    0.465329
      4          7           0       -1.641258   -0.024193   -0.608454
      5          6           0       -0.961840    1.124244   -0.064918
      6          6           0        0.449073    0.595652    0.054633
      7          8           0        1.421798    1.343724    0.195247
      8          1           0        2.432015   -0.310160    0.128942
      9          1           0        0.047158   -1.561999   -0.559334
     10          1           0       -2.010629   -1.959238    0.226076
     11          1           0       -1.472307   -0.660077    1.475522
     12          1           0       -2.731348   -0.240478    0.090800
     13          1           0       -1.352266    1.463464    0.905097
     14          1           0       -0.970378    1.960301   -0.762789
 ---------------------------------------------------------------------

 SCF Done:  E(RHF) =  -361.146842528     A.U. after    2 cycles

 The electronic state is 1-A.
 Alpha  occ. eigenvalues --  -21.09778 -21.01511 -15.81699 -11.49985 -11.47744
 Alpha  occ. eigenvalues --  -11.45851 -11.42414  -1.78254  -1.66419  -1.48069
 Alpha  occ. eigenvalues --   -1.11624  -1.01027  -0.89685  -0.78620  -0.71984
 Alpha  occ. eigenvalues --   -0.70455  -0.66975  -0.61912  -0.57423  -0.51985
 Alpha  occ. eigenvalues --   -0.51104  -0.48514  -0.44460  -0.42939  -0.38204
 Alpha  occ. eigenvalues --   -0.28578  -0.19818
 Alpha virt. eigenvalues --    0.02687   0.04553   0.05089   0.05284   0.06141
 Alpha virt. eigenvalues --    0.06644   0.07204   0.07850   0.09378   0.11765
 Alpha virt. eigenvalues --    0.12816   0.13187   0.13812   0.14513   0.15059

 Mulliken charges:
               1
     1  O   -3.274704
     2  C    1.111447
     3  C   -2.883699
     4  N   -1.735154
     5  C   -2.209379
     6  C    4.071099
     7  O   -3.433237
     8  H    0.785492
     9  H    1.578115
    10  H    1.341301
    11  H    1.497876
    12  H    0.786139
    13  H    1.157293
    14  H    1.207412
 Sum of Mulliken charges =   0.00000

 Dipole moment (field-independent basis, Debye):
    X=             -2.5921    Y=             -1.1853    Z=              0.7594  Tot=              2.9497

 Test job not archived.
 1\1\GINC-SE028\SP\RHF\Aug-CC-pVDZ\C4H7N1O2\OHZDE\09-Apr-2025\0\\#t hf
 aug-cc-pvdz iop(5/13=1,5/36=2,99/5=2) pseudo=read geom=check guess=(re
 ad,tcheck) scf=(maxcycle=1)\\title\\0,1\O,0,2.34444279,-0.69057785,0.6
 9384681\C,0,1.14849413,-0.17875826,0.44773331\C,0,-0.4318785,1.5538237
 3,-0.54155273\N,0,-1.20342284,0.61815003,0.17869827\C,0,-1.13481916,-0
 .6041292,-0.58108829\C,0,0.26992276,-1.06307389,-0.26415389\O,0,0.6440
 1772,-2.22278765,-0.46588364\H,0,2.3019665,-1.59744359,0.3217829\H,0,0
 .94525058,0.74811438,0.94310706\H,0,-0.12872789,2.45693843,-0.02418254

 Normal termination of Gaussian 16 at Wed Apr  9 18:35:34 2025.
