 Gaussian 16, Revision C.01,

 ----------------------------------------------------------------------
 #t hf aug-cc-pvdz symm=none int=(grid=ultrafine) guess=(read,tcheck) s
 table=(opt,rrhf)
 ----------------------------------------------------------------------
 -----
 title
 -----
 Symbolic Z-matrix:
 Charge =  0 Multiplicity = 1

 SCF Done:  E(RHF) =  -359.748532030     A.U. after   14 cycles
 Normal termination of Gaussian 16 at Wed Apr  9 19:33:49 2025.
 Gaussian 16:  ES64L-G16RevC.01  3-Jul-2019

 ----------------------------------------------------------------------
 #t hf aug-cc-pvdz iop(5/13=1,5/36=2,99/5=2) pseudo=read geom=check gue
 ss=(read,tcheck) scf=(maxcycle=1)
 ----------------------------------------------------------------------
 -----
 title
 -----
 Structure from the checkpoint file:  "Grambow2020_wb97xd3_009396_forward_mol2.chk"
 Charge =  0 Multiplicity = 1

                         Standard orientation:
 ---------------------------------------------------------------------
 Center     Atomic      Atomic             Coordinates (Angstroms)
 Number     Number       Type             X           Y           Z
 ---------------------------------------------------------------------
      1          8           0       -1.644594   -0.074763   -0.942546
      2          6           0       -1.084952    0.010664    0.353329
      3          6           0       -0.197211   -1.183968    0.652176
      4          8           0        0.993089   -1.149761   -0.140380
      5          6           0        1.515890    0.069731   -0.380599
      6          7           0        1.042375    1.203932   -0.108289
      7          6           0       -0.258387    1.274749    0.543680
      8          1           0       -0.953916    0.075555   -1.593127
      9          1           0       -1.933062    0.001851    1.041180
     10          1           0        0.086207   -1.196831    1.709209
     11          1           0       -0.697894   -2.117615    0.402058
     12          1           0        2.468409   -0.024717   -0.895940
     13          1           0       -0.106508    1.472438    1.609046
     14          1           0       -0.799861    2.130935    0.137488
 ---------------------------------------------------------------------

 SCF Done:  E(RHF) =  -361.349864020     A.U. after    2 cycles

 The electronic state is 1-A.
 Alpha  occ. eigenvalues --  -21.09198 -21.07448 -15.72330 -11.47143 -11.46034
 Alpha  occ. eigenvalues --  -11.45110 -11.39221  -1.82313  -1.71966  -1.36901
 Alpha  occ. eigenvalues --   -1.15911  -0.98508  -0.91664  -0.76667  -0.71422
 Alpha  occ. eigenvalues --   -0.67044  -0.63358  -0.60421  -0.57838  -0.56114
 Alpha  occ. eigenvalues --   -0.53055  -0.48252  -0.44146  -0.40086  -0.36447
 Alpha  occ. eigenvalues --   -0.31855  -0.29830
 Alpha virt. eigenvalues --    0.03443   0.04978   0.05379   0.05793   0.06008
 Alpha virt. eigenvalues --    0.06463   0.07225   0.09990   0.10216   0.12578
 Alpha virt. eigenvalues --    0.13020   0.13135   0.13488   0.14274   0.15118

 Mulliken charges:
               1
     1  O   -3.483550
     2  C    1.458770
     3  C   -1.609218
     4  O   -3.154835
     5  C    2.223302
     6  N   -2.775572
     7  C   -2.459324
     8  H    0.834173
     9  H    1.694719
    10  H    1.425230
    11  H    1.309601
    12  H    1.814539
    13  H    1.414754
    14  H    1.307412
 Sum of Mulliken charges =   0.00000

 Dipole moment (field-independent basis, Debye):
    X=             -0.4641    Y=             -1.5152    Z=              0.8832  Tot=              1.8142

 Test job not archived.
 1\1\GINC-SE219\SP\RHF\Aug-CC-pVDZ\C4H7N1O2\OHZDE\09-Apr-2025\0\\#t hf
 aug-cc-pvdz iop(5/13=1,5/36=2,99/5=2) pseudo=read geom=check guess=(re
 ad,tcheck) scf=(maxcycle=1)\\title\\0,1\O,0,-1.17115807,-0.58098636,1.
 37483004\C,0,-0.98536956,-0.00522928,0.09663787\C,0,-0.19259855,1.2865
 8251,0.18193519\O,0,1.16730269,1.03107875,0.5445856\C,0,1.71572174,-0.
 09683298,0.049371\N,0,1.1676972,-1.0292625,-0.59485326\C,0,-0.26209865
 ,-0.94286399,-0.85995756\H,0,-0.3324807,-0.93110748,1.68615323\H,0,-1.
 9879702,0.21894954,-0.2735545\H,0,-0.20627539,1.80964268,-0.77932966\H

 Normal termination of Gaussian 16 at Wed Apr  9 19:33:53 2025.
