 Gaussian 16, Revision C.01,

 ----------------------------------------------------------------------
 #t hf aug-cc-pvdz symm=none int=(grid=ultrafine) guess=(read,tcheck) s
 table=(opt,rrhf)
 ----------------------------------------------------------------------
 -----
 title
 -----
 Symbolic Z-matrix:
 Charge =  0 Multiplicity = 1

 SCF Done:  E(RHF) =  -338.539224158     A.U. after   17 cycles
 Normal termination of Gaussian 16 at Wed Apr  9 19:18:00 2025.
 Gaussian 16:  ES64L-G16RevC.01  3-Jul-2019

 ----------------------------------------------------------------------
 #t hf aug-cc-pvdz iop(5/13=1,5/36=2,99/5=2) pseudo=read geom=check gue
 ss=(read,tcheck) scf=(maxcycle=1)
 ----------------------------------------------------------------------
 -----
 title
 -----
 Structure from the checkpoint file:  "Grambow2020_wb97xd3_008568_reverse_mol1.chk"
 Charge =  0 Multiplicity = 1

                         Standard orientation:
 ---------------------------------------------------------------------
 Center     Atomic      Atomic             Coordinates (Angstroms)
 Number     Number       Type             X           Y           Z
 ---------------------------------------------------------------------
      1          7           0        2.449692    0.035038   -0.247387
      2          6           0        1.262343    0.021958    0.165038
      3          8           0        0.514953   -1.075378   -0.159486
      4          6           0       -0.769523   -1.154610    0.416850
      5          6           0       -1.769337   -0.288012   -0.341025
      6          6           0       -1.384163    1.137782   -0.132348
      7          7           0       -0.354251    1.612385    0.199642
      8          1           0        2.933985    0.884831    0.017998
      9          1           0        0.562456    1.872800    0.527252
     10          1           0       -0.737480   -0.848528    1.468228
     11          1           0       -1.065401   -2.203364    0.380042
     12          1           0       -1.719319   -0.485212   -1.414731
     13          1           0       -2.797881   -0.452177   -0.019788
 ---------------------------------------------------------------------

 SCF Done:  E(RHF) =  -340.085831946     A.U. after    2 cycles

 The electronic state is 1-A.
 Alpha  occ. eigenvalues --  -21.05744 -15.88009 -15.68752 -11.50738 -11.47811
 Alpha  occ. eigenvalues --  -11.42612 -11.38410  -1.77898  -1.43591  -1.26827
 Alpha  occ. eigenvalues --   -1.17620  -0.96113  -0.89003  -0.75163  -0.70606
 Alpha  occ. eigenvalues --   -0.66918  -0.61514  -0.59304  -0.54303  -0.52454
 Alpha  occ. eigenvalues --   -0.50705  -0.47658  -0.45304  -0.40211  -0.29038
 Alpha  occ. eigenvalues --   -0.22227
 Alpha virt. eigenvalues --    0.03183   0.04073   0.05234   0.05516   0.05969
 Alpha virt. eigenvalues --    0.06499   0.07607   0.08888   0.09322   0.10529
 Alpha virt. eigenvalues --    0.12496   0.13067   0.13443   0.14210   0.14690

 Mulliken charges:
               1
     1  N   -2.534325
     2  C    2.647512
     3  O   -2.882013
     4  C   -1.128446
     5  C   -2.560453
     6  C    1.221424
     7  N   -2.281178
     8  H    0.750497
     9  H    0.924284
    10  H    1.576444
    11  H    1.294181
    12  H    1.512511
    13  H    1.459563
 Sum of Mulliken charges =   0.00000

 Dipole moment (field-independent basis, Debye):
    X=             -3.8281    Y=              1.2114    Z=              0.8420  Tot=              4.1025

 Test job not archived.
 1\1\GINC-SE173\SP\RHF\Aug-CC-pVDZ\C4H6N2O1\OHZDE\09-Apr-2025\0\\#t hf
 aug-cc-pvdz iop(5/13=1,5/36=2,99/5=2) pseudo=read geom=check guess=(re
 ad,tcheck) scf=(maxcycle=1)\\title\\0,1\N,0,-2.46113779,0.34715443,-0.
 55324302\C,0,-1.21159331,0.2119392,-0.5737155\O,0,-0.72151078,-0.99917
 362,-0.17236929\C,0,0.66602343,-1.19839234,-0.32527602\C,0,1.44647417,
 -0.54183842,0.80822586\C,0,1.29199341,0.93524451,0.6698205\N,0,0.47721
 572,1.56982614,0.09568688\H,0,-2.74719202,1.27369438,-0.84788253\H,0,-
 0.25354319,1.97748697,-0.46582786\H,0,1.00667269,-0.80058033,-1.287467

 Normal termination of Gaussian 16 at Wed Apr  9 19:18:04 2025.
