 Gaussian 16, Revision C.01,

 ----------------------------------------------------------------------
 #t hf aug-cc-pvdz symm=none int=(grid=ultrafine) guess=(read,tcheck) s
 table=(opt,rrhf)
 ----------------------------------------------------------------------
 -----
 title
 -----
 Symbolic Z-matrix:
 Charge =  0 Multiplicity = 1

 SCF Done:  E(RHF) =  -305.728845047     A.U. after   15 cycles
 Normal termination of Gaussian 16 at Wed Apr  9 16:12:54 2025.
 Gaussian 16:  ES64L-G16RevC.01  3-Jul-2019

 ----------------------------------------------------------------------
 #t hf aug-cc-pvdz iop(5/13=1,5/36=2,99/5=2) pseudo=read geom=check gue
 ss=(read,tcheck) scf=(maxcycle=1)
 ----------------------------------------------------------------------
 -----
 title
 -----
 Structure from the checkpoint file:  "Grambow2020_b97d3_006756_forward_mol1.chk"
 Charge =  0 Multiplicity = 1

                         Standard orientation:
 ---------------------------------------------------------------------
 Center     Atomic      Atomic             Coordinates (Angstroms)
 Number     Number       Type             X           Y           Z
 ---------------------------------------------------------------------
      1          6           0        3.029175   -0.476473   -0.106366
      2          6           0        0.900171    1.310232    0.049889
      3          6           0       -0.097630    0.190175    0.019696
      4          8           0        0.235182   -0.992848    0.080922
      5          6           0       -1.580580    0.530164   -0.077560
      6          8           0       -2.392234   -0.608866    0.005724
      7          1           0        2.850728   -0.988346    0.872331
      8          1           0        1.949601    0.894333   -0.141760
      9          1           0        2.659127   -1.246975   -0.825969
     10          1           0        0.683493    2.095528   -0.688308
     11          1           0        0.915481    1.774561    1.048093
     12          1           0       -1.823835    1.254704    0.722224
     13          1           0       -1.723595    1.067723   -1.036985
     14          1           0       -1.761399   -1.362407    0.043247
 ---------------------------------------------------------------------

 SCF Done:  E(RHF) =  -307.082419455     A.U. after    2 cycles

 The electronic state is 1-A.
 Alpha  occ. eigenvalues --  -21.07400 -21.07148 -11.51346 -11.44076 -11.41543
 Alpha  occ. eigenvalues --  -11.40315  -1.75844  -1.68503  -1.15409  -1.01419
 Alpha  occ. eigenvalues --   -0.93586  -0.77038  -0.67327  -0.65627  -0.60872
 Alpha  occ. eigenvalues --   -0.58875  -0.57009  -0.54200  -0.49364  -0.43110
 Alpha  occ. eigenvalues --   -0.42039  -0.34811  -0.32955  -0.31881
 Alpha virt. eigenvalues --    0.03034   0.03762   0.05128   0.05767   0.06160
 Alpha virt. eigenvalues --    0.07027   0.07344   0.07800   0.08346   0.09712
 Alpha virt. eigenvalues --    0.13246   0.13423   0.13636   0.13674   0.14699

 Mulliken charges:
               1
     1  C   -3.554412
     2  C   -3.842192
     3  C    3.195693
     4  O   -3.135072
     5  C   -0.803910
     6  O   -2.747172
     7  H    1.322790
     8  H    2.391970
     9  H    1.344146
    10  H    1.170412
    11  H    1.170788
    12  H    1.390124
    13  H    1.347201
    14  H    0.749635
 Sum of Mulliken charges =  -0.00000

 Dipole moment (field-independent basis, Debye):
    X=             -0.2508    Y=              0.0656    Z=              0.2820  Tot=              0.3831

 Test job not archived.
 1\1\GINC-SE114\SP\RHF\Aug-CC-pVDZ\C4H8O2\OHZDE\09-Apr-2025\0\\#t hf au
 g-cc-pvdz iop(5/13=1,5/36=2,99/5=2) pseudo=read geom=check guess=(read
 ,tcheck) scf=(maxcycle=1)\\title\\0,1\C,0,-2.62073875,0.96574553,-0.53
 184856\C,0,-0.74106556,-0.96093254,0.17817363\C,0,0.38553565,0.0162435
 5,0.01402846\O,0,0.19600781,1.21369418,-0.19631856\C,0,1.8191401,-0.49
 044978,0.12462804\O,0,2.75598501,0.54872245,0.05013054\H,0,-2.44846739
 ,1.65147318,0.33521796\H,0,-1.71642484,-0.48713796,-0.18951881\H,0,-2.
 11127304,1.52331569,-1.35525501\H,0,-0.57183401,-1.90295592,-0.3626835

 Normal termination of Gaussian 16 at Wed Apr  9 16:12:57 2025.
