 Gaussian 16, Revision C.01,

 ----------------------------------------------------------------------
 #t hf aug-cc-pvdz symm=none int=(grid=ultrafine) guess=(read,tcheck) s
 table=(opt,rrhf)
 ----------------------------------------------------------------------
 -----
 title
 -----
 Symbolic Z-matrix:
 Charge =  0 Multiplicity = 1

 SCF Done:  E(RHF) =  -323.792997491     A.U. after   15 cycles
 Normal termination of Gaussian 16 at Wed Apr  9 18:32:37 2025.
 Gaussian 16:  ES64L-G16RevC.01  3-Jul-2019

 ----------------------------------------------------------------------
 #t hf aug-cc-pvdz iop(5/13=1,5/36=2,99/5=2) pseudo=read geom=check gue
 ss=(read,tcheck) scf=(maxcycle=1)
 ----------------------------------------------------------------------
 -----
 title
 -----
 Structure from the checkpoint file:  "Grambow2020_wb97xd3_007249_forward_mol1.chk"
 Charge =  0 Multiplicity = 1

                         Standard orientation:
 ---------------------------------------------------------------------
 Center     Atomic      Atomic             Coordinates (Angstroms)
 Number     Number       Type             X           Y           Z
 ---------------------------------------------------------------------
      1          6           0        0.821797    1.553753   -0.208588
      2          6           0        1.094104    0.152948    0.243373
      3          6           0        2.179001   -0.578820   -0.480318
      4          6           0        0.437051   -0.402959    1.284505
      5          8           0       -2.401183    0.571855    0.058168
      6          6           0       -1.783267   -0.371579   -0.344322
      7          7           0       -0.748100   -1.103637   -0.398152
      8          1           0        0.608078    1.575746   -1.279407
      9          1           0        1.712820    2.167172   -0.047370
     10          1           0       -0.018039    1.997720    0.322469
     11          1           0        3.124763   -0.040179   -0.375766
     12          1           0        2.307515   -1.592108   -0.103230
     13          1           0        1.950735   -0.631732   -1.546929
     14          1           0        0.703261   -1.385008    1.652240
     15          1           0       -0.299658    0.160464    1.844538
     16          1           0       -2.135436   -1.221523   -1.112731
 ---------------------------------------------------------------------

 SCF Done:  E(RHF) =  -325.318076173     A.U. after    2 cycles

 The electronic state is 1-A.
 Alpha  occ. eigenvalues --  -21.05463 -15.81325 -11.51338 -11.45615 -11.40528
 Alpha  occ. eigenvalues --  -11.40116 -11.37528  -1.71402  -1.34743  -1.25653
 Alpha  occ. eigenvalues --   -1.03115  -1.01632  -0.77328  -0.73988  -0.65811
 Alpha  occ. eigenvalues --   -0.62426  -0.61618  -0.61007  -0.55760  -0.54635
 Alpha  occ. eigenvalues --   -0.53567  -0.52329  -0.49704  -0.46836  -0.36553
 Alpha  occ. eigenvalues --   -0.32716  -0.30382
 Alpha virt. eigenvalues --    0.03186   0.05068   0.05352   0.05547   0.05922
 Alpha virt. eigenvalues --    0.06175   0.06667   0.07730   0.08988   0.09292
 Alpha virt. eigenvalues --    0.10726   0.11895   0.12593   0.13024   0.13864

 Mulliken charges:
               1
     1  C   -4.799702
     2  C    2.573584
     3  C   -4.569094
     4  C   -4.290941
     5  O   -2.752787
     6  C    3.318770
     7  N   -1.584347
     8  H    1.265881
     9  H    1.103826
    10  H    1.484847
    11  H    1.170390
    12  H    1.374703
    13  H    1.226132
    14  H    1.528433
    15  H    1.641694
    16  H    1.308613
 Sum of Mulliken charges =   0.00000

 Dipole moment (field-independent basis, Debye):
    X=              2.3699    Y=              0.5037    Z=              0.2610  Tot=              2.4368

 Test job not archived.
 1\1\GINC-SE115\SP\RHF\Aug-CC-pVDZ\C5H9N1O1\OHZDE\09-Apr-2025\0\\#t hf
 aug-cc-pvdz iop(5/13=1,5/36=2,99/5=2) pseudo=read geom=check guess=(re
 ad,tcheck) scf=(maxcycle=1)\\title\\0,1\C,0,0.84709155,1.06932922,0.74
 337282\C,0,0.54496134,-0.32112275,0.27857514\C,0,1.47448591,-0.8964559
 4,-0.74181195\C,0,-0.47656934,-1.0405608,0.79198503\O,0,-2.49044784,1.
 46792117,0.3900557\C,0,-2.13179359,0.74509663,-0.49469119\N,0,-1.40235
 593,-0.17563718,-0.97484555\H,0,0.90437294,1.75301749,-0.10639321\H,0,
 1.82509758,1.08432021,1.23273512\H,0,0.09504671,1.43989968,1.43731602\

 Normal termination of Gaussian 16 at Wed Apr  9 18:32:43 2025.
