 Gaussian 16, Revision C.01,

 ----------------------------------------------------------------------
 #t hf aug-cc-pvdz symm=none int=(grid=ultrafine) guess=(read,tcheck) s
 table=(opt,rrhf)
 ----------------------------------------------------------------------
 -----
 title
 -----
 Symbolic Z-matrix:
 Charge =  0 Multiplicity = 1

 SCF Done:  E(RHF) =  -339.247681067     A.U. after   17 cycles
 Normal termination of Gaussian 16 at Wed Apr  9 16:28:39 2025.
 Gaussian 16:  ES64L-G16RevC.01  3-Jul-2019

 ----------------------------------------------------------------------
 #t hf aug-cc-pvdz iop(5/13=1,5/36=2,99/5=2) pseudo=read geom=check gue
 ss=(read,tcheck) scf=(maxcycle=1)
 ----------------------------------------------------------------------
 -----
 title
 -----
 Structure from the checkpoint file:  "Grambow2020_b97d3_006815_reverse_mol1.chk"
 Charge =  0 Multiplicity = 1

                         Standard orientation:
 ---------------------------------------------------------------------
 Center     Atomic      Atomic             Coordinates (Angstroms)
 Number     Number       Type             X           Y           Z
 ---------------------------------------------------------------------
      1          8           0        0.944301    1.012835    0.158926
      2          6           0       -0.157753    1.496177   -0.280149
      3          6           0       -1.272819   -0.367536    0.154584
      4          8           0       -2.400007   -0.528506   -0.062689
      5          6           0        1.083759   -0.511864    0.394427
      6          8           0        1.584779   -1.194511   -0.445148
      7          1           0       -0.017733    2.609691   -0.308338
      8          1           0        1.066023   -0.628894    1.486455
 ---------------------------------------------------------------------

 SCF Done:  E(RHF) =  -340.673508148     A.U. after    2 cycles

 The electronic state is 1-A.
 Alpha  occ. eigenvalues --  -21.15611 -21.15099 -21.11092 -11.56261 -11.50255
 Alpha  occ. eigenvalues --  -11.45354  -1.85248  -1.77221  -1.72429  -0.97196
 Alpha  occ. eigenvalues --   -0.83963  -0.75775  -0.65192  -0.64266  -0.58318
 Alpha  occ. eigenvalues --   -0.53782  -0.50518  -0.49205  -0.46715  -0.44826
 Alpha  occ. eigenvalues --   -0.36558  -0.29088
 Alpha virt. eigenvalues --    0.03424   0.05003   0.07367   0.08772   0.09749
 Alpha virt. eigenvalues --    0.10241   0.10706   0.11177   0.12868   0.13825
 Alpha virt. eigenvalues --    0.14582   0.14793   0.15379   0.16407   0.17475

 Mulliken charges:
               1
     1  O   -2.230353
     2  C   -0.351197
     3  C    1.664861
     4  O   -1.831037
     5  C    1.934506
     6  O   -2.322633
     7  H    1.493651
     8  H    1.642202
 Sum of Mulliken charges =  -0.00000

 Dipole moment (field-independent basis, Debye):
    X=             -0.0156    Y=              0.7013    Z=              0.9073  Tot=              1.1469

 Test job not archived.
 1\1\GINC-SE220\SP\RHF\Aug-CC-pVDZ\C3H2O3\OHZDE\09-Apr-2025\0\\#t hf au
 g-cc-pvdz iop(5/13=1,5/36=2,99/5=2) pseudo=read geom=check guess=(read
 ,tcheck) scf=(maxcycle=1)\\title\\0,1\O,0,-0.70414992,-0.56146951,0.73
 923698\C,0,-0.94169975,0.69669306,0.70017905\C,0,0.49208982,1.02502011
 ,-0.95579329\O,0,0.72148877,2.05473584,-1.4361409\C,0,0.53786387,-1.13
 949297,0.01611333\O,0,1.53879959,-1.33948092,0.63259251\H,0,-1.9125910
 4,0.84522439,1.24388987\H,0,0.13353166,-1.65374699,-0.86626754\\Versio
 n=ES64L-G16RevC.01\State=1-A\HF=-340.6735081\RMSD=5.563e-02\Dipole=-0.

 Normal termination of Gaussian 16 at Wed Apr  9 16:28:42 2025.
