 Gaussian 16, Revision C.01,

 ----------------------------------------------------------------------
 #t hf aug-cc-pvdz symm=none int=(grid=ultrafine) guess=(read,tcheck) s
 table=(opt,rrhf)
 ----------------------------------------------------------------------
 -----
 title
 -----
 Symbolic Z-matrix:
 Charge =  0 Multiplicity = 1

 SCF Done:  E(RHF) =  -306.879552287     A.U. after   14 cycles

 1\1\GINC-SE226\Stability\RHF\Aug-CC-pVDZ\C4H10O2\OHZDE\09-Apr-2025\0\\
 #t hf aug-cc-pvdz symm=none int=(grid=ultrafine) guess=(read,tcheck) s
 table=(opt,rrhf)\\title\\0,1\C,0,-1.63887544,-1.00570505,0.15160485\C,
 0,-0.44462581,0.46786067,-0.12157092\C,0,0.15099017,-0.71619877,-0.617
 22729\O,0,2.13140127,0.17912245,-1.21884619\C,0,0.16332577,1.165847,1.
 06663744\O,0,1.0622434,1.89249507,0.33512448\H,0,-2.52363244,-0.440757
 86,-0.15549588\H,0,-1.67741607,-1.98763366,-0.33969856\H,0,-1.57393254
 ,-1.12712135,1.23447718\H,0,-0.96926101,1.1073421,-0.82903616\H,0,0.03

 Normal termination of Gaussian 16 at Wed Apr  9 17:21:30 2025.
 Gaussian 16:  ES64L-G16RevC.01  3-Jul-2019

 ----------------------------------------------------------------------
 #t hf aug-cc-pvdz iop(5/13=1,5/36=2,99/5=2) pseudo=read geom=check gue
 ss=(read,tcheck) scf=(maxcycle=1)
 ----------------------------------------------------------------------
 -----
 title
 -----
 Structure from the checkpoint file:  "Grambow2020_b97d3_007107_forward_mol1.chk"
 Charge =  0 Multiplicity = 1

                         Standard orientation:
 ---------------------------------------------------------------------
 Center     Atomic      Atomic             Coordinates (Angstroms)
 Number     Number       Type             X           Y           Z
 ---------------------------------------------------------------------
      1          6           0       -2.304132   -0.200144    0.046215
      2          6           0       -0.518679    0.309671   -0.427600
      3          6           0       -0.512658   -1.018014    0.061937
      4          8           0        1.714805   -1.357258   -0.032379
      5          6           0        0.179503    1.393376    0.351344
      6          8           0        1.410552    1.167170   -0.200500
      7          1           0       -2.748880    0.256164   -0.842747
      8          1           0       -2.747004   -1.197728    0.171665
      9          1           0       -2.458480    0.397871    0.946285
     10          1           0       -0.560746    0.453531   -1.505663
     11          1           0       -0.620653   -1.874111   -0.597357
     12          1           0       -0.460234   -1.202075    1.130774
     13          1           0        1.987373   -1.513783    0.890855
     14          1           0       -0.245368    2.399108    0.148264
     15          1           0        0.058343    1.198665    1.448052
     16          1           0        1.728590   -0.306267   -0.118476
 ---------------------------------------------------------------------

 SCF Done:  E(RHF) =  -308.341841283     A.U. after    2 cycles

 The electronic state is 1-A.
 Alpha  occ. eigenvalues --  -21.02804 -20.93232 -11.52538 -11.46965 -11.44066
 Alpha  occ. eigenvalues --  -11.40744  -1.63283  -1.57684  -1.26988  -1.01048
 Alpha  occ. eigenvalues --   -0.95831  -0.84367  -0.71078  -0.63419  -0.61107
 Alpha  occ. eigenvalues --   -0.60050  -0.59901  -0.56324  -0.53123  -0.48985
 Alpha  occ. eigenvalues --   -0.44342  -0.38696  -0.31238  -0.23245  -0.21121
 Alpha virt. eigenvalues --    0.02265   0.04224   0.04392   0.04664   0.05149
 Alpha virt. eigenvalues --    0.05607   0.06994   0.07078   0.07984   0.10798
 Alpha virt. eigenvalues --    0.11856   0.12419   0.12797   0.13175   0.13966

 Mulliken charges:
               1
     1  C   -3.588070
     2  C   -1.254367
     3  C   -2.026643
     4  O   -2.101302
     5  C   -1.414668
     6  O   -2.672317
     7  H    1.137761
     8  H    1.114861
     9  H    1.250324
    10  H    1.472476
    11  H    1.377987
    12  H    1.576802
    13  H    0.739468
    14  H    1.362017
    15  H    1.250179
    16  H    1.775492
 Sum of Mulliken charges =  -0.00000

 Dipole moment (field-independent basis, Debye):
    X=             -4.5085    Y=             -2.6451    Z=              0.3803  Tot=              5.2409

 Test job not archived.
 1\1\GINC-SE226\SP\RHF\Aug-CC-pVDZ\C4H10O2\OHZDE\09-Apr-2025\0\\#t hf a
 ug-cc-pvdz iop(5/13=1,5/36=2,99/5=2) pseudo=read geom=check guess=(rea
 d,tcheck) scf=(maxcycle=1)\\title\\0,1\C,0,-1.63887544,-1.00570505,0.1
 5160485\C,0,-0.44462581,0.46786067,-0.12157092\C,0,0.15099017,-0.71619
 877,-0.61722729\O,0,2.13140127,0.17912245,-1.21884619\C,0,0.16332577,1
 .165847,1.06663744\O,0,1.0622434,1.89249507,0.33512448\H,0,-2.52363244
 ,-0.44075786,-0.15549588\H,0,-1.67741607,-1.98763366,-0.33969856\H,0,-
 1.57393254,-1.12712135,1.23447718\H,0,-0.96926101,1.1073421,-0.8290361

 Normal termination of Gaussian 16 at Wed Apr  9 17:21:34 2025.
