 Gaussian 16, Revision C.01,

 ----------------------------------------------------------------------
 #t hf aug-cc-pvdz symm=none int=(grid=ultrafine) guess=(read,tcheck) s
 table=(opt,rrhf)
 ----------------------------------------------------------------------
 -----
 title
 -----
 Symbolic Z-matrix:
 Charge =  0 Multiplicity = 1

 SCF Done:  E(RHF) =  -306.538689409     A.U. after   17 cycles
 Normal termination of Gaussian 16 at Wed Apr  9 18:35:51 2025.
 Gaussian 16:  ES64L-G16RevC.01  3-Jul-2019

 ----------------------------------------------------------------------
 #t hf aug-cc-pvdz iop(5/13=1,5/36=2,99/5=2) pseudo=read geom=check gue
 ss=(read,tcheck) scf=(maxcycle=1)
 ----------------------------------------------------------------------
 -----
 title
 -----
 Structure from the checkpoint file:  "Grambow2020_wb97xd3_007304_reverse_mol1.chk"
 Charge =  0 Multiplicity = 1

                         Standard orientation:
 ---------------------------------------------------------------------
 Center     Atomic      Atomic             Coordinates (Angstroms)
 Number     Number       Type             X           Y           Z
 ---------------------------------------------------------------------
      1          6           0       -2.456175   -0.967974    0.001033
      2          6           0       -2.202728    0.381113    0.003204
      3          6           0       -0.252374    0.676507   -0.002044
      4          8           0        0.230206    1.730776   -0.001610
      5          6           0        0.326011   -0.782586   -0.004305
      6          6           0        1.573051   -0.909411   -0.001936
      7          6           0        2.865569   -0.248343    0.003218
      8          1           0       -0.604318   -1.424074   -0.005432
      9          1           0       -2.639370   -1.503764   -0.921849
     10          1           0       -2.631407   -1.508971    0.922510
     11          1           0       -2.351643    0.949373    0.916507
     12          1           0       -2.359733    0.953129   -0.906561
     13          1           0        2.727904    0.845961    0.008657
     14          1           0        3.447518   -0.532470    0.881685
     15          1           0        3.449278   -0.521229   -0.877652
 ---------------------------------------------------------------------

 SCF Done:  E(RHF) =  -308.013100388     A.U. after    2 cycles

 The electronic state is 1-A.
 Alpha  occ. eigenvalues --  -21.12378 -11.53183 -11.43830 -11.42834 -11.41891
 Alpha  occ. eigenvalues --  -11.38612 -11.38479  -1.77116  -1.22417  -1.15379
 Alpha  occ. eigenvalues --   -1.03807  -0.87385  -0.81159  -0.68641  -0.65816
 Alpha  occ. eigenvalues --   -0.62160  -0.58287  -0.58125  -0.56770  -0.53847
 Alpha  occ. eigenvalues --   -0.53298  -0.50076  -0.49532  -0.35559  -0.33954
 Alpha  occ. eigenvalues --   -0.24116
 Alpha virt. eigenvalues --    0.03294   0.04844   0.05648   0.05668   0.05942
 Alpha virt. eigenvalues --    0.06506   0.07221   0.07353   0.08232   0.10411
 Alpha virt. eigenvalues --    0.10983   0.11645   0.11852   0.13766   0.13784

 Mulliken charges:
               1
     1  C   -3.035622
     2  C   -3.265928
     3  C    2.950917
     4  O   -3.393817
     5  C   -2.131338
     6  C    3.231104
     7  C   -5.054261
     8  H    1.750143
     9  H    1.327844
    10  H    1.327490
    11  H    1.391553
    12  H    1.389824
    13  H    1.255450
    14  H    1.127487
    15  H    1.129155
 Sum of Mulliken charges =  -0.00000

 Dipole moment (field-independent basis, Debye):
    X=             -0.2654    Y=              2.1524    Z=              0.0059  Tot=              2.1687

 Test job not archived.
 1\1\GINC-SE035\SP\RHF\Aug-CC-pVDZ\C6H8O1\OHZDE\09-Apr-2025\0\\#t hf au
 g-cc-pvdz iop(5/13=1,5/36=2,99/5=2) pseudo=read geom=check guess=(read
 ,tcheck) scf=(maxcycle=1)\\title\\0,1\C,0,-2.40219859,-0.69816316,0.40
 637487\C,0,-2.05648161,0.50342705,-0.1601378\C,0,-0.09330614,0.6942040
 6,-0.1334368\O,0,0.46029436,1.62217224,-0.55387503\C,0,0.38181042,-0.6
 3672909,0.54947441\C,0,1.61485473,-0.79536756,0.70957739\C,0,2.9475953
 9,-0.24780921,0.53174969\H,0,-0.58909208,-1.1782947,0.75214978\H,0,-2.
 56851441,-1.57870253,-0.20135245\H,0,-2.66733948,-0.77078818,1.4537187

 Normal termination of Gaussian 16 at Wed Apr  9 18:35:56 2025.
