 Gaussian 16, Revision C.01,

 ----------------------------------------------------------------------
 #t hf aug-cc-pvdz symm=none int=(grid=ultrafine) guess=(read,tcheck) s
 table=(opt,rrhf)
 ----------------------------------------------------------------------
 -----
 title
 -----
 Symbolic Z-matrix:
 Charge =  0 Multiplicity = 1

 SCF Done:  E(RHF) =  -299.544710117     A.U. after   17 cycles
 Normal termination of Gaussian 16 at Wed Apr  9 17:44:30 2025.
 Gaussian 16:  ES64L-G16RevC.01  3-Jul-2019

 ----------------------------------------------------------------------
 #t hf aug-cc-pvdz iop(5/13=1,5/36=2,99/5=2) pseudo=read geom=check gue
 ss=(read,tcheck) scf=(maxcycle=1)
 ----------------------------------------------------------------------
 -----
 title
 -----
 Structure from the checkpoint file:  "Grambow2020_wb97xd3_006146_forward_mol1.chk"
 Charge =  0 Multiplicity = 1

                         Standard orientation:
 ---------------------------------------------------------------------
 Center     Atomic      Atomic             Coordinates (Angstroms)
 Number     Number       Type             X           Y           Z
 ---------------------------------------------------------------------
      1          7           0       -2.006672    0.109488   -0.093948
      2          6           0       -0.643351    0.170674    0.191628
      3          6           0        0.242703    1.284828    0.011893
      4          6           0        1.481706    0.549072   -0.084891
      5          7           0        1.363498   -0.751034   -0.076904
      6          8           0        0.078502   -1.067585    0.031609
      7          1           0       -2.437479   -0.759113    0.181383
      8          1           0       -2.213672    0.336509   -1.053041
      9          1           0       -0.436540    0.464983    1.286990
     10          1           0        2.475545    0.961676   -0.184021
 ---------------------------------------------------------------------

 SCF Done:  E(RHF) =  -300.870197237     A.U. after    2 cycles

 The electronic state is 1-A.
 Alpha  occ. eigenvalues --  -21.12618 -15.83164 -15.77500 -11.49008 -11.43723
 Alpha  occ. eigenvalues --  -11.40188  -1.92482  -1.37709  -1.28163  -1.14026
 Alpha  occ. eigenvalues --   -0.85227  -0.80059  -0.71826  -0.70753  -0.64287
 Alpha  occ. eigenvalues --   -0.54971  -0.51602  -0.48690  -0.45120  -0.37648
 Alpha  occ. eigenvalues --   -0.35111  -0.34214
 Alpha virt. eigenvalues --    0.02937   0.05297   0.05460   0.06008   0.07534
 Alpha virt. eigenvalues --    0.09863   0.11140   0.11259   0.12203   0.12632
 Alpha virt. eigenvalues --    0.13030   0.15038   0.15921   0.16681   0.17037

 Mulliken charges:
               1
     1  N   -3.014102
     2  C    2.853528
     3  C   -1.609222
     4  C    0.866417
     5  N   -0.507528
     6  O   -2.671134
     7  H    0.659859
     8  H    0.450827
     9  H    1.436686
    10  H    1.534668
 Sum of Mulliken charges =   0.00000

 Dipole moment (field-independent basis, Debye):
    X=             -1.2626    Y=             -2.4261    Z=             -0.3703  Tot=              2.7599

 Test job not archived.
 1\1\GINC-SE162\SP\RHF\Aug-CC-pVDZ\C3H4N2O1\OHZDE\09-Apr-2025\0\\#t hf
 aug-cc-pvdz iop(5/13=1,5/36=2,99/5=2) pseudo=read geom=check guess=(re
 ad,tcheck) scf=(maxcycle=1)\\title\\0,1\N,0,1.76210233,0.16256303,-0.3
 6746535\C,0,0.3878734,-0.04979659,-0.26577862\C,0,-0.6649562,0.9074851
 ,-0.44989739\C,0,-1.68134463,0.24977792,0.33763703\N,0,-1.29486717,-0.
 82891821,0.96322539\O,0,-0.01433091,-1.05109469,0.69108948\H,0,2.30847
 376,-0.67812309,-0.26453408\H,0,2.0891193,0.89260106,0.24437793\H,0,-0
 .07405595,-0.41982591,-1.25517561\H,0,-2.70435993,0.56976938,0.4748592

 Normal termination of Gaussian 16 at Wed Apr  9 17:44:33 2025.
