 Gaussian 16, Revision C.01,

 ----------------------------------------------------------------------
 #t hf aug-cc-pvdz symm=none int=(grid=ultrafine) guess=(read,tcheck) s
 table=(opt,rrhf)
 ----------------------------------------------------------------------
 -----
 title
 -----
 Symbolic Z-matrix:
 Charge =  0 Multiplicity = 1

 SCF Done:  E(RHF) =  -305.837952903     A.U. after   13 cycles
 Normal termination of Gaussian 16 at Wed Apr  9 03:15:30 2025.
 Gaussian 16:  ES64L-G16RevC.01  3-Jul-2019

 ----------------------------------------------------------------------
 #t hf aug-cc-pvdz iop(5/13=1,5/36=2,99/5=2) pseudo=read geom=check gue
 ss=(read,tcheck) scf=(maxcycle=1)
 ----------------------------------------------------------------------
 -----
 title
 -----
 Structure from the checkpoint file:  "Grambow2020_b97d3_006962_reverse_mol2.chk"
 Charge =  0 Multiplicity = 1

                         Standard orientation:
 ---------------------------------------------------------------------
 Center     Atomic      Atomic             Coordinates (Angstroms)
 Number     Number       Type             X           Y           Z
 ---------------------------------------------------------------------
      1          8           0        1.349617   -0.946789   -0.696822
      2          6           0        2.090122    0.065713   -0.169724
      3          6           0        1.729740    0.944456    0.784295
      4          6           0       -2.044202    0.100209    0.217234
      5          6           0       -1.769278    0.933177   -0.791704
      6          8           0       -1.232747   -0.985568    0.505402
      7          1           0        0.475625   -0.974266   -0.241792
      8          1           0       -1.448131   -1.337069    1.386650
      9          1           0        3.076173    0.095715   -0.636758
     10          1           0        2.432394    1.708558    1.108332
     11          1           0        0.741045    0.934841    1.241251
     12          1           0       -2.925206    0.206000    0.853091
     13          1           0       -0.878360    0.810806   -1.404739
     14          1           0       -2.446790    1.752944   -1.015279
 ---------------------------------------------------------------------

 SCF Done:  E(RHF) =  -307.215833031     A.U. after    2 cycles

 The electronic state is 1-A.
 Alpha  occ. eigenvalues --  -21.12210 -21.07512 -11.46340 -11.43797 -11.38482
 Alpha  occ. eigenvalues --  -11.35811  -1.76704  -1.72234  -1.11178  -1.07993
 Alpha  occ. eigenvalues --   -0.82863  -0.81128  -0.71146  -0.62901  -0.60969
 Alpha  occ. eigenvalues --   -0.57875  -0.55461  -0.51381  -0.49259  -0.46532
 Alpha  occ. eigenvalues --   -0.45519  -0.40494  -0.30514  -0.26842
 Alpha virt. eigenvalues --    0.03078   0.04879   0.05133   0.05588   0.06040
 Alpha virt. eigenvalues --    0.07393   0.07867   0.08830   0.10717   0.11632
 Alpha virt. eigenvalues --    0.12622   0.13313   0.13972   0.14681   0.15426

 Mulliken charges:
               1
     1  O   -3.504569
     2  C    0.972625
     3  C   -3.242429
     4  C    0.542952
     5  C   -2.809593
     6  O   -3.214525
     7  H    1.497788
     8  H    1.014814
     9  H    1.612761
    10  H    1.268382
    11  H    1.551157
    12  H    1.464939
    13  H    1.567814
    14  H    1.277884
 Sum of Mulliken charges =   0.00000

 Dipole moment (field-independent basis, Debye):
    X=             -1.7929    Y=             -0.7813    Z=              0.9001  Tot=              2.1529

 Test job not archived.
 1\1\GINC-SE051\SP\RHF\Aug-CC-pVDZ\C4H8O2\OHZDE\09-Apr-2025\0\\#t hf au
 g-cc-pvdz iop(5/13=1,5/36=2,99/5=2) pseudo=read geom=check guess=(read
 ,tcheck) scf=(maxcycle=1)\\title\\0,1\O,0,1.61087677,0.74957408,0.8581
 9668\C,0,1.71557119,-0.58104403,1.12246028\C,0,1.13082674,-1.60275447,
 0.46947019\C,0,-1.45361082,0.83867143,-1.1544349\C,0,-1.94570487,0.657
 02449,0.07529018\O,0,-0.1225762,1.16213975,-1.36449968\H,0,1.04313329,
 0.87382432,0.06201931\H,0,0.10735893,1.03249872,-2.30090957\H,0,2.3668
 6343,-0.74551793,1.98274157\H,0,1.30614451,-2.62463758,0.79748361\H,0,

 Normal termination of Gaussian 16 at Wed Apr  9 03:15:34 2025.
