 Gaussian 16, Revision C.01,

 ----------------------------------------------------------------------
 #t hf aug-cc-pvdz symm=none int=(grid=ultrafine) guess=(read,tcheck) s
 table=(opt,rrhf)
 ----------------------------------------------------------------------
 -----
 title
 -----
 Symbolic Z-matrix:
 Charge =  0 Multiplicity = 1

 SCF Done:  E(RHF) =  -322.521576645     A.U. after   17 cycles
 Normal termination of Gaussian 16 at Wed Apr  9 19:11:00 2025.
 Gaussian 16:  ES64L-G16RevC.01  3-Jul-2019

 ----------------------------------------------------------------------
 #t hf aug-cc-pvdz iop(5/13=1,5/36=2,99/5=2) pseudo=read geom=check gue
 ss=(read,tcheck) scf=(maxcycle=1)
 ----------------------------------------------------------------------
 -----
 title
 -----
 Structure from the checkpoint file:  "Grambow2020_wb97xd3_008262_reverse_mol1.chk"
 Charge =  0 Multiplicity = 1

                         Standard orientation:
 ---------------------------------------------------------------------
 Center     Atomic      Atomic             Coordinates (Angstroms)
 Number     Number       Type             X           Y           Z
 ---------------------------------------------------------------------
      1          6           0        2.049242    0.464527   -0.175888
      2          6           0        0.761830   -0.016702    0.104538
      3          7           0        0.505231   -1.370536    0.515128
      4          6           0       -0.530246   -1.339047   -0.480967
      5          6           0       -1.579649   -0.361125   -0.069112
      6          6           0       -0.556974    0.770510    0.135631
      7          8           0       -0.691870    1.956188    0.097478
      8          1           0        0.924288   -0.179100   -1.091329
      9          1           0        2.909936   -0.157476    0.016428
     10          1           0        2.148955    1.416181   -0.677615
     11          1           0        0.171478   -1.424588    1.474498
     12          1           0       -0.598350   -2.126281   -1.218603
     13          1           0       -2.115557   -0.606085    0.858500
     14          1           0       -2.307623   -0.087377   -0.832809
 ---------------------------------------------------------------------

 SCF Done:  E(RHF) =  -324.025099721     A.U. after    2 cycles

 The electronic state is 1-A.
 Alpha  occ. eigenvalues --  -21.07009 -15.75883 -11.54810 -11.48889 -11.45407
 Alpha  occ. eigenvalues --  -11.41801 -11.39082  -1.72854  -1.50639  -1.15713
 Alpha  occ. eigenvalues --   -1.13083  -0.92311  -0.87583  -0.75704  -0.68320
 Alpha  occ. eigenvalues --   -0.64907  -0.63705  -0.60899  -0.56740  -0.53332
 Alpha  occ. eigenvalues --   -0.50373  -0.47267  -0.43391  -0.40558  -0.28038
 Alpha  occ. eigenvalues --   -0.23062
 Alpha virt. eigenvalues --    0.03462   0.05080   0.05299   0.05770   0.06026
 Alpha virt. eigenvalues --    0.06255   0.06690   0.09314   0.10202   0.11191
 Alpha virt. eigenvalues --    0.11384   0.11990   0.12993   0.13903   0.14692

 Mulliken charges:
               1
     1  C   -3.603101
     2  C    0.969628
     3  N   -3.191228
     4  C   -0.766715
     5  C   -3.711497
     6  C    5.259358
     7  O   -3.601667
     8  H    1.544674
     9  H    1.310682
    10  H    1.413999
    11  H    0.575285
    12  H    1.231785
    13  H    1.265363
    14  H    1.303434
 Sum of Mulliken charges =   0.00000

 Dipole moment (field-independent basis, Debye):
    X=              0.2448    Y=             -0.4109    Z=              0.1987  Tot=              0.5179

 Test job not archived.
 1\1\GINC-SE173\SP\RHF\Aug-CC-pVDZ\C5H7N1O1\OHZDE\09-Apr-2025\0\\#t hf
 aug-cc-pvdz iop(5/13=1,5/36=2,99/5=2) pseudo=read geom=check guess=(re
 ad,tcheck) scf=(maxcycle=1)\\title\\0,1\C,0,-2.02026684,-0.50469842,-0
 .04791771\C,0,-0.62298843,-0.38651083,-0.0119292\N,0,0.16306767,-0.747
 62424,1.13654983\C,0,0.80409192,0.5228225,0.93539624\C,0,1.55222836,0.
 49755886,-0.35567173\C,0,0.32163195,0.02657287,-1.15077399\O,0,0.04921
 901,0.15026439,-2.30661859\H,0,-1.05729077,0.69140667,0.35185515\H,0,-
 2.54128497,-0.98020047,0.76884768\H,0,-2.56063611,-0.02337708,-0.85019

 Normal termination of Gaussian 16 at Wed Apr  9 19:11:04 2025.
