 Gaussian 16, Revision C.01,

 ----------------------------------------------------------------------
 #t hf aug-cc-pvdz symm=none int=(grid=ultrafine) guess=(read,tcheck) s
 table=(opt,rrhf)
 ----------------------------------------------------------------------
 -----
 title
 -----
 Symbolic Z-matrix:
 Charge =  0 Multiplicity = 1

 SCF Done:  E(RHF) =  -394.413563593     A.U. after   14 cycles
 Normal termination of Gaussian 16 at Wed Apr  9 18:30:06 2025.
 Gaussian 16:  ES64L-G16RevC.01  3-Jul-2019

 ----------------------------------------------------------------------
 #t hf aug-cc-pvdz iop(5/13=1,5/36=2,99/5=2) pseudo=read geom=check gue
 ss=(read,tcheck) scf=(maxcycle=1)
 ----------------------------------------------------------------------
 -----
 title
 -----
 Structure from the checkpoint file:  "Grambow2020_wb97xd3_007198_reverse_mol2.chk"
 Charge =  0 Multiplicity = 1

                         Standard orientation:
 ---------------------------------------------------------------------
 Center     Atomic      Atomic             Coordinates (Angstroms)
 Number     Number       Type             X           Y           Z
 ---------------------------------------------------------------------
      1          7           0        0.415200    1.592629   -0.001007
      2          6           0       -0.065440    0.374597    0.012762
      3          8           0       -1.421594    0.473982   -0.003962
      4          6           0       -2.081803   -0.726484    0.007545
      5          8           0       -3.263839   -0.777437   -0.008530
      6          6           0        3.160399   -0.059449    0.004371
      7          8           0        3.578972   -1.100450   -0.007559
      8          1           0       -0.168974    2.420404   -0.019788
      9          1           0       -1.380306   -1.571708    0.032492
     10          1           0        1.415628    1.702154    0.006682
 ---------------------------------------------------------------------

 SCF Done:  E(RHF) =  -396.061922552     A.U. after    2 cycles

 The electronic state is 1-A.
 Alpha  occ. eigenvalues --  -21.18622 -21.12402 -21.07384 -15.81007 -11.51987
 Alpha  occ. eigenvalues --  -11.51709 -11.43554  -1.87691  -1.81427  -1.69523
 Alpha  occ. eigenvalues --   -1.37573  -0.92695  -0.83459  -0.74470  -0.72663
 Alpha  occ. eigenvalues --   -0.66905  -0.58648  -0.56160  -0.53690  -0.53654
 Alpha  occ. eigenvalues --   -0.52252  -0.50961  -0.48867  -0.35320  -0.35228
 Alpha  occ. eigenvalues --   -0.32145
 Alpha virt. eigenvalues --    0.03678   0.05739   0.05971   0.09121   0.09161
 Alpha virt. eigenvalues --    0.10497   0.10512   0.11188   0.12606   0.13352
 Alpha virt. eigenvalues --    0.13362   0.15341   0.15501   0.16251   0.16585

 Mulliken charges:
               1
     1  N   -2.452725
     2  C    1.737127
     3  O   -2.554936
     4  C    2.747035
     5  O   -2.535461
     6  C    1.051746
     7  O   -1.203814
     8  H    0.721687
     9  H    1.512201
    10  H    0.977140
 Sum of Mulliken charges =  -0.00000

 Dipole moment (field-independent basis, Debye):
    X=              2.1037    Y=              1.1832    Z=             -0.0406  Tot=              2.4139

 Test job not archived.
 1\1\GINC-SE232\SP\RHF\Aug-CC-pVDZ\C3H3N1O3\OHZDE\09-Apr-2025\0\\#t hf
 aug-cc-pvdz iop(5/13=1,5/36=2,99/5=2) pseudo=read geom=check guess=(re
 ad,tcheck) scf=(maxcycle=1)\\title\\0,1\N,0,-0.91610904,0.93360886,-0.
 55174297\C,0,0.01494437,0.14230481,-0.08080283\O,0,1.20872596,0.767199
 38,-0.26438422\C,0,2.29606439,0.06218856,0.18034257\O,0,3.39203139,0.4
 9731389,0.0824294\C,0,-2.74885802,-1.48083726,0.48603807\O,0,-2.710582
 7,-2.47538589,1.00414595\H,0,-0.71996989,1.83678799,-0.9672178\H,0,2.0
 0062168,-0.90425767,0.61141003\H,0,-1.87101215,0.62117932,-0.49293519\

 Normal termination of Gaussian 16 at Wed Apr  9 18:30:09 2025.
