 Gaussian 16, Revision C.01,

 ----------------------------------------------------------------------
 #t hf aug-cc-pvdz symm=none int=(grid=ultrafine) guess=(read,tcheck) s
 table=(opt,rrhf)
 ----------------------------------------------------------------------
 -----
 title
 -----
 Symbolic Z-matrix:
 Charge =  0 Multiplicity = 1

 SCF Done:  E(RHF) =  -306.534824876     A.U. after   18 cycles
 Normal termination of Gaussian 16 at Wed Apr  9 03:59:49 2025.
 Gaussian 16:  ES64L-G16RevC.01  3-Jul-2019

 ----------------------------------------------------------------------
 #t hf aug-cc-pvdz iop(5/13=1,5/36=2,99/5=2) pseudo=read geom=check gue
 ss=(read,tcheck) scf=(maxcycle=1)
 ----------------------------------------------------------------------
 -----
 title
 -----
 Structure from the checkpoint file:  "Grambow2020_wb97xd3_008783_reverse_mol1.chk"
 Charge =  0 Multiplicity = 1

                         Standard orientation:
 ---------------------------------------------------------------------
 Center     Atomic      Atomic             Coordinates (Angstroms)
 Number     Number       Type             X           Y           Z
 ---------------------------------------------------------------------
      1          8           0        2.365293    0.149582    0.418587
      2          6           0        1.338490   -0.195066   -0.046407
      3          6           0       -0.048135    1.456947   -0.319368
      4          6           0       -1.331629    0.743209   -0.281063
      5          6           0       -1.548207   -0.250219    0.815526
      6          6           0       -0.908971   -1.151800   -0.162683
      7          6           0        0.467023   -1.199213   -0.397926
      8          1           0        0.419088    1.796217    0.599149
      9          1           0        0.309861    1.876754   -1.249338
     10          1           0       -1.165993    2.058015   -0.051207
     11          1           0       -2.011915    0.789003   -1.117974
     12          1           0       -0.991860   -0.036252    1.726542
     13          1           0       -2.587260   -0.471965    1.039137
     14          1           0       -1.549574   -1.800558   -0.746080
     15          1           0        0.843873   -1.831017   -1.197405
 ---------------------------------------------------------------------

 SCF Done:  E(RHF) =  -308.009283167     A.U. after    2 cycles

 The electronic state is 1-A.
 Alpha  occ. eigenvalues --  -21.07518 -11.49430 -11.47763 -11.44834 -11.42612
 Alpha  occ. eigenvalues --  -11.40336 -11.37651  -1.71902  -1.34620  -1.13585
 Alpha  occ. eigenvalues --   -1.06598  -0.86543  -0.83837  -0.71710  -0.69367
 Alpha  occ. eigenvalues --   -0.62845  -0.61586  -0.57299  -0.56035  -0.52990
 Alpha  occ. eigenvalues --   -0.50487  -0.47266  -0.45978  -0.41127  -0.32511
 Alpha  occ. eigenvalues --   -0.19624
 Alpha virt. eigenvalues --    0.03405   0.05016   0.05027   0.05165   0.05420
 Alpha virt. eigenvalues --    0.05975   0.06908   0.07789   0.10469   0.10940
 Alpha virt. eigenvalues --    0.11740   0.13282   0.13419   0.13925   0.14192

 Mulliken charges:
               1
     1  O   -3.110157
     2  C    2.995042
     3  C   -3.712256
     4  C   -1.167186
     5  C   -3.548947
     6  C   -0.455181
     7  C   -1.390414
     8  H    1.313052
     9  H    1.233158
    10  H    1.337190
    11  H    1.224813
    12  H    1.359757
    13  H    1.279785
    14  H    1.330204
    15  H    1.311141
 Sum of Mulliken charges =  -0.00000

 Dipole moment (field-independent basis, Debye):
    X=             -1.8499    Y=              0.9471    Z=             -0.3151  Tot=              2.1020

 Test job not archived.
 1\1\GINC-SE423\SP\RHF\Aug-CC-pVDZ\C6H8O1\OHZDE\09-Apr-2025\0\\#t hf au
 g-cc-pvdz iop(5/13=1,5/36=2,99/5=2) pseudo=read geom=check guess=(read
 ,tcheck) scf=(maxcycle=1)\\title\\0,1\O,0,0.82955024,-2.58096039,-0.82
 799981\C,0,0.83919398,-1.57267276,-0.21759862\C,0,-1.1586985,-0.784955
 87,0.12050033\C,0,-0.86228228,0.64413829,0.28805625\C,0,0.04584697,1.2
 9256234,-0.70751425\C,0,1.07446049,0.81822322,0.23869895\C,0,1.5270324
 ,-0.50162063,0.3030328\H,0,-1.32047125,-1.19985039,-0.86882617\H,0,-1.
 47345741,-1.37537993,0.96995252\H,0,-2.06102283,0.13243149,-0.0438467\

 Normal termination of Gaussian 16 at Wed Apr  9 03:59:54 2025.
