 Gaussian 16, Revision C.01,

 ----------------------------------------------------------------------
 #t hf aug-cc-pvdz symm=none int=(grid=ultrafine) guess=(read,tcheck) s
 table=(opt,rrhf)
 ----------------------------------------------------------------------
 -----
 title
 -----
 Symbolic Z-matrix:
 Charge =  0 Multiplicity = 1

 SCF Done:  E(RHF) =  -284.783780095     A.U. after   15 cycles
 Normal termination of Gaussian 16 at Wed Apr  9 17:39:38 2025.
 Gaussian 16:  ES64L-G16RevC.01  3-Jul-2019

 ----------------------------------------------------------------------
 #t hf aug-cc-pvdz iop(5/13=1,5/36=2,99/5=2) pseudo=read geom=check gue
 ss=(read,tcheck) scf=(maxcycle=1)
 ----------------------------------------------------------------------
 -----
 title
 -----
 Structure from the checkpoint file:  "Grambow2020_b97d3_007214_reverse_mol1.chk"
 Charge =  0 Multiplicity = 1

                         Standard orientation:
 ---------------------------------------------------------------------
 Center     Atomic      Atomic             Coordinates (Angstroms)
 Number     Number       Type             X           Y           Z
 ---------------------------------------------------------------------
      1          6           0        2.557761   -0.177606   -0.266346
      2          6           0        1.183178   -0.373687    0.347190
      3          8           0        0.304225    0.629764   -0.231454
      4          6           0       -0.882673    0.790428    0.353358
      5          6           0       -1.904220   -0.907015    0.271411
      6          7           0       -2.359575   -0.197749   -0.585228
      7          1           0        2.940967    0.827937   -0.048231
      8          1           0        3.257379   -0.914480    0.149630
      9          1           0        2.519381   -0.309485   -1.355014
     10          1           0        1.202533   -0.240092    1.440135
     11          1           0        0.755000   -1.361667    0.126680
     12          1           0       -1.398613    1.661889   -0.039565
     13          1           0       -0.917698    0.689314    1.440919
 ---------------------------------------------------------------------

 SCF Done:  E(RHF) =  -286.102021208     A.U. after    2 cycles

 The electronic state is 1-A.
 Alpha  occ. eigenvalues --  -21.10610 -15.75913 -11.51213 -11.45928 -11.38642
 Alpha  occ. eigenvalues --  -11.38057  -1.81894  -1.32278  -1.15403  -0.97821
 Alpha  occ. eigenvalues --   -0.89198  -0.71945  -0.67638  -0.65788  -0.59180
 Alpha  occ. eigenvalues --   -0.56610  -0.54139  -0.51321  -0.50779  -0.43900
 Alpha  occ. eigenvalues --   -0.42893  -0.41226  -0.34567
 Alpha virt. eigenvalues --    0.03472   0.04561   0.05293   0.05457   0.05854
 Alpha virt. eigenvalues --    0.07002   0.07318   0.09003   0.10377   0.12192
 Alpha virt. eigenvalues --    0.12455   0.13827   0.14099   0.14601   0.14816

 Mulliken charges:
               1
     1  C   -3.666296
     2  C   -1.696224
     3  O   -2.859143
     4  C   -1.135591
     5  C    0.564880
     6  N   -1.034083
     7  H    1.249257
     8  H    1.137526
     9  H    1.286601
    10  H    1.618435
    11  H    1.622527
    12  H    1.326598
    13  H    1.585512
 Sum of Mulliken charges =  -0.00000

 Dipole moment (field-independent basis, Debye):
    X=              3.4664    Y=              2.2519    Z=              0.7787  Tot=              4.2063

 Test job not archived.
 1\1\GINC-SE113\SP\RHF\Aug-CC-pVDZ\C4H7N1O1\OHZDE\09-Apr-2025\0\\#t hf
 aug-cc-pvdz iop(5/13=1,5/36=2,99/5=2) pseudo=read geom=check guess=(re
 ad,tcheck) scf=(maxcycle=1)\\title\\0,1\C,0,-1.93636503,-0.64004467,-0
 .02507043\C,0,-0.62565071,-0.13361096,-0.59944243\O,0,0.26124479,0.137
 34606,0.52051242\C,0,1.37190958,0.82219539,0.24857242\C,0,2.474254,-0.
 18220527,-1.0581797\N,0,2.98299756,-0.35646449,0.0165524\H,0,-2.386573
 57,0.1110984,0.63722522\H,0,-2.64052815,-0.8519507,-0.84038332\H,0,-1.
 77855296,-1.56264808,0.54760913\H,0,-0.76508845,0.7954803,-1.17398402\

 Normal termination of Gaussian 16 at Wed Apr  9 17:39:42 2025.
