 Gaussian 16, Revision C.01,

 ----------------------------------------------------------------------
 #t hf aug-cc-pvdz symm=none int=(grid=ultrafine) guess=(read,tcheck) s
 table=(opt,rrhf)
 ----------------------------------------------------------------------
 -----
 title
 -----
 Symbolic Z-matrix:
 Charge =  0 Multiplicity = 1

 SCF Done:  E(RHF) =  -342.392389071     A.U. after   17 cycles
 Normal termination of Gaussian 16 at Wed Apr  9 19:25:07 2025.
 Gaussian 16:  ES64L-G16RevC.01  3-Jul-2019

 ----------------------------------------------------------------------
 #t hf aug-cc-pvdz iop(5/13=1,5/36=2,99/5=2) pseudo=read geom=check gue
 ss=(read,tcheck) scf=(maxcycle=1)
 ----------------------------------------------------------------------
 -----
 title
 -----
 Structure from the checkpoint file:  "Grambow2020_wb97xd3_008945_forward_mol1.chk"
 Charge =  0 Multiplicity = 1

                         Standard orientation:
 ---------------------------------------------------------------------
 Center     Atomic      Atomic             Coordinates (Angstroms)
 Number     Number       Type             X           Y           Z
 ---------------------------------------------------------------------
      1          8           0       -1.945462   -0.696394   -0.472905
      2          6           0       -1.097355   -0.142339    0.085512
      3          6           0       -0.076580    1.420452   -0.661721
      4          6           0        0.679918    0.662648    0.223811
      5          6           0        1.782479   -0.245581   -0.089290
      6          8           0        0.804917   -1.190490   -0.358974
      7          6           0       -0.335343    0.208157    1.283711
      8          1           0       -0.831592    2.086152   -0.260312
      9          1           0        0.243933    1.596654   -1.680464
     10          1           0        2.375602    0.076814   -0.954802
     11          1           0        2.451127   -0.485368    0.749201
     12          1           0       -0.060561   -0.635501    1.906739
     13          1           0       -0.772873    1.036297    1.842535
 ---------------------------------------------------------------------

 SCF Done:  E(RHF) =  -343.954686516     A.U. after    2 cycles

 The electronic state is 1-A.
 Alpha  occ. eigenvalues --  -21.12873 -20.96254 -11.59303 -11.51752 -11.48290
 Alpha  occ. eigenvalues --  -11.43263 -11.40697  -1.78046  -1.64930  -1.32375
 Alpha  occ. eigenvalues --   -1.06186  -0.97712  -0.81749  -0.78271  -0.70405
 Alpha  occ. eigenvalues --   -0.66301  -0.60087  -0.58180  -0.56833  -0.56296
 Alpha  occ. eigenvalues --   -0.51242  -0.47407  -0.42219  -0.32967  -0.25522
 Alpha  occ. eigenvalues --   -0.22142
 Alpha virt. eigenvalues --    0.02933   0.04723   0.04971   0.05452   0.06071
 Alpha virt. eigenvalues --    0.06999   0.07794   0.08755   0.11094   0.11887
 Alpha virt. eigenvalues --    0.12341   0.12840   0.13240   0.13445   0.14475

 Mulliken charges:
               1
     1  O   -3.219160
     2  C    4.120416
     3  C   -3.036645
     4  C    0.233532
     5  C   -1.376942
     6  O   -1.872287
     7  C   -2.936705
     8  H    1.271382
     9  H    1.375158
    10  H    1.287344
    11  H    1.385568
    12  H    1.541843
    13  H    1.226498
 Sum of Mulliken charges =  -0.00000

 Dipole moment (field-independent basis, Debye):
    X=             -1.0441    Y=              1.2126    Z=              1.6931  Tot=              2.3296

 Test job not archived.
 1\1\GINC-SE113\SP\RHF\Aug-CC-pVDZ\C5H6O2\OHZDE\09-Apr-2025\0\\#t hf au
 g-cc-pvdz iop(5/13=1,5/36=2,99/5=2) pseudo=read geom=check guess=(read
 ,tcheck) scf=(maxcycle=1)\\title\\0,1\O,0,-1.93769306,-0.16036545,-1.4
 9674282\C,0,-1.19685584,-0.34376618,-0.62748046\C,0,-0.65359183,1.0503
 2871,0.71565652\C,0,0.34233095,0.10756915,0.49190747\C,0,1.59459952,0.
 2840546,-0.24241508\O,0,0.84920747,0.04638501,-1.38658051\C,0,-0.42990
 409,-1.20276607,0.27423718\H,0,-1.50376425,0.77105926,1.32684\H,0,-0.4
 8264964,2.10830758,0.56376395\H,0,2.00877411,1.29668102,-0.15358056\H,

 Normal termination of Gaussian 16 at Wed Apr  9 19:25:10 2025.
