 Gaussian 16, Revision C.01,

 ----------------------------------------------------------------------
 #t hf aug-cc-pvdz symm=none int=(grid=ultrafine) guess=(read,tcheck) s
 table=(opt,rrhf)
 ----------------------------------------------------------------------
 -----
 title
 -----
 Symbolic Z-matrix:
 Charge =  0 Multiplicity = 1

 SCF Done:  E(RHF) =  -302.678337464     A.U. after   16 cycles
 Normal termination of Gaussian 16 at Wed Apr  9 18:28:30 2025.
 Gaussian 16:  ES64L-G16RevC.01  3-Jul-2019

 ----------------------------------------------------------------------
 #t hf aug-cc-pvdz iop(5/13=1,5/36=2,99/5=2) pseudo=read geom=check gue
 ss=(read,tcheck) scf=(maxcycle=1)
 ----------------------------------------------------------------------
 -----
 title
 -----
 Structure from the checkpoint file:  "Grambow2020_wb97xd3_007172_reverse_mol1.chk"
 Charge =  0 Multiplicity = 1

                         Standard orientation:
 ---------------------------------------------------------------------
 Center     Atomic      Atomic             Coordinates (Angstroms)
 Number     Number       Type             X           Y           Z
 ---------------------------------------------------------------------
      1          6           0        2.557933   -0.277878   -0.236234
      2          6           0        1.064176   -0.182955   -0.376641
      3          6           0        0.142449   -0.641775    0.680585
      4          7           0        0.407398    0.802551    0.479831
      5          6           0       -0.864717    1.244868   -0.079249
      6          6           0       -1.581807   -0.080828   -0.089077
      7          7           0       -2.469141   -0.866910   -0.298263
      8          1           0        3.054214    0.505309   -0.813236
      9          1           0        2.915337   -1.245872   -0.593264
     10          1           0        2.848537   -0.165741    0.808765
     11          1           0        0.700225   -0.249262   -1.402840
     12          1           0       -1.329164   -1.289206    0.204354
     13          1           0        0.508751   -1.107665    1.592915
     14          1           0       -1.375793    1.927115    0.603338
     15          1           0       -0.798104    1.707234   -1.067311
 ---------------------------------------------------------------------

 SCF Done:  E(RHF) =  -304.150475420     A.U. after    2 cycles

 The electronic state is 1-A.
 Alpha  occ. eigenvalues --  -15.76589 -15.73137 -11.53215 -11.47608 -11.44912
 Alpha  occ. eigenvalues --  -11.40051 -11.37357  -1.53820  -1.37108  -1.14837
 Alpha  occ. eigenvalues --   -1.03733  -0.89755  -0.84078  -0.75984  -0.70090
 Alpha  occ. eigenvalues --   -0.65137  -0.61013  -0.59058  -0.56184  -0.54024
 Alpha  occ. eigenvalues --   -0.51183  -0.47120  -0.43846  -0.41324  -0.34260
 Alpha  occ. eigenvalues --   -0.29365
 Alpha virt. eigenvalues --    0.03922   0.05215   0.05509   0.06012   0.06148
 Alpha virt. eigenvalues --    0.06484   0.06611   0.07592   0.09260   0.11139
 Alpha virt. eigenvalues --    0.11636   0.12429   0.12831   0.13507   0.13901

 Mulliken charges:
               1
     1  C   -3.995304
     2  C    0.256787
     3  C   -1.794672
     4  N   -1.880617
     5  C   -2.845183
     6  C    2.548954
     7  N   -2.655663
     8  H    1.174952
     9  H    1.196212
    10  H    1.237513
    11  H    1.557843
    12  H    1.117720
    13  H    1.228602
    14  H    1.376071
    15  H    1.476783
 Sum of Mulliken charges =  -0.00000

 Dipole moment (field-independent basis, Debye):
    X=              0.8956    Y=              1.0292    Z=             -0.4890  Tot=              1.4493

 Test job not archived.
 1\1\GINC-SE104\SP\RHF\Aug-CC-pVDZ\C5H8N2\OHZDE\09-Apr-2025\0\\#t hf au
 g-cc-pvdz iop(5/13=1,5/36=2,99/5=2) pseudo=read geom=check guess=(read
 ,tcheck) scf=(maxcycle=1)\\title\\0,1\C,0,-1.93032414,-0.97831219,0.38
 75619\C,0,-0.5267625,-0.58150208,0.02342932\C,0,-0.21798696,0.6955426,
 -0.64861056\N,0,0.04366943,0.51790431,0.79933906\C,0,1.5010605,0.47077
 389,0.81614394\C,0,1.75022341,0.61783173,-0.6630707\N,0,2.38012336,0.6
 7627466,-1.68720789\H,0,-1.93577079,-1.63514352,1.26000083\H,0,-2.4065
 9526,-1.50530192,-0.44169677\H,0,-2.52499434,-0.09527921,0.62350239\H,

 Normal termination of Gaussian 16 at Wed Apr  9 18:28:35 2025.
