 Gaussian 16, Revision C.01,

 ----------------------------------------------------------------------
 #t hf aug-cc-pvdz symm=none int=(grid=ultrafine) guess=(read,tcheck) s
 table=(opt,rrhf)
 ----------------------------------------------------------------------
 -----
 title
 -----
 Symbolic Z-matrix:
 Charge =  0 Multiplicity = 1

 SCF Done:  E(RHF) =  -323.696272026     A.U. after   15 cycles
 Normal termination of Gaussian 16 at Wed Apr  9 18:16:21 2025.
 Gaussian 16:  ES64L-G16RevC.01  3-Jul-2019

 ----------------------------------------------------------------------
 #t hf aug-cc-pvdz iop(5/13=1,5/36=2,99/5=2) pseudo=read geom=check gue
 ss=(read,tcheck) scf=(maxcycle=1)
 ----------------------------------------------------------------------
 -----
 title
 -----
 Structure from the checkpoint file:  "Grambow2020_wb97xd3_006823_reverse_mol2.chk"
 Charge =  0 Multiplicity = 1

                         Standard orientation:
 ---------------------------------------------------------------------
 Center     Atomic      Atomic             Coordinates (Angstroms)
 Number     Number       Type             X           Y           Z
 ---------------------------------------------------------------------
      1          6           0       -3.205778   -0.619584    0.084699
      2          6           0       -0.271204    1.023168   -0.632171
      3          6           0        0.135371    2.080502    0.300766
      4          6           0        1.342622    1.156888    0.024110
      5          6           0        0.316134   -0.123386   -0.223713
      6          7           0        0.436470   -1.354857   -0.018970
      7          8           0        1.787721   -1.727372    0.084829
      8          1           0       -3.215488   -0.001866    0.982319
      9          1           0       -2.369275   -1.315801    0.130562
     10          1           0       -4.140783   -1.174538    0.020381
     11          1           0       -3.099977    0.016507   -0.793678
     12          1           0        0.140083    3.084933   -0.106792
     13          1           0       -0.143976    2.036841    1.351927
     14          1           0        1.768558    0.798932    0.959311
     15          1           0        2.072549    1.408017   -0.731726
     16          1           0        1.728379   -2.655574    0.319715
 ---------------------------------------------------------------------

 SCF Done:  E(RHF) =  -325.216005197     A.U. after    2 cycles

 The electronic state is 1-A.
 Alpha  occ. eigenvalues --  -21.10039 -15.76948 -11.49408 -11.46591 -11.44560
 Alpha  occ. eigenvalues --  -11.41036 -11.34660  -1.78736  -1.40958  -1.20892
 Alpha  occ. eigenvalues --   -1.01924  -0.94642  -0.91931  -0.71535  -0.66745
 Alpha  occ. eigenvalues --   -0.64484  -0.58855  -0.55254  -0.53771  -0.52782
 Alpha  occ. eigenvalues --   -0.52581  -0.52432  -0.51867  -0.46775  -0.38555
 Alpha  occ. eigenvalues --   -0.34473  -0.26117
 Alpha virt. eigenvalues --    0.03633   0.04859   0.05401   0.05459   0.05979
 Alpha virt. eigenvalues --    0.06180   0.07370   0.08253   0.08762   0.09472
 Alpha virt. eigenvalues --    0.11761   0.12178   0.12696   0.13698   0.14271

 Mulliken charges:
               1
     1  C   -5.311984
     2  C   -0.813079
     3  C   -2.802015
     4  C   -3.007443
     5  C    4.194608
     6  N   -1.328111
     7  O   -2.310741
     8  H    1.284979
     9  H    1.508595
    10  H    1.179963
    11  H    1.331183
    12  H    1.426737
    13  H    1.258555
    14  H    1.295916
    15  H    1.210145
    16  H    0.882691
 Sum of Mulliken charges =  -0.00000

 Dipole moment (field-independent basis, Debye):
    X=              2.0203    Y=              1.0808    Z=              1.9021  Tot=              2.9779

 Test job not archived.
 1\1\GINC-SE174\SP\RHF\Aug-CC-pVDZ\C5H9N1O1\OHZDE\09-Apr-2025\0\\#t hf
 aug-cc-pvdz iop(5/13=1,5/36=2,99/5=2) pseudo=read geom=check guess=(re
 ad,tcheck) scf=(maxcycle=1)\\title\\0,1\C,0,-1.99321581,-2.09283281,-0
 .44173808\C,0,0.01831328,0.6527054,-0.93166836\C,0,-0.4325412,1.913733
 08,-0.33152551\C,0,1.05760429,1.69322432,0.01184367\C,0,0.83395996,0.0
 4956342,-0.03873489\N,0,1.37331721,-0.89617322,0.58383821\O,0,2.611335
 15,-0.51197407,1.12709032\H,0,-2.592217,-1.4197628,0.17109616\H,0,-1.0
 2513316,-2.25209199,0.0315612\H,0,-2.51251334,-3.04496184,-0.54236826\

 Normal termination of Gaussian 16 at Wed Apr  9 18:16:26 2025.
