 Gaussian 16, Revision C.01,

 ----------------------------------------------------------------------
 #t hf aug-cc-pvdz symm=none int=(grid=ultrafine) guess=(read,tcheck) s
 table=(opt,rrhf)
 ----------------------------------------------------------------------
 -----
 title
 -----
 Symbolic Z-matrix:
 Charge =  0 Multiplicity = 1

 SCF Done:  E(RHF) =  -295.755446459     A.U. after   15 cycles
 Normal termination of Gaussian 16 at Wed Apr  9 16:18:40 2025.
 Gaussian 16:  ES64L-G16RevC.01  3-Jul-2019

 ----------------------------------------------------------------------
 #t hf aug-cc-pvdz iop(5/13=1,5/36=2,99/5=2) pseudo=read geom=check gue
 ss=(read,tcheck) scf=(maxcycle=1)
 ----------------------------------------------------------------------
 -----
 title
 -----
 Structure from the checkpoint file:  "Grambow2020_b97d3_006784_forward_mol1.chk"
 Charge =  0 Multiplicity = 1

                         Standard orientation:
 ---------------------------------------------------------------------
 Center     Atomic      Atomic             Coordinates (Angstroms)
 Number     Number       Type             X           Y           Z
 ---------------------------------------------------------------------
      1          7           0        1.969636   -0.006271   -0.197795
      2          6           0        0.694987    0.215395    0.124287
      3          7           0        0.100947   -1.018881    0.214952
      4          7           0       -1.223000   -0.766636   -0.152127
      5          6           0       -1.365625    0.597999   -0.065360
      6          7           0       -0.229301    1.247606    0.091727
      7          1           0        2.684186    0.624501    0.168314
      8          1           0        1.299504   -1.323503   -0.178762
      9          1           0       -1.940575   -1.431764    0.127657
     10          1           0       -2.347259    1.059684   -0.168074
 ---------------------------------------------------------------------

 SCF Done:  E(RHF) =  -297.104525394     A.U. after    2 cycles

 The electronic state is 1-A.
 Alpha  occ. eigenvalues --  -15.82047 -15.74721 -15.74667 -15.71179 -11.49172
 Alpha  occ. eigenvalues --  -11.46477  -1.65100  -1.35703  -1.32213  -1.12852
 Alpha  occ. eigenvalues --   -0.90819  -0.79490  -0.77151  -0.67110  -0.63703
 Alpha  occ. eigenvalues --   -0.56048  -0.52671  -0.47303  -0.43072  -0.39993
 Alpha  occ. eigenvalues --   -0.36624  -0.28968
 Alpha virt. eigenvalues --    0.03018   0.05013   0.05779   0.07433   0.09364
 Alpha virt. eigenvalues --    0.10221   0.11295   0.12232   0.12923   0.14137
 Alpha virt. eigenvalues --    0.14417   0.15722   0.16192   0.17641   0.18308

 Mulliken charges:
               1
     1  N   -2.855168
     2  C    4.193701
     3  N   -1.733716
     4  N   -1.545508
     5  C    1.013859
     6  N   -2.761136
     7  H    0.742810
     8  H    0.638073
     9  H    0.835391
    10  H    1.471694
 Sum of Mulliken charges =  -0.00000

 Dipole moment (field-independent basis, Debye):
    X=             -3.5699    Y=             -1.2129    Z=              0.4342  Tot=              3.7952

 Test job not archived.
 1\1\GINC-SE168\SP\RHF\Aug-CC-pVDZ\C2H4N4\OHZDE\09-Apr-2025\0\\#t hf au
 g-cc-pvdz iop(5/13=1,5/36=2,99/5=2) pseudo=read geom=check guess=(read
 ,tcheck) scf=(maxcycle=1)\\title\\0,1\N,0,1.97626924,0.0445194,-0.3622
 8957\C,0,0.73577192,0.2783038,0.06679393\N,0,0.13944861,-0.95019727,0.
 20724184\N,0,-1.20831528,-0.68462525,-0.0461642\C,0,-1.32963689,0.6812
 4696,0.05269189\N,0,-0.17774934,1.31954066,0.11297732\H,0,2.72546539,0
 .66788403,-0.05796478\H,0,1.29724151,-1.26611295,-0.28677961\H,0,-1.90
 608419,-1.34299659,0.29332519\H,0,-2.31185598,1.15262123,0.03370998\\V

 Normal termination of Gaussian 16 at Wed Apr  9 16:18:43 2025.
