 Gaussian 16, Revision C.01,

 ----------------------------------------------------------------------
 #t hf aug-cc-pvdz symm=none int=(grid=ultrafine) guess=(read,tcheck) s
 table=(opt,rrhf)
 ----------------------------------------------------------------------
 -----
 title
 -----
 Symbolic Z-matrix:
 Charge =  0 Multiplicity = 1

 SCF Done:  E(RHF) =  -359.652947124     A.U. after   16 cycles
 Normal termination of Gaussian 16 at Wed Apr  9 04:05:49 2025.
 Gaussian 16:  ES64L-G16RevC.01  3-Jul-2019

 ----------------------------------------------------------------------
 #t hf aug-cc-pvdz iop(5/13=1,5/36=2,99/5=2) pseudo=read geom=check gue
 ss=(read,tcheck) scf=(maxcycle=1)
 ----------------------------------------------------------------------
 -----
 title
 -----
 Structure from the checkpoint file:  "Grambow2020_wb97xd3_009255_forward_mol1.chk"
 Charge =  0 Multiplicity = 1

                         Standard orientation:
 ---------------------------------------------------------------------
 Center     Atomic      Atomic             Coordinates (Angstroms)
 Number     Number       Type             X           Y           Z
 ---------------------------------------------------------------------
      1          6           0       -0.841228    1.621677    0.403251
      2          6           0       -0.269863    0.243142    0.226444
      3          6           0       -1.204586   -0.793457   -0.219314
      4          8           0       -2.402715   -0.643413   -0.283721
      5          6           0        1.112571    0.105276   -0.177536
      6          8           0        1.936216    0.830683   -0.639708
      7          7           0        1.483506   -1.242844    0.462995
      8          1           0       -1.116260    2.066244   -0.556481
      9          1           0       -1.748045    1.563900    1.003747
     10          1           0       -0.127167    2.282425    0.894678
     11          1           0        0.382036   -0.858739    1.021468
     12          1           0       -0.765081   -1.778157   -0.491012
     13          1           0        2.294025   -1.125479    1.060469
     14          1           0        1.646575   -2.008285   -0.183472
 ---------------------------------------------------------------------

 SCF Done:  E(RHF) =  -361.277146344     A.U. after    2 cycles

 The electronic state is 1-A.
 Alpha  occ. eigenvalues --  -21.08348 -21.03557 -15.82745 -11.54787 -11.48540
 Alpha  occ. eigenvalues --  -11.40399 -11.37326  -1.75421  -1.69138  -1.41969
 Alpha  occ. eigenvalues --   -1.19036  -1.00525  -0.87531  -0.75395  -0.74120
 Alpha  occ. eigenvalues --   -0.68571  -0.67555  -0.57788  -0.54016  -0.52422
 Alpha  occ. eigenvalues --   -0.51387  -0.48706  -0.46615  -0.44696  -0.34107
 Alpha  occ. eigenvalues --   -0.28216  -0.26656
 Alpha virt. eigenvalues --    0.02323   0.04114   0.04758   0.06193   0.06750
 Alpha virt. eigenvalues --    0.07300   0.07658   0.08593   0.10731   0.11387
 Alpha virt. eigenvalues --    0.12052   0.13020   0.13745   0.14151   0.15021

 Mulliken charges:
               1
     1  C   -4.727871
     2  C   -0.958148
     3  C    2.304589
     4  O   -3.118503
     5  C    4.930948
     6  O   -3.369755
     7  N   -2.572521
     8  H    1.118834
     9  H    1.128901
    10  H    1.155167
    11  H    1.616065
    12  H    1.187853
    13  H    0.564613
    14  H    0.739827
 Sum of Mulliken charges =  -0.00000

 Dipole moment (field-independent basis, Debye):
    X=              3.4470    Y=             -1.8912    Z=              0.8528  Tot=              4.0231

 Test job not archived.
 1\1\GINC-SE150\SP\RHF\Aug-CC-pVDZ\C4H7N1O2\OHZDE\09-Apr-2025\0\\#t hf
 aug-cc-pvdz iop(5/13=1,5/36=2,99/5=2) pseudo=read geom=check guess=(re
 ad,tcheck) scf=(maxcycle=1)\\title\\0,1\C,0,-1.13267512,-1.04013023,0.
 98667004\C,0,-0.33180593,-0.11301285,0.11653194\C,0,-1.00140455,1.1203
 308,-0.30471\O,0,-2.17835905,1.34304033,-0.13931738\C,0,1.10430582,-0.
 06172496,0.2847043\O,0,1.87300998,-0.42670928,1.11782541\N,0,1.5627231
 5,0.32379154,-1.13181602\H,0,-1.30149362,-0.61162487,1.97775529\H,0,-2
 .11028424,-1.20599552,0.53609173\H,0,-0.62712301,-1.99792101,1.1092467

 Normal termination of Gaussian 16 at Wed Apr  9 04:05:54 2025.
