 Gaussian 16, Revision C.01,

 ----------------------------------------------------------------------
 #t hf aug-cc-pvdz symm=none int=(grid=ultrafine) guess=(read,tcheck) s
 table=(opt,rrhf)
 ----------------------------------------------------------------------
 -----
 title
 -----
 Symbolic Z-matrix:
 Charge =  0 Multiplicity = 1

 SCF Done:  E(RHF) =  -302.730849105     A.U. after   18 cycles
 Normal termination of Gaussian 16 at Wed Apr  9 19:29:17 2025.
 Gaussian 16:  ES64L-G16RevC.01  3-Jul-2019

 ----------------------------------------------------------------------
 #t hf aug-cc-pvdz iop(5/13=1,5/36=2,99/5=2) pseudo=read geom=check gue
 ss=(read,tcheck) scf=(maxcycle=1)
 ----------------------------------------------------------------------
 -----
 title
 -----
 Structure from the checkpoint file:  "Grambow2020_wb97xd3_009053_forward_mol1.chk"
 Charge =  0 Multiplicity = 1

                         Standard orientation:
 ---------------------------------------------------------------------
 Center     Atomic      Atomic             Coordinates (Angstroms)
 Number     Number       Type             X           Y           Z
 ---------------------------------------------------------------------
      1          7           0       -1.796936    1.195389   -0.001253
      2          6           0       -0.182765   -0.019520    0.438998
      3          6           0       -1.553809   -0.298484    0.040417
      4          7           0       -2.216722   -1.289620   -0.173321
      5          6           0        0.961234   -0.130037   -0.413285
      6          6           0        2.241341   -0.696783    0.215397
      7          6           0        2.184736    0.731319   -0.125494
      8          1           0       -2.458428    1.580293    0.662606
      9          1           0       -1.908295    1.586104   -0.927691
     10          1           0       -0.003748    0.206308    1.490274
     11          1           0        0.767459   -0.403599   -1.441775
     12          1           0        2.189551   -0.992605    1.254073
     13          1           0        2.793924   -1.372123   -0.422923
     14          1           0        2.714820    1.080056   -1.000996
     15          1           0        2.095904    1.456210    0.672253
 ---------------------------------------------------------------------

 SCF Done:  E(RHF) =  -304.164292047     A.U. after    2 cycles

 The electronic state is 1-A.
 Alpha  occ. eigenvalues --  -15.74911 -15.64089 -11.54556 -11.47256 -11.45691
 Alpha  occ. eigenvalues --  -11.41729 -11.39973  -1.41565  -1.33251  -1.16392
 Alpha  occ. eigenvalues --   -1.07087  -0.90908  -0.88236  -0.78530  -0.69448
 Alpha  occ. eigenvalues --   -0.68669  -0.65024  -0.57957  -0.55829  -0.55392
 Alpha  occ. eigenvalues --   -0.49336  -0.46012  -0.43363  -0.36004  -0.35309
 Alpha  occ. eigenvalues --   -0.22768
 Alpha virt. eigenvalues --    0.02856   0.04340   0.04572   0.04805   0.04943
 Alpha virt. eigenvalues --    0.05245   0.06479   0.07860   0.08563   0.09713
 Alpha virt. eigenvalues --    0.10687   0.12323   0.12468   0.13318   0.13693

 Mulliken charges:
               1
     1  N   -1.976050
     2  C   -2.868381
     3  C    3.623133
     4  N   -2.853366
     5  C   -0.522369
     6  C   -2.326979
     7  C   -2.025687
     8  H    0.581887
     9  H    0.575013
    10  H    1.420506
    11  H    1.373671
    12  H    1.289854
    13  H    1.203032
    14  H    1.219464
    15  H    1.286272
 Sum of Mulliken charges =   0.00000

 Dipole moment (field-independent basis, Debye):
    X=              6.5599    Y=              4.0814    Z=              0.8222  Tot=              7.7696

 Test job not archived.
 1\1\GINC-SE037\SP\RHF\Aug-CC-pVDZ\C5H8N2\OHZDE\09-Apr-2025\0\\#t hf au
 g-cc-pvdz iop(5/13=1,5/36=2,99/5=2) pseudo=read geom=check guess=(read
 ,tcheck) scf=(maxcycle=1)\\title\\0,1\N,0,2.3872974,-0.258416,0.109783
 97\C,0,0.44074388,0.32991947,0.48416892\C,0,1.66816513,1.06852728,0.23
 050591\N,0,1.98372575,2.23497361,0.1449843\C,0,-0.62041924,0.14782598,
 -0.45822704\C,0,-2.0524222,0.2142521,0.08955995\C,0,-1.51174145,-1.082
 40692,-0.34081834\H,0,3.09475509,-0.47174915,0.80290992\H,0,2.67835221
 ,-0.50479889,-0.82719443\H,0,0.27904109,-0.03831239,1.49732442\H,0,-0.

 Normal termination of Gaussian 16 at Wed Apr  9 19:29:22 2025.
