 Gaussian 16, Revision C.01,

 ----------------------------------------------------------------------
 #t hf aug-cc-pvdz symm=none int=(grid=ultrafine) guess=(read,tcheck) s
 table=(opt,rrhf)
 ----------------------------------------------------------------------
 -----
 title
 -----
 Symbolic Z-matrix:
 Charge =  0 Multiplicity = 1

 SCF Done:  E(RHF) =  -268.838795158     A.U. after   13 cycles
 Normal termination of Gaussian 16 at Wed Apr  9 03:05:25 2025.
 Gaussian 16:  ES64L-G16RevC.01  3-Jul-2019

 ----------------------------------------------------------------------
 #t hf aug-cc-pvdz iop(5/13=1,5/36=2,99/5=2) pseudo=read geom=check gue
 ss=(read,tcheck) scf=(maxcycle=1)
 ----------------------------------------------------------------------
 -----
 title
 -----
 Structure from the checkpoint file:  "Grambow2020_b97d3_006497_reverse_mol2.chk"
 Charge =  0 Multiplicity = 1

                         Standard orientation:
 ---------------------------------------------------------------------
 Center     Atomic      Atomic             Coordinates (Angstroms)
 Number     Number       Type             X           Y           Z
 ---------------------------------------------------------------------
      1          8           0       -2.106603   -0.001024   -0.038454
      2          6           0       -0.891863    0.001562   -0.079143
      3          6           0        0.013324    1.252226   -0.093603
      4          6           0        1.399126    0.679488   -0.229253
      5          6           0        1.401596   -0.666901   -0.244357
      6          6           0        0.016772   -1.245220   -0.125411
      7          1           0       -0.276797    1.926590   -0.914919
      8          1           0       -0.132169    1.821383    0.839861
      9          1           0        2.290576    1.302197   -0.297823
     10          1           0        0.462530   -0.101393    3.173680
     11          1           0        0.981784   -0.049327    2.640030
     12          1           0        2.295318   -1.284196   -0.327320
     13          1           0       -0.271665   -1.894747   -0.966901
     14          1           0       -0.130482   -1.839246    0.791619
 ---------------------------------------------------------------------

 SCF Done:  E(RHF) =  -270.109881936     A.U. after    2 cycles

 The electronic state is 1-A.
 Alpha  occ. eigenvalues --  -21.05480 -11.50084 -11.46759 -11.42059 -11.41112
 Alpha  occ. eigenvalues --  -11.37679  -1.70057  -1.31234  -1.06313  -0.99451
 Alpha  occ. eigenvalues --   -0.78817  -0.76880  -0.66193  -0.64169  -0.61461
 Alpha  occ. eigenvalues --   -0.57536  -0.54324  -0.51636  -0.49932  -0.47608
 Alpha  occ. eigenvalues --   -0.41871  -0.34481  -0.27522
 Alpha virt. eigenvalues --    0.03597   0.04845   0.05141   0.05408   0.06626
 Alpha virt. eigenvalues --    0.06796   0.07572   0.08179   0.09885   0.11625
 Alpha virt. eigenvalues --    0.12715   0.13088   0.14068   0.14348   0.14440

 Mulliken charges:
               1
     1  O   -3.396962
     2  C    4.965359
     3  C   -4.783311
     4  C   -0.010209
     5  C   -0.010694
     6  C   -4.777143
     7  H    1.308201
     8  H    1.288388
     9  H    1.431013
    10  H    0.124344
    11  H   -0.168409
    12  H    1.432393
    13  H    1.312654
    14  H    1.284376
 Sum of Mulliken charges =   0.00000

 Dipole moment (field-independent basis, Debye):
    X=              1.6180    Y=              0.0017    Z=             -0.0173  Tot=              1.6181

 Test job not archived.
 1\1\GINC-SE455\SP\RHF\Aug-CC-pVDZ\C5H8O1\OHZDE\09-Apr-2025\0\\#t hf au
 g-cc-pvdz iop(5/13=1,5/36=2,99/5=2) pseudo=read geom=check guess=(read
 ,tcheck) scf=(maxcycle=1)\\title\\0,1\O,0,-0.62814859,2.3195959,-0.646
 92727\C,0,-0.33435959,1.25197608,-0.14579601\C,0,-1.32292937,0.1401717
 ,0.26694196\C,0,-0.43570483,-0.9008823,0.89616096\C,0,0.86693374,-0.56
 286337,0.85287476\C,0,1.09287142,0.76962083,0.18971795\H,0,-2.09303613
 ,0.54310782,0.9437539\H,0,-1.85692169,-0.22611931,-0.62588784\H,0,-0.8
 2303375,-1.82389139,1.32648814\H,0,0.2812441,-1.16478517,-2.63700769\H

 Normal termination of Gaussian 16 at Wed Apr  9 03:05:29 2025.
