 Gaussian 16, Revision C.01,

 ----------------------------------------------------------------------
 #t hf aug-cc-pvdz symm=none int=(grid=ultrafine) guess=(read,tcheck) s
 table=(opt,rrhf)
 ----------------------------------------------------------------------
 -----
 title
 -----
 Symbolic Z-matrix:
 Charge =  0 Multiplicity = 1

 SCF Done:  E(RHF) =  -286.642000176     A.U. after   18 cycles
 Normal termination of Gaussian 16 at Wed Apr  9 19:19:17 2025.
 Gaussian 16:  ES64L-G16RevC.01  3-Jul-2019

 ----------------------------------------------------------------------
 #t hf aug-cc-pvdz iop(5/13=1,5/36=2,99/5=2) pseudo=read geom=check gue
 ss=(read,tcheck) scf=(maxcycle=1)
 ----------------------------------------------------------------------
 -----
 title
 -----
 Structure from the checkpoint file:  "Grambow2020_wb97xd3_008604_forward_mol1.chk"
 Charge =  0 Multiplicity = 1

                         Standard orientation:
 ---------------------------------------------------------------------
 Center     Atomic      Atomic             Coordinates (Angstroms)
 Number     Number       Type             X           Y           Z
 ---------------------------------------------------------------------
      1          6           0        1.867476   -0.207655    0.255035
      2          6           0        0.811290   -0.020015   -0.787944
      3          6           0       -0.342861   -0.968585   -0.432587
      4          6           0       -1.598097   -0.091856   -0.495593
      5          6           0       -0.731006    0.840022    0.555262
      6          6           0       -0.399822   -0.576538    1.029927
      7          7           0        0.328636    1.247933   -0.213738
      8          1           0        2.636920    0.553223    0.258627
      9          1           0        2.249531   -1.209998    0.452534
     10          1           0        1.093618    0.024178   -1.839173
     11          1           0       -0.328573   -1.999862   -0.770797
     12          1           0       -1.827972    0.482875   -1.388487
     13          1           0       -2.488873   -0.582435   -0.109766
     14          1           0       -1.202289    1.577274    1.197035
     15          1           0        0.974963   -0.303185    1.243638
     16          1           0       -1.049649   -1.129838    1.707959
 ---------------------------------------------------------------------

 SCF Done:  E(RHF) =  -288.073249151     A.U. after    2 cycles

 The electronic state is 1-A.
 Alpha  occ. eigenvalues --  -15.66522 -11.49228 -11.48001 -11.44982 -11.42768
 Alpha  occ. eigenvalues --  -11.40406 -11.37320  -1.53329  -1.17535  -1.10111
 Alpha  occ. eigenvalues --   -0.97793  -0.92423  -0.79005  -0.77238  -0.73367
 Alpha  occ. eigenvalues --   -0.67101  -0.62698  -0.56835  -0.53539  -0.48387
 Alpha  occ. eigenvalues --   -0.47001  -0.45589  -0.44224  -0.39489  -0.32962
 Alpha  occ. eigenvalues --   -0.22016
 Alpha virt. eigenvalues --    0.03792   0.04373   0.04577   0.05235   0.05592
 Alpha virt. eigenvalues --    0.05795   0.06171   0.06848   0.08026   0.08362
 Alpha virt. eigenvalues --    0.11292   0.12151   0.12750   0.12994   0.13457

 Mulliken charges:
               1
     1  C   -2.770697
     2  C   -1.782314
     3  C   -1.945960
     4  C   -2.539023
     5  C    0.178710
     6  C   -1.791120
     7  N   -2.182508
     8  H    1.256119
     9  H    1.251747
    10  H    1.736800
    11  H    1.643917
    12  H    1.332047
    13  H    1.217907
    14  H    1.554780
    15  H    1.398907
    16  H    1.440687
 Sum of Mulliken charges =   0.00000

 Dipole moment (field-independent basis, Debye):
    X=             -1.3199    Y=             -2.7114    Z=              0.4406  Tot=              3.0476

 Test job not archived.
 1\1\GINC-SE084\SP\RHF\Aug-CC-pVDZ\C6H9N1\OHZDE\09-Apr-2025\0\\#t hf au
 g-cc-pvdz iop(5/13=1,5/36=2,99/5=2) pseudo=read geom=check guess=(read
 ,tcheck) scf=(maxcycle=1)\\title\\0,1\C,0,1.4782658,1.11418052,0.34637
 73\C,0,1.08378235,-0.32807331,0.29320693\C,0,-0.34575638,-0.42226395,0
 .84608744\C,0,-1.10790581,-1.25443711,-0.19066573\C,0,-0.5242338,-0.10
 250127,-1.21872731\C,0,-0.89134206,0.72245056,0.01671571\N,0,0.8302032
 9,-0.30839414,-1.15788563\H,0,2.36972438,1.35818061,-0.21643535\H,0,1.
 402613,1.65303836,1.29166678\H,0,1.78360647,-1.09117511,0.63183155\H,0

 Normal termination of Gaussian 16 at Wed Apr  9 19:19:23 2025.
