 Gaussian 16, Revision C.01,

 ----------------------------------------------------------------------
 #t hf aug-cc-pvdz symm=none int=(grid=ultrafine) guess=(read,tcheck) s
 table=(opt,rrhf)
 ----------------------------------------------------------------------
 -----
 title
 -----
 Symbolic Z-matrix:
 Charge =  0 Multiplicity = 1

 SCF Done:  E(RHF) =  -305.644588451     A.U. after   16 cycles
 Normal termination of Gaussian 16 at Wed Apr  9 03:05:54 2025.
 Gaussian 16:  ES64L-G16RevC.01  3-Jul-2019

 ----------------------------------------------------------------------
 #t hf aug-cc-pvdz iop(5/13=1,5/36=2,99/5=2) pseudo=read geom=check gue
 ss=(read,tcheck) scf=(maxcycle=1)
 ----------------------------------------------------------------------
 -----
 title
 -----
 Structure from the checkpoint file:  "Grambow2020_b97d3_006518_reverse_mol1.chk"
 Charge =  0 Multiplicity = 1

                         Standard orientation:
 ---------------------------------------------------------------------
 Center     Atomic      Atomic             Coordinates (Angstroms)
 Number     Number       Type             X           Y           Z
 ---------------------------------------------------------------------
      1          8           0        2.060121    0.376222    0.322083
      2          6           0        1.163188   -0.673768    0.194925
      3          6           0       -0.885208   -1.063012   -0.257047
      4          6           0       -1.625789   -0.071076    0.657232
      5          6           0       -0.896431    1.069350   -0.058948
      6          8           0       -0.043122    0.186141   -0.866105
      7          1           0        2.356223    0.632406   -0.575196
      8          1           0        1.445970   -1.475987   -0.484052
      9          1           0        0.907933   -0.970282    1.209463
     10          1           0       -1.494771   -1.435822   -1.095898
     11          1           0       -2.721919   -0.038734    0.580384
     12          1           0       -1.362044   -0.172107    1.725649
     13          1           0       -0.281916    1.756185    0.539788
     14          1           0       -1.520036    1.636483   -0.764933
 ---------------------------------------------------------------------

 SCF Done:  E(RHF) =  -307.057142983     A.U. after    2 cycles

 The electronic state is 1-A.
 Alpha  occ. eigenvalues --  -21.11136 -21.05247 -11.52496 -11.44354 -11.38274
 Alpha  occ. eigenvalues --  -11.33127  -1.79111  -1.70887  -1.11269  -0.99948
 Alpha  occ. eigenvalues --   -0.91862  -0.76438  -0.70983  -0.66409  -0.62430
 Alpha  occ. eigenvalues --   -0.59625  -0.53838  -0.50684  -0.49611  -0.45651
 Alpha  occ. eigenvalues --   -0.39817  -0.36096  -0.31381  -0.21557
 Alpha virt. eigenvalues --    0.03905   0.05144   0.05625   0.05898   0.06060
 Alpha virt. eigenvalues --    0.06207   0.06757   0.07559   0.10342   0.12382
 Alpha virt. eigenvalues --    0.12829   0.13305   0.14112   0.15226   0.15399

 Mulliken charges:
               1
     1  O   -2.483415
     2  C   -0.407376
     3  C   -0.738807
     4  C   -3.051843
     5  C   -1.541852
     6  O   -2.039718
     7  H    0.663938
     8  H    1.385644
     9  H    1.484486
    10  H    1.322601
    11  H    1.234677
    12  H    1.276470
    13  H    1.579257
    14  H    1.315939
 Sum of Mulliken charges =  -0.00000

 Dipole moment (field-independent basis, Debye):
    X=              1.7416    Y=              2.2843    Z=             -0.7189  Tot=              2.9611

 Test job not archived.
 1\1\GINC-SE228\SP\RHF\Aug-CC-pVDZ\C4H8O2\OHZDE\09-Apr-2025\0\\#t hf au
 g-cc-pvdz iop(5/13=1,5/36=2,99/5=2) pseudo=read geom=check guess=(read
 ,tcheck) scf=(maxcycle=1)\\title\\0,1\O,0,-1.95999794,1.22491556,-0.11
 990869\C,0,-1.51968719,-0.08021406,0.04102632\C,0,0.2621586,-1.2012890
 9,0.38734062\C,0,1.23084907,-0.62557666,-0.66075046\C,0,1.06073879,0.7
 4706429,-0.00320275\O,0,0.01907889,0.30871148,0.93620573\H,0,-2.048599
 55,1.62673481,0.76840853\H,0,-2.01795643,-0.67103246,0.80731014\H,0,-1
 .49531549,-0.51023027,-0.95740026\H,0,0.76333847,-1.73090518,1.2135075

 Normal termination of Gaussian 16 at Wed Apr  9 03:05:58 2025.
