 Gaussian 16, Revision C.01,

 ----------------------------------------------------------------------
 #t hf aug-cc-pvdz symm=none int=(grid=ultrafine) guess=(read,tcheck) s
 table=(opt,rrhf)
 ----------------------------------------------------------------------
 -----
 title
 -----
 Symbolic Z-matrix:
 Charge =  0 Multiplicity = 1

 SCF Done:  E(RHF) =  -299.556803715     A.U. after   16 cycles
 Normal termination of Gaussian 16 at Wed Apr  9 17:44:31 2025.
 Gaussian 16:  ES64L-G16RevC.01  3-Jul-2019

 ----------------------------------------------------------------------
 #t hf aug-cc-pvdz iop(5/13=1,5/36=2,99/5=2) pseudo=read geom=check gue
 ss=(read,tcheck) scf=(maxcycle=1)
 ----------------------------------------------------------------------
 -----
 title
 -----
 Structure from the checkpoint file:  "Grambow2020_wb97xd3_006148_reverse_mol2.chk"
 Charge =  0 Multiplicity = 1

                         Standard orientation:
 ---------------------------------------------------------------------
 Center     Atomic      Atomic             Coordinates (Angstroms)
 Number     Number       Type             X           Y           Z
 ---------------------------------------------------------------------
      1          7           0       -1.876309   -0.773580    0.146943
      2          6           0       -0.922797    0.170345   -0.007270
      3          6           0       -0.433632    1.242874   -0.531760
      4          6           0        0.336894    0.647649    0.605234
      5          7           0        1.601426   -0.065986    0.340390
      6          8           0        1.524406   -0.894847   -0.518061
      7          1           0       -1.586512   -1.626733    0.591397
      8          1           0       -2.512862   -0.899637   -0.621503
      9          1           0       -0.446081    2.069333   -1.215335
     10          1           0        0.391605    1.127575    1.581378
 ---------------------------------------------------------------------

 SCF Done:  E(RHF) =  -300.891098773     A.U. after    2 cycles

 The electronic state is 1-A.
 Alpha  occ. eigenvalues --  -21.10689 -15.84251 -15.79402 -11.49098 -11.45534
 Alpha  occ. eigenvalues --  -11.40767  -1.85256  -1.41630  -1.26609  -1.05181
 Alpha  occ. eigenvalues --   -0.81449  -0.78668  -0.70429  -0.69785  -0.65217
 Alpha  occ. eigenvalues --   -0.54745  -0.53443  -0.48726  -0.46388  -0.38979
 Alpha  occ. eigenvalues --   -0.31835  -0.26110
 Alpha virt. eigenvalues --    0.03283   0.05050   0.05602   0.05851   0.09751
 Alpha virt. eigenvalues --    0.11086   0.11279   0.11758   0.13117   0.13564
 Alpha virt. eigenvalues --    0.14023   0.14882   0.15855   0.16995   0.17845

 Mulliken charges:
               1
     1  N   -3.508045
     2  C    3.105072
     3  C   -0.886388
     4  C   -0.754389
     5  N    0.664686
     6  O   -2.012447
     7  H    0.746459
     8  H    0.681516
     9  H    0.781152
    10  H    1.182384
 Sum of Mulliken charges =   0.00000

 Dipole moment (field-independent basis, Debye):
    X=             -2.8076    Y=             -0.8994    Z=             -0.7805  Tot=              3.0497

 Test job not archived.
 1\1\GINC-SE220\SP\RHF\Aug-CC-pVDZ\C3H4N2O1\OHZDE\09-Apr-2025\0\\#t hf
 aug-cc-pvdz iop(5/13=1,5/36=2,99/5=2) pseudo=read geom=check guess=(re
 ad,tcheck) scf=(maxcycle=1)\\title\\0,1\N,0,1.57413362,-0.28593872,-0.
 66613342\C,0,0.32713566,0.16286753,-0.4062638\C,0,-0.58758152,1.071797
 79,-0.36350754\C,0,-1.02493517,-0.32654489,-0.0567215\N,0,-1.33250604,
 -0.71025089,1.33490624\O,0,-0.48225303,-0.41576756,2.12245358\H,0,1.83
 067631,-1.15535899,-0.23290684\H,0,2.30617752,0.40360188,-0.68174694\H
 ,0,-0.94942947,2.07570163,-0.47171277\H,0,-1.65641088,-0.89761379,-0.7

 Normal termination of Gaussian 16 at Wed Apr  9 17:44:34 2025.
