 Gaussian 16, Revision C.01,

 ----------------------------------------------------------------------
 #t hf aug-cc-pvdz symm=none int=(grid=ultrafine) guess=(read,tcheck) s
 table=(opt,rrhf)
 ----------------------------------------------------------------------
 -----
 title
 -----
 Symbolic Z-matrix:
 Charge =  0 Multiplicity = 1

 SCF Done:  E(RHF) =  -323.661982394     A.U. after   18 cycles
 Normal termination of Gaussian 16 at Wed Apr  9 18:15:56 2025.
 Gaussian 16:  ES64L-G16RevC.01  3-Jul-2019

 ----------------------------------------------------------------------
 #t hf aug-cc-pvdz iop(5/13=1,5/36=2,99/5=2) pseudo=read geom=check gue
 ss=(read,tcheck) scf=(maxcycle=1)
 ----------------------------------------------------------------------
 -----
 title
 -----
 Structure from the checkpoint file:  "Grambow2020_wb97xd3_006817_forward_mol1.chk"
 Charge =  0 Multiplicity = 1

                         Standard orientation:
 ---------------------------------------------------------------------
 Center     Atomic      Atomic             Coordinates (Angstroms)
 Number     Number       Type             X           Y           Z
 ---------------------------------------------------------------------
      1          6           0       -1.247824    1.519105   -0.430577
      2          6           0       -1.146171    0.322128    0.489352
      3          6           0       -1.576602   -1.019027   -0.136282
      4          6           0       -0.116818   -1.342557   -0.305577
      5          6           0        0.332853   -0.267230    0.531255
      6          7           0        1.472057    0.474948    0.568734
      7          8           0        2.255699    0.017207   -0.478740
      8          1           0       -2.291667    1.811438   -0.565429
      9          1           0       -0.821867    1.291013   -1.410547
     10          1           0       -0.700832    2.367251   -0.018139
     11          1           0       -1.546968    0.553549    1.476218
     12          1           0       -2.170957   -1.697393    0.481646
     13          1           0       -2.107058   -0.875122   -1.083023
     14          1           0        0.398028   -1.913251   -1.065730
     15          1           0        0.343947   -0.783982    1.523428
     16          1           0        3.074758    0.509685   -0.378671
 ---------------------------------------------------------------------

 SCF Done:  E(RHF) =  -325.184495931     A.U. after    2 cycles

 The electronic state is 1-A.
 Alpha  occ. eigenvalues --  -21.06882 -15.70411 -11.52494 -11.45168 -11.43500
 Alpha  occ. eigenvalues --  -11.39580 -11.36925  -1.76170  -1.38592  -1.14667
 Alpha  occ. eigenvalues --   -1.07703  -0.91915  -0.88993  -0.74639  -0.70071
 Alpha  occ. eigenvalues --   -0.62705  -0.61897  -0.59874  -0.54855  -0.52888
 Alpha  occ. eigenvalues --   -0.49341  -0.47676  -0.45198  -0.43407  -0.38557
 Alpha  occ. eigenvalues --   -0.32318  -0.18180
 Alpha virt. eigenvalues --    0.03334   0.04463   0.05237   0.05368   0.05710
 Alpha virt. eigenvalues --    0.05908   0.06523   0.06595   0.07167   0.07465
 Alpha virt. eigenvalues --    0.11908   0.12473   0.13007   0.13704   0.14433

 Mulliken charges:
               1
     1  C   -4.004463
     2  C   -0.965017
     3  C   -3.446379
     4  C   -0.632615
     5  C    0.756484
     6  N   -1.010749
     7  O   -2.380168
     8  H    1.176707
     9  H    1.291820
    10  H    1.271953
    11  H    1.404346
    12  H    1.224834
    13  H    1.408323
    14  H    1.380919
    15  H    1.597941
    16  H    0.926065
 Sum of Mulliken charges =  -0.00000

 Dipole moment (field-independent basis, Debye):
    X=             -1.2911    Y=             -0.1662    Z=             -0.4551  Tot=              1.3790

 Test job not archived.
 1\1\GINC-SE041\SP\RHF\Aug-CC-pVDZ\C5H9N1O1\OHZDE\09-Apr-2025\0\\#t hf
 aug-cc-pvdz iop(5/13=1,5/36=2,99/5=2) pseudo=read geom=check guess=(re
 ad,tcheck) scf=(maxcycle=1)\\title\\0,1\C,0,-1.34722335,-1.1124815,-0.
 00944665\C,0,-0.60140374,-0.04681306,-0.78240224\C,0,-0.79661193,1.391
 31709,-0.26369049\C,0,0.5537497,1.27715452,0.39036619\C,0,0.91385681,0
 .07633045,-0.30760531\N,0,1.72952839,-0.97021753,-0.00854608\O,0,2.225
 11491,-0.71241123,1.25981977\H,0,-2.41461197,-1.07616658,-0.23882546\H
 ,0,-1.21838862,-0.9714723,1.06634372\H,0,-0.97163448,-2.10399056,-0.26

 Normal termination of Gaussian 16 at Wed Apr  9 18:16:02 2025.
