 Gaussian 16, Revision C.01,

 ----------------------------------------------------------------------
 #t hf aug-cc-pvdz symm=none int=(grid=ultrafine) guess=(read,tcheck) s
 table=(opt,rrhf)
 ----------------------------------------------------------------------
 -----
 title
 -----
 Symbolic Z-matrix:
 Charge =  0 Multiplicity = 1

 SCF Done:  E(RHF) =  -320.610064444     A.U. after   16 cycles
 Normal termination of Gaussian 16 at Wed Apr  9 17:23:09 2025.
 Gaussian 16:  ES64L-G16RevC.01  3-Jul-2019

 ----------------------------------------------------------------------
 #t hf aug-cc-pvdz iop(5/13=1,5/36=2,99/5=2) pseudo=read geom=check gue
 ss=(read,tcheck) scf=(maxcycle=1)
 ----------------------------------------------------------------------
 -----
 title
 -----
 Structure from the checkpoint file:  "Grambow2020_b97d3_007122_forward_mol1.chk"
 Charge =  0 Multiplicity = 1

                         Standard orientation:
 ---------------------------------------------------------------------
 Center     Atomic      Atomic             Coordinates (Angstroms)
 Number     Number       Type             X           Y           Z
 ---------------------------------------------------------------------
      1          6           0       -2.038883   -0.620134   -0.061338
      2          7           0       -0.641471   -0.774636    0.034048
      3          6           0        0.063613    0.368626    0.053511
      4          8           0       -0.667181    1.453117    0.023526
      5          6           0        1.521540    0.336289   -0.074775
      6          8           0        2.170610   -0.701744    0.062319
      7          1           0       -1.632724    0.957177   -0.329015
      8          1           0       -2.538816   -1.472036   -0.519232
      9          1           0       -2.501930   -0.269310    0.868306
     10          1           0       -0.122551   -1.634304   -0.150120
     11          1           0        1.981264    1.321254   -0.299422
 ---------------------------------------------------------------------

 SCF Done:  E(RHF) =  -322.023269040     A.U. after    2 cycles

 The electronic state is 1-A.
 Alpha  occ. eigenvalues --  -21.10780 -21.10201 -15.83423 -11.54371 -11.49441
 Alpha  occ. eigenvalues --  -11.35630  -1.79827  -1.73125  -1.42312  -1.08009
 Alpha  occ. eigenvalues --   -0.93523  -0.82487  -0.73786  -0.67094  -0.63366
 Alpha  occ. eigenvalues --   -0.59000  -0.55193  -0.51832  -0.49184  -0.44247
 Alpha  occ. eigenvalues --   -0.38460  -0.34160  -0.25515
 Alpha virt. eigenvalues --    0.03535   0.05289   0.06020   0.06504   0.06727
 Alpha virt. eigenvalues --    0.07946   0.09598   0.10579   0.11444   0.12763
 Alpha virt. eigenvalues --    0.13317   0.14409   0.14650   0.15159   0.15688

 Mulliken charges:
               1
     1  C   -2.761642
     2  N   -2.716218
     3  C    4.545841
     4  O   -3.331456
     5  C    0.886363
     6  O   -2.641897
     7  H    1.278582
     8  H    1.313790
     9  H    1.110117
    10  H    0.760192
    11  H    1.556328
 Sum of Mulliken charges =   0.00000

 Dipole moment (field-independent basis, Debye):
    X=              1.6561    Y=             -0.4880    Z=              0.1291  Tot=              1.7313

 Test job not archived.
 1\1\GINC-SE135\SP\RHF\Aug-CC-pVDZ\C3H5N1O2\OHZDE\09-Apr-2025\0\\#t hf
 aug-cc-pvdz iop(5/13=1,5/36=2,99/5=2) pseudo=read geom=check guess=(re
 ad,tcheck) scf=(maxcycle=1)\\title\\0,1\C,0,-0.98922775,1.40504672,0.0
 4296187\N,0,0.21927524,0.68690776,-0.05463721\C,0,0.09204959,-0.649618
 07,-0.10026817\O,0,-1.14526644,-1.07390183,-0.08970606\C,0,1.27303489,
 -1.50584705,0.02301735\O,0,2.41814685,-1.06729426,-0.09526718\H,0,-1.6
 1935806,-0.10254897,0.27666223\H,0,-0.87824092,2.37731354,0.52016054\H
 ,0,-1.5615033,1.42208833,-0.89188435\H,0,1.15000692,1.05577505,0.14511

 Normal termination of Gaussian 16 at Wed Apr  9 17:23:13 2025.
