 Gaussian 16, Revision C.01,

 ----------------------------------------------------------------------
 #t hf aug-cc-pvdz symm=none int=(grid=ultrafine) guess=(read,tcheck) s
 table=(opt,rrhf)
 ----------------------------------------------------------------------
 -----
 title
 -----
 Symbolic Z-matrix:
 Charge =  0 Multiplicity = 1

 SCF Done:  E(RHF) =  -332.447893463     A.U. after   16 cycles
 Normal termination of Gaussian 16 at Wed Apr  9 19:27:50 2025.
 Gaussian 16:  ES64L-G16RevC.01  3-Jul-2019

 ----------------------------------------------------------------------
 #t hf aug-cc-pvdz iop(5/13=1,5/36=2,99/5=2) pseudo=read geom=check gue
 ss=(read,tcheck) scf=(maxcycle=1)
 ----------------------------------------------------------------------
 -----
 title
 -----
 Structure from the checkpoint file:  "Grambow2020_wb97xd3_009009_reverse_mol1.chk"
 Charge =  0 Multiplicity = 1

                         Standard orientation:
 ---------------------------------------------------------------------
 Center     Atomic      Atomic             Coordinates (Angstroms)
 Number     Number       Type             X           Y           Z
 ---------------------------------------------------------------------
      1          7           0        2.892118    0.001377   -0.002051
      2          6           0        1.745767   -0.021221    0.000380
      3          6           0        0.317037    0.000355    0.009030
      4          6           0       -0.519949    1.104960    0.012870
      5          7           0       -1.768956    0.653872   -0.080199
      6          7           0       -1.665421   -0.760489   -0.079085
      7          7           0       -0.417208   -1.117921    0.022360
      8          1           0       -0.285344    2.156073    0.052534
      9          1           0       -2.255519   -0.098514    0.786616
 ---------------------------------------------------------------------

 SCF Done:  E(RHF) =  -333.927169643     A.U. after    2 cycles

 The electronic state is 1-A.
 Alpha  occ. eigenvalues --  -15.84467 -15.83019 -15.82014 -15.79217 -11.52600
 Alpha  occ. eigenvalues --  -11.47701 -11.45642  -1.73553  -1.36759  -1.33185
 Alpha  occ. eigenvalues --   -1.23447  -0.96520  -0.88391  -0.79529  -0.74300
 Alpha  occ. eigenvalues --   -0.66319  -0.56402  -0.53598  -0.52178  -0.50359
 Alpha  occ. eigenvalues --   -0.45474  -0.43548  -0.43130  -0.40085
 Alpha virt. eigenvalues --    0.02880   0.05105   0.08024   0.08376   0.09424
 Alpha virt. eigenvalues --    0.09920   0.10489   0.11598   0.12630   0.12962
 Alpha virt. eigenvalues --    0.13241   0.13907   0.14152   0.14852   0.17210

 Mulliken charges:
               1
     1  N   -2.602072
     2  C    2.104525
     3  C    2.847125
     4  C    0.078651
     5  N   -2.228041
     6  N   -0.252881
     7  N   -2.116135
     8  H    1.274011
     9  H    0.894817
 Sum of Mulliken charges =  -0.00000

 Dipole moment (field-independent basis, Debye):
    X=             -2.3439    Y=              1.9946    Z=              0.8393  Tot=              3.1901

 Test job not archived.
 1\1\GINC-SE029\SP\RHF\Aug-CC-pVDZ\C3H2N4\OHZDE\09-Apr-2025\0\\#t hf au
 g-cc-pvdz iop(5/13=1,5/36=2,99/5=2) pseudo=read geom=check guess=(read
 ,tcheck) scf=(maxcycle=1)\\title\\0,1\N,0,3.11596811,0.12706075,0.0273
 4312\C,0,1.97112428,0.17140509,0.0720888\C,0,0.5426993,0.18052116,0.10
 853967\C,0,-0.32505499,-0.86232412,-0.17463887\N,0,-1.55756874,-0.4316
 467,0.08533515\N,0,-1.41402155,0.9238899,0.47655415\N,0,-0.15960202,1.
 27142791,0.43492808\H,0,-0.12160443,-1.86432624,-0.51530243\H,0,-2.047
 30396,0.54301626,-0.51830968\\Version=ES64L-G16RevC.01\State=1-A\HF=-3

 Normal termination of Gaussian 16 at Wed Apr  9 19:27:53 2025.
