 Gaussian 16, Revision C.01,

 ----------------------------------------------------------------------
 #t hf aug-cc-pvdz symm=none int=(grid=ultrafine) guess=(read,tcheck) s
 table=(opt,rrhf)
 ----------------------------------------------------------------------
 -----
 title
 -----
 Symbolic Z-matrix:
 Charge =  0 Multiplicity = 1

 SCF Done:  E(RHF) =  -152.428366197     A.U. after   15 cycles
 Normal termination of Gaussian 16 at Wed Apr  9 15:44:31 2025.
 Gaussian 16:  ES64L-G16RevC.01  3-Jul-2019

 ----------------------------------------------------------------------
 #t hf aug-cc-pvdz iop(5/13=1,5/36=2,99/5=2) pseudo=read geom=check gue
 ss=(read,tcheck) scf=(maxcycle=1)
 ----------------------------------------------------------------------
 -----
 title
 -----
 Structure from the checkpoint file:  "Grambow2020_b97d3_006639_reverse_mol1.chk"
 Charge =  0 Multiplicity = 1

                         Standard orientation:
 ---------------------------------------------------------------------
 Center     Atomic      Atomic             Coordinates (Angstroms)
 Number     Number       Type             X           Y           Z
 ---------------------------------------------------------------------
      1          6           0        0.371566    0.091332    0.000007
      2          6           0        1.599576   -0.019473   -0.000304
      3          6           0       -1.155603   -0.805397   -0.000070
      4          6           0       -1.022221    0.503874    0.000290
      5          1           0        2.664232   -0.134077    0.001187
      6          1           0       -1.424143    1.512069   -0.000725
 ---------------------------------------------------------------------

 SCF Done:  E(RHF) =  -153.128349576     A.U. after    2 cycles

 The electronic state is 1-A.
 Alpha  occ. eigenvalues --  -11.47556 -11.45021 -11.44491 -11.43161  -1.28855
 Alpha  occ. eigenvalues --   -1.04594  -0.77398  -0.75876  -0.62067  -0.49762
 Alpha  occ. eigenvalues --   -0.45684  -0.39434  -0.32962
 Alpha virt. eigenvalues --    0.03109   0.04705   0.06035   0.09144   0.09895
 Alpha virt. eigenvalues --    0.09929   0.11740   0.11776   0.12054   0.13592
 Alpha virt. eigenvalues --    0.14317   0.15267   0.15981   0.17818   0.17838

 Mulliken charges:
               1
     1  C    3.327797
     2  C   -3.148496
     3  C   -1.769878
     4  C   -0.315547
     5  H    0.752460
     6  H    1.153664
 Sum of Mulliken charges =  -0.00000

 Dipole moment (field-independent basis, Debye):
    X=              1.1190    Y=              2.3411    Z=              0.0015  Tot=              2.5948

 Test job not archived.
 1\1\GINC-SE226\SP\RHF\Aug-CC-pVDZ\C4H2\OHZDE\09-Apr-2025\0\\#t hf aug-
 cc-pvdz iop(5/13=1,5/36=2,99/5=2) pseudo=read geom=check guess=(read,t
 check) scf=(maxcycle=1)\\title\\0,1\C,0,0.23076534,0.0084987,-0.099682
 44\C,0,1.37315917,-0.01725031,0.36352279\C,0,-0.74652972,0.48679452,-1
 .49699969\C,0,-1.18879063,-0.08580774,-0.39767527\H,0,2.3717912,-0.033
 16974,0.7496687\H,0,-1.97948835,-0.49525144,0.22293091\\Version=ES64L-
 G16RevC.01\State=1-A\HF=-153.1283496\RMSD=1.051e+00\Dipole=-0.0021934,
 -0.4239225,0.9286886\Quadrupole=5.1486549,-2.5179798,-2.6306751,0.9466

 Normal termination of Gaussian 16 at Wed Apr  9 15:44:33 2025.
