 Gaussian 16, Revision C.01,

 ----------------------------------------------------------------------
 #t hf aug-cc-pvdz symm=none int=(grid=ultrafine) guess=(read,tcheck) s
 table=(opt,rrhf)
 ----------------------------------------------------------------------
 -----
 title
 -----
 Symbolic Z-matrix:
 Charge =  0 Multiplicity = 1

 SCF Done:  E(RHF) =  -306.616165766     A.U. after   13 cycles
 Normal termination of Gaussian 16 at Wed Apr  9 19:14:01 2025.
 Gaussian 16:  ES64L-G16RevC.01  3-Jul-2019

 ----------------------------------------------------------------------
 #t hf aug-cc-pvdz iop(5/13=1,5/36=2,99/5=2) pseudo=read geom=check gue
 ss=(read,tcheck) scf=(maxcycle=1)
 ----------------------------------------------------------------------
 -----
 title
 -----
 Structure from the checkpoint file:  "Grambow2020_wb97xd3_008452_reverse_mol2.chk"
 Charge =  0 Multiplicity = 1

                         Standard orientation:
 ---------------------------------------------------------------------
 Center     Atomic      Atomic             Coordinates (Angstroms)
 Number     Number       Type             X           Y           Z
 ---------------------------------------------------------------------
      1          6           0       -1.235725    0.857431   -0.669561
      2          6           0       -0.924097   -0.616743   -0.766497
      3          6           0        0.307579   -1.031431    0.001858
      4          8           0        1.586444   -0.526286   -0.008148
      5          6           0        1.788698    0.863651   -0.000096
      6          6           0       -1.228510    0.866308    0.662420
      7          6           0       -0.915038   -0.605749    0.778117
      8          1           0        1.351969    1.343761   -0.881388
      9          1           0       -1.282593    1.630810   -1.425164
     10          1           0       -1.452045   -1.330651   -1.384604
     11          1           0        0.402631   -2.114795    0.008582
     12          1           0        2.868087    1.010391   -0.005609
     13          1           0        1.363370    1.331603    0.893655
     14          1           0       -1.265957    1.649216    1.408865
     15          1           0       -1.434454   -1.310852    1.413402
 ---------------------------------------------------------------------

 SCF Done:  E(RHF) =  -308.066599380     A.U. after    2 cycles

 The electronic state is 1-A.
 Alpha  occ. eigenvalues --  -21.05111 -11.47047 -11.46722 -11.41062 -11.40692
 Alpha  occ. eigenvalues --  -11.39875 -11.36480  -1.76710  -1.39152  -1.07609
 Alpha  occ. eigenvalues --   -0.97867  -0.90627  -0.79733  -0.73846  -0.72492
 Alpha  occ. eigenvalues --   -0.64185  -0.61047  -0.60871  -0.54744  -0.47727
 Alpha  occ. eigenvalues --   -0.47090  -0.44502  -0.43408  -0.40819  -0.28100
 Alpha  occ. eigenvalues --   -0.27957
 Alpha virt. eigenvalues --    0.03764   0.04694   0.05155   0.05643   0.06091
 Alpha virt. eigenvalues --    0.06327   0.07419   0.07643   0.10142   0.11321
 Alpha virt. eigenvalues --    0.12146   0.12620   0.12854   0.13463   0.14049

 Mulliken charges:
               1
     1  C   -0.985714
     2  C   -1.441044
     3  C    1.344777
     4  O   -3.866995
     5  C   -3.207820
     6  C   -0.980472
     7  C   -1.466586
     8  H    1.528197
     9  H    1.211179
    10  H    1.201711
    11  H    1.495274
    12  H    1.234465
    13  H    1.519162
    14  H    1.213196
    15  H    1.200669
 Sum of Mulliken charges =   0.00000

 Dipole moment (field-independent basis, Debye):
    X=              0.1271    Y=              0.1943    Z=              0.0065  Tot=              0.2323

 Test job not archived.
 1\1\GINC-SE173\SP\RHF\Aug-CC-pVDZ\C6H8O1\OHZDE\09-Apr-2025\0\\#t hf au
 g-cc-pvdz iop(5/13=1,5/36=2,99/5=2) pseudo=read geom=check guess=(read
 ,tcheck) scf=(maxcycle=1)\\title\\0,1\C,0,0.91388685,1.20926832,-0.332
 95719\C,0,1.36754923,-0.21879173,-0.14712542\C,0,0.24142078,-1.1849566
 5,0.13165892\O,0,-0.76972045,-1.14332585,1.0625873\C,0,-1.45912244,0.0
 5875154,1.29200214\C,0,0.02885639,0.90286198,-1.2801324\C,0,0.34051411
 ,-0.57369999,-1.24497464\H,0,-0.79200183,0.84853243,1.65132104\H,0,1.1
 3239097,2.1089084,0.22753445\H,0,2.39642366,-0.55221334,-0.12069855\H,

 Normal termination of Gaussian 16 at Wed Apr  9 19:14:06 2025.
