 Gaussian 16, Revision C.01,

 ----------------------------------------------------------------------
 #t hf aug-cc-pvdz symm=none int=(grid=ultrafine) guess=(read,tcheck) s
 table=(opt,rrhf)
 ----------------------------------------------------------------------
 -----
 title
 -----
 Symbolic Z-matrix:
 Charge =  0 Multiplicity = 1

 SCF Done:  E(RHF) =  -304.514186696     A.U. after   16 cycles
 Normal termination of Gaussian 16 at Wed Apr  9 03:16:22 2025.
 Gaussian 16:  ES64L-G16RevC.01  3-Jul-2019

 ----------------------------------------------------------------------
 #t hf aug-cc-pvdz iop(5/13=1,5/36=2,99/5=2) pseudo=read geom=check gue
 ss=(read,tcheck) scf=(maxcycle=1)
 ----------------------------------------------------------------------
 -----
 title
 -----
 Structure from the checkpoint file:  "Grambow2020_b97d3_007011_reverse_mol1.chk"
 Charge =  0 Multiplicity = 1

                         Standard orientation:
 ---------------------------------------------------------------------
 Center     Atomic      Atomic             Coordinates (Angstroms)
 Number     Number       Type             X           Y           Z
 ---------------------------------------------------------------------
      1          8           0       -0.632861    1.293962   -0.065958
      2          6           0        1.122536    0.392670   -0.636971
      3          6           0        1.756199   -0.230575    0.543274
      4          6           0        0.702611   -0.871421   -0.336035
      5          6           0       -0.975551   -0.185545    0.377810
      6          8           0       -1.958697   -0.673609   -0.134269
      7          1           0       -0.506998    1.819671    0.751925
      8          1           0        1.366078    1.085334   -1.434501
      9          1           0        2.822798   -0.480768    0.465381
     10          1           0        1.465308    0.068651    1.562819
     11          1           0        0.619896   -1.808563   -0.874172
     12          1           0       -0.669392   -0.277915    1.441905
 ---------------------------------------------------------------------

 SCF Done:  E(RHF) =  -305.902696767     A.U. after    2 cycles

 The electronic state is 1-A.
 Alpha  occ. eigenvalues --  -21.07728 -21.02189 -11.51622 -11.50952 -11.45330
 Alpha  occ. eigenvalues --  -11.40319  -1.73965  -1.62373  -1.32775  -0.90287
 Alpha  occ. eigenvalues --   -0.88304  -0.81835  -0.71164  -0.66733  -0.64360
 Alpha  occ. eigenvalues --   -0.52683  -0.50224  -0.47414  -0.46584  -0.43075
 Alpha  occ. eigenvalues --   -0.35895  -0.27130  -0.25759
 Alpha virt. eigenvalues --    0.03266   0.04255   0.04745   0.05250   0.06101
 Alpha virt. eigenvalues --    0.06837   0.08391   0.10307   0.10526   0.12227
 Alpha virt. eigenvalues --    0.13460   0.14260   0.14414   0.14860   0.15420

 Mulliken charges:
               1
     1  O   -2.057729
     2  C   -0.386099
     3  C   -2.114781
     4  C   -1.928744
     5  C    2.962716
     6  O   -2.950024
     7  H    0.826670
     8  H    0.953690
     9  H    1.274895
    10  H    1.138267
    11  H    0.881268
    12  H    1.399871
 Sum of Mulliken charges =   0.00000

 Dipole moment (field-independent basis, Debye):
    X=              2.6021    Y=              1.3829    Z=             -0.0345  Tot=              2.9469

 Test job not archived.
 1\1\GINC-SE021\SP\RHF\Aug-CC-pVDZ\C4H6O2\OHZDE\09-Apr-2025\0\\#t hf au
 g-cc-pvdz iop(5/13=1,5/36=2,99/5=2) pseudo=read geom=check guess=(read
 ,tcheck) scf=(maxcycle=1)\\title\\0,1\O,0,-1.07468251,0.49357609,1.181
 8385\C,0,-0.75220946,-0.6415363,-0.49962927\C,0,0.17206276,0.07612799,
 -1.40163749\C,0,0.57856492,-0.82729943,-0.25599709\C,0,0.49503603,0.33
 730973,1.30379051\O,0,0.89401433,-0.18279232,2.32227765\H,0,-1.2550393
 7,1.42762438,0.94483744\H,0,-1.72867485,-1.11175635,-0.52326998\H,0,0.
 20205509,-0.24942611,-2.45016576\H,0,0.3408981,1.15901999,-1.28998867\

 Normal termination of Gaussian 16 at Wed Apr  9 03:16:26 2025.
