 Gaussian 16, Revision C.01,

 ----------------------------------------------------------------------
 #t hf aug-cc-pvdz symm=none int=(grid=ultrafine) guess=(read,tcheck) s
 table=(opt,rrhf)
 ----------------------------------------------------------------------
 -----
 title
 -----
 Symbolic Z-matrix:
 Charge =  0 Multiplicity = 1

 SCF Done:  E(RHF) =  -359.682096435     A.U. after   14 cycles
 Normal termination of Gaussian 16 at Wed Apr  9 04:05:43 2025.
 Gaussian 16:  ES64L-G16RevC.01  3-Jul-2019

 ----------------------------------------------------------------------
 #t hf aug-cc-pvdz iop(5/13=1,5/36=2,99/5=2) pseudo=read geom=check gue
 ss=(read,tcheck) scf=(maxcycle=1)
 ----------------------------------------------------------------------
 -----
 title
 -----
 Structure from the checkpoint file:  "Grambow2020_wb97xd3_009259_reverse_mol2.chk"
 Charge =  0 Multiplicity = 1

                         Standard orientation:
 ---------------------------------------------------------------------
 Center     Atomic      Atomic             Coordinates (Angstroms)
 Number     Number       Type             X           Y           Z
 ---------------------------------------------------------------------
      1          6           0       -0.926422    1.699193   -0.813190
      2          6           0       -0.904109    1.158163    0.584098
      3          6           0       -0.876579   -0.075277    1.078515
      4          8           0       -0.845369   -1.313398    0.513732
      5          6           0        2.176564   -0.405490   -0.377065
      6          8           0        2.875475    0.255504    0.201671
      7          7           0       -0.979322   -1.335032   -0.897714
      8          1           0       -0.952383    0.916405   -1.563068
      9          1           0       -1.803236    2.336869   -0.954107
     10          1           0       -0.050167    2.331348   -0.986184
     11          1           0       -0.907915    1.909785    1.368147
     12          1           0       -0.850415   -0.219963    2.152944
     13          1           0       -1.583382   -2.133688   -1.056549
     14          1           0       -0.054821   -1.591911   -1.234556
 ---------------------------------------------------------------------

 SCF Done:  E(RHF) =  -361.288811032     A.U. after    2 cycles

 The electronic state is 1-A.
 Alpha  occ. eigenvalues --  -21.17788 -21.08467 -15.78161 -11.51063 -11.44669
 Alpha  occ. eigenvalues --  -11.39069 -11.35463  -1.82311  -1.80651  -1.21996
 Alpha  occ. eigenvalues --   -1.14635  -0.96550  -0.75798  -0.72477  -0.69307
 Alpha  occ. eigenvalues --   -0.66699  -0.56522  -0.55802  -0.53655  -0.52974
 Alpha  occ. eigenvalues --   -0.52827  -0.51418  -0.50750  -0.46593  -0.44793
 Alpha  occ. eigenvalues --   -0.34387  -0.26264
 Alpha virt. eigenvalues --    0.04011   0.05296   0.05941   0.06140   0.06463
 Alpha virt. eigenvalues --    0.06932   0.07323   0.09498   0.11062   0.12340
 Alpha virt. eigenvalues --    0.12701   0.12979   0.14521   0.14614   0.15026

 Mulliken charges:
               1
     1  C   -4.065089
     2  C   -0.437499
     3  C    0.029199
     4  O   -3.171346
     5  C    1.038963
     6  O   -1.144695
     7  N   -0.590361
     8  H    1.376074
     9  H    1.198003
    10  H    1.280495
    11  H    1.218148
    12  H    1.663619
    13  H    0.754457
    14  H    0.850032
 Sum of Mulliken charges =   0.00000

 Dipole moment (field-independent basis, Debye):
    X=              1.2372    Y=             -0.4643    Z=              0.2186  Tot=              1.3394

 Test job not archived.
 1\1\GINC-SE015\SP\RHF\Aug-CC-pVDZ\C4H7N1O2\OHZDE\09-Apr-2025\0\\#t hf
 aug-cc-pvdz iop(5/13=1,5/36=2,99/5=2) pseudo=read geom=check guess=(re
 ad,tcheck) scf=(maxcycle=1)\\title\\0,1\C,0,-1.12198465,-1.27170069,-0
 .0327043\C,0,-1.30764855,0.21161083,-0.13730802\C,0,-0.59596524,1.2472
 751,0.29568961\O,0,0.57263782,1.36214081,0.98421827\C,0,1.87269283,0.2
 041106,-1.7940399\O,0,1.50681708,0.39933701,-2.83727813\N,0,1.11984522
 ,0.13976594,1.45000324\H,0,-0.23971852,-1.542385,0.53657998\H,0,-1.992
 27666,-1.72517233,0.44921626\H,0,-1.05293682,-1.71383242,-1.03126434\H

 Normal termination of Gaussian 16 at Wed Apr  9 04:05:47 2025.
