 Gaussian 16, Revision C.01,

 ----------------------------------------------------------------------
 #t hf aug-cc-pvdz symm=none int=(grid=ultrafine) guess=(read,tcheck) s
 table=(opt,rrhf)
 ----------------------------------------------------------------------
 -----
 title
 -----
 Symbolic Z-matrix:
 Charge =  0 Multiplicity = 1

 SCF Done:  E(RHF) =  -306.528295022     A.U. after   15 cycles
 Normal termination of Gaussian 16 at Wed Apr  9 19:14:05 2025.
 Gaussian 16:  ES64L-G16RevC.01  3-Jul-2019

 ----------------------------------------------------------------------
 #t hf aug-cc-pvdz iop(5/13=1,5/36=2,99/5=2) pseudo=read geom=check gue
 ss=(read,tcheck) scf=(maxcycle=1)
 ----------------------------------------------------------------------
 -----
 title
 -----
 Structure from the checkpoint file:  "Grambow2020_wb97xd3_008457_forward_mol1.chk"
 Charge =  0 Multiplicity = 1

                         Standard orientation:
 ---------------------------------------------------------------------
 Center     Atomic      Atomic             Coordinates (Angstroms)
 Number     Number       Type             X           Y           Z
 ---------------------------------------------------------------------
      1          6           0        1.346281   -0.813648   -0.939644
      2          6           0        1.335632    0.471855   -0.127345
      3          6           0        0.019956    1.180567    0.055694
      4          8           0       -1.121495    0.751937   -0.638691
      5          6           0       -1.528367   -0.488680   -0.085185
      6          6           0       -0.258694   -1.071640    0.508998
      7          6           0        0.470337    0.165571    1.050672
      8          1           0        0.250184   -1.447248   -0.541019
      9          1           0        2.082016   -1.459646   -0.423798
     10          1           0        2.255663    1.040640   -0.065091
     11          1           0        0.018821    2.236525    0.292348
     12          1           0       -1.963687   -1.095329   -0.880530
     13          1           0       -2.277699   -0.335981    0.705020
     14          1           0       -0.340786   -1.954254    1.137120
     15          1           0        0.636577    0.335653    2.106337
 ---------------------------------------------------------------------

 SCF Done:  E(RHF) =  -307.961125968     A.U. after    2 cycles

 The electronic state is 1-A.
 Alpha  occ. eigenvalues --  -21.04742 -11.48853 -11.46581 -11.44684 -11.41521
 Alpha  occ. eigenvalues --  -11.39974 -11.37911  -1.78650  -1.35295  -1.13352
 Alpha  occ. eigenvalues --   -0.99792  -0.90941  -0.82918  -0.74925  -0.74577
 Alpha  occ. eigenvalues --   -0.67769  -0.61068  -0.56241  -0.53750  -0.52340
 Alpha  occ. eigenvalues --   -0.48734  -0.44359  -0.43031  -0.38345  -0.27601
 Alpha  occ. eigenvalues --   -0.27083
 Alpha virt. eigenvalues --    0.03585   0.04442   0.04722   0.05322   0.05473
 Alpha virt. eigenvalues --    0.05985   0.06612   0.08321   0.09973   0.11168
 Alpha virt. eigenvalues --    0.11741   0.12232   0.13240   0.13414   0.13697

 Mulliken charges:
               1
     1  C   -3.017585
     2  C   -0.582622
     3  C    1.288274
     4  O   -3.426626
     5  C   -1.582477
     6  C   -3.349701
     7  C   -0.919998
     8  H    2.306720
     9  H    0.983840
    10  H    1.406280
    11  H    1.495564
    12  H    1.309310
    13  H    1.498378
    14  H    1.315161
    15  H    1.275483
 Sum of Mulliken charges =   0.00000

 Dipole moment (field-independent basis, Debye):
    X=             -0.4876    Y=             -0.0289    Z=              3.1611  Tot=              3.1986

 Test job not archived.
 1\1\GINC-SE016\SP\RHF\Aug-CC-pVDZ\C6H8O1\OHZDE\09-Apr-2025\0\\#t hf au
 g-cc-pvdz iop(5/13=1,5/36=2,99/5=2) pseudo=read geom=check guess=(read
 ,tcheck) scf=(maxcycle=1)\\title\\0,1\C,0,1.24856481,1.17625587,0.5067
 7586\C,0,1.42123359,-0.2065226,-0.10197046\C,0,0.40571985,-1.26254847,
 0.24490074\O,0,-0.56878619,-1.01781058,1.22431124\C,0,-1.48907989,-0.0
 7596259,0.69798044\C,0,-0.69362393,0.68600816,-0.34682348\C,0,0.209040
 65,-0.39710547,-0.95316645\H,0,-0.05784125,1.39592269,0.42413436\H,0,1
 .56277335,1.87156615,-0.29480575\H,0,2.41797832,-0.50915516,-0.3999027

 Normal termination of Gaussian 16 at Wed Apr  9 19:14:10 2025.
