 Gaussian 16, Revision C.01,

 ----------------------------------------------------------------------
 #t hf aug-cc-pvdz symm=none int=(grid=ultrafine) guess=(read,tcheck) s
 table=(opt,rrhf)
 ----------------------------------------------------------------------
 -----
 title
 -----
 Symbolic Z-matrix:
 Charge =  0 Multiplicity = 1

 SCF Done:  E(RHF) =  -357.292057384     A.U. after   16 cycles
 Normal termination of Gaussian 16 at Wed Apr  9 19:19:43 2025.
 Gaussian 16:  ES64L-G16RevC.01  3-Jul-2019

 ----------------------------------------------------------------------
 #t hf aug-cc-pvdz iop(5/13=1,5/36=2,99/5=2) pseudo=read geom=check gue
 ss=(read,tcheck) scf=(maxcycle=1)
 ----------------------------------------------------------------------
 -----
 title
 -----
 Structure from the checkpoint file:  "Grambow2020_wb97xd3_008634_reverse_mol1.chk"
 Charge =  0 Multiplicity = 1

                         Standard orientation:
 ---------------------------------------------------------------------
 Center     Atomic      Atomic             Coordinates (Angstroms)
 Number     Number       Type             X           Y           Z
 ---------------------------------------------------------------------
      1          7           0        2.655425    0.620935    0.305654
      2          6           0        1.713902    0.104920   -0.251215
      3          6           0        0.744455   -0.574351   -0.817975
      4          6           0       -0.501497   -0.881186   -0.026343
      5          6           0       -1.607591    0.152897   -0.319726
      6          8           0       -0.583921   -0.505002    1.229619
      7          8           0       -2.340597    1.009272   -0.199890
      8          1           0        2.734885    1.631252    0.255558
      9          1           0        0.870836   -0.951130   -1.824323
     10          1           0       -0.893168   -1.874506   -0.317093
 ---------------------------------------------------------------------

 SCF Done:  E(RHF) =  -358.846997456     A.U. after    2 cycles

 The electronic state is 1-A.
 Alpha  occ. eigenvalues --  -21.20634 -20.99350 -15.79218 -11.60637 -11.52381
 Alpha  occ. eigenvalues --  -11.50056 -11.41838  -1.84323  -1.67823  -1.38265
 Alpha  occ. eigenvalues --   -1.15700  -0.99143  -0.80937  -0.75831  -0.69252
 Alpha  occ. eigenvalues --   -0.64761  -0.64433  -0.57871  -0.54981  -0.53921
 Alpha  occ. eigenvalues --   -0.48177  -0.44484  -0.34079  -0.28095  -0.26709
 Alpha virt. eigenvalues --    0.02726   0.04914   0.05365   0.07349   0.08842
 Alpha virt. eigenvalues --    0.09755   0.10557   0.11106   0.11574   0.12155
 Alpha virt. eigenvalues --    0.12822   0.13726   0.14000   0.15159   0.15571

 Mulliken charges:
               1
     1  N   -2.894647
     2  C    1.985039
     3  C   -0.738853
     4  C    0.843398
     5  C    2.105725
     6  O   -2.704590
     7  O   -2.390223
     8  H    0.796925
     9  H    1.459623
    10  H    1.537602
 Sum of Mulliken charges =   0.00000

 Dipole moment (field-independent basis, Debye):
    X=             -0.9713    Y=              1.7954    Z=             -2.1661  Tot=              2.9764

 Test job not archived.
 1\1\GINC-SE229\SP\RHF\Aug-CC-pVDZ\C4H3N1O2\OHZDE\09-Apr-2025\0\\#t hf
 aug-cc-pvdz iop(5/13=1,5/36=2,99/5=2) pseudo=read geom=check guess=(re
 ad,tcheck) scf=(maxcycle=1)\\title\\0,1\N,0,2.31108472,-0.64682401,0.8
 2755045\C,0,1.23285419,-0.71694186,0.28409715\C,0,0.02633524,-0.878107
 64,-0.20660545\C,0,-1.0721105,0.06595803,0.21218374\C,0,-1.24754597,1.
 19776232,-0.82081515\O,0,-0.82058072,1.00756619,1.09301004\O,0,-1.2350
 11,2.21957341,-1.31151009\H,0,3.0284931,-0.08778845,0.37769623\H,0,-0.
 17888158,-1.71455439,-0.86152164\H,0,-2.03260947,-0.4807336,0.26872471

 Normal termination of Gaussian 16 at Wed Apr  9 19:19:46 2025.
