 Gaussian 16, Revision C.01,

 ----------------------------------------------------------------------
 #t hf aug-cc-pvdz symm=none int=(grid=ultrafine) guess=(read,tcheck) s
 table=(opt,rrhf)
 ----------------------------------------------------------------------
 -----
 title
 -----
 Symbolic Z-matrix:
 Charge =  0 Multiplicity = 1

 SCF Done:  E(RHF) =  -318.803528198     A.U. after   16 cycles
 Normal termination of Gaussian 16 at Wed Apr  9 18:21:20 2025.
 Gaussian 16:  ES64L-G16RevC.01  3-Jul-2019

 ----------------------------------------------------------------------
 #t hf aug-cc-pvdz iop(5/13=1,5/36=2,99/5=2) pseudo=read geom=check gue
 ss=(read,tcheck) scf=(maxcycle=1)
 ----------------------------------------------------------------------
 -----
 title
 -----
 Structure from the checkpoint file:  "Grambow2020_wb97xd3_006929_forward_mol1.chk"
 Charge =  0 Multiplicity = 1

                         Standard orientation:
 ---------------------------------------------------------------------
 Center     Atomic      Atomic             Coordinates (Angstroms)
 Number     Number       Type             X           Y           Z
 ---------------------------------------------------------------------
      1          7           0       -2.419947   -0.498158   -0.212882
      2          6           0       -1.086237   -0.178839    0.136134
      3          6           0        0.066162   -1.059631    0.020347
      4          6           0        1.148785   -0.124887   -0.001502
      5          7           0        2.500281   -0.508275    0.043519
      6          6           0        0.678941    1.167233   -0.034201
      7          7           0       -0.675429    1.157479    0.014561
      8          1           0       -2.461317   -1.445806   -0.556925
      9          1           0       -3.075164   -0.386921    0.546238
     10          1           0       -0.747518   -0.567741    1.205388
     11          1           0        3.085295   -0.023415   -0.619385
     12          1           0        2.578689   -1.505390   -0.089942
     13          1           0        1.224086    2.101696   -0.031704
     14          1           0       -1.284320    1.946997   -0.094721
 ---------------------------------------------------------------------

 SCF Done:  E(RHF) =  -320.301444547     A.U. after    2 cycles

 The electronic state is 1-A.
 Alpha  occ. eigenvalues --  -15.77590 -15.75256 -15.73151 -11.45793 -11.44819
 Alpha  occ. eigenvalues --  -11.39779 -11.35341  -1.53373  -1.33164  -1.30284
 Alpha  occ. eigenvalues --   -1.10580  -1.01969  -0.81482  -0.76257  -0.72206
 Alpha  occ. eigenvalues --   -0.69021  -0.64740  -0.61691  -0.54983  -0.53531
 Alpha  occ. eigenvalues --   -0.49788  -0.46308  -0.38320  -0.38012  -0.31962
 Alpha  occ. eigenvalues --   -0.25772
 Alpha virt. eigenvalues --    0.03336   0.04786   0.05342   0.05874   0.06539
 Alpha virt. eigenvalues --    0.06802   0.08191   0.09506   0.11479   0.12110
 Alpha virt. eigenvalues --    0.12431   0.13126   0.13259   0.13949   0.15545

 Mulliken charges:
               1
     1  N   -2.954370
     2  C    2.354486
     3  C   -3.454220
     4  C    5.089060
     5  N   -3.598281
     6  C   -0.597096
     7  N   -2.971477
     8  H    0.569055
     9  H    0.556806
    10  H    1.546094
    11  H    0.538999
    12  H    0.732105
    13  H    1.430008
    14  H    0.758830
 Sum of Mulliken charges =  -0.00000

 Dipole moment (field-independent basis, Debye):
    X=             -1.4633    Y=              3.4420    Z=             -0.1958  Tot=              3.7453

 Test job not archived.
 1\1\GINC-SE114\SP\RHF\Aug-CC-pVDZ\C4H7N3\OHZDE\09-Apr-2025\0\\#t hf au
 g-cc-pvdz iop(5/13=1,5/36=2,99/5=2) pseudo=read geom=check guess=(read
 ,tcheck) scf=(maxcycle=1)\\title\\0,1\N,0,-2.36994924,-0.51988664,-0.4
 0048601\C,0,-1.06330071,-0.20557603,0.04272963\C,0,0.11360039,-1.05164
 989,-0.08489316\C,0,1.17396304,-0.09799625,0.02678296\N,0,2.53000358,-
 0.45812684,0.11053353\C,0,0.67650517,1.18321496,0.07609162\N,0,-0.6780
 0931,1.14376818,0.05316553\H,0,-2.37191786,-1.43615391,-0.82305635\H,0
 ,-3.06500964,-0.48478246,0.32999725\H,0,-0.76998631,-0.67581098,1.0925

 Normal termination of Gaussian 16 at Wed Apr  9 18:21:25 2025.
