 Gaussian 16, Revision C.01,

 ----------------------------------------------------------------------
 #t hf aug-cc-pvdz symm=none int=(grid=ultrafine) guess=(read,tcheck) s
 table=(opt,rrhf)
 ----------------------------------------------------------------------
 -----
 title
 -----
 Symbolic Z-matrix:
 Charge =  0 Multiplicity = 1

 SCF Done:  E(RHF) =  -342.601398310     A.U. after   14 cycles
 Normal termination of Gaussian 16 at Wed Apr  9 19:30:05 2025.
 Gaussian 16:  ES64L-G16RevC.01  3-Jul-2019

 ----------------------------------------------------------------------
 #t hf aug-cc-pvdz iop(5/13=1,5/36=2,99/5=2) pseudo=read geom=check gue
 ss=(read,tcheck) scf=(maxcycle=1)
 ----------------------------------------------------------------------
 -----
 title
 -----
 Structure from the checkpoint file:  "Grambow2020_wb97xd3_009064_reverse_mol2.chk"
 Charge =  0 Multiplicity = 1

                         Standard orientation:
 ---------------------------------------------------------------------
 Center     Atomic      Atomic             Coordinates (Angstroms)
 Number     Number       Type             X           Y           Z
 ---------------------------------------------------------------------
      1          8           0       -0.002682   -0.967977   -0.080892
      2          6           0        1.105957   -0.146182   -0.034413
      3          6           0        0.661635    1.286785   -0.175381
      4          6           0       -0.818737    1.214803    0.180101
      5          6           0       -1.160387   -0.250160    0.010152
      6          8           0       -2.227654   -0.770644   -0.028052
      7          6           0        2.318432   -0.646925    0.105592
      8          1           0        0.796257    1.608594   -1.210406
      9          1           0        1.241115    1.952492    0.460806
     10          1           0       -1.474470    1.821550   -0.439928
     11          1           0       -1.011445    1.473739    1.223363
     12          1           0        2.478178   -1.712845    0.186490
     13          1           0        3.171658    0.015515    0.134919
 ---------------------------------------------------------------------

 SCF Done:  E(RHF) =  -344.122909487     A.U. after    2 cycles

 The electronic state is 1-A.
 Alpha  occ. eigenvalues --  -21.11135 -21.05951 -11.53440 -11.48816 -11.45073
 Alpha  occ. eigenvalues --  -11.40504 -11.38473  -1.87649  -1.68596  -1.24341
 Alpha  occ. eigenvalues --   -1.13115  -0.96722  -0.82670  -0.78364  -0.69091
 Alpha  occ. eigenvalues --   -0.65400  -0.61550  -0.57325  -0.56292  -0.54216
 Alpha  occ. eigenvalues --   -0.50051  -0.49468  -0.43296  -0.41225  -0.30235
 Alpha  occ. eigenvalues --   -0.29270
 Alpha virt. eigenvalues --    0.02936   0.04794   0.05267   0.05417   0.05737
 Alpha virt. eigenvalues --    0.06733   0.09213   0.10262   0.11153   0.12036
 Alpha virt. eigenvalues --    0.12243   0.12849   0.13632   0.13913   0.14736

 Mulliken charges:
               1
     1  O   -3.967641
     2  C    4.554055
     3  C   -3.316959
     4  C   -3.727065
     5  C    5.794324
     6  O   -3.467199
     7  C   -4.147467
     8  H    1.324753
     9  H    1.306676
    10  H    1.335620
    11  H    1.365351
    12  H    1.520489
    13  H    1.425065
 Sum of Mulliken charges =   0.00000

 Dipole moment (field-independent basis, Debye):
    X=              1.3316    Y=              1.9831    Z=              0.0464  Tot=              2.3891

 Test job not archived.
 1\1\GINC-SE108\SP\RHF\Aug-CC-pVDZ\C5H6O2\OHZDE\09-Apr-2025\0\\#t hf au
 g-cc-pvdz iop(5/13=1,5/36=2,99/5=2) pseudo=read geom=check guess=(read
 ,tcheck) scf=(maxcycle=1)\\title\\0,1\O,0,1.12195823,0.21513675,0.7787
 9417\C,0,0.71807608,-0.40344315,-0.38775038\C,0,-0.78755756,-0.4016712
 8,-0.44900564\C,0,-1.16173334,0.69269491,0.54367011\C,0,0.0814232,0.85
 066029,1.39298356\O,0,0.21709149,1.42968593,2.42145122\C,0,1.59964444,
 -0.89120997,-1.23943034\H,0,-1.16564624,-1.37122769,-0.11738627\H,0,-1
 .14920967,-0.22886497,-1.46046151\H,0,-2.01682056,0.47081137,1.1778283

 Normal termination of Gaussian 16 at Wed Apr  9 19:30:10 2025.
