 Gaussian 16, Revision C.01,

 ----------------------------------------------------------------------
 #t hf aug-cc-pvdz symm=none int=(grid=ultrafine) guess=(read,tcheck) s
 table=(opt,rrhf)
 ----------------------------------------------------------------------
 -----
 title
 -----
 Symbolic Z-matrix:
 Charge =  0 Multiplicity = 1

 SCF Done:  E(RHF) =  -320.536406945     A.U. after   18 cycles
 Normal termination of Gaussian 16 at Wed Apr  9 17:24:10 2025.
 Gaussian 16:  ES64L-G16RevC.01  3-Jul-2019

 ----------------------------------------------------------------------
 #t hf aug-cc-pvdz iop(5/13=1,5/36=2,99/5=2) pseudo=read geom=check gue
 ss=(read,tcheck) scf=(maxcycle=1)
 ----------------------------------------------------------------------
 -----
 title
 -----
 Structure from the checkpoint file:  "Grambow2020_b97d3_007128_reverse_mol1.chk"
 Charge =  0 Multiplicity = 1

                         Standard orientation:
 ---------------------------------------------------------------------
 Center     Atomic      Atomic             Coordinates (Angstroms)
 Number     Number       Type             X           Y           Z
 ---------------------------------------------------------------------
      1          6           0        1.329552   -1.127283    0.406897
      2          7           0        0.279249   -1.018814   -0.446859
      3          6           0       -0.865405   -0.029331   -0.098491
      4          8           0       -1.988235   -0.458133    0.131985
      5          6           0       -0.283304    1.256743    0.074742
      6          8           0        1.027276    1.430981   -0.160765
      7          1           0        1.577052    0.576963    0.149598
      8          1           0        1.098239   -1.042769    1.471934
      9          1           0        2.176960   -1.740390    0.096688
     10          1           0        0.563414   -0.993214   -1.431087
     11          1           0       -0.767791    1.947549    0.772231
 ---------------------------------------------------------------------

 SCF Done:  E(RHF) =  -321.957783795     A.U. after    2 cycles

 The electronic state is 1-A.
 Alpha  occ. eigenvalues --  -21.09063 -21.01428 -15.85549 -11.52367 -11.49381
 Alpha  occ. eigenvalues --  -11.38064  -1.74142  -1.66925  -1.44357  -1.05003
 Alpha  occ. eigenvalues --   -0.96884  -0.81847  -0.72965  -0.68815  -0.64452
 Alpha  occ. eigenvalues --   -0.59277  -0.55068  -0.47933  -0.46164  -0.42626
 Alpha  occ. eigenvalues --   -0.37505  -0.27812  -0.20580
 Alpha virt. eigenvalues --    0.01697   0.02098   0.04429   0.04594   0.06702
 Alpha virt. eigenvalues --    0.07205   0.09581   0.10893   0.11320   0.12397
 Alpha virt. eigenvalues --    0.12975   0.13928   0.14897   0.15258   0.16609

 Mulliken charges:
               1
     1  C   -2.231128
     2  N   -2.368832
     3  C    3.716748
     4  O   -3.160087
     5  C    0.499146
     6  O   -2.983140
     7  H    1.448684
     8  H    1.478994
     9  H    1.422875
    10  H    0.718664
    11  H    1.458075
 Sum of Mulliken charges =  -0.00000

 Dipole moment (field-independent basis, Debye):
    X=              3.5975    Y=             -2.8824    Z=             -0.1216  Tot=              4.6114

 Test job not archived.
 1\1\GINC-SE173\SP\RHF\Aug-CC-pVDZ\C3H5N1O2\OHZDE\09-Apr-2025\0\\#t hf
 aug-cc-pvdz iop(5/13=1,5/36=2,99/5=2) pseudo=read geom=check guess=(re
 ad,tcheck) scf=(maxcycle=1)\\title\\0,1\C,0,-0.63622504,1.19776021,-0.
 31739867\N,0,0.23741994,0.7670375,0.62865836\C,0,0.28526975,-0.7480798
 1,0.96451566\O,0,-0.04053503,-1.1323773,2.07982097\C,0,0.54196484,-1.4
 4837849,-0.24648657\O,0,0.77949986,-0.76058925,-1.37518741\H,0,0.17857
 049,0.11438537,-1.41024881\H,0,-1.60036051,0.68401407,-0.35559575\H,0,
 -0.58178071,2.24376667,-0.62258343\H,0,1.16145112,1.20293296,0.5494697

 Normal termination of Gaussian 16 at Wed Apr  9 17:24:14 2025.
