 Gaussian 16, Revision C.01,

 ----------------------------------------------------------------------
 #t hf aug-cc-pvdz symm=none int=(grid=ultrafine) guess=(read,tcheck) s
 table=(opt,rrhf)
 ----------------------------------------------------------------------
 -----
 title
 -----
 Symbolic Z-matrix:
 Charge =  0 Multiplicity = 1

 SCF Done:  E(RHF) =  -317.436836469     A.U. after   17 cycles
 Normal termination of Gaussian 16 at Wed Apr  9 19:26:54 2025.
 Gaussian 16:  ES64L-G16RevC.01  3-Jul-2019

 ----------------------------------------------------------------------
 #t hf aug-cc-pvdz iop(5/13=1,5/36=2,99/5=2) pseudo=read geom=check gue
 ss=(read,tcheck) scf=(maxcycle=1)
 ----------------------------------------------------------------------
 -----
 title
 -----
 Structure from the checkpoint file:  "Grambow2020_wb97xd3_008973_reverse_mol1.chk"
 Charge =  0 Multiplicity = 1

                         Standard orientation:
 ---------------------------------------------------------------------
 Center     Atomic      Atomic             Coordinates (Angstroms)
 Number     Number       Type             X           Y           Z
 ---------------------------------------------------------------------
      1          7           0        0.103939    1.651829   -0.373017
      2          6           0        0.051779    0.528850    0.492805
      3          6           0        1.470163   -0.012910    0.485917
      4          7           0        1.368376   -0.924958   -0.412528
      5          6           0       -0.142767   -1.025286   -0.183870
      6          7           0       -1.495785   -0.609444   -0.555793
      7          6           0       -1.346263    0.017356    0.613180
      8          1           0        0.650483    1.533782   -1.215734
      9          1           0       -0.805801    2.031718   -0.589591
     10          1           0        2.400915    0.389072    0.880770
     11          1           0       -0.198111   -1.913758    0.447569
     12          1           0       -2.080665    0.089138    1.418153
 ---------------------------------------------------------------------

 SCF Done:  E(RHF) =  -318.902823950     A.U. after    2 cycles

 The electronic state is 1-A.
 Alpha  occ. eigenvalues --  -15.76430 -15.75752 -15.74472 -11.52175 -11.49983
 Alpha  occ. eigenvalues --  -11.47773 -11.42887  -1.58148  -1.37347  -1.31745
 Alpha  occ. eigenvalues --   -0.99907  -0.93882  -0.88519  -0.77860  -0.71201
 Alpha  occ. eigenvalues --   -0.67547  -0.62406  -0.57839  -0.54364  -0.50851
 Alpha  occ. eigenvalues --   -0.48369  -0.41212  -0.38167  -0.32396  -0.25963
 Alpha virt. eigenvalues --    0.03458   0.05083   0.05494   0.06015   0.06717
 Alpha virt. eigenvalues --    0.07275   0.09695   0.10477   0.10789   0.11363
 Alpha virt. eigenvalues --    0.12124   0.13032   0.13622   0.14318   0.15133

 Mulliken charges:
               1
     1  N   -2.182213
     2  C    0.454063
     3  C    0.323120
     4  N   -2.131016
     5  C    0.763523
     6  N   -2.123936
     7  C   -0.092859
     8  H    0.593638
     9  H    0.664909
    10  H    1.206839
    11  H    1.394060
    12  H    1.129871
 Sum of Mulliken charges =   0.00000

 Dipole moment (field-independent basis, Debye):
    X=              0.0999    Y=              1.4572    Z=              1.5573  Tot=              2.1351

 Test job not archived.
 1\1\GINC-SE041\SP\RHF\Aug-CC-pVDZ\C4H5N3\OHZDE\09-Apr-2025\0\\#t hf au
 g-cc-pvdz iop(5/13=1,5/36=2,99/5=2) pseudo=read geom=check guess=(read
 ,tcheck) scf=(maxcycle=1)\\title\\0,1\N,0,-1.54378574,0.16720164,-0.30
 130909\C,0,-0.34895073,-0.00740889,0.44389634\C,0,0.20569044,1.3981132
 2,0.59305192\N,0,1.03310574,1.4290194,-0.38869269\C,0,1.13665579,-0.09
 910913,-0.39015248\N,0,0.6744851,-1.38495152,-0.91447766\C,0,0.1557391
 7,-1.40718203,0.31521383\H,0,-1.49506549,0.83004732,-1.06359432\H,0,-1
 .95144636,-0.70240551,-0.61186236\H,0,-0.14930387,2.26123797,1.1523292

 Normal termination of Gaussian 16 at Wed Apr  9 19:26:58 2025.
