 Gaussian 16, Revision C.01,

 ----------------------------------------------------------------------
 #t hf aug-cc-pvdz symm=none int=(grid=ultrafine) guess=(read,tcheck) s
 table=(opt,rrhf)
 ----------------------------------------------------------------------
 -----
 title
 -----
 Symbolic Z-matrix:
 Charge =  0 Multiplicity = 1

 SCF Done:  E(RHF) =  -307.867931326     A.U. after   14 cycles

 1\1\GINC-SE220\Stability\RHF\Aug-CC-pVDZ\C6H10O1\OHZDE\09-Apr-2025\0\\
 #t hf aug-cc-pvdz symm=none int=(grid=ultrafine) guess=(read,tcheck) s
 table=(opt,rrhf)\\title\\0,1\C,0,1.85104512,-0.47313546,0.10914941\C,0
 ,0.95799258,-0.82875129,1.2568336\C,0,-0.49946195,2.07599015,-1.545174
 76\C,0,-0.98372664,1.1755361,-0.70450618\O,0,-0.95223451,-0.15131792,-
 0.96852175\C,0,-1.32038317,-0.99828572,0.10584871\C,0,-0.35107359,-1.0
 5234297,1.25600385\H,0,2.73362836,-1.11721211,0.11436774\H,0,2.2087960
 7,0.55527236,0.20944315\H,0,1.35498586,-0.56420361,-0.85323848\H,0,1.4

 Normal termination of Gaussian 16 at Wed Apr  9 19:16:14 2025.
 Gaussian 16:  ES64L-G16RevC.01  3-Jul-2019

 ----------------------------------------------------------------------
 #t hf aug-cc-pvdz iop(5/13=1,5/36=2,99/5=2) pseudo=read geom=check gue
 ss=(read,tcheck) scf=(maxcycle=1)
 ----------------------------------------------------------------------
 -----
 title
 -----
 Structure from the checkpoint file:  "Grambow2020_wb97xd3_008510_reverse_mol2.chk"
 Charge =  0 Multiplicity = 1

                         Standard orientation:
 ---------------------------------------------------------------------
 Center     Atomic      Atomic             Coordinates (Angstroms)
 Number     Number       Type             X           Y           Z
 ---------------------------------------------------------------------
      1          6           0       -1.254309    1.598597    0.378951
      2          6           0       -1.824858    0.445666   -0.386822
      3          6           0        2.449853    0.790448   -0.242172
      4          6           0        1.532883   -0.154186   -0.379598
      5          8           0        0.794509   -0.602663    0.661992
      6          6           0       -0.278883   -1.463993    0.325687
      7          6           0       -1.427126   -0.821271   -0.404920
      8          1           0       -2.057001    2.137604    0.887845
      9          1           0       -0.777486    2.309219   -0.301728
     10          1           0       -0.516271    1.290528    1.114445
     11          1           0       -2.681061    0.688474   -1.011495
     12          1           0        3.036736    1.095402   -1.095900
     13          1           0        2.635029    1.258812    0.715747
     14          1           0        1.328450   -0.629109   -1.336887
     15          1           0       -0.617640   -1.884047    1.275812
     16          1           0        0.103002   -2.299382   -0.274588
     17          1           0       -1.995192   -1.517763   -1.015946
 ---------------------------------------------------------------------

 SCF Done:  E(RHF) =  -309.334126153     A.U. after    2 cycles

 The electronic state is 1-A.
 Alpha  occ. eigenvalues --  -21.06685 -11.45677 -11.44047 -11.42956 -11.38836
 Alpha  occ. eigenvalues --  -11.36437 -11.36019  -1.78977  -1.21633  -1.11464
 Alpha  occ. eigenvalues --   -1.04464  -0.93267  -0.81465  -0.75297  -0.67451
 Alpha  occ. eigenvalues --   -0.65323  -0.61663  -0.56761  -0.55959  -0.53279
 Alpha  occ. eigenvalues --   -0.51913  -0.51333  -0.47655  -0.43163  -0.39110
 Alpha  occ. eigenvalues --   -0.33916  -0.26542
 Alpha virt. eigenvalues --    0.03671   0.05033   0.05307   0.05381   0.05769
 Alpha virt. eigenvalues --    0.05994   0.06605   0.07031   0.07417   0.09307
 Alpha virt. eigenvalues --    0.11941   0.12387   0.12559   0.12867   0.14120

 Mulliken charges:
               1
     1  C   -4.620132
     2  C   -0.324639
     3  C   -3.088015
     4  C    0.781446
     5  O   -3.189871
     6  C   -2.254499
     7  C   -1.014632
     8  H    1.096749
     9  H    1.207509
    10  H    1.573362
    11  H    1.345451
    12  H    1.313437
    13  H    1.456444
    14  H    1.721128
    15  H    1.274517
    16  H    1.263214
    17  H    1.458532
 Sum of Mulliken charges =   0.00000

 Dipole moment (field-independent basis, Debye):
    X=             -0.9837    Y=             -0.5237    Z=             -0.0764  Tot=              1.1170

 Test job not archived.
 1\1\GINC-SE220\SP\RHF\Aug-CC-pVDZ\C6H10O1\OHZDE\09-Apr-2025\0\\#t hf a
 ug-cc-pvdz iop(5/13=1,5/36=2,99/5=2) pseudo=read geom=check guess=(rea
 d,tcheck) scf=(maxcycle=1)\\title\\0,1\C,0,1.85104512,-0.47313546,0.10
 914941\C,0,0.95799258,-0.82875129,1.2568336\C,0,-0.49946195,2.07599015
 ,-1.54517476\C,0,-0.98372664,1.1755361,-0.70450618\O,0,-0.95223451,-0.
 15131792,-0.96852175\C,0,-1.32038317,-0.99828572,0.10584871\C,0,-0.351
 07359,-1.05234297,1.25600385\H,0,2.73362836,-1.11721211,0.11436774\H,0
 ,2.20879607,0.55527236,0.20944315\H,0,1.35498586,-0.56420361,-0.853238

 Normal termination of Gaussian 16 at Wed Apr  9 19:16:20 2025.
