 Gaussian 16, Revision C.01,

 ----------------------------------------------------------------------
 #t hf aug-cc-pvdz symm=none int=(grid=ultrafine) guess=(read,tcheck) s
 table=(opt,rrhf)
 ----------------------------------------------------------------------
 -----
 title
 -----
 Symbolic Z-matrix:
 Charge =  0 Multiplicity = 1

 SCF Done:  E(RHF) =  -373.320945729     A.U. after   16 cycles
 Normal termination of Gaussian 16 at Wed Apr  9 04:04:27 2025.
 Gaussian 16:  ES64L-G16RevC.01  3-Jul-2019

 ----------------------------------------------------------------------
 #t hf aug-cc-pvdz iop(5/13=1,5/36=2,99/5=2) pseudo=read geom=check gue
 ss=(read,tcheck) scf=(maxcycle=1)
 ----------------------------------------------------------------------
 -----
 title
 -----
 Structure from the checkpoint file:  "Grambow2020_wb97xd3_009226_reverse_mol1.chk"
 Charge =  0 Multiplicity = 1

                         Standard orientation:
 ---------------------------------------------------------------------
 Center     Atomic      Atomic             Coordinates (Angstroms)
 Number     Number       Type             X           Y           Z
 ---------------------------------------------------------------------
      1          7           0        0.357560    1.473333   -0.018317
      2          6           0        0.557897    0.254782   -0.074993
      3          8           0       -0.287059   -0.821509   -0.055474
      4          6           0       -1.637639   -0.663463    0.012778
      5          8           0       -2.228034    0.366677    0.051364
      6          6           0        2.032687   -0.334899   -0.598251
      7          7           0        2.088881   -0.322645    0.585421
      8          1           0       -0.632555    1.706729    0.000698
      9          1           0       -2.089458   -1.661409    0.025261
 ---------------------------------------------------------------------

 SCF Done:  E(RHF) =  -374.903490551     A.U. after    2 cycles

 The electronic state is 1-A.
 Alpha  occ. eigenvalues --  -21.16775 -21.11557 -15.82227 -15.78663 -11.57493
 Alpha  occ. eigenvalues --  -11.56315 -11.44189  -1.92158  -1.74133  -1.46173
 Alpha  occ. eigenvalues --   -1.33773  -0.98044  -0.84379  -0.73579  -0.72327
 Alpha  occ. eigenvalues --   -0.66744  -0.61886  -0.59642  -0.54869  -0.51683
 Alpha  occ. eigenvalues --   -0.49578  -0.45296  -0.42068  -0.37746  -0.34864
 Alpha virt. eigenvalues --    0.03093   0.06244   0.06571   0.08643   0.09119
 Alpha virt. eigenvalues --    0.09219   0.09937   0.10860   0.11437   0.12842
 Alpha virt. eigenvalues --    0.13066   0.14556   0.15329   0.15845   0.17091

 Mulliken charges:
               1
     1  N   -3.068782
     2  C    4.166652
     3  O   -3.033774
     4  C    2.210694
     5  O   -2.508625
     6  C    0.399639
     7  N   -0.810644
     8  H    0.860696
     9  H    1.784144
 Sum of Mulliken charges =  -0.00000

 Dipole moment (field-independent basis, Debye):
    X=             -2.5804    Y=             -1.2287    Z=              0.5286  Tot=              2.9065

 Test job not archived.
 1\1\GINC-SE072\SP\RHF\Aug-CC-pVDZ\C3H2N2O2\OHZDE\09-Apr-2025\0\\#t hf
 aug-cc-pvdz iop(5/13=1,5/36=2,99/5=2) pseudo=read geom=check guess=(re
 ad,tcheck) scf=(maxcycle=1)\\title\\0,1\N,0,-1.40573037,-0.52947895,-0
 .4782922\C,0,-0.73097667,0.32147873,0.11229328\O,0,0.61641083,0.457341
 89,0.30932555\C,0,1.50415315,-0.43385625,-0.21161797\O,0,1.24497666,-1
 .38448059,-0.87523247\C,0,-1.40000613,1.80107901,0.51193077\N,0,-1.501
 48384,1.1260651,1.4806649\H,0,-0.8326762,-1.23246805,-0.9393543\H,0,2.
 50887155,-0.1180839,0.09007944\\Version=ES64L-G16RevC.01\State=1-A\HF=

 Normal termination of Gaussian 16 at Wed Apr  9 04:04:30 2025.
