 Gaussian 16, Revision C.01,

 ----------------------------------------------------------------------
 #t hf aug-cc-pvdz symm=none int=(grid=ultrafine) guess=(read,tcheck) s
 table=(opt,rrhf)
 ----------------------------------------------------------------------
 -----
 title
 -----
 Symbolic Z-matrix:
 Charge =  0 Multiplicity = 1

 SCF Done:  E(RHF) =  -394.422760485     A.U. after   15 cycles
 Normal termination of Gaussian 16 at Wed Apr  9 18:30:06 2025.
 Gaussian 16:  ES64L-G16RevC.01  3-Jul-2019

 ----------------------------------------------------------------------
 #t hf aug-cc-pvdz iop(5/13=1,5/36=2,99/5=2) pseudo=read geom=check gue
 ss=(read,tcheck) scf=(maxcycle=1)
 ----------------------------------------------------------------------
 -----
 title
 -----
 Structure from the checkpoint file:  "Grambow2020_wb97xd3_007198_forward_mol2.chk"
 Charge =  0 Multiplicity = 1

                         Standard orientation:
 ---------------------------------------------------------------------
 Center     Atomic      Atomic             Coordinates (Angstroms)
 Number     Number       Type             X           Y           Z
 ---------------------------------------------------------------------
      1          7           0        1.464872   -1.447097    0.316482
      2          6           0        0.713557   -0.515166   -0.043490
      3          8           0       -0.441034   -0.686160   -0.778519
      4          6           0       -1.589544   -0.196895   -0.241069
      5          8           0       -1.711949    0.150059    0.887666
      6          6           0        1.137822    0.913948    0.192289
      7          8           0        0.581946    1.847631   -0.304307
      8          1           0        1.089948   -2.360503    0.067307
      9          1           0       -2.374983   -0.212751   -1.004496
     10          1           0        2.028215    0.999378    0.836723
 ---------------------------------------------------------------------

 SCF Done:  E(RHF) =  -396.063368653     A.U. after    2 cycles

 The electronic state is 1-A.
 Alpha  occ. eigenvalues --  -21.14078 -21.09824 -21.09079 -15.78780 -11.54032
 Alpha  occ. eigenvalues --  -11.53190 -11.48568  -1.89950  -1.74470  -1.70783
 Alpha  occ. eigenvalues --   -1.36876  -1.01628  -0.92442  -0.78005  -0.72093
 Alpha  occ. eigenvalues --   -0.69514  -0.63824  -0.57438  -0.55856  -0.53544
 Alpha  occ. eigenvalues --   -0.48937  -0.44465  -0.42490  -0.36423  -0.33671
 Alpha  occ. eigenvalues --   -0.32405
 Alpha virt. eigenvalues --    0.03478   0.04989   0.05921   0.08430   0.09708
 Alpha virt. eigenvalues --    0.10083   0.10708   0.11503   0.11748   0.12152
 Alpha virt. eigenvalues --    0.12890   0.14266   0.15248   0.16110   0.16857

 Mulliken charges:
               1
     1  N   -3.344904
     2  C    4.512322
     3  O   -3.351649
     4  C    2.008288
     5  O   -2.370692
     6  C    1.365373
     7  O   -2.716079
     8  H    0.780022
     9  H    1.575558
    10  H    1.541760
 Sum of Mulliken charges =  -0.00000

 Dipole moment (field-independent basis, Debye):
    X=             -0.8035    Y=             -0.8281    Z=             -1.0058  Tot=              1.5307

 Test job not archived.
 1\1\GINC-SE224\SP\RHF\Aug-CC-pVDZ\C3H3N1O3\OHZDE\09-Apr-2025\0\\#t hf
 aug-cc-pvdz iop(5/13=1,5/36=2,99/5=2) pseudo=read geom=check guess=(re
 ad,tcheck) scf=(maxcycle=1)\\title\\0,1\N,0,-0.92621538,1.4353699,-0.8
 7043655\C,0,-0.48035503,0.36839133,-0.39576509\O,0,0.70241533,-0.22331
 219,-0.78759183\C,0,1.62185748,-0.46131163,0.18466965\O,0,1.58274377,0
 .00021097,1.27777018\C,0,-1.33073063,-0.4312577,0.56099164\O,0,-1.0653
 065,-1.54919329,0.88831356\H,0,-0.27968257,1.86086964,-1.53218602\H,0,
 2.40735579,-1.10942532,-0.21897479\H,0,-2.23208226,0.10965829,0.893209

 Normal termination of Gaussian 16 at Wed Apr  9 18:30:10 2025.
