 Gaussian 16, Revision C.01,

 ----------------------------------------------------------------------
 #t hf aug-cc-pvdz symm=none int=(grid=ultrafine) guess=(read,tcheck) s
 table=(opt,rrhf)
 ----------------------------------------------------------------------
 -----
 title
 -----
 Symbolic Z-matrix:
 Charge =  0 Multiplicity = 1

 SCF Done:  E(RHF) =  -295.726217233     A.U. after   16 cycles
 Normal termination of Gaussian 16 at Wed Apr  9 16:18:40 2025.
 Gaussian 16:  ES64L-G16RevC.01  3-Jul-2019

 ----------------------------------------------------------------------
 #t hf aug-cc-pvdz iop(5/13=1,5/36=2,99/5=2) pseudo=read geom=check gue
 ss=(read,tcheck) scf=(maxcycle=1)
 ----------------------------------------------------------------------
 -----
 title
 -----
 Structure from the checkpoint file:  "Grambow2020_b97d3_006789_reverse_mol2.chk"
 Charge =  0 Multiplicity = 1

                         Standard orientation:
 ---------------------------------------------------------------------
 Center     Atomic      Atomic             Coordinates (Angstroms)
 Number     Number       Type             X           Y           Z
 ---------------------------------------------------------------------
      1          7           0       -0.347864    1.539269   -0.029036
      2          6           0        0.019403    0.172481   -0.024447
      3          7           0       -0.845534   -0.938399   -0.023981
      4          7           0       -2.093709   -0.748796    0.025907
      5          6           0        2.455677   -0.406450    0.171736
      6          7           0        1.294809   -0.117893   -0.038292
      7          1           0       -1.043776    1.740953   -0.750572
      8          1           0       -0.722645    1.843129    0.873068
      9          1           0       -2.318113    0.286976    0.076729
     10          1           0        3.180135   -0.606518   -0.625145
 ---------------------------------------------------------------------

 SCF Done:  E(RHF) =  -297.056077822     A.U. after    2 cycles

 The electronic state is 1-A.
 Alpha  occ. eigenvalues --  -15.85097 -15.81409 -15.79890 -15.78043 -11.48334
 Alpha  occ. eigenvalues --  -11.43734  -1.56642  -1.43861  -1.32225  -1.09359
 Alpha  occ. eigenvalues --   -0.92403  -0.76959  -0.71869  -0.69850  -0.67884
 Alpha  occ. eigenvalues --   -0.56562  -0.51891  -0.49179  -0.48885  -0.42382
 Alpha  occ. eigenvalues --   -0.36608  -0.29606
 Alpha virt. eigenvalues --    0.03113   0.04541   0.05649   0.06538   0.07563
 Alpha virt. eigenvalues --    0.09112   0.09878   0.11818   0.12727   0.13088
 Alpha virt. eigenvalues --    0.13998   0.15188   0.16213   0.16623   0.18277

 Mulliken charges:
               1
     1  N   -2.631101
     2  C    4.635087
     3  N   -0.742903
     4  N   -1.342349
     5  C   -1.088120
     6  N   -2.282457
     7  H    0.609240
     8  H    0.600658
     9  H    0.621266
    10  H    1.620680
 Sum of Mulliken charges =  -0.00000

 Dipole moment (field-independent basis, Debye):
    X=              0.2279    Y=              2.4305    Z=             -1.1104  Tot=              2.6818

 Test job not archived.
 1\1\GINC-SE173\SP\RHF\Aug-CC-pVDZ\C2H4N4\OHZDE\09-Apr-2025\0\\#t hf au
 g-cc-pvdz iop(5/13=1,5/36=2,99/5=2) pseudo=read geom=check guess=(read
 ,tcheck) scf=(maxcycle=1)\\title\\0,1\N,0,1.32096856,-0.14876449,-0.14
 166833\C,0,-0.07520825,0.04413837,-0.0132349\N,0,-1.05009437,-0.944052
 72,0.22180915\N,0,-0.69788753,-2.15578549,0.2853237\C,0,-1.00090385,2.
 34684527,-0.40015453\N,0,-0.53434642,1.2657735,-0.10249776\H,0,1.69518
 536,-0.71874404,0.62034766\H,0,1.57105884,-0.59329471,-1.02847847\H,0,
 0.34672091,-2.25568727,0.1285573\H,0,-1.20848525,3.13521658,0.3314642\

 Normal termination of Gaussian 16 at Wed Apr  9 16:18:43 2025.
