 Gaussian 16, Revision C.01,

 ----------------------------------------------------------------------
 #t hf aug-cc-pvdz symm=none int=(grid=ultrafine) guess=(read,tcheck) s
 table=(opt,rrhf)
 ----------------------------------------------------------------------
 -----
 title
 -----
 Symbolic Z-matrix:
 Charge =  0 Multiplicity = 1

 SCF Done:  E(RHF) =  -285.938822426     A.U. after   14 cycles
 Normal termination of Gaussian 16 at Wed Apr  9 03:21:10 2025.
 Gaussian 16:  ES64L-G16RevC.01  3-Jul-2019

 ----------------------------------------------------------------------
 #t hf aug-cc-pvdz iop(5/13=1,5/36=2,99/5=2) pseudo=read geom=check gue
 ss=(read,tcheck) scf=(maxcycle=1)
 ----------------------------------------------------------------------
 -----
 title
 -----
 Structure from the checkpoint file:  "Grambow2020_wb97xd3_006063_forward_mol1.chk"
 Charge =  0 Multiplicity = 1

                         Standard orientation:
 ---------------------------------------------------------------------
 Center     Atomic      Atomic             Coordinates (Angstroms)
 Number     Number       Type             X           Y           Z
 ---------------------------------------------------------------------
      1          6           0       -2.397708   -0.463947    0.510740
      2          6           0       -1.477329    0.211485   -0.480154
      3          6           0       -0.619850    1.223303   -0.102485
      4          6           0        1.251372    0.077202    0.018849
      5          8           0        0.791371   -1.031504   -0.381004
      6          7           0        2.543526    0.104650    0.307807
      7          1           0       -2.596531   -1.504615    0.243239
      8          1           0       -3.366937    0.039332    0.584177
      9          1           0       -1.955794   -0.465994    1.510952
     10          1           0       -0.270435   -0.754940   -0.543812
     11          1           0       -1.768092    0.170677   -1.527283
     12          1           0       -0.235753    1.930407   -0.826196
     13          1           0       -0.576511    1.568718    0.923876
     14          1           0        3.135386   -0.709878    0.217690
     15          1           0        2.960106    0.957510    0.629046
 ---------------------------------------------------------------------

 SCF Done:  E(RHF) =  -287.326825136     A.U. after    2 cycles

 The electronic state is 1-A.
 Alpha  occ. eigenvalues --  -21.06740 -15.78589 -11.44433 -11.41098 -11.37238
 Alpha  occ. eigenvalues --  -11.32838  -1.75902  -1.34215  -1.18631  -0.98320
 Alpha  occ. eigenvalues --   -0.83490  -0.78225  -0.72150  -0.63036  -0.61320
 Alpha  occ. eigenvalues --   -0.56787  -0.55422  -0.52636  -0.52106  -0.48113
 Alpha  occ. eigenvalues --   -0.45392  -0.34665  -0.33159  -0.26776
 Alpha virt. eigenvalues --    0.03381   0.05076   0.05537   0.05980   0.06220
 Alpha virt. eigenvalues --    0.06453   0.06959   0.07228   0.09435   0.11975
 Alpha virt. eigenvalues --    0.12417   0.13306   0.13595   0.15046   0.15725

 Mulliken charges:
               1
     1  C   -4.023718
     2  C   -1.898689
     3  C   -3.376598
     4  C    3.577800
     5  O   -3.301849
     6  N   -2.826150
     7  H    1.199465
     8  H    1.237390
     9  H    1.250085
    10  H    2.541358
    11  H    1.351519
    12  H    1.366991
    13  H    1.423455
    14  H    0.732680
    15  H    0.746261
 Sum of Mulliken charges =  -0.00000

 Dipole moment (field-independent basis, Debye):
    X=              2.7187    Y=              0.1462    Z=              0.4611  Tot=              2.7613

 Test job not archived.
 1\1\GINC-SE128\SP\RHF\Aug-CC-pVDZ\C4H9N1O1\OHZDE\09-Apr-2025\0\\#t hf
 aug-cc-pvdz iop(5/13=1,5/36=2,99/5=2) pseudo=read geom=check guess=(re
 ad,tcheck) scf=(maxcycle=1)\\title\\0,1\C,0,2.11156715,0.50000513,-0.2
 7379406\C,0,0.9878534,-0.42071027,-0.69179997\C,0,0.24527283,-1.126477
 76,0.23131805\C,0,-1.54990696,0.13999831,0.28708875\O,0,-1.19934718,0.
 96171988,-0.60878597\N,0,-2.73907652,0.34232895,0.83376051\H,0,2.23919
 694,1.33387058,-0.9683853\H,0,3.07286701,-0.02033895,-0.21695524\H,0,1
 .91485429,0.92832898,0.71289775\H,0,-0.20380166,0.54979044,-0.8726586\

 Normal termination of Gaussian 16 at Wed Apr  9 03:21:14 2025.
