 Gaussian 16, Revision C.01,

 ----------------------------------------------------------------------
 #t hf aug-cc-pvdz symm=none int=(grid=ultrafine) guess=(read,tcheck) s
 table=(opt,rrhf)
 ----------------------------------------------------------------------
 -----
 title
 -----
 Symbolic Z-matrix:
 Charge =  0 Multiplicity = 1

 SCF Done:  E(RHF) =  -322.446321416     A.U. after   17 cycles
 Normal termination of Gaussian 16 at Wed Apr  9 18:50:43 2025.
 Gaussian 16:  ES64L-G16RevC.01  3-Jul-2019

 ----------------------------------------------------------------------
 #t hf aug-cc-pvdz iop(5/13=1,5/36=2,99/5=2) pseudo=read geom=check gue
 ss=(read,tcheck) scf=(maxcycle=1)
 ----------------------------------------------------------------------
 -----
 title
 -----
 Structure from the checkpoint file:  "Grambow2020_wb97xd3_007711_forward_mol1.chk"
 Charge =  0 Multiplicity = 1

                         Standard orientation:
 ---------------------------------------------------------------------
 Center     Atomic      Atomic             Coordinates (Angstroms)
 Number     Number       Type             X           Y           Z
 ---------------------------------------------------------------------
      1          6           0       -2.519607    0.136997    0.278989
      2          7           0       -1.439376   -0.583362   -0.353225
      3          6           0       -0.250414   -0.216571   -0.063392
      4          8           0        0.358745    1.181588   -0.248379
      5          6           0        1.594262    0.700050   -0.086463
      6          6           0        1.712959   -0.499442    0.697321
      7          6           0        1.010540   -0.945969   -0.445563
      8          1           0       -2.707601    1.089307   -0.229461
      9          1           0       -3.432884   -0.456137    0.231799
     10          1           0       -2.299706    0.363652    1.331799
     11          1           0        2.440255    1.332644   -0.322903
     12          1           0        0.085982   -0.165545    1.214814
     13          1           0        2.628420   -0.882368    1.138708
     14          1           0        1.204773   -1.701116   -1.190492
 ---------------------------------------------------------------------

 SCF Done:  E(RHF) =  -323.971342841     A.U. after    2 cycles

 The electronic state is 1-A.
 Alpha  occ. eigenvalues --  -21.08124 -15.68283 -11.53617 -11.51225 -11.50417
 Alpha  occ. eigenvalues --  -11.44224 -11.36045  -1.82813  -1.35123  -1.29029
 Alpha  occ. eigenvalues --   -1.03130  -0.91613  -0.84757  -0.81433  -0.69744
 Alpha  occ. eigenvalues --   -0.65847  -0.61325  -0.57568  -0.55510  -0.54584
 Alpha  occ. eigenvalues --   -0.52271  -0.45728  -0.38641  -0.33279  -0.32690
 Alpha  occ. eigenvalues --   -0.24215
 Alpha virt. eigenvalues --    0.03012   0.04103   0.04823   0.05503   0.06122
 Alpha virt. eigenvalues --    0.07311   0.07672   0.08500   0.08960   0.10503
 Alpha virt. eigenvalues --    0.10862   0.11779   0.13287   0.13938   0.14371

 Mulliken charges:
               1
     1  C   -3.614081
     2  N   -3.192235
     3  C    4.260993
     4  O   -3.102830
     5  C    1.433351
     6  C   -2.266578
     7  C   -1.982823
     8  H    1.330796
     9  H    1.308952
    10  H    1.242502
    11  H    1.491114
    12  H    0.912833
    13  H    1.222758
    14  H    0.955248
 Sum of Mulliken charges =  -0.00000

 Dipole moment (field-independent basis, Debye):
    X=              3.8513    Y=              0.6290    Z=              0.2476  Tot=              3.9102

 Test job not archived.
 1\1\GINC-SE232\SP\RHF\Aug-CC-pVDZ\C5H7N1O1\OHZDE\09-Apr-2025\0\\#t hf
 aug-cc-pvdz iop(5/13=1,5/36=2,99/5=2) pseudo=read geom=check guess=(re
 ad,tcheck) scf=(maxcycle=1)\\title\\0,1\C,0,2.2594845,0.02879146,0.902
 59771\N,0,1.1593057,0.8658034,0.4848307\C,0,0.11442566,0.2743627,0.048
 25979\O,0,0.02927304,-0.70444415,-1.13276939\C,0,-1.30079033,-0.587445
 39,-1.17567031\C,0,-1.94912233,-0.23083247,0.05708279\C,0,-1.20692066,
 0.93295048,-0.24903678\H,0,2.83796379,-0.31972051,0.039662\H,0,2.92803
 356,0.59755814,1.54886042\H,0,1.91328796,-0.86060044,1.44782043\H,0,-1

 Normal termination of Gaussian 16 at Wed Apr  9 18:50:48 2025.
