 Gaussian 16, Revision C.01,

 ----------------------------------------------------------------------
 #t hf aug-cc-pvdz symm=none int=(grid=ultrafine) guess=(read,tcheck) s
 table=(opt,rrhf)
 ----------------------------------------------------------------------
 -----
 title
 -----
 Symbolic Z-matrix:
 Charge =  0 Multiplicity = 1

 SCF Done:  E(RHF) =  -264.965574079     A.U. after   16 cycles
 Normal termination of Gaussian 16 at Wed Apr  9 03:21:08 2025.
 Gaussian 16:  ES64L-G16RevC.01  3-Jul-2019

 ----------------------------------------------------------------------
 #t hf aug-cc-pvdz iop(5/13=1,5/36=2,99/5=2) pseudo=read geom=check gue
 ss=(read,tcheck) scf=(maxcycle=1)
 ----------------------------------------------------------------------
 -----
 title
 -----
 Structure from the checkpoint file:  "Grambow2020_wb97xd3_006062_reverse_mol2.chk"
 Charge =  0 Multiplicity = 1

                         Standard orientation:
 ---------------------------------------------------------------------
 Center     Atomic      Atomic             Coordinates (Angstroms)
 Number     Number       Type             X           Y           Z
 ---------------------------------------------------------------------
      1          6           0       -0.044954    1.711392    0.076852
      2          6           0        0.193039    0.277834   -0.305511
      3          6           0       -2.156029   -0.563736   -0.217504
      4          7           0       -0.791503   -0.636596    0.351269
      5          6           0        1.480821   -0.253903   -0.124628
      6          7           0        2.526167   -0.746485   -0.009940
      7          1           0       -0.129047    1.880526    1.167051
      8          1           0       -0.936286    2.138359   -0.392264
      9          1           0        0.799259    2.307544   -0.267588
     10          1           0       -2.806962   -1.279225    0.285415
     11          1           0       -2.081230   -0.776421   -1.280479
     12          1           0       -2.536938    0.444263   -0.076588
     13          1           0       -0.433297   -1.581459    0.231885
     14          1           0       -0.855411   -0.481545    1.368022
 ---------------------------------------------------------------------

 SCF Done:  E(RHF) =  -266.245730883     A.U. after    2 cycles

 The electronic state is 1-A.
 Alpha  occ. eigenvalues --  -15.87762 -15.70332 -11.44829 -11.40309 -11.39220
 Alpha  occ. eigenvalues --  -11.35349  -1.51006  -1.26183  -1.12477  -1.04296
 Alpha  occ. eigenvalues --   -0.90394  -0.77820  -0.73775  -0.63557  -0.60196
 Alpha  occ. eigenvalues --   -0.59214  -0.56494  -0.54413  -0.50702  -0.46731
 Alpha  occ. eigenvalues --   -0.44096  -0.39294  -0.25066
 Alpha virt. eigenvalues --    0.01861   0.04255   0.04414   0.04896   0.05726
 Alpha virt. eigenvalues --    0.06392   0.06825   0.08100   0.09453   0.11125
 Alpha virt. eigenvalues --    0.12246   0.13081   0.13717   0.14433   0.15116

 Mulliken charges:
               1
     1  C   -3.636066
     2  C   -0.641412
     3  C   -3.547260
     4  N   -2.099209
     5  C    3.205778
     6  N   -2.582429
     7  H    1.233196
     8  H    1.300319
     9  H    1.265406
    10  H    1.255173
    11  H    1.298352
    12  H    1.543049
    13  H    0.748312
    14  H    0.656793
 Sum of Mulliken charges =  -0.00000

 Dipole moment (field-independent basis, Debye):
    X=             -7.1083    Y=             -0.8651    Z=              1.9380  Tot=              7.4184

 Test job not archived.
 1\1\GINC-SE125\SP\RHF\Aug-CC-pVDZ\C4H8N2\OHZDE\09-Apr-2025\0\\#t hf au
 g-cc-pvdz iop(5/13=1,5/36=2,99/5=2) pseudo=read geom=check guess=(read
 ,tcheck) scf=(maxcycle=1)\\title\\0,1\C,0,-0.85587967,1.33534505,-0.25
 767821\C,0,-0.30331999,0.30893389,0.69052539\C,0,1.53603102,-0.6083518
 9,-0.72703692\N,0,0.25150616,-0.87197227,-0.04056641\C,0,-1.13408865,-
 0.15892125,1.72240729\N,0,-1.7677303,-0.57495969,2.60215052\H,0,-1.557
 12677,0.92556869,-1.00904229\H,0,-0.07815326,1.88344485,-0.79765158\H,
 0,-1.41123007,2.07573797,0.31689484\H,0,1.89486537,-1.51926992,-1.2066

 Normal termination of Gaussian 16 at Wed Apr  9 03:21:13 2025.
