 Gaussian 16, Revision C.01,

 ----------------------------------------------------------------------
 #t hf aug-cc-pvdz symm=none int=(grid=ultrafine) guess=(read,tcheck) s
 table=(opt,rrhf)
 ----------------------------------------------------------------------
 -----
 title
 -----
 Symbolic Z-matrix:
 Charge =  0 Multiplicity = 1

 SCF Done:  E(RHF) =  -322.684744185     A.U. after   14 cycles
 Normal termination of Gaussian 16 at Wed Apr  9 18:03:04 2025.
 Gaussian 16:  ES64L-G16RevC.01  3-Jul-2019

 ----------------------------------------------------------------------
 #t hf aug-cc-pvdz iop(5/13=1,5/36=2,99/5=2) pseudo=read geom=check gue
 ss=(read,tcheck) scf=(maxcycle=1)
 ----------------------------------------------------------------------
 -----
 title
 -----
 Structure from the checkpoint file:  "Grambow2020_wb97xd3_006559_reverse_mol2.chk"
 Charge =  0 Multiplicity = 1

                         Standard orientation:
 ---------------------------------------------------------------------
 Center     Atomic      Atomic             Coordinates (Angstroms)
 Number     Number       Type             X           Y           Z
 ---------------------------------------------------------------------
      1          8           0        2.912498    0.219542   -0.322412
      2          6           0        1.592370    0.337393   -0.046776
      3          6           0        0.777916   -0.629969    0.357239
      4          6           0       -0.677424   -0.434244    0.624777
      5          6           0       -1.708286   -0.790512   -0.491791
      6          7           0       -2.164458    0.622512   -0.486077
      7          6           0       -1.301650    0.917173    0.407414
      8          1           0        3.189099   -0.691346   -0.191996
      9          1           0        1.256396    1.356991   -0.198870
     10          1           0        1.170566   -1.636281    0.491554
     11          1           0       -0.949912   -0.870941    1.590431
     12          1           0       -1.265800   -1.079946   -1.445753
     13          1           0       -2.500142   -1.490960   -0.220832
     14          1           0       -1.146538    1.899519    0.852127
 ---------------------------------------------------------------------

 SCF Done:  E(RHF) =  -324.171686339     A.U. after    2 cycles

 The electronic state is 1-A.
 Alpha  occ. eigenvalues --  -21.10953 -15.73156 -11.47467 -11.46129 -11.43363
 Alpha  occ. eigenvalues --  -11.39874 -11.37549  -1.76019  -1.47283  -1.16359
 Alpha  occ. eigenvalues --   -1.00167  -0.95642  -0.84139  -0.75074  -0.68572
 Alpha  occ. eigenvalues --   -0.66388  -0.63190  -0.56174  -0.54092  -0.51959
 Alpha  occ. eigenvalues --   -0.49764  -0.45170  -0.43005  -0.39145  -0.36057
 Alpha  occ. eigenvalues --   -0.28152
 Alpha virt. eigenvalues --    0.03569   0.04934   0.05551   0.05854   0.05917
 Alpha virt. eigenvalues --    0.06570   0.06866   0.09755   0.10806   0.11802
 Alpha virt. eigenvalues --    0.12661   0.13012   0.13612   0.13946   0.14748

 Mulliken charges:
               1
     1  O   -3.384217
     2  C    1.054350
     3  C   -1.570682
     4  C   -2.336409
     5  C   -2.002740
     6  N   -2.355951
     7  C    1.401168
     8  H    0.906062
     9  H    1.656776
    10  H    1.314000
    11  H    0.904735
    12  H    1.596282
    13  H    1.424280
    14  H    1.392347
 Sum of Mulliken charges =  -0.00000

 Dipole moment (field-independent basis, Debye):
    X=              1.7750    Y=             -1.1342    Z=              1.0080  Tot=              2.3352

 Test job not archived.
 1\1\GINC-SE229\SP\RHF\Aug-CC-pVDZ\C5H7N1O1\OHZDE\09-Apr-2025\0\\#t hf
 aug-cc-pvdz iop(5/13=1,5/36=2,99/5=2) pseudo=read geom=check guess=(re
 ad,tcheck) scf=(maxcycle=1)\\title\\0,1\O,0,2.76958342,-0.318975,-1.15
 73812\C,0,1.64170658,0.08392223,-0.52637596\C,0,0.71880307,-0.69684995
 ,0.02225705\C,0,-0.51551293,-0.1847032,0.6871398\C,0,-1.84572115,-0.12
 352199,-0.12718719\N,0,-1.88208603,1.34474026,0.09108638\C,0,-0.779770
 6,1.29559961,0.73301769\H,0,2.80969402,-1.27896168,-1.16456709\H,0,1.5
 7079126,1.16580724,-0.51703432\H,0,0.84170017,-1.77763396,-0.01873078\

 Normal termination of Gaussian 16 at Wed Apr  9 18:03:08 2025.
