 Gaussian 16, Revision C.01,

 ----------------------------------------------------------------------
 #t hf aug-cc-pvdz symm=none int=(grid=ultrafine) guess=(read,tcheck) s
 table=(opt,rrhf)
 ----------------------------------------------------------------------
 -----
 title
 -----
 Symbolic Z-matrix:
 Charge =  0 Multiplicity = 1

 SCF Done:  E(RHF) =  -353.411570154     A.U. after   17 cycles
 Normal termination of Gaussian 16 at Wed Apr  9 18:57:29 2025.
 Gaussian 16:  ES64L-G16RevC.01  3-Jul-2019

 ----------------------------------------------------------------------
 #t hf aug-cc-pvdz iop(5/13=1,5/36=2,99/5=2) pseudo=read geom=check gue
 ss=(read,tcheck) scf=(maxcycle=1)
 ----------------------------------------------------------------------
 -----
 title
 -----
 Structure from the checkpoint file:  "Grambow2020_wb97xd3_007943_reverse_mol1.chk"
 Charge =  0 Multiplicity = 1

                         Standard orientation:
 ---------------------------------------------------------------------
 Center     Atomic      Atomic             Coordinates (Angstroms)
 Number     Number       Type             X           Y           Z
 ---------------------------------------------------------------------
      1          8           0        1.706567   -0.461354   -0.507415
      2          6           0        0.629814   -0.186528    0.163270
      3          6           0       -0.331107   -1.263210    0.498608
      4          7           0       -1.384636   -0.875680   -0.092213
      5          7           0       -1.008128    0.340408   -0.773635
      6          6           0       -0.534552    1.349688    0.036199
      7          7           0        0.497753    1.064464    0.773664
      8          1           0        2.215578    0.355511   -0.621498
      9          1           0       -0.231728   -2.122566    1.149925
     10          1           0       -0.956232    2.353842   -0.012290
 ---------------------------------------------------------------------

 SCF Done:  E(RHF) =  -354.960881721     A.U. after    2 cycles

 The electronic state is 1-A.
 Alpha  occ. eigenvalues --  -21.18754 -15.79266 -15.75168 -15.70184 -11.59790
 Alpha  occ. eigenvalues --  -11.48376 -11.44185  -1.86728  -1.59902  -1.38416
 Alpha  occ. eigenvalues --   -1.17298  -0.97477  -0.90973  -0.76539  -0.72594
 Alpha  occ. eigenvalues --   -0.68981  -0.65966  -0.60735  -0.53923  -0.47898
 Alpha  occ. eigenvalues --   -0.47311  -0.42465  -0.40014  -0.35280  -0.29080
 Alpha virt. eigenvalues --    0.03205   0.05026   0.05264   0.07433   0.09063
 Alpha virt. eigenvalues --    0.10111   0.10482   0.10966   0.11912   0.12479
 Alpha virt. eigenvalues --    0.13764   0.13977   0.15201   0.16433   0.17004

 Mulliken charges:
               1
     1  O   -3.558429
     2  C    4.921694
     3  C    0.052893
     4  N   -1.549992
     5  N   -1.780555
     6  C    1.362875
     7  N   -2.809315
     8  H    0.655173
     9  H    1.317693
    10  H    1.387963
 Sum of Mulliken charges =  -0.00000

 Dipole moment (field-independent basis, Debye):
    X=              3.2864    Y=             -0.3643    Z=              0.5465  Tot=              3.3514

 Test job not archived.
 1\1\GINC-SE232\SP\RHF\Aug-CC-pVDZ\C3H3N3O1\OHZDE\09-Apr-2025\0\\#t hf
 aug-cc-pvdz iop(5/13=1,5/36=2,99/5=2) pseudo=read geom=check guess=(re
 ad,tcheck) scf=(maxcycle=1)\\title\\0,1\O,0,1.66945652,-0.3539732,0.62
 095851\C,0,0.62143786,-0.03093125,-0.07333575\C,0,0.26588293,1.3950302
 4,-0.26116307\N,0,-0.87926651,1.45927503,0.28075805\N,0,-1.1259854,0.1
 3359416,0.79715227\C,0,-1.11378187,-0.87742655,-0.1390318\N,0,-0.02569
 82,-1.00523742,-0.83946\H,0,1.75045498,-1.31978544,0.62558552\H,0,0.77
 519988,2.18656426,-0.79656258\H,0,-1.9434612,-1.58017084,-0.21823015\\

 Normal termination of Gaussian 16 at Wed Apr  9 18:57:33 2025.
