 Gaussian 16, Revision C.01,

 ----------------------------------------------------------------------
 #t hf aug-cc-pvdz symm=none int=(grid=ultrafine) guess=(read,tcheck) s
 table=(opt,rrhf)
 ----------------------------------------------------------------------
 -----
 title
 -----
 Symbolic Z-matrix:
 Charge =  0 Multiplicity = 1

 SCF Done:  E(RHF) =  -323.767363745     A.U. after   15 cycles
 Normal termination of Gaussian 16 at Wed Apr  9 18:19:27 2025.
 Gaussian 16:  ES64L-G16RevC.01  3-Jul-2019

 ----------------------------------------------------------------------
 #t hf aug-cc-pvdz iop(5/13=1,5/36=2,99/5=2) pseudo=read geom=check gue
 ss=(read,tcheck) scf=(maxcycle=1)
 ----------------------------------------------------------------------
 -----
 title
 -----
 Structure from the checkpoint file:  "Grambow2020_wb97xd3_006877_forward_mol1.chk"
 Charge =  0 Multiplicity = 1

                         Standard orientation:
 ---------------------------------------------------------------------
 Center     Atomic      Atomic             Coordinates (Angstroms)
 Number     Number       Type             X           Y           Z
 ---------------------------------------------------------------------
      1          6           0        2.433677   -0.287535   -0.640208
      2          7           0        1.165575    0.356830   -0.337215
      3          6           0        0.789394    0.504300    1.343526
      4          6           0        0.155584   -0.420562    0.364994
      5          6           0       -1.288986   -0.242526   -0.042561
      6          8           0       -2.017625   -1.203649   -0.046549
      7          6           0       -1.750059    1.143532   -0.387565
      8          1           0        3.237046    0.445634   -0.573512
      9          1           0        2.398763   -0.675671   -1.659324
     10          1           0        2.649908   -1.108947    0.049732
     11          1           0        1.625093   -0.012946    1.828000
     12          1           0        1.157972    1.314863    0.255196
     13          1           0        0.416394   -1.474834    0.413759
     14          1           0       -1.194855    1.511998   -1.252916
     15          1           0       -2.815502    1.133853   -0.602679
     16          1           0       -1.530510    1.814174    0.445519
 ---------------------------------------------------------------------

 SCF Done:  E(RHF) =  -325.284915632     A.U. after    2 cycles

 The electronic state is 1-A.
 Alpha  occ. eigenvalues --  -21.05057 -15.78128 -11.50387 -11.45351 -11.42010
 Alpha  occ. eigenvalues --  -11.39527 -11.37936  -1.71182  -1.50769  -1.14383
 Alpha  occ. eigenvalues --   -1.08131  -0.95591  -0.88412  -0.77802  -0.67185
 Alpha  occ. eigenvalues --   -0.65126  -0.62208  -0.59871  -0.59281  -0.56798
 Alpha  occ. eigenvalues --   -0.51777  -0.50149  -0.48461  -0.41974  -0.38578
 Alpha  occ. eigenvalues --   -0.33046  -0.27623
 Alpha virt. eigenvalues --    0.03348   0.04948   0.05257   0.05558   0.05962
 Alpha virt. eigenvalues --    0.06489   0.07049   0.07560   0.08661   0.10397
 Alpha virt. eigenvalues --    0.10888   0.11570   0.12776   0.13709   0.14442

 Mulliken charges:
               1
     1  C   -3.409419
     2  N   -1.871170
     3  C   -1.780437
     4  C   -0.811758
     5  C    4.207338
     6  O   -3.538907
     7  C   -4.758310
     8  H    1.357866
     9  H    1.397428
    10  H    1.330718
    11  H    1.205012
    12  H    1.148059
    13  H    1.592795
    14  H    1.288440
    15  H    1.209681
    16  H    1.432665
 Sum of Mulliken charges =  -0.00000

 Dipole moment (field-independent basis, Debye):
    X=              2.7543    Y=             -0.2921    Z=             -1.7029  Tot=              3.2514

 Test job not archived.
 1\1\GINC-SE174\SP\RHF\Aug-CC-pVDZ\C5H9N1O1\OHZDE\09-Apr-2025\0\\#t hf
 aug-cc-pvdz iop(5/13=1,5/36=2,99/5=2) pseudo=read geom=check guess=(re
 ad,tcheck) scf=(maxcycle=1)\\title\\0,1\C,0,1.15787828,-0.02534931,-1.
 94637865\N,0,0.58591212,0.30267701,-0.65009678\C,0,1.13976273,-0.66252
 916,0.67269436\C,0,-0.19993726,-0.71777848,0.02712511\C,0,-1.43746441,
 -0.28083979,0.77691907\O,0,-2.41165375,-0.9917505,0.76107448\C,0,-1.37
 111276,1.01064516,1.53878297\H,0,2.12308371,0.4693279,-2.05153993\H,0,
 0.49144566,0.33910018,-2.72964742\H,0,1.30067782,-1.10332095,-2.069164

 Normal termination of Gaussian 16 at Wed Apr  9 18:19:33 2025.
