 Gaussian 16, Revision C.01,

 ----------------------------------------------------------------------
 #t hf aug-cc-pvdz symm=none int=(grid=ultrafine) guess=(read,tcheck) s
 table=(opt,rrhf)
 ----------------------------------------------------------------------
 -----
 title
 -----
 Symbolic Z-matrix:
 Charge =  0 Multiplicity = 1

 SCF Done:  E(RHF) =  -359.637101937     A.U. after   15 cycles
 Normal termination of Gaussian 16 at Wed Apr  9 19:10:57 2025.
 Gaussian 16:  ES64L-G16RevC.01  3-Jul-2019

 ----------------------------------------------------------------------
 #t hf aug-cc-pvdz iop(5/13=1,5/36=2,99/5=2) pseudo=read geom=check gue
 ss=(read,tcheck) scf=(maxcycle=1)
 ----------------------------------------------------------------------
 -----
 title
 -----
 Structure from the checkpoint file:  "Grambow2020_wb97xd3_008270_forward_mol1.chk"
 Charge =  0 Multiplicity = 1

                         Standard orientation:
 ---------------------------------------------------------------------
 Center     Atomic      Atomic             Coordinates (Angstroms)
 Number     Number       Type             X           Y           Z
 ---------------------------------------------------------------------
      1          6           0        1.839083   -0.879995   -0.531845
      2          6           0        1.161585    0.115342    0.387529
      3          6           0        0.459819    1.290608   -0.400022
      4          7           0       -0.972838    1.149488   -0.037798
      5          6           0       -1.275724   -0.131053   -0.106494
      6          8           0       -1.979381   -1.000882   -0.378012
      7          8           0        0.105415   -0.463599    1.111338
      8          1           0        1.125062   -1.293487   -1.249530
      9          1           0        2.256555   -1.706607    0.043065
     10          1           0        2.646820   -0.400529   -1.090288
     11          1           0        1.888598    0.530648    1.092626
     12          1           0        0.594323    1.193743   -1.477680
     13          1           0        0.781839    2.281815   -0.089761
     14          1           0       -0.600190    0.694442    1.074544
 ---------------------------------------------------------------------

 SCF Done:  E(RHF) =  -361.288128633     A.U. after    2 cycles

 The electronic state is 1-A.
 Alpha  occ. eigenvalues --  -21.14959 -21.02697 -15.76673 -11.61052 -11.48787
 Alpha  occ. eigenvalues --  -11.43066 -11.37581  -1.81883  -1.72858  -1.41384
 Alpha  occ. eigenvalues --   -1.15550  -1.01784  -0.83874  -0.75783  -0.74397
 Alpha  occ. eigenvalues --   -0.69338  -0.62820  -0.59207  -0.57403  -0.56395
 Alpha  occ. eigenvalues --   -0.53066  -0.51010  -0.45838  -0.41649  -0.39827
 Alpha  occ. eigenvalues --   -0.29725  -0.29240
 Alpha virt. eigenvalues --    0.03471   0.05235   0.05505   0.05700   0.06005
 Alpha virt. eigenvalues --    0.06293   0.07323   0.09761   0.10928   0.11114
 Alpha virt. eigenvalues --    0.12601   0.13074   0.13687   0.14246   0.14423

 Mulliken charges:
               1
     1  C   -3.787883
     2  C    0.728936
     3  C   -2.520706
     4  N   -2.403907
     5  C    4.851367
     6  O   -3.094019
     7  O   -2.772933
     8  H    1.270806
     9  H    1.166856
    10  H    1.212014
    11  H    1.355331
    12  H    1.590560
    13  H    1.252586
    14  H    1.150992
 Sum of Mulliken charges =  -0.00000

 Dipole moment (field-independent basis, Debye):
    X=              0.9081    Y=             -0.1190    Z=             -0.4378  Tot=              1.0152

 Test job not archived.
 1\1\GINC-SE118\SP\RHF\Aug-CC-pVDZ\C4H7N1O2\OHZDE\09-Apr-2025\0\\#t hf
 aug-cc-pvdz iop(5/13=1,5/36=2,99/5=2) pseudo=read geom=check guess=(re
 ad,tcheck) scf=(maxcycle=1)\\title\\0,1\C,0,-1.37159328,-0.92339862,0.
 0518444\C,0,-0.34645406,-0.09656678,-0.69674528\C,0,0.04561574,1.22658
 121,0.07106015\N,0,1.49859651,1.0653305,0.32888004\C,0,1.69363784,-0.1
 696802,0.74475584\O,0,2.19696531,-0.95094092,1.42427794\O,0,0.88108745
 ,-0.76708172,-0.83135272\H,0,-1.01181927,-1.17290922,1.05393291\H,0,-1
 .5691491,-1.85555399,-0.47744769\H,0,-2.31065745,-0.37364967,0.1524418

 Normal termination of Gaussian 16 at Wed Apr  9 19:11:02 2025.
