 Gaussian 16, Revision C.01,

 ----------------------------------------------------------------------
 #t hf aug-cc-pvdz symm=none int=(grid=ultrafine) guess=(read,tcheck) s
 table=(opt,rrhf)
 ----------------------------------------------------------------------
 -----
 title
 -----
 Symbolic Z-matrix:
 Charge =  0 Multiplicity = 1

 SCF Done:  E(RHF) =  -283.454498776     A.U. after   18 cycles
 Normal termination of Gaussian 16 at Wed Apr  9 17:31:12 2025.
 Gaussian 16:  ES64L-G16RevC.01  3-Jul-2019

 ----------------------------------------------------------------------
 #t hf aug-cc-pvdz iop(5/13=1,5/36=2,99/5=2) pseudo=read geom=check gue
 ss=(read,tcheck) scf=(maxcycle=1)
 ----------------------------------------------------------------------
 -----
 title
 -----
 Structure from the checkpoint file:  "Grambow2020_b97d3_007167_forward_mol1.chk"
 Charge =  0 Multiplicity = 1

                         Standard orientation:
 ---------------------------------------------------------------------
 Center     Atomic      Atomic             Coordinates (Angstroms)
 Number     Number       Type             X           Y           Z
 ---------------------------------------------------------------------
      1          6           0       -0.827858    1.546876   -0.564613
      2          7           0        1.205951    0.769320    0.816724
      3          6           0        0.789985   -0.282534    0.077744
      4          8           0        1.487898   -1.001033   -0.634568
      5          6           0       -0.716564   -0.516281    0.104861
      6          6           0       -1.795897   -1.090537    0.285766
      7          1           0       -1.515849    1.865545    0.213603
      8          1           0       -1.263863    1.143597   -1.473085
      9          1           0        0.062076    2.150796   -0.699746
     10          1           0        0.455941    1.010875    1.481225
     11          1           0       -2.781144   -1.492938    0.414927
 ---------------------------------------------------------------------

 SCF Done:  E(RHF) =  -284.733691514     A.U. after    2 cycles

 The electronic state is 1-A.
 Alpha  occ. eigenvalues --  -21.00155 -15.70637 -11.54077 -11.50535 -11.47369
 Alpha  occ. eigenvalues --  -11.44361  -1.66937  -1.28498  -1.14535  -1.07084
 Alpha  occ. eigenvalues --   -0.87047  -0.73729  -0.68054  -0.67588  -0.65408
 Alpha  occ. eigenvalues --   -0.54734  -0.49897  -0.42535  -0.39433  -0.37095
 Alpha  occ. eigenvalues --   -0.26748  -0.25634
 Alpha virt. eigenvalues --   -0.03343   0.01984   0.03975   0.04523   0.05559
 Alpha virt. eigenvalues --    0.06729   0.09239   0.09693   0.10313   0.11877
 Alpha virt. eigenvalues --    0.12181   0.13575   0.14101   0.14567   0.15044

 Mulliken charges:
               1
     1  C   -3.890745
     2  N   -2.747474
     3  C    5.151574
     4  O   -3.223282
     5  C    2.107942
     6  C   -3.251330
     7  H    1.409475
     8  H    1.458677
     9  H    1.400465
    10  H    0.830388
    11  H    0.754310
 Sum of Mulliken charges =   0.00000

 Dipole moment (field-independent basis, Debye):
    X=             -6.3120    Y=              2.2301    Z=             -1.0750  Tot=              6.7801

 Test job not archived.
 1\1\GINC-SE135\SP\RHF\Aug-CC-pVDZ\C4H5N1O1\OHZDE\09-Apr-2025\0\\#t hf
 aug-cc-pvdz iop(5/13=1,5/36=2,99/5=2) pseudo=read geom=check guess=(re
 ad,tcheck) scf=(maxcycle=1)\\title\\0,1\C,0,-0.98907056,0.83597022,-0.
 45066759\N,0,-0.81478596,-1.67008938,0.13101694\C,0,0.06524434,-1.0085
 4877,0.91423196\O,0,0.18706127,-1.11394746,2.13274021\C,0,0.92142244,0
 .01487833,0.1762492\C,0,1.92904868,0.58155857,-0.26080757\H,0,-0.75319
 942,0.83446284,-1.51126351\H,0,-0.70477912,1.71679298,0.11624149\H,0,-
 1.92818339,0.37685692,-0.1638841\H,0,-0.51722608,-1.55966595,-0.849641

 Normal termination of Gaussian 16 at Wed Apr  9 17:31:16 2025.
