 Gaussian 16, Revision C.01,

 ----------------------------------------------------------------------
 #t hf aug-cc-pvdz symm=none int=(grid=ultrafine) guess=(read,tcheck) s
 table=(opt,rrhf)
 ----------------------------------------------------------------------
 -----
 title
 -----
 Symbolic Z-matrix:
 Charge =  0 Multiplicity = 1

 SCF Done:  E(RHF) =  -375.773832226     A.U. after   13 cycles
 Normal termination of Gaussian 16 at Wed Apr  9 03:46:26 2025.
 Gaussian 16:  ES64L-G16RevC.01  3-Jul-2019

 ----------------------------------------------------------------------
 #t hf aug-cc-pvdz iop(5/13=1,5/36=2,99/5=2) pseudo=read geom=check gue
 ss=(read,tcheck) scf=(maxcycle=1)
 ----------------------------------------------------------------------
 -----
 title
 -----
 Structure from the checkpoint file:  "Grambow2020_wb97xd3_007914_reverse_mol2.chk"
 Charge =  0 Multiplicity = 1

                         Standard orientation:
 ---------------------------------------------------------------------
 Center     Atomic      Atomic             Coordinates (Angstroms)
 Number     Number       Type             X           Y           Z
 ---------------------------------------------------------------------
      1          6           0        0.651662    1.264098    0.195277
      2          8           0       -0.687932    1.115647   -0.260570
      3          6           0       -1.120477   -0.142757    0.017448
      4          7           0       -2.263531   -0.609971   -0.218329
      5          7           0       -0.087939   -0.825865    0.631533
      6          6           0        1.153939   -0.167184    0.416432
      7          8           0        1.801361   -0.714737   -0.716535
      8          1           0        1.228953    1.782770   -0.568976
      9          1           0        2.739622   -0.520578   -0.671763
     10          1           0        0.656748    1.838123    1.125568
     11          1           0       -2.858464    0.090604   -0.644520
     12          1           0       -0.135146   -1.830139    0.620114
     13          1           0        1.810398   -0.242150    1.289049
 ---------------------------------------------------------------------

 SCF Done:  E(RHF) =  -377.417839525     A.U. after    2 cycles

 The electronic state is 1-A.
 Alpha  occ. eigenvalues --  -21.09218 -21.08840 -15.75875 -15.70148 -11.51410
 Alpha  occ. eigenvalues --  -11.48568 -11.42666  -1.85006  -1.73826  -1.40190
 Alpha  occ. eigenvalues --   -1.28959  -1.07476  -0.89863  -0.83770  -0.74152
 Alpha  occ. eigenvalues --   -0.70628  -0.62673  -0.61288  -0.56286  -0.55433
 Alpha  occ. eigenvalues --   -0.54010  -0.45027  -0.44625  -0.38178  -0.35126
 Alpha  occ. eigenvalues --   -0.34056  -0.30551
 Alpha virt. eigenvalues --    0.03079   0.04918   0.05067   0.05727   0.06565
 Alpha virt. eigenvalues --    0.06686   0.09519   0.10762   0.12331   0.12690
 Alpha virt. eigenvalues --    0.13078   0.14494   0.14709   0.15108   0.16654

 Mulliken charges:
               1
     1  C   -1.513360
     2  O   -3.118435
     3  C    5.830400
     4  N   -3.409433
     5  N   -2.555263
     6  C    1.402633
     7  O   -3.016453
     8  H    1.418110
     9  H    0.663930
    10  H    1.393583
    11  H    0.570716
    12  H    0.629665
    13  H    1.703908
 Sum of Mulliken charges =  -0.00000

 Dipole moment (field-independent basis, Debye):
    X=              3.7293    Y=              1.3441    Z=              0.5194  Tot=              3.9980

 Test job not archived.
 1\1\GINC-SE403\SP\RHF\Aug-CC-pVDZ\C3H6N2O2\OHZDE\09-Apr-2025\0\\#t hf
 aug-cc-pvdz iop(5/13=1,5/36=2,99/5=2) pseudo=read geom=check guess=(re
 ad,tcheck) scf=(maxcycle=1)\\title\\0,1\C,0,-0.73157523,-0.70709622,-0
 .52002597\O,0,-0.66074903,0.68828529,-0.78879873\C,0,0.43096367,1.2104
 5672,-0.16954645\N,0,0.8171728,2.40590395,-0.21644352\N,0,1.06757016,0
 .19007364,0.51120504\C,0,0.20215788,-0.92634217,0.67572998\O,0,-0.4587
 2363,-0.84544067,1.92443889\H,0,-1.76196705,-0.96888508,-0.28311238\H,
 0,-0.76936777,-1.71701785,2.1772008\H,0,-0.39403384,-1.26329516,-1.398

 Normal termination of Gaussian 16 at Wed Apr  9 03:46:30 2025.
