 Gaussian 16, Revision C.01,

 ----------------------------------------------------------------------
 #t hf aug-cc-pvdz symm=none int=(grid=ultrafine) guess=(read,tcheck) s
 table=(opt,rrhf)
 ----------------------------------------------------------------------
 -----
 title
 -----
 Symbolic Z-matrix:
 Charge =  0 Multiplicity = 1

 SCF Done:  E(RHF) =  -341.219058461     A.U. after   16 cycles
 Normal termination of Gaussian 16 at Wed Apr  9 19:30:55 2025.
 Gaussian 16:  ES64L-G16RevC.01  3-Jul-2019

 ----------------------------------------------------------------------
 #t hf aug-cc-pvdz iop(5/13=1,5/36=2,99/5=2) pseudo=read geom=check gue
 ss=(read,tcheck) scf=(maxcycle=1)
 ----------------------------------------------------------------------
 -----
 title
 -----
 Structure from the checkpoint file:  "Grambow2020_wb97xd3_009095_reverse_mol2.chk"
 Charge =  0 Multiplicity = 1

                         Standard orientation:
 ---------------------------------------------------------------------
 Center     Atomic      Atomic             Coordinates (Angstroms)
 Number     Number       Type             X           Y           Z
 ---------------------------------------------------------------------
      1          8           0       -1.340235   -1.582468    0.041996
      2          6           0       -0.815571   -0.537578    0.014781
      3          6           0       -1.542396    0.906163    0.024074
      4          6           0       -0.315944    1.671612   -0.018399
      5          6           0        0.832183    1.236598   -0.051676
      6          6           0        0.804451   -0.247764   -0.040120
      7          8           0        1.616363   -1.101083   -0.059311
      8          1           0       -2.190710    0.991216   -0.848604
      9          1           0       -2.142541    1.006556    0.928922
     10          1           0        3.888553    0.414563    0.189097
     11          1           0        4.459334    0.881882    0.297138
 ---------------------------------------------------------------------

 SCF Done:  E(RHF) =  -342.750019151     A.U. after    2 cycles

 The electronic state is 1-A.
 Alpha  occ. eigenvalues --  -21.13184 -21.11050 -11.56774 -11.53846 -11.49873
 Alpha  occ. eigenvalues --  -11.44666 -11.42026  -1.79068  -1.74955  -1.33503
 Alpha  occ. eigenvalues --   -1.06990  -0.93726  -0.78255  -0.70982  -0.67424
 Alpha  occ. eigenvalues --   -0.64363  -0.59912  -0.58347  -0.55800  -0.54946
 Alpha  occ. eigenvalues --   -0.48577  -0.40015  -0.38862  -0.38683  -0.31555
 Alpha virt. eigenvalues --    0.02632   0.04064   0.05298   0.06810   0.07488
 Alpha virt. eigenvalues --    0.08545   0.08675   0.09355   0.10971   0.11745
 Alpha virt. eigenvalues --    0.12100   0.12380   0.12716   0.12932   0.13177

 Mulliken charges:
               1
     1  O   -3.058344
     2  C    3.517939
     3  C   -3.813114
     4  C    2.658597
     5  C   -1.309003
     6  C    2.562736
     7  O   -3.059716
     8  H    1.268849
     9  H    1.267213
    10  H   -0.251874
    11  H    0.216718
 Sum of Mulliken charges =  -0.00000

 Dipole moment (field-independent basis, Debye):
    X=             -3.1071    Y=             -1.6356    Z=              0.0918  Tot=              3.5126

 Test job not archived.
 1\1\GINC-SE018\SP\RHF\Aug-CC-pVDZ\C5H4O2\OHZDE\09-Apr-2025\0\\#t hf au
 g-cc-pvdz iop(5/13=1,5/36=2,99/5=2) pseudo=read geom=check guess=(read
 ,tcheck) scf=(maxcycle=1)\\title\\0,1\O,0,-0.66796667,2.41854394,-0.28
 451037\C,0,-0.62948532,1.25525839,-0.17008124\C,0,-1.86739085,0.229208
 04,-0.33608818\C,0,-1.08946675,-0.96046156,-0.06883793\C,0,0.10973175,
 -1.02328876,0.1890683\C,0,0.69253536,0.34220453,0.19057255\O,0,1.76396
 015,0.79565933,0.37536917\H,0,-2.6393147,0.47118948,0.39513691\H,0,-2.
 28286193,0.31835345,-1.34029868\H,0,3.22420565,-1.51940462,0.54828412\

 Normal termination of Gaussian 16 at Wed Apr  9 19:30:59 2025.
