 Gaussian 16, Revision C.01,

 ----------------------------------------------------------------------
 #t hf aug-cc-pvdz symm=none int=(grid=ultrafine) guess=(read,tcheck) s
 table=(opt,rrhf)
 ----------------------------------------------------------------------
 -----
 title
 -----
 Symbolic Z-matrix:
 Charge =  0 Multiplicity = 1

 SCF Done:  E(RHF) =  -247.859090010     A.U. after   14 cycles
 Normal termination of Gaussian 16 at Wed Apr  9 17:47:25 2025.
 Gaussian 16:  ES64L-G16RevC.01  3-Jul-2019

 ----------------------------------------------------------------------
 #t hf aug-cc-pvdz iop(5/13=1,5/36=2,99/5=2) pseudo=read geom=check gue
 ss=(read,tcheck) scf=(maxcycle=1)
 ----------------------------------------------------------------------
 -----
 title
 -----
 Structure from the checkpoint file:  "Grambow2020_wb97xd3_006165_forward_mol2.chk"
 Charge =  0 Multiplicity = 1

                         Standard orientation:
 ---------------------------------------------------------------------
 Center     Atomic      Atomic             Coordinates (Angstroms)
 Number     Number       Type             X           Y           Z
 ---------------------------------------------------------------------
      1          6           0        1.243781    1.355718    0.083551
      2          6           0        1.139967   -0.078185   -0.360623
      3          6           0        0.775644   -1.155163    0.602414
      4          6           0       -0.206032   -0.761993   -0.477882
      5          6           0       -1.397235   -0.045808   -0.110027
      6          7           0       -2.343653    0.533819    0.185562
      7          1           0        1.094761    2.037904   -0.755024
      8          1           0        2.229812    1.550033    0.509047
      9          1           0        0.495211    1.592896    0.841268
     10          1           0        1.832893   -0.365267   -1.143414
     11          1           0        0.528825   -0.860891    1.614282
     12          1           0        1.238136   -2.128320    0.510129
     13          1           0       -0.350809   -1.450506   -1.299813
 ---------------------------------------------------------------------

 SCF Done:  E(RHF) =  -249.051800904     A.U. after    2 cycles

 The electronic state is 1-A.
 Alpha  occ. eigenvalues --  -15.74987 -11.47292 -11.44905 -11.42980 -11.40293
 Alpha  occ. eigenvalues --  -11.38657  -1.38440  -1.27568  -1.07086  -0.94584
 Alpha  occ. eigenvalues --   -0.85149  -0.72967  -0.67640  -0.58987  -0.57791
 Alpha  occ. eigenvalues --   -0.56539  -0.51040  -0.50248  -0.49371  -0.45521
 Alpha  occ. eigenvalues --   -0.39879  -0.37386
 Alpha virt. eigenvalues --    0.03275   0.04894   0.05127   0.05351   0.05890
 Alpha virt. eigenvalues --    0.06364   0.07534   0.09790   0.10231   0.12133
 Alpha virt. eigenvalues --    0.12745   0.13541   0.14343   0.14537   0.15046

 Mulliken charges:
               1
     1  C   -4.321776
     2  C   -0.316823
     3  C   -2.284730
     4  C   -0.799436
     5  C    1.369966
     6  N   -2.358658
     7  H    1.198737
     8  H    1.132824
     9  H    1.313227
    10  H    1.210916
    11  H    1.433145
    12  H    1.159340
    13  H    1.263266
 Sum of Mulliken charges =   0.00000

 Dipole moment (field-independent basis, Debye):
    X=              3.6306    Y=             -1.4967    Z=             -0.6456  Tot=              3.9797

 Test job not archived.
 1\1\GINC-SE173\SP\RHF\Aug-CC-pVDZ\C5H7N1\OHZDE\09-Apr-2025\0\\#t hf au
 g-cc-pvdz iop(5/13=1,5/36=2,99/5=2) pseudo=read geom=check guess=(read
 ,tcheck) scf=(maxcycle=1)\\title\\0,1\C,0,1.42162986,0.59458513,-0.010
 3694\C,0,0.47171059,-0.54979064,-0.23885498\C,0,-0.5182382,-0.94466053
 ,0.80236159\C,0,-1.00306416,-0.30241565,-0.47739457\C,0,-1.51047446,1.
 04213827,-0.43365782\N,0,-1.90718888,2.11933069,-0.39731247\H,0,1.7595
 7955,1.01889015,-0.95723125\H,0,2.29899545,0.25405527,0.54220018\H,0,0
 .95024174,1.39489075,0.56238605\H,0,0.86956706,-1.36113791,-0.83781231

 Normal termination of Gaussian 16 at Wed Apr  9 17:47:29 2025.
