 Gaussian 16, Revision C.01,

 ----------------------------------------------------------------------
 #t hf aug-cc-pvdz symm=none int=(grid=ultrafine) guess=(read,tcheck) s
 table=(opt,rrhf)
 ----------------------------------------------------------------------
 -----
 title
 -----
 Symbolic Z-matrix:
 Charge =  0 Multiplicity = 1

 SCF Done:  E(RHF) =  -322.742012943     A.U. after   14 cycles
 Normal termination of Gaussian 16 at Wed Apr  9 04:04:45 2025.
 Gaussian 16:  ES64L-G16RevC.01  3-Jul-2019

 ----------------------------------------------------------------------
 #t hf aug-cc-pvdz iop(5/13=1,5/36=2,99/5=2) pseudo=read geom=check gue
 ss=(read,tcheck) scf=(maxcycle=1)
 ----------------------------------------------------------------------
 -----
 title
 -----
 Structure from the checkpoint file:  "Grambow2020_wb97xd3_009153_forward_mol2.chk"
 Charge =  0 Multiplicity = 1

                         Standard orientation:
 ---------------------------------------------------------------------
 Center     Atomic      Atomic             Coordinates (Angstroms)
 Number     Number       Type             X           Y           Z
 ---------------------------------------------------------------------
      1          6           0        1.686914   -1.147547    0.000338
      2          7           0        0.362769   -0.573937   -0.000802
      3          6           0       -0.831079   -1.262386   -0.000597
      4          6           0       -1.848068   -0.354717    0.000243
      5          6           0       -1.268290    0.946764    0.000518
      6          6           0        0.087365    0.754191    0.000147
      7          8           0        1.141607    1.605541   -0.000031
      8          1           0        2.239576   -0.854776    0.894010
      9          1           0        2.249717   -0.828571   -0.877681
     10          1           0        1.592797   -2.231612   -0.015223
     11          1           0       -0.841308   -2.340142    0.001982
     12          1           0       -2.900609   -0.588276   -0.000883
     13          1           0       -1.782184    1.894815    0.000632
     14          1           0        0.808718    2.503958   -0.000880
 ---------------------------------------------------------------------

 SCF Done:  E(RHF) =  -324.235664543     A.U. after    2 cycles

 The electronic state is 1-A.
 Alpha  occ. eigenvalues --  -21.11137 -15.75980 -11.47214 -11.42515 -11.40699
 Alpha  occ. eigenvalues --  -11.38872 -11.33988  -1.77374  -1.49767  -1.18692
 Alpha  occ. eigenvalues --   -1.01737  -0.99010  -0.81106  -0.75160  -0.70814
 Alpha  occ. eigenvalues --   -0.64188  -0.60281  -0.58871  -0.53867  -0.53780
 Alpha  occ. eigenvalues --   -0.52421  -0.48463  -0.42576  -0.42524  -0.31000
 Alpha  occ. eigenvalues --   -0.23880
 Alpha virt. eigenvalues --    0.03495   0.05276   0.05504   0.05900   0.06104
 Alpha virt. eigenvalues --    0.06545   0.07482   0.10490   0.12596   0.13189
 Alpha virt. eigenvalues --    0.13564   0.14003   0.14192   0.14848   0.15034

 Mulliken charges:
               1
     1  C   -3.274455
     2  N   -3.473567
     3  C   -1.097156
     4  C   -0.256098
     5  C   -3.236341
     6  C    5.914333
     7  O   -3.702844
     8  H    1.438598
     9  H    1.437257
    10  H    1.350230
    11  H    1.382949
    12  H    1.308916
    13  H    1.420556
    14  H    0.787622
 Sum of Mulliken charges =  -0.00000

 Dipole moment (field-independent basis, Debye):
    X=              1.9347    Y=             -0.0890    Z=             -0.0002  Tot=              1.9367

 Test job not archived.
 1\1\GINC-SE143\SP\RHF\Aug-CC-pVDZ\C5H7N1O1\OHZDE\09-Apr-2025\0\\#t hf
 aug-cc-pvdz iop(5/13=1,5/36=2,99/5=2) pseudo=read geom=check guess=(re
 ad,tcheck) scf=(maxcycle=1)\\title\\0,1\C,0,-1.81606294,0.10871111,0.5
 5875958\N,0,-0.46555561,-0.15368317,0.12325043\C,0,0.07506798,-1.38402
 141,-0.18208721\C,0,1.37397801,-1.20027203,-0.55249206\C,0,1.65412367,
 0.19457272,-0.4755521\C,0,0.49343362,0.78841868,-0.05718519\O,0,0.1526
 3842,2.07554561,0.19457787\H,0,-2.33681812,0.7553899,-0.14864438\H,0,-
 1.82265308,0.58736732,1.53868601\H,0,-2.34694288,-0.83895072,0.6251003

 Normal termination of Gaussian 16 at Wed Apr  9 04:04:50 2025.
