 Gaussian 16, Revision C.01,

 ----------------------------------------------------------------------
 #t hf aug-cc-pvdz symm=none int=(grid=ultrafine) guess=(read,tcheck) s
 table=(opt,rrhf)
 ----------------------------------------------------------------------
 -----
 title
 -----
 Symbolic Z-matrix:
 Charge =  0 Multiplicity = 1

 SCF Done:  E(RHF) =  -302.661790590     A.U. after   18 cycles
 Normal termination of Gaussian 16 at Wed Apr  9 19:29:19 2025.
 Gaussian 16:  ES64L-G16RevC.01  3-Jul-2019

 ----------------------------------------------------------------------
 #t hf aug-cc-pvdz iop(5/13=1,5/36=2,99/5=2) pseudo=read geom=check gue
 ss=(read,tcheck) scf=(maxcycle=1)
 ----------------------------------------------------------------------
 -----
 title
 -----
 Structure from the checkpoint file:  "Grambow2020_wb97xd3_009049_reverse_mol1.chk"
 Charge =  0 Multiplicity = 1

                         Standard orientation:
 ---------------------------------------------------------------------
 Center     Atomic      Atomic             Coordinates (Angstroms)
 Number     Number       Type             X           Y           Z
 ---------------------------------------------------------------------
      1          7           0       -1.109558    1.561031   -0.168430
      2          6           0       -0.832192    0.411821    0.466817
      3          6           0       -0.946224   -0.960149   -0.234070
      4          7           0       -2.104092   -1.256651   -0.158777
      5          6           0        1.294348    0.231788    0.710505
      6          6           0        1.862392    0.339777   -0.669923
      7          6           0        1.740947   -0.887778    0.159731
      8          1           0       -1.754726    2.226928    0.215613
      9          1           0       -0.890173    1.658631   -1.143391
     10          1           0       -1.161253    0.394404    1.500139
     11          1           0        1.325024    0.780367    1.636645
     12          1           0        1.176266    0.486307   -1.509144
     13          1           0        2.837527    0.795893   -0.832522
     14          1           0        2.196153   -1.844693    0.342769
     15          1           0        0.051111   -1.441254   -0.518015
 ---------------------------------------------------------------------

 SCF Done:  E(RHF) =  -304.130818540     A.U. after    2 cycles

 The electronic state is 1-A.
 Alpha  occ. eigenvalues --  -15.79598 -15.71353 -11.48004 -11.45075 -11.44008
 Alpha  occ. eigenvalues --  -11.39608 -11.39263  -1.42251  -1.30605  -1.27273
 Alpha  occ. eigenvalues --   -0.95741  -0.86799  -0.82039  -0.79013  -0.72151
 Alpha  occ. eigenvalues --   -0.69390  -0.63891  -0.61942  -0.56779  -0.48102
 Alpha  occ. eigenvalues --   -0.47457  -0.45524  -0.40893  -0.39985  -0.32872
 Alpha  occ. eigenvalues --   -0.25807
 Alpha virt. eigenvalues --    0.03345   0.04470   0.04880   0.05345   0.05511
 Alpha virt. eigenvalues --    0.06080   0.07267   0.08207   0.09031   0.10956
 Alpha virt. eigenvalues --    0.12122   0.12922   0.13209   0.13438   0.14196

 Mulliken charges:
               1
     1  N   -3.006258
     2  C    0.161314
     3  C    1.014083
     4  N   -2.528022
     5  C   -1.256457
     6  C   -2.450014
     7  C   -1.032819
     8  H    0.693976
     9  H    0.644464
    10  H    1.703980
    11  H    0.847079
    12  H    1.341185
    13  H    1.217489
    14  H    0.919658
    15  H    1.730342
 Sum of Mulliken charges =  -0.00000

 Dipole moment (field-independent basis, Debye):
    X=              2.0455    Y=              3.4960    Z=              0.6521  Tot=              4.1026

 Test job not archived.
 1\1\GINC-SE035\SP\RHF\Aug-CC-pVDZ\C5H8N2\OHZDE\09-Apr-2025\0\\#t hf au
 g-cc-pvdz iop(5/13=1,5/36=2,99/5=2) pseudo=read geom=check guess=(read
 ,tcheck) scf=(maxcycle=1)\\title\\0,1\N,0,1.90225028,0.48460984,-0.516
 66225\C,0,1.14949276,-0.27135385,0.29760361\C,0,0.43915864,0.31631884,
 1.53720606\N,0,1.27005225,0.32865919,2.39958953\C,0,-0.70609116,-0.735
 25726,-0.67992918\C,0,-1.30541905,0.58754815,-1.041744\C,0,-1.73798075
 ,-0.32915751,0.0456872\H,0,2.84319791,0.22399541,-0.74871251\H,0,1.643
 37633,1.43838994,-0.69412339\H,0,1.55018911,-1.26542,0.46377808\H,0,-0

 Normal termination of Gaussian 16 at Wed Apr  9 19:29:23 2025.
