 Gaussian 16, Revision C.01,

 ----------------------------------------------------------------------
 #t hf aug-cc-pvdz symm=none int=(grid=ultrafine) guess=(read,tcheck) s
 table=(opt,rrhf)
 ----------------------------------------------------------------------
 -----
 title
 -----
 Symbolic Z-matrix:
 Charge =  0 Multiplicity = 1

 SCF Done:  E(RHF) =  -358.367804723     A.U. after   17 cycles
 Normal termination of Gaussian 16 at Wed Apr  9 18:14:26 2025.
 Gaussian 16:  ES64L-G16RevC.01  3-Jul-2019

 ----------------------------------------------------------------------
 #t hf aug-cc-pvdz iop(5/13=1,5/36=2,99/5=2) pseudo=read geom=check gue
 ss=(read,tcheck) scf=(maxcycle=1)
 ----------------------------------------------------------------------
 -----
 title
 -----
 Structure from the checkpoint file:  "Grambow2020_wb97xd3_006795_reverse_mol1.chk"
 Charge =  0 Multiplicity = 1

                         Standard orientation:
 ---------------------------------------------------------------------
 Center     Atomic      Atomic             Coordinates (Angstroms)
 Number     Number       Type             X           Y           Z
 ---------------------------------------------------------------------
      1          8           0        1.695424   -0.725913   -0.534973
      2          6           0        1.208130   -0.158397    0.519710
      3          6           0        0.007708   -0.950319    0.192358
      4          6           0       -2.095390   -0.481790    0.251787
      5          7           0       -0.897452   -0.112381   -0.436445
      6          6           0       -0.461156    1.130975   -0.349786
      7          8           0        0.676795    1.284677    0.239054
      8          1           0        1.760592   -0.051926    1.453863
      9          1           0       -0.101585   -2.015909    0.213896
     10          1           0       -2.419186    0.210188    1.015872
     11          1           0       -2.822258   -1.048876   -0.313911
     12          1           0       -1.068906    1.980262   -0.631662
 ---------------------------------------------------------------------

 SCF Done:  E(RHF) =  -359.957218311     A.U. after    2 cycles

 The electronic state is 1-A.
 Alpha  occ. eigenvalues --  -21.13421 -21.03078 -15.82006 -11.57949 -11.53192
 Alpha  occ. eigenvalues --  -11.49469 -11.36658  -1.89388  -1.69287  -1.50552
 Alpha  occ. eigenvalues --   -1.08873  -1.00190  -0.90623  -0.86022  -0.76018
 Alpha  occ. eigenvalues --   -0.67042  -0.64940  -0.62271  -0.58371  -0.54257
 Alpha  occ. eigenvalues --   -0.52281  -0.45709  -0.43059  -0.31351  -0.29316
 Alpha  occ. eigenvalues --   -0.24676
 Alpha virt. eigenvalues --    0.03220   0.04959   0.05284   0.05946   0.06031
 Alpha virt. eigenvalues --    0.08443   0.09307   0.10173   0.11094   0.12013
 Alpha virt. eigenvalues --    0.12393   0.12813   0.14224   0.14744   0.15130

 Mulliken charges:
               1
     1  O   -2.580586
     2  C    2.107693
     3  C    0.034564
     4  C   -2.666313
     5  N   -2.900505
     6  C    1.755557
     7  O   -2.950625
     8  H    1.483604
     9  H    1.302172
    10  H    1.320607
    11  H    1.371403
    12  H    1.722428
 Sum of Mulliken charges =   0.00000

 Dipole moment (field-independent basis, Debye):
    X=              1.1167    Y=              1.9939    Z=              0.0267  Tot=              2.2855

 Test job not archived.
 1\1\GINC-SE035\SP\RHF\Aug-CC-pVDZ\C4H5N1O2\OHZDE\09-Apr-2025\0\\#t hf
 aug-cc-pvdz iop(5/13=1,5/36=2,99/5=2) pseudo=read geom=check guess=(re
 ad,tcheck) scf=(maxcycle=1)\\title\\0,1\O,0,1.8879622,-1.01916508,0.28
 523046\C,0,1.16099067,-0.70471529,-0.73678736\C,0,0.77554735,0.4488439
 8,0.09750854\C,0,-1.11434514,1.43372968,0.42058664\N,0,-0.46537735,0.1
 8009074,0.64952809\C,0,-0.95519377,-0.91131073,0.09031463\O,0,-0.19295
 337,-1.48485593,-0.77877929\H,0,1.51833648,-0.75411591,-1.76589123\H,0
 ,1.39561169,1.25957873,0.42326838\H,0,-1.80403172,1.44980827,-0.411023

 Normal termination of Gaussian 16 at Wed Apr  9 18:14:30 2025.
