 Gaussian 16, Revision C.01,

 ----------------------------------------------------------------------
 #t hf aug-cc-pvdz symm=none int=(grid=ultrafine) guess=(read,tcheck) s
 table=(opt,rrhf)
 ----------------------------------------------------------------------
 -----
 title
 -----
 Symbolic Z-matrix:
 Charge =  0 Multiplicity = 1

 SCF Done:  E(RHF) =  -284.704477063     A.U. after   16 cycles
 Normal termination of Gaussian 16 at Wed Apr  9 03:21:05 2025.
 Gaussian 16:  ES64L-G16RevC.01  3-Jul-2019

 ----------------------------------------------------------------------
 #t hf aug-cc-pvdz iop(5/13=1,5/36=2,99/5=2) pseudo=read geom=check gue
 ss=(read,tcheck) scf=(maxcycle=1)
 ----------------------------------------------------------------------
 -----
 title
 -----
 Structure from the checkpoint file:  "Grambow2020_wb97xd3_006082_forward_mol1.chk"
 Charge =  0 Multiplicity = 1

                         Standard orientation:
 ---------------------------------------------------------------------
 Center     Atomic      Atomic             Coordinates (Angstroms)
 Number     Number       Type             X           Y           Z
 ---------------------------------------------------------------------
      1          6           0        1.761096    0.164454   -0.316486
      2          6           0        0.646920   -0.053607    0.630557
      3          7           0       -0.599606    1.699936   -0.330934
      4          6           0       -0.742464    0.510253    0.351037
      5          6           0       -1.133488   -0.835131   -0.292373
      6          8           0       -0.192815   -1.600936   -0.059716
      7          1           0        1.401853    0.389153   -1.317007
      8          1           0        2.423049   -0.704354   -0.307775
      9          1           0        2.341758    1.021391    0.032067
     10          1           0        0.943084   -0.246659    1.662772
     11          1           0       -1.230027    2.393083    0.056005
     12          1           0       -1.328194    0.519390    1.292969
     13          1           0       -2.004140   -1.179883   -0.861166
 ---------------------------------------------------------------------

 SCF Done:  E(RHF) =  -286.021064357     A.U. after    2 cycles

 The electronic state is 1-A.
 Alpha  occ. eigenvalues --  -21.12006 -15.62106 -11.53960 -11.51133 -11.43613
 Alpha  occ. eigenvalues --  -11.39925  -1.80452  -1.30120  -1.14296  -1.00071
 Alpha  occ. eigenvalues --   -0.91773  -0.79490  -0.71109  -0.64061  -0.60694
 Alpha  occ. eigenvalues --   -0.57180  -0.54083  -0.53907  -0.48652  -0.47159
 Alpha  occ. eigenvalues --   -0.36053  -0.31942  -0.23762
 Alpha virt. eigenvalues --    0.03234   0.04708   0.05092   0.05514   0.06345
 Alpha virt. eigenvalues --    0.07182   0.07513   0.08775   0.09626   0.10536
 Alpha virt. eigenvalues --    0.12352   0.13408   0.13635   0.14622   0.14730

 Mulliken charges:
               1
     1  C   -3.684874
     2  C   -0.427355
     3  N   -2.980227
     4  C   -1.022493
     5  C    1.717013
     6  O   -2.399116
     7  H    1.262765
     8  H    1.324237
     9  H    1.230117
    10  H    1.482121
    11  H    0.528560
    12  H    1.483585
    13  H    1.485668
 Sum of Mulliken charges =   0.00000

 Dipole moment (field-independent basis, Debye):
    X=              0.9194    Y=             -4.3355    Z=              1.8283  Tot=              4.7942

 Test job not archived.
 1\1\GINC-SE458\SP\RHF\Aug-CC-pVDZ\C4H7N1O1\OHZDE\09-Apr-2025\0\\#t hf
 aug-cc-pvdz iop(5/13=1,5/36=2,99/5=2) pseudo=read geom=check guess=(re
 ad,tcheck) scf=(maxcycle=1)\\title\\0,1\C,0,-0.92691543,-0.41842198,1.
 25395194\C,0,0.17819927,-0.68928746,0.30992642\N,0,-0.94285071,0.44021
 27,-1.42808482\C,0,0.31892463,0.10744319,-0.98308236\C,0,1.28194162,1.
 06888786,-0.25840588\O,0,1.49902555,0.55443045,0.84325599\H,0,-1.32995
 806,0.58253553,1.12656282\H,0,-0.58431741,-0.59164499,2.27654953\H,0,-
 1.72937605,-1.13157365,1.05277862\H,0,0.60110849,-1.69368786,0.3626266

 Normal termination of Gaussian 16 at Wed Apr  9 03:21:09 2025.
