 Gaussian 16, Revision C.01,

 ----------------------------------------------------------------------
 #t hf aug-cc-pvdz symm=none int=(grid=ultrafine) guess=(read,tcheck) s
 table=(opt,rrhf)
 ----------------------------------------------------------------------
 -----
 title
 -----
 Symbolic Z-matrix:
 Charge =  0 Multiplicity = 1

 SCF Done:  E(RHF) =  -339.903614247     A.U. after   15 cycles
 Normal termination of Gaussian 16 at Wed Apr  9 18:00:09 2025.
 Gaussian 16:  ES64L-G16RevC.01  3-Jul-2019

 ----------------------------------------------------------------------
 #t hf aug-cc-pvdz iop(5/13=1,5/36=2,99/5=2) pseudo=read geom=check gue
 ss=(read,tcheck) scf=(maxcycle=1)
 ----------------------------------------------------------------------
 -----
 title
 -----
 Structure from the checkpoint file:  "Grambow2020_wb97xd3_006542_reverse_mol2.chk"
 Charge =  0 Multiplicity = 1

                         Standard orientation:
 ---------------------------------------------------------------------
 Center     Atomic      Atomic             Coordinates (Angstroms)
 Number     Number       Type             X           Y           Z
 ---------------------------------------------------------------------
      1          6           0       -0.092225    1.900293    0.187812
      2          7           0        0.314891    0.577680   -0.239800
      3          6           0       -0.488159   -0.519894   -0.014091
      4          6           0       -0.069396   -1.776160    0.181110
      5          8           0        3.255393   -0.149042   -0.054087
      6          6           0       -1.913418   -0.274423   -0.065955
      7          7           0       -3.045001   -0.082558   -0.096682
      8          1           0       -0.131293    2.012316    1.278330
      9          1           0        0.616188    2.626027   -0.209536
     10          1           0       -1.076969    2.139729   -0.215013
     11          1           0        1.299000    0.375713   -0.120169
     12          1           0        3.824206   -0.388716    0.678631
     13          1           0       -0.779433   -2.585279    0.255168
     14          1           0        0.988138   -1.999836    0.237874
     15          1           0        3.706970   -0.432371   -0.850462
 ---------------------------------------------------------------------

 SCF Done:  E(RHF) =  -341.466621142     A.U. after    2 cycles

 The electronic state is 1-A.
 Alpha  occ. eigenvalues --  -21.13210 -15.75587 -15.73982 -11.48800 -11.42838
 Alpha  occ. eigenvalues --  -11.39328 -11.38546  -1.70004  -1.43688  -1.29367
 Alpha  occ. eigenvalues --   -1.13816  -0.96856  -0.89808  -0.69000  -0.67163
 Alpha  occ. eigenvalues --   -0.66640  -0.60867  -0.58491  -0.55575  -0.53439
 Alpha  occ. eigenvalues --   -0.51312  -0.50104  -0.47998  -0.44011  -0.40887
 Alpha  occ. eigenvalues --   -0.38855  -0.28419
 Alpha virt. eigenvalues --    0.02548   0.04560   0.05096   0.05458   0.06399
 Alpha virt. eigenvalues --    0.06974   0.07934   0.08689   0.10403   0.11436
 Alpha virt. eigenvalues --    0.12656   0.12821   0.13264   0.14351   0.15116

 Mulliken charges:
               1
     1  C   -3.578883
     2  N   -3.273063
     3  C    2.947964
     4  C   -3.187538
     5  O   -2.285190
     6  C    1.560325
     7  N   -2.415458
     8  H    1.267191
     9  H    1.362267
    10  H    1.351443
    11  H    1.176707
    12  H    1.011471
    13  H    1.536204
    14  H    1.563643
    15  H    0.962918
 Sum of Mulliken charges =   0.00000

 Dipole moment (field-independent basis, Debye):
    X=              5.5173    Y=              0.2725    Z=              0.3881  Tot=              5.5377

 Test job not archived.
 1\1\GINC-SE173\SP\RHF\Aug-CC-pVDZ\C4H8N2O1\OHZDE\09-Apr-2025\0\\#t hf
 aug-cc-pvdz iop(5/13=1,5/36=2,99/5=2) pseudo=read geom=check guess=(re
 ad,tcheck) scf=(maxcycle=1)\\title\\0,1\C,0,-1.70889778,0.37598344,0.7
 1908846\N,0,-0.44459447,0.34103107,0.01324251\C,0,-0.06834492,-0.76763
 001,-0.71463742\C,0,1.18626773,-1.18449885,-0.92401482\O,0,1.95417945,
 1.68418666,1.29814831\C,0,-1.14519731,-1.49007902,-1.35710665\N,0,-1.9
 9720088,-2.07197081,-1.86081916\H,0,-1.75939179,-0.33050347,1.55672238
 \H,0,-1.86192645,1.38273132,1.10569408\H,0,-2.52833749,0.15280163,0.03

 Normal termination of Gaussian 16 at Wed Apr  9 18:00:14 2025.
