 Gaussian 16, Revision C.01,

 ----------------------------------------------------------------------
 #t hf aug-cc-pvdz symm=none int=(grid=ultrafine) guess=(read,tcheck) s
 table=(opt,rrhf)
 ----------------------------------------------------------------------
 -----
 title
 -----
 Symbolic Z-matrix:
 Charge =  0 Multiplicity = 1

 SCF Done:  E(RHF) =  -299.695723269     A.U. after   15 cycles
 Normal termination of Gaussian 16 at Wed Apr  9 17:33:21 2025.
 Gaussian 16:  ES64L-G16RevC.01  3-Jul-2019

 ----------------------------------------------------------------------
 #t hf aug-cc-pvdz iop(5/13=1,5/36=2,99/5=2) pseudo=read geom=check gue
 ss=(read,tcheck) scf=(maxcycle=1)
 ----------------------------------------------------------------------
 -----
 title
 -----
 Structure from the checkpoint file:  "Grambow2020_b97d3_007179_reverse_mol2.chk"
 Charge =  0 Multiplicity = 1

                         Standard orientation:
 ---------------------------------------------------------------------
 Center     Atomic      Atomic             Coordinates (Angstroms)
 Number     Number       Type             X           Y           Z
 ---------------------------------------------------------------------
      1          6           0        2.660160    0.394307    0.181070
      2          6           0        0.329963   -0.461528   -0.074169
      3          7           0        1.465332   -0.189017   -0.372149
      4          8           0       -2.070602    1.047579   -0.052713
      5          6           0       -1.996671   -0.161235    0.075008
      6          7           0       -0.816497   -0.928852    0.114786
      7          1           0        3.015434    1.190217   -0.485844
      8          1           0        2.484534    0.813434    1.181107
      9          1           0        3.442844   -0.373522    0.244093
     10          1           0       -2.880561   -0.814937    0.192436
 ---------------------------------------------------------------------

 SCF Done:  E(RHF) =  -301.006749310     A.U. after    2 cycles

 The electronic state is 1-A.
 Alpha  occ. eigenvalues --  -21.05896 -15.78912 -15.75955 -11.55658 -11.49877
 Alpha  occ. eigenvalues --  -11.43943  -1.71221  -1.45674  -1.34276  -1.06297
 Alpha  occ. eigenvalues --   -0.91421  -0.71708  -0.68107  -0.64587  -0.63275
 Alpha  occ. eigenvalues --   -0.58594  -0.56475  -0.50864  -0.46133  -0.38379
 Alpha  occ. eigenvalues --   -0.33226  -0.30349
 Alpha virt. eigenvalues --    0.02423   0.05058   0.05825   0.05950   0.08547
 Alpha virt. eigenvalues --    0.10115   0.10815   0.11288   0.12024   0.12472
 Alpha virt. eigenvalues --    0.13036   0.14359   0.14467   0.15006   0.16048

 Mulliken charges:
               1
     1  C   -3.301969
     2  C    3.759062
     3  N   -2.674116
     4  O   -2.385745
     5  C    1.705495
     6  N   -2.721263
     7  H    1.330969
     8  H    1.367163
     9  H    1.321631
    10  H    1.598774
 Sum of Mulliken charges =  -0.00000

 Dipole moment (field-independent basis, Debye):
    X=              2.7810    Y=              0.5451    Z=              0.6369  Tot=              2.9046

 Test job not archived.
 1\1\GINC-SE173\SP\RHF\Aug-CC-pVDZ\C3H4N2O1\OHZDE\09-Apr-2025\0\\#t hf
 aug-cc-pvdz iop(5/13=1,5/36=2,99/5=2) pseudo=read geom=check guess=(re
 ad,tcheck) scf=(maxcycle=1)\\title\\0,1\C,0,-2.10618965,-0.12118078,-0
 .2542185\C,0,0.31070897,0.4868596,-0.12652245\N,0,-0.7846554,0.3315751
 2,-0.60420504\O,0,2.50817988,-1.26276046,0.26145562\C,0,2.5401667,-0.0
 5199501,0.3880762\N,0,1.45447387,0.83404997,0.24728001\H,0,-2.43095165
 ,-0.88027229,-0.97725096\H,0,-2.13647205,-0.54978621,0.75670553\H,0,-2
 .80531306,0.72402668,-0.3087857\H,0,3.4568044,0.50731839,0.6513643\\Ve

 Normal termination of Gaussian 16 at Wed Apr  9 17:33:24 2025.
