 Gaussian 16, Revision C.01,

 ----------------------------------------------------------------------
 #t hf aug-cc-pvdz symm=none int=(grid=ultrafine) guess=(read,tcheck) s
 table=(opt,rrhf)
 ----------------------------------------------------------------------
 -----
 title
 -----
 Symbolic Z-matrix:
 Charge =  0 Multiplicity = 1

 SCF Done:  E(RHF) =  -284.730397093     A.U. after   15 cycles
 Normal termination of Gaussian 16 at Wed Apr  9 03:06:52 2025.
 Gaussian 16:  ES64L-G16RevC.01  3-Jul-2019

 ----------------------------------------------------------------------
 #t hf aug-cc-pvdz iop(5/13=1,5/36=2,99/5=2) pseudo=read geom=check gue
 ss=(read,tcheck) scf=(maxcycle=1)
 ----------------------------------------------------------------------
 -----
 title
 -----
 Structure from the checkpoint file:  "Grambow2020_b97d3_006544_reverse_mol1.chk"
 Charge =  0 Multiplicity = 1

                         Standard orientation:
 ---------------------------------------------------------------------
 Center     Atomic      Atomic             Coordinates (Angstroms)
 Number     Number       Type             X           Y           Z
 ---------------------------------------------------------------------
      1          6           0       -0.008015   -1.303351   -0.279958
      2          6           0        1.201335   -0.575456    0.370583
      3          8           0        1.470582    0.645941   -0.263635
      4          6           0       -0.332369    1.570855   -0.039757
      5          7           0       -1.273358    0.830965    0.096033
      6          6           0       -1.350026   -0.642472    0.045593
      7          1           0        0.158521   -1.304512   -1.365477
      8          1           0       -0.056843   -2.349923    0.057023
      9          1           0        1.014591   -0.468771    1.461690
     10          1           0        2.091403   -1.222208    0.266198
     11          1           0        0.731352    1.902698    0.090969
     12          1           0       -2.129641   -0.892910   -0.685157
     13          1           0       -1.726087   -0.946113    1.032829
 ---------------------------------------------------------------------

 SCF Done:  E(RHF) =  -286.058253310     A.U. after    2 cycles

 The electronic state is 1-A.
 Alpha  occ. eigenvalues --  -20.97185 -15.80568 -11.51112 -11.46738 -11.41730
 Alpha  occ. eigenvalues --  -11.36735  -1.62245  -1.42439  -1.16745  -0.98607
 Alpha  occ. eigenvalues --   -0.89249  -0.77713  -0.67334  -0.66023  -0.63101
 Alpha  occ. eigenvalues --   -0.57039  -0.53054  -0.50877  -0.46727  -0.45407
 Alpha  occ. eigenvalues --   -0.40018  -0.26346  -0.24551
 Alpha virt. eigenvalues --    0.03600   0.05225   0.05440   0.05877   0.06471
 Alpha virt. eigenvalues --    0.06630   0.07193   0.09222   0.10006   0.11721
 Alpha virt. eigenvalues --    0.12651   0.12911   0.13520   0.14427   0.15051

 Mulliken charges:
               1
     1  C   -2.488356
     2  C   -1.075623
     3  O   -2.280017
     4  C    0.389085
     5  N   -2.409785
     6  C   -2.221390
     7  H    1.368526
     8  H    1.295554
     9  H    1.490055
    10  H    1.188383
    11  H    1.898016
    12  H    1.390066
    13  H    1.455484
 Sum of Mulliken charges =  -0.00000

 Dipole moment (field-independent basis, Debye):
    X=             -0.9978    Y=             -1.2780    Z=              0.2670  Tot=              1.6432

 Test job not archived.
 1\1\GINC-SE229\SP\RHF\Aug-CC-pVDZ\C4H7N1O1\OHZDE\09-Apr-2025\0\\#t hf
 aug-cc-pvdz iop(5/13=1,5/36=2,99/5=2) pseudo=read geom=check guess=(re
 ad,tcheck) scf=(maxcycle=1)\\title\\0,1\C,0,0.51870367,-0.69088671,0.4
 9879889\C,0,-0.91909752,-0.88098086,-0.05990667\O,0,-1.78229934,0.1323
 9382,0.38110779\C,0,-0.78640778,1.77426622,-0.30348913\N,0,0.39874781,
 1.62514835,-0.46003311\C,0,1.26804579,0.47029959,-0.15988998\H,0,0.427
 47357,-0.51658715,1.57925488\H,0,1.11510308,-1.60404879,0.35150695\H,0
 ,-0.86869319,-0.9596753,-1.16807434\H,0,-1.3073989,-1.84876255,0.30618

 Normal termination of Gaussian 16 at Wed Apr  9 03:06:57 2025.
