 Gaussian 16, Revision C.01,

 ----------------------------------------------------------------------
 #t hf aug-cc-pvdz symm=none int=(grid=ultrafine) guess=(read,tcheck) s
 table=(opt,rrhf)
 ----------------------------------------------------------------------
 -----
 title
 -----
 Symbolic Z-matrix:
 Charge =  0 Multiplicity = 1

 SCF Done:  E(RHF) =  -284.865208856     A.U. after   13 cycles
 Normal termination of Gaussian 16 at Wed Apr  9 03:06:49 2025.
 Gaussian 16:  ES64L-G16RevC.01  3-Jul-2019

 ----------------------------------------------------------------------
 #t hf aug-cc-pvdz iop(5/13=1,5/36=2,99/5=2) pseudo=read geom=check gue
 ss=(read,tcheck) scf=(maxcycle=1)
 ----------------------------------------------------------------------
 -----
 title
 -----
 Structure from the checkpoint file:  "Grambow2020_b97d3_006537_reverse_mol2.chk"
 Charge =  0 Multiplicity = 1

                         Standard orientation:
 ---------------------------------------------------------------------
 Center     Atomic      Atomic             Coordinates (Angstroms)
 Number     Number       Type             X           Y           Z
 ---------------------------------------------------------------------
      1          6           0       -1.435443    0.134640   -0.134628
      2          6           0       -0.688583   -1.133494    0.289811
      3          8           0        0.584957   -1.169789   -0.352465
      4          6           0        1.393551   -0.070107    0.057392
      5          7           0        0.780193    1.242292    0.085148
      6          6           0       -0.492684    1.314806   -0.024645
      7          1           0       -1.789161    0.044574   -1.174596
      8          1           0       -2.325649    0.304877    0.491422
      9          1           0       -0.569570   -1.145632    1.389679
     10          1           0       -1.216639   -2.045976   -0.011672
     11          1           0        1.806038   -0.246846    1.070168
     12          1           0        2.229146   -0.043298   -0.654217
     13          1           0       -0.936212    2.319493   -0.014686
 ---------------------------------------------------------------------

 SCF Done:  E(RHF) =  -286.176173684     A.U. after    2 cycles

 The electronic state is 1-A.
 Alpha  occ. eigenvalues --  -21.04764 -15.73365 -11.46466 -11.44011 -11.42115
 Alpha  occ. eigenvalues --  -11.38461  -1.76177  -1.36637  -1.16574  -0.96201
 Alpha  occ. eigenvalues --   -0.92832  -0.75066  -0.69868  -0.63432  -0.62146
 Alpha  occ. eigenvalues --   -0.58025  -0.54606  -0.53160  -0.51472  -0.41972
 Alpha  occ. eigenvalues --   -0.38348  -0.34238  -0.29289
 Alpha virt. eigenvalues --    0.03558   0.05323   0.05431   0.05762   0.05899
 Alpha virt. eigenvalues --    0.06588   0.07026   0.10398   0.10972   0.12695
 Alpha virt. eigenvalues --    0.12994   0.13657   0.14036   0.14318   0.15103

 Mulliken charges:
               1
     1  C   -2.726144
     2  C   -1.484215
     3  O   -2.868191
     4  C   -0.750837
     5  N   -3.038131
     6  C    0.774628
     7  H    1.372314
     8  H    1.351524
     9  H    1.472364
    10  H    1.256315
    11  H    1.586721
    12  H    1.494484
    13  H    1.559167
 Sum of Mulliken charges =  -0.00000

 Dipole moment (field-independent basis, Debye):
    X=             -1.5303    Y=             -0.8282    Z=              0.0623  Tot=              1.7411

 Test job not archived.
 1\1\GINC-SE094\SP\RHF\Aug-CC-pVDZ\C4H7N1O1\OHZDE\09-Apr-2025\0\\#t hf
 aug-cc-pvdz iop(5/13=1,5/36=2,99/5=2) pseudo=read geom=check guess=(re
 ad,tcheck) scf=(maxcycle=1)\\title\\0,1\C,0,0.69713236,-1.02576971,0.1
 5575084\C,0,-0.82763509,-0.88183303,0.13387674\O,0,-1.19599805,0.34536
 443,0.76159823\C,0,-0.67593701,1.46100055,0.04326652\N,0,0.70884729,1.
 40282683,-0.37905769\C,0,1.31599076,0.27913031,-0.3002441\H,0,1.048144
 6,-1.26119815,1.17365305\H,0,1.0321513,-1.84863352,-0.49543586\H,0,-1.
 18963301,-0.90766633,-0.9112602\H,0,-1.32746945,-1.68137601,0.69356902

 Normal termination of Gaussian 16 at Wed Apr  9 03:06:53 2025.
