 Gaussian 16, Revision C.01,

 ----------------------------------------------------------------------
 #t hf aug-cc-pvdz symm=none int=(grid=ultrafine) guess=(read,tcheck) s
 table=(opt,rrhf)
 ----------------------------------------------------------------------
 -----
 title
 -----
 Symbolic Z-matrix:
 Charge =  0 Multiplicity = 1

 SCF Done:  E(RHF) =  -354.689167407     A.U. after   14 cycles
 Normal termination of Gaussian 16 at Wed Apr  9 03:39:45 2025.
 Gaussian 16:  ES64L-G16RevC.01  3-Jul-2019

 ----------------------------------------------------------------------
 #t hf aug-cc-pvdz iop(5/13=1,5/36=2,99/5=2) pseudo=read geom=check gue
 ss=(read,tcheck) scf=(maxcycle=1)
 ----------------------------------------------------------------------
 -----
 title
 -----
 Structure from the checkpoint file:  "Grambow2020_wb97xd3_007464_reverse_mol2.chk"
 Charge =  0 Multiplicity = 1

                         Standard orientation:
 ---------------------------------------------------------------------
 Center     Atomic      Atomic             Coordinates (Angstroms)
 Number     Number       Type             X           Y           Z
 ---------------------------------------------------------------------
      1          7           0       -1.987272    0.174280   -0.423584
      2          6           0       -0.651789    0.043136   -0.003858
      3          6           0        0.319747   -0.983658   -0.368551
      4          7           0        1.570014   -0.323936   -0.313314
      5          6           0        1.500866    0.971863    0.078993
      6          8           0       -0.379269   -1.020871    0.882696
      7          7           0        0.176532    1.190062    0.230128
      8          1           0       -2.616199    0.305656    0.355788
      9          1           0       -2.106881    0.906267   -1.107610
     10          1           0        0.164980   -1.822952   -1.033482
     11          1           0        2.448084   -0.771207   -0.494372
     12          1           0       -0.183696    2.078311    0.525994
 ---------------------------------------------------------------------

 SCF Done:  E(RHF) =  -356.259780622     A.U. after    2 cycles

 The electronic state is 1-A.
 Alpha  occ. eigenvalues --  -21.06521 -15.76703 -15.76672 -15.76347 -11.56790
 Alpha  occ. eigenvalues --  -11.45931 -11.38355  -1.83688  -1.49508  -1.35827
 Alpha  occ. eigenvalues --   -1.27393  -0.99683  -0.87905  -0.86172  -0.75547
 Alpha  occ. eigenvalues --   -0.68774  -0.62251  -0.60316  -0.57725  -0.56155
 Alpha  occ. eigenvalues --   -0.51304  -0.43224  -0.36850  -0.33617  -0.33178
 Alpha  occ. eigenvalues --   -0.30143
 Alpha virt. eigenvalues --    0.03339   0.04954   0.05516   0.05915   0.06418
 Alpha virt. eigenvalues --    0.10174   0.10810   0.11788   0.11996   0.12877
 Alpha virt. eigenvalues --    0.13319   0.14090   0.14692   0.15693   0.16120

 Mulliken charges:
               1
     1  N   -3.242238
     2  C    6.079149
     3  C    0.425535
     4  N   -2.090328
     5  C    0.206914
     6  O   -3.121367
     7  N   -2.374627
     8  H    0.518218
     9  H    0.507859
    10  H    1.464649
    11  H    0.814954
    12  H    0.811282
 Sum of Mulliken charges =  -0.00000

 Dipole moment (field-independent basis, Debye):
    X=             -2.3746    Y=             -0.8521    Z=             -0.5929  Tot=              2.5916

 Test job not archived.
 1\1\GINC-SE084\SP\RHF\Aug-CC-pVDZ\C3H5N3O1\OHZDE\09-Apr-2025\0\\#t hf
 aug-cc-pvdz iop(5/13=1,5/36=2,99/5=2) pseudo=read geom=check guess=(re
 ad,tcheck) scf=(maxcycle=1)\\title\\0,1\N,0,1.84404331,-0.05982609,0.1
 6271512\C,0,0.44168811,-0.14033594,0.22438447\C,0,-0.52131732,0.930345
 39,0.46407388\N,0,-1.67563249,0.53546899,-0.25222333\C,0,-1.56441675,-
 0.66461144,-0.87288409\O,0,-0.13568688,0.01995386,1.50239132\N,0,-0.29
 47793,-1.04372892,-0.61095935\H,0,2.28755576,-0.75393227,0.74730202\H,
 0,2.19256525,-0.11223351,-0.78268898\H,0,-0.3059823,1.97679279,0.63460

 Normal termination of Gaussian 16 at Wed Apr  9 03:39:50 2025.
