 Gaussian 16, Revision C.01,

 ----------------------------------------------------------------------
 #t hf aug-cc-pvdz symm=none int=(grid=ultrafine) guess=(read,tcheck) s
 table=(opt,rrhf)
 ----------------------------------------------------------------------
 -----
 title
 -----
 Symbolic Z-matrix:
 Charge =  0 Multiplicity = 1

 SCF Done:  E(RHF) =  -301.628309296     A.U. after   14 cycles
 Normal termination of Gaussian 16 at Wed Apr  9 19:23:01 2025.
 Gaussian 16:  ES64L-G16RevC.01  3-Jul-2019

 ----------------------------------------------------------------------
 #t hf aug-cc-pvdz iop(5/13=1,5/36=2,99/5=2) pseudo=read geom=check gue
 ss=(read,tcheck) scf=(maxcycle=1)
 ----------------------------------------------------------------------
 -----
 title
 -----
 Structure from the checkpoint file:  "Grambow2020_wb97xd3_008855_reverse_mol2.chk"
 Charge =  0 Multiplicity = 1

                         Standard orientation:
 ---------------------------------------------------------------------
 Center     Atomic      Atomic             Coordinates (Angstroms)
 Number     Number       Type             X           Y           Z
 ---------------------------------------------------------------------
      1          7           0       -2.252468   -0.020288   -0.200279
      2          6           0       -1.005698    0.013206   -0.048543
      3          6           0       -0.013709    1.098525   -0.267208
      4          6           0        0.796422    0.550901    0.860043
      5          6           0        0.071925   -0.824114    0.629061
      6          6           0        1.073923   -0.998279   -0.514179
      7          7           0        1.319622    0.475301   -0.500898
      8          1           0       -0.157338    2.117501   -0.590474
      9          1           0        1.261519    1.038188    1.703968
     10          1           0       -0.176537   -1.596152    1.350747
     11          1           0       -2.640707   -0.886127    0.168715
     12          1           0        1.996660   -1.496379   -0.218385
     13          1           0        0.709145   -1.403553   -1.461369
 ---------------------------------------------------------------------

 SCF Done:  E(RHF) =  -303.042401603     A.U. after    2 cycles

 The electronic state is 1-A.
 Alpha  occ. eigenvalues --  -15.73944 -15.73439 -11.52325 -11.47881 -11.46763
 Alpha  occ. eigenvalues --  -11.44233 -11.39186  -1.61454  -1.32076  -1.09895
 Alpha  occ. eigenvalues --   -1.07773  -0.92454  -0.81231  -0.77076  -0.70359
 Alpha  occ. eigenvalues --   -0.66559  -0.60041  -0.58642  -0.54684  -0.50226
 Alpha  occ. eigenvalues --   -0.43348  -0.40771  -0.40052  -0.36656  -0.31973
 Alpha virt. eigenvalues --    0.03489   0.04745   0.05402   0.05929   0.06146
 Alpha virt. eigenvalues --    0.06443   0.09273   0.10488   0.11395   0.12364
 Alpha virt. eigenvalues --    0.13000   0.13157   0.13357   0.13744   0.14670

 Mulliken charges:
               1
     1  N   -3.730973
     2  C    4.794482
     3  C   -1.486183
     4  C    0.547461
     5  C   -3.614855
     6  C   -1.921188
     7  N   -1.721625
     8  H    1.338925
     9  H    1.004060
    10  H    1.365321
    11  H    0.610512
    12  H    1.396097
    13  H    1.417967
 Sum of Mulliken charges =  -0.00000

 Dipole moment (field-independent basis, Debye):
    X=              1.3317    Y=             -1.4705    Z=              1.5227  Tot=              2.5009

 Test job not archived.
 1\1\GINC-SE084\SP\RHF\Aug-CC-pVDZ\C5H6N2\OHZDE\09-Apr-2025\0\\#t hf au
 g-cc-pvdz iop(5/13=1,5/36=2,99/5=2) pseudo=read geom=check guess=(read
 ,tcheck) scf=(maxcycle=1)\\title\\0,1\N,0,1.68722865,-0.85657083,1.400
 22707\C,0,0.86015426,-0.38797654,0.57867504\C,0,1.04508711,0.41236644,
 -0.66028595\C,0,-0.16198755,-0.24856173,-1.23738365\C,0,-0.61319092,-0
 .56637146,0.23378124\C,0,-1.09815152,0.88482146,0.2473682\N,0,-0.20898
 008,1.17520515,-0.91754897\H,0,1.94917155,0.75219344,-1.1404864\H,0,-0
 .33259753,-0.69871354,-2.20393954\H,0,-1.18728316,-1.40914762,0.606276

 Normal termination of Gaussian 16 at Wed Apr  9 19:23:05 2025.
