 Gaussian 16, Revision C.01,

 ----------------------------------------------------------------------
 #t hf aug-cc-pvdz symm=none int=(grid=ultrafine) guess=(read,tcheck) s
 table=(opt,rrhf)
 ----------------------------------------------------------------------
 -----
 title
 -----
 Symbolic Z-matrix:
 Charge =  0 Multiplicity = 1

 SCF Done:  E(RHF) =  -268.713791499     A.U. after   18 cycles
 Normal termination of Gaussian 16 at Wed Apr  9 17:56:34 2025.
 Gaussian 16:  ES64L-G16RevC.01  3-Jul-2019

 ----------------------------------------------------------------------
 #t hf aug-cc-pvdz iop(5/13=1,5/36=2,99/5=2) pseudo=read geom=check gue
 ss=(read,tcheck) scf=(maxcycle=1)
 ----------------------------------------------------------------------
 -----
 title
 -----
 Structure from the checkpoint file:  "Grambow2020_wb97xd3_006266_reverse_mol1.chk"
 Charge =  0 Multiplicity = 1

                         Standard orientation:
 ---------------------------------------------------------------------
 Center     Atomic      Atomic             Coordinates (Angstroms)
 Number     Number       Type             X           Y           Z
 ---------------------------------------------------------------------
      1          6           0       -1.841206   -0.762592    0.106647
      2          6           0       -0.603101   -0.090792   -0.441723
      3          6           0       -0.454382    1.403816   -0.113595
      4          6           0        0.849772    0.970167    0.409192
      5          6           0        0.745953   -0.542757    0.404632
      6          8           0        1.750453   -0.860047   -0.326643
      7          1           0       -1.934341   -0.598869    1.182478
      8          1           0       -2.734721   -0.353287   -0.371954
      9          1           0       -1.810873   -1.838771   -0.070319
     10          1           0       -0.388397   -0.315212   -1.481496
     11          1           0       -1.156061    1.718710    0.661540
     12          1           0       -0.457011    2.120825   -0.932486
     13          1           0        1.813029    1.386663    0.120787
     14          1           0        0.482539   -1.106731    1.313679
 ---------------------------------------------------------------------

 SCF Done:  E(RHF) =  -269.978871612     A.U. after    2 cycles

 The electronic state is 1-A.
 Alpha  occ. eigenvalues --  -20.97101 -11.52778 -11.46945 -11.43979 -11.41293
 Alpha  occ. eigenvalues --  -11.37957  -1.64929  -1.32532  -1.08806  -0.94725
 Alpha  occ. eigenvalues --   -0.88863  -0.79453  -0.68298  -0.62888  -0.60068
 Alpha  occ. eigenvalues --   -0.58073  -0.56334  -0.51124  -0.48533  -0.43844
 Alpha  occ. eigenvalues --   -0.41280  -0.25073  -0.22827
 Alpha virt. eigenvalues --    0.03318   0.04465   0.04851   0.05012   0.05661
 Alpha virt. eigenvalues --    0.06063   0.06561   0.07010   0.07843   0.11412
 Alpha virt. eigenvalues --    0.11920   0.12446   0.14108   0.14541   0.14842

 Mulliken charges:
               1
     1  C   -3.756771
     2  C   -1.528757
     3  C   -2.739123
     4  C   -1.757182
     5  C    2.017350
     6  O   -3.035779
     7  H    1.305125
     8  H    1.171770
     9  H    1.234053
    10  H    1.379108
    11  H    1.485574
    12  H    1.284691
    13  H    1.513011
    14  H    1.426931
 Sum of Mulliken charges =  -0.00000

 Dipole moment (field-independent basis, Debye):
    X=             -2.3003    Y=              1.6400    Z=              0.1324  Tot=              2.8281

 Test job not archived.
 1\1\GINC-SE226\SP\RHF\Aug-CC-pVDZ\C5H8O1\OHZDE\09-Apr-2025\0\\#t hf au
 g-cc-pvdz iop(5/13=1,5/36=2,99/5=2) pseudo=read geom=check guess=(read
 ,tcheck) scf=(maxcycle=1)\\title\\0,1\C,0,-1.30067595,-1.02923682,-0.0
 7274315\C,0,-0.26971805,0.00544423,-0.46196218\C,0,-0.18392228,1.23839
 965,0.45242156\C,0,1.23385636,0.85553273,0.52654388\C,0,1.26203113,-0.
 51812705,-0.11533198\O,0,2.11188734,-0.33606998,-1.05822964\H,0,-1.177
 03919,-1.33621036,0.96810948\H,0,-2.30725788,-0.61715142,-0.1819933\H,
 0,-1.21610098,-1.91805848,-0.69983134\H,0,-0.26214047,0.26369255,-1.51

 Normal termination of Gaussian 16 at Wed Apr  9 17:56:38 2025.
