 Gaussian 16, Revision C.01,

 ----------------------------------------------------------------------
 #t hf aug-cc-pvdz symm=none int=(grid=ultrafine) guess=(read,tcheck) s
 table=(opt,rrhf)
 ----------------------------------------------------------------------
 -----
 title
 -----
 Symbolic Z-matrix:
 Charge =  0 Multiplicity = 1

 SCF Done:  E(RHF) =  -323.819068986     A.U. after   16 cycles
 Normal termination of Gaussian 16 at Wed Apr  9 19:25:17 2025.
 Gaussian 16:  ES64L-G16RevC.01  3-Jul-2019

 ----------------------------------------------------------------------
 #t hf aug-cc-pvdz iop(5/13=1,5/36=2,99/5=2) pseudo=read geom=check gue
 ss=(read,tcheck) scf=(maxcycle=1)
 ----------------------------------------------------------------------
 -----
 title
 -----
 Structure from the checkpoint file:  "Grambow2020_wb97xd3_008936_reverse_mol2.chk"
 Charge =  0 Multiplicity = 1

                         Standard orientation:
 ---------------------------------------------------------------------
 Center     Atomic      Atomic             Coordinates (Angstroms)
 Number     Number       Type             X           Y           Z
 ---------------------------------------------------------------------
      1          6           0       -2.449776    0.408052    0.426073
      2          6           0       -1.453573    0.168476   -0.627703
      3          6           0        1.087136    1.599774   -0.124141
      4          7           0        0.953331    0.169947    0.005643
      5          6           0        2.130103   -0.617057    0.290062
      6          6           0       -0.230088   -0.424869   -0.198805
      7          8           0       -0.468580   -1.638716   -0.161636
      8          1           0       -2.312147   -0.158561    1.352462
      9          1           0       -3.477022    0.334106    0.069996
     10          1           0       -2.287780    1.475543    0.657938
     11          1           0        0.161744    2.017737   -0.523635
     12          1           0        1.892523    1.844415   -0.821623
     13          1           0        1.303386    2.072566    0.838338
     14          1           0        1.844687   -1.666171    0.330506
     15          1           0        2.881493   -0.480161   -0.492697
     16          1           0        2.565630   -0.325635    1.249379
 ---------------------------------------------------------------------

 SCF Done:  E(RHF) =  -325.322448524     A.U. after    2 cycles

 The electronic state is 1-A.
 Alpha  occ. eigenvalues --  -21.02024 -15.76176 -11.50087 -11.42922 -11.41991
 Alpha  occ. eigenvalues --  -11.40269 -11.38704  -1.71579  -1.45066  -1.16476
 Alpha  occ. eigenvalues --   -1.07049  -1.01059  -0.88660  -0.72915  -0.67181
 Alpha  occ. eigenvalues --   -0.63857  -0.62779  -0.59072  -0.57714  -0.57116
 Alpha  occ. eigenvalues --   -0.54383  -0.53286  -0.49340  -0.45770  -0.33563
 Alpha  occ. eigenvalues --   -0.29955  -0.28653
 Alpha virt. eigenvalues --    0.03045   0.04926   0.04988   0.05183   0.06216
 Alpha virt. eigenvalues --    0.06302   0.06634   0.07826   0.08426   0.09547
 Alpha virt. eigenvalues --    0.10376   0.12167   0.12437   0.12960   0.13220

 Mulliken charges:
               1
     1  C   -3.693650
     2  C   -2.209956
     3  C   -3.535274
     4  N   -3.346329
     5  C   -3.630981
     6  C    6.933043
     7  O   -3.172339
     8  H    1.404030
     9  H    1.301559
    10  H    1.309979
    11  H    1.597339
    12  H    1.419519
    13  H    1.409757
    14  H    1.345752
    15  H    1.424155
    16  H    1.443396
 Sum of Mulliken charges =   0.00000

 Dipole moment (field-independent basis, Debye):
    X=              2.2131    Y=              1.7153    Z=              1.9978  Tot=              3.4397

 Test job not archived.
 1\1\GINC-SE231\SP\RHF\Aug-CC-pVDZ\C5H9N1O1\OHZDE\09-Apr-2025\0\\#t hf
 aug-cc-pvdz iop(5/13=1,5/36=2,99/5=2) pseudo=read geom=check guess=(re
 ad,tcheck) scf=(maxcycle=1)\\title\\0,1\C,0,2.47324064,-0.10429788,0.7
 6706362\C,0,1.45933324,0.91005004,0.44557728\C,0,-0.47338468,-0.032181
 27,-1.58769354\N,0,-0.81709329,0.13633007,-0.19750546\C,0,-2.18853447,
 -0.05927576,0.20986452\C,0,0.10656044,0.53136374,0.68956628\O,0,-0.066
 85846,0.75380079,1.89461124\H,0,2.15220267,-0.90507812,1.44076519\H,0,
 3.42119593,0.32447363,1.09114598\H,0,2.66940852,-0.55547483,-0.2216209

 Normal termination of Gaussian 16 at Wed Apr  9 19:25:22 2025.
