 Gaussian 16, Revision C.01,

 ----------------------------------------------------------------------
 #t hf aug-cc-pvdz symm=none int=(grid=ultrafine) guess=(read,tcheck) s
 table=(opt,rrhf)
 ----------------------------------------------------------------------
 -----
 title
 -----
 Symbolic Z-matrix:
 Charge =  0 Multiplicity = 1

 SCF Done:  E(RHF) =  -343.696393211     A.U. after   13 cycles
 Normal termination of Gaussian 16 at Wed Apr  9 19:21:05 2025.
 Gaussian 16:  ES64L-G16RevC.01  3-Jul-2019

 ----------------------------------------------------------------------
 #t hf aug-cc-pvdz iop(5/13=1,5/36=2,99/5=2) pseudo=read geom=check gue
 ss=(read,tcheck) scf=(maxcycle=1)
 ----------------------------------------------------------------------
 -----
 title
 -----
 Structure from the checkpoint file:  "Grambow2020_wb97xd3_008650_reverse_mol2.chk"
 Charge =  0 Multiplicity = 1

                         Standard orientation:
 ---------------------------------------------------------------------
 Center     Atomic      Atomic             Coordinates (Angstroms)
 Number     Number       Type             X           Y           Z
 ---------------------------------------------------------------------
      1          6           0        2.199525   -0.801002   -0.029117
      2          6           0        1.373611    0.112280    0.454885
      3          8           0       -0.121231    1.770170   -0.376171
      4          6           0       -0.018470    0.410111   -0.013547
      5          6           0       -1.135139    0.009896    0.963318
      6          8           0       -1.581731   -1.034271    0.090762
      7          6           0       -0.709979   -0.593231   -0.956304
      8          1           0        3.196473   -0.919780    0.376760
      9          1           0        1.919552   -1.468725   -0.835078
     10          1           0        0.625338    1.993782   -0.937193
     11          1           0        1.703187    0.757930    1.266450
     12          1           0       -0.823634   -0.372774    1.938088
     13          1           0       -1.882637    0.799203    1.084020
     14          1           0       -1.254229   -0.090445   -1.761287
     15          1           0       -0.117638   -1.414703   -1.363890
 ---------------------------------------------------------------------

 SCF Done:  E(RHF) =  -345.252224861     A.U. after    2 cycles

 The electronic state is 1-A.
 Alpha  occ. eigenvalues --  -21.08105 -21.03665 -11.48533 -11.45606 -11.42970
 Alpha  occ. eigenvalues --  -11.41137 -11.38357  -1.79407  -1.70752  -1.19685
 Alpha  occ. eigenvalues --   -1.04847  -1.00382  -0.87131  -0.77049  -0.70541
 Alpha  occ. eigenvalues --   -0.64857  -0.63662  -0.59023  -0.56433  -0.55527
 Alpha  occ. eigenvalues --   -0.50980  -0.45731  -0.42126  -0.38872  -0.34724
 Alpha  occ. eigenvalues --   -0.31311  -0.29235
 Alpha virt. eigenvalues --    0.03552   0.04767   0.05247   0.05558   0.06227
 Alpha virt. eigenvalues --    0.06900   0.07146   0.08081   0.09583   0.11089
 Alpha virt. eigenvalues --    0.11472   0.12961   0.13942   0.14715   0.14879

 Mulliken charges:
               1
     1  C   -3.143586
     2  C   -0.977974
     3  O   -3.801137
     4  C    3.126592
     5  C   -1.280634
     6  O   -2.764166
     7  C   -1.584025
     8  H    1.374872
     9  H    1.576427
    10  H    0.807992
    11  H    1.193061
    12  H    1.563708
    13  H    1.181249
    14  H    1.302540
    15  H    1.425081
 Sum of Mulliken charges =   0.00000

 Dipole moment (field-independent basis, Debye):
    X=              1.1035    Y=              0.2417    Z=             -0.1682  Tot=              1.1421

 Test job not archived.
 1\1\GINC-SE016\SP\RHF\Aug-CC-pVDZ\C5H8O2\OHZDE\09-Apr-2025\0\\#t hf au
 g-cc-pvdz iop(5/13=1,5/36=2,99/5=2) pseudo=read geom=check guess=(read
 ,tcheck) scf=(maxcycle=1)\\title\\0,1\C,0,1.58293642,-0.78045638,1.139
 12683\C,0,0.95988316,0.31224671,0.72890787\O,0,0.3194851,1.32091821,-1
 .33174293\C,0,-0.08957043,0.40742916,-0.3367423\C,0,-1.50415068,0.7325
 1771,0.16790371\O,0,-1.97014064,-0.58001916,-0.16554051\C,0,-0.7470732
 5,-0.89085855,-0.84252043\H,0,2.34224191,-0.73125179,1.90969967\H,0,1.
 36064309,-1.76162824,0.737008\H,0,1.22610627,1.12013843,-1.57636426\H,

 Normal termination of Gaussian 16 at Wed Apr  9 19:21:10 2025.
