 Gaussian 16, Revision C.01,

 ----------------------------------------------------------------------
 #t hf aug-cc-pvdz symm=none int=(grid=ultrafine) guess=(read,tcheck) s
 table=(opt,rrhf)
 ----------------------------------------------------------------------
 -----
 title
 -----
 Symbolic Z-matrix:
 Charge =  0 Multiplicity = 1

 SCF Done:  E(RHF) =  -302.087466366     A.U. after   17 cycles
 Normal termination of Gaussian 16 at Wed Apr  9 16:04:37 2025.
 Gaussian 16:  ES64L-G16RevC.01  3-Jul-2019

 ----------------------------------------------------------------------
 #t hf aug-cc-pvdz iop(5/13=1,5/36=2,99/5=2) pseudo=read geom=check gue
 ss=(read,tcheck) scf=(maxcycle=1)
 ----------------------------------------------------------------------
 -----
 title
 -----
 Structure from the checkpoint file:  "Grambow2020_b97d3_006713_forward_mol1.chk"
 Charge =  0 Multiplicity = 1

                         Standard orientation:
 ---------------------------------------------------------------------
 Center     Atomic      Atomic             Coordinates (Angstroms)
 Number     Number       Type             X           Y           Z
 ---------------------------------------------------------------------
      1          8           0       -1.849548   -0.669441   -0.094009
      2          6           0       -1.279632    0.392028   -0.150983
      3          6           0        0.472964    0.567932   -0.528170
      4          6           0        0.257912    0.767420    0.839451
      5          6           0        1.012294   -0.442747    0.656231
      6          8           0        1.635152   -0.284618   -0.577018
      7          1           0       -1.705465    1.379250   -0.388922
      8          1           0        0.639411   -1.454578    0.857959
 ---------------------------------------------------------------------

 SCF Done:  E(RHF) =  -303.393831214     A.U. after    2 cycles

 The electronic state is 1-A.
 Alpha  occ. eigenvalues --  -21.17148 -21.08872 -11.55161 -11.54109 -11.49379
 Alpha  occ. eigenvalues --  -11.43534  -1.88555  -1.73145  -1.26113  -0.96328
 Alpha  occ. eigenvalues --   -0.87744  -0.73474  -0.67503  -0.60662  -0.58550
 Alpha  occ. eigenvalues --   -0.53394  -0.50357  -0.44864  -0.40211  -0.33185
 Alpha  occ. eigenvalues --   -0.29749
 Alpha virt. eigenvalues --    0.03699   0.04638   0.06587   0.07917   0.09042
 Alpha virt. eigenvalues --    0.09662   0.10174   0.10252   0.10962   0.12134
 Alpha virt. eigenvalues --    0.13383   0.15026   0.15221   0.15543   0.16145

 Mulliken charges:
               1
     1  O   -2.670067
     2  C    1.285253
     3  C    1.582159
     4  C   -0.947281
     5  C    0.134263
     6  O   -2.313164
     7  H    1.491497
     8  H    1.437339
 Sum of Mulliken charges =  -0.00000

 Dipole moment (field-independent basis, Debye):
    X=              1.1688    Y=             -1.5346    Z=             -0.9074  Tot=              2.1318

 Test job not archived.
 1\1\GINC-SE100\SP\RHF\Aug-CC-pVDZ\C4H2O2\OHZDE\09-Apr-2025\0\\#t hf au
 g-cc-pvdz iop(5/13=1,5/36=2,99/5=2) pseudo=read geom=check guess=(read
 ,tcheck) scf=(maxcycle=1)\\title\\0,1\O,0,-1.37091976,0.49532721,1.127
 92738\C,0,-1.22454499,-0.1450403,0.11635933\C,0,0.34251328,-0.87729034
 ,-0.38657568\C,0,0.08002203,0.26080507,-1.15616449\C,0,1.22007055,0.51
 567251,-0.31801431\O,0,1.73416415,-0.74444228,-0.03222143\H,0,-1.98075
 917,-0.72495177,-0.435365\H,0,1.24045292,1.2228589,0.52044321\\Version
 =ES64L-G16RevC.01\State=1-A\HF=-303.3938312\RMSD=2.271e-01\Dipole=0.64

 Normal termination of Gaussian 16 at Wed Apr  9 16:04:40 2025.
