 Gaussian 16, Revision C.01,

 ----------------------------------------------------------------------
 #t hf aug-cc-pvdz symm=none int=(grid=ultrafine) guess=(read,tcheck) s
 table=(opt,rrhf)
 ----------------------------------------------------------------------
 -----
 title
 -----
 Symbolic Z-matrix:
 Charge =  0 Multiplicity = 1

 SCF Done:  E(RHF) =  -283.548397387     A.U. after   16 cycles
 Normal termination of Gaussian 16 at Wed Apr  9 16:05:44 2025.
 Gaussian 16:  ES64L-G16RevC.01  3-Jul-2019

 ----------------------------------------------------------------------
 #t hf aug-cc-pvdz iop(5/13=1,5/36=2,99/5=2) pseudo=read geom=check gue
 ss=(read,tcheck) scf=(maxcycle=1)
 ----------------------------------------------------------------------
 -----
 title
 -----
 Structure from the checkpoint file:  "Grambow2020_b97d3_006719_reverse_mol1.chk"
 Charge =  0 Multiplicity = 1

                         Standard orientation:
 ---------------------------------------------------------------------
 Center     Atomic      Atomic             Coordinates (Angstroms)
 Number     Number       Type             X           Y           Z
 ---------------------------------------------------------------------
      1          6           0       -1.342278   -0.142181    0.553069
      2          6           0       -0.675058    0.882026   -0.298926
      3          8           0        0.691318    1.139732    0.004654
      4          6           0        1.330743   -0.064434    0.206351
      5          7           0        0.737057   -1.158928   -0.077807
      6          6           0       -0.614829   -1.089473   -0.472497
      7          1           0       -1.004181   -0.200640    1.590615
      8          1           0       -2.431783   -0.148823    0.463186
      9          1           0       -1.168568    1.765604   -0.704725
     10          1           0        2.357225    0.046336    0.548467
     11          1           0       -0.634101    0.016534   -1.318103
 ---------------------------------------------------------------------

 SCF Done:  E(RHF) =  -284.846348491     A.U. after    2 cycles

 The electronic state is 1-A.
 Alpha  occ. eigenvalues --  -21.11581 -15.74777 -11.49275 -11.47570 -11.43973
 Alpha  occ. eigenvalues --  -11.39716  -1.83941  -1.39630  -1.21612  -0.93757
 Alpha  occ. eigenvalues --   -0.88173  -0.79975  -0.72079  -0.65332  -0.58539
 Alpha  occ. eigenvalues --   -0.56746  -0.53796  -0.47100  -0.45487  -0.40619
 Alpha  occ. eigenvalues --   -0.38701  -0.26379
 Alpha virt. eigenvalues --    0.03462   0.04954   0.05593   0.05752   0.07307
 Alpha virt. eigenvalues --    0.09616   0.09721   0.10290   0.11421   0.12221
 Alpha virt. eigenvalues --    0.13728   0.13876   0.14304   0.14822   0.15374

 Mulliken charges:
               1
     1  C   -3.135776
     2  C    0.226622
     3  O   -3.218329
     4  C    1.926377
     5  N   -2.558418
     6  C   -0.079609
     7  H    1.206238
     8  H    1.356692
     9  H    1.367087
    10  H    1.730429
    11  H    1.178689
 Sum of Mulliken charges =  -0.00000

 Dipole moment (field-independent basis, Debye):
    X=              0.3635    Y=              3.5386    Z=              1.2669  Tot=              3.7761

 Test job not archived.
 1\1\GINC-SE141\SP\RHF\Aug-CC-pVDZ\C4H5N1O1\OHZDE\09-Apr-2025\0\\#t hf
 aug-cc-pvdz iop(5/13=1,5/36=2,99/5=2) pseudo=read geom=check guess=(re
 ad,tcheck) scf=(maxcycle=1)\\title\\0,1\C,0,-1.16099368,0.38186669,-0.
 01297449\C,0,-0.30174331,-0.66954581,-0.62640841\O,0,1.02868487,-0.272
 1449,-0.93879861\C,0,1.53129981,0.45055132,0.12169668\N,0,0.89049023,0
 .49549723,1.22553944\C,0,-0.3857958,-0.1023523,1.26879391\H,0,-0.97069
 341,1.4085784,-0.33527314\H,0,-2.22535029,0.13241781,-0.0050069\H,0,-0
 .66012237,-1.44038442,-1.30927423\H,0,2.50853737,0.88397957,-0.078619\

 Normal termination of Gaussian 16 at Wed Apr  9 16:05:49 2025.
