 Gaussian 16, Revision C.01,

 ----------------------------------------------------------------------
 #t hf aug-cc-pvdz symm=none int=(grid=ultrafine) guess=(read,tcheck) s
 table=(opt,rrhf)
 ----------------------------------------------------------------------
 -----
 title
 -----
 Symbolic Z-matrix:
 Charge =  0 Multiplicity = 1

 SCF Done:  E(RHF) =  -320.571901614     A.U. after   15 cycles
 Normal termination of Gaussian 16 at Wed Apr  9 17:24:08 2025.
 Gaussian 16:  ES64L-G16RevC.01  3-Jul-2019

 ----------------------------------------------------------------------
 #t hf aug-cc-pvdz iop(5/13=1,5/36=2,99/5=2) pseudo=read geom=check gue
 ss=(read,tcheck) scf=(maxcycle=1)
 ----------------------------------------------------------------------
 -----
 title
 -----
 Structure from the checkpoint file:  "Grambow2020_b97d3_007126_reverse_mol1.chk"
 Charge =  0 Multiplicity = 1

                         Standard orientation:
 ---------------------------------------------------------------------
 Center     Atomic      Atomic             Coordinates (Angstroms)
 Number     Number       Type             X           Y           Z
 ---------------------------------------------------------------------
      1          6           0        2.091189   -0.697985    0.010631
      2          7           0        0.643922   -0.608169   -0.044489
      3          6           0       -0.038226    0.571623   -0.013926
      4          8           0        0.452409    1.699947    0.029827
      5          6           0       -1.564910    0.371849   -0.053568
      6          8           0       -1.968412   -0.895143    0.052080
      7          1           0        2.487513    0.317464   -0.092805
      8          1           0        2.429526   -1.118247    0.969972
      9          1           0        2.471584   -1.325732   -0.807327
     10          1           0        0.082258   -1.456924   -0.020505
     11          1           0       -2.778631   -0.070734   -0.051999
 ---------------------------------------------------------------------

 SCF Done:  E(RHF) =  -321.966476640     A.U. after    2 cycles

 The electronic state is 1-A.
 Alpha  occ. eigenvalues --  -21.13468 -21.04642 -15.77806 -11.52478 -11.47251
 Alpha  occ. eigenvalues --  -11.41012  -1.79082  -1.70278  -1.40004  -1.05735
 Alpha  occ. eigenvalues --   -0.91308  -0.77717  -0.74529  -0.62968  -0.59846
 Alpha  occ. eigenvalues --   -0.59421  -0.54466  -0.53222  -0.47865  -0.45214
 Alpha  occ. eigenvalues --   -0.34160  -0.31809  -0.27881
 Alpha virt. eigenvalues --    0.03386   0.04693   0.05696   0.06352   0.07433
 Alpha virt. eigenvalues --    0.07618   0.10417   0.11330   0.12072   0.13005
 Alpha virt. eigenvalues --    0.13272   0.13326   0.14160   0.14594   0.17446

 Mulliken charges:
               1
     1  C   -3.153794
     2  N   -2.959829
     3  C    5.721287
     4  O   -2.926895
     5  C   -0.922615
     6  O   -2.075549
     7  H    1.383322
     8  H    1.309238
     9  H    1.308537
    10  H    0.855448
    11  H    1.460851
 Sum of Mulliken charges =   0.00000

 Dipole moment (field-independent basis, Debye):
    X=              0.4145    Y=             -3.9167    Z=              0.1479  Tot=              3.9414

 Test job not archived.
 1\1\GINC-SE229\SP\RHF\Aug-CC-pVDZ\C3H5N1O2\OHZDE\09-Apr-2025\0\\#t hf
 aug-cc-pvdz iop(5/13=1,5/36=2,99/5=2) pseudo=read geom=check guess=(re
 ad,tcheck) scf=(maxcycle=1)\\title\\0,1\C,0,-0.91954614,1.48864888,-0.
 06016987\N,0,0.01911371,0.38526871,-0.14476695\C,0,-0.26610814,-0.8790
 1715,0.27760754\O,0,-1.33493076,-1.27036831,0.74687933\C,0,0.921969,-1
 .84287292,0.09956456\O,0,2.0633142,-1.26393274,-0.27647315\H,0,-1.8907
 321,1.07244859,0.22703101\H,0,-0.60649178,2.2227744,0.69777612\H,0,-1.
 00986774,1.99544519,-1.03115964\H,0,0.97425578,0.55506012,-0.45347457\

 Normal termination of Gaussian 16 at Wed Apr  9 17:24:12 2025.
