 Gaussian 16, Revision C.01,

 ----------------------------------------------------------------------
 #t hf aug-cc-pvdz symm=none int=(grid=ultrafine) guess=(read,tcheck) s
 table=(opt,rrhf)
 ----------------------------------------------------------------------
 -----
 title
 -----
 Symbolic Z-matrix:
 Charge =  0 Multiplicity = 1

 SCF Done:  E(RHF) =  -305.740341802     A.U. after   15 cycles
 Normal termination of Gaussian 16 at Wed Apr  9 03:05:51 2025.
 Gaussian 16:  ES64L-G16RevC.01  3-Jul-2019

 ----------------------------------------------------------------------
 #t hf aug-cc-pvdz iop(5/13=1,5/36=2,99/5=2) pseudo=read geom=check gue
 ss=(read,tcheck) scf=(maxcycle=1)
 ----------------------------------------------------------------------
 -----
 title
 -----
 Structure from the checkpoint file:  "Grambow2020_b97d3_006515_reverse_mol2.chk"
 Charge =  0 Multiplicity = 1

                         Standard orientation:
 ---------------------------------------------------------------------
 Center     Atomic      Atomic             Coordinates (Angstroms)
 Number     Number       Type             X           Y           Z
 ---------------------------------------------------------------------
      1          8           0        1.981270    1.018714   -0.106087
      2          6           0        1.825284   -0.374827    0.108068
      3          6           0        0.391363   -0.719415    0.483597
      4          6           0       -2.215067    0.881615    0.515493
      5          6           0       -1.795148   -0.247842   -0.287194
      6          8           0       -0.424310   -0.331371   -0.632573
      7          1           0        1.196173    1.283935   -0.625059
      8          1           0        2.111902   -0.966075   -0.783095
      9          1           0        2.496475   -0.655932    0.931503
     10          1           0        0.274215   -1.799394    0.693482
     11          1           0       -3.307990    0.713199    0.682535
     12          1           0        0.087593   -0.142783    1.374926
     13          1           0       -2.338458    0.086220   -1.218134
     14          1           0       -2.214182   -1.255092   -0.066664
 ---------------------------------------------------------------------

 SCF Done:  E(RHF) =  -307.101803604     A.U. after    2 cycles

 The electronic state is 1-A.
 Alpha  occ. eigenvalues --  -21.05758 -21.05511 -11.45633 -11.45361 -11.41479
 Alpha  occ. eigenvalues --  -11.39273  -1.77475  -1.68451  -1.14473  -1.05888
 Alpha  occ. eigenvalues --   -0.87354  -0.79559  -0.67896  -0.66061  -0.62465
 Alpha  occ. eigenvalues --   -0.61012  -0.54921  -0.53234  -0.49218  -0.40026
 Alpha  occ. eigenvalues --   -0.39838  -0.36128  -0.31908  -0.30860
 Alpha virt. eigenvalues --    0.03539   0.04502   0.05038   0.05239   0.05411
 Alpha virt. eigenvalues --    0.06430   0.06715   0.07706   0.08389   0.11147
 Alpha virt. eigenvalues --    0.11595   0.12272   0.13606   0.13823   0.15613

 Mulliken charges:
               1
     1  O   -2.570951
     2  C   -1.112340
     3  C   -1.634320
     4  C   -2.028920
     5  C   -0.582879
     6  O   -2.925117
     7  H    0.920711
     8  H    1.354882
     9  H    1.227693
    10  H    1.485840
    11  H    1.176080
    12  H    1.855528
    13  H    1.317467
    14  H    1.516326
 Sum of Mulliken charges =   0.00000

 Dipole moment (field-independent basis, Debye):
    X=             -1.7008    Y=             -2.1734    Z=             -0.4846  Tot=              2.8020

 Test job not archived.
 1\1\GINC-SE023\SP\RHF\Aug-CC-pVDZ\C4H8O2\OHZDE\09-Apr-2025\0\\#t hf au
 g-cc-pvdz iop(5/13=1,5/36=2,99/5=2) pseudo=read geom=check guess=(read
 ,tcheck) scf=(maxcycle=1)\\title\\0,1\O,0,-2.28944207,0.40626569,-0.68
 694061\C,0,-1.89201726,-0.50525538,0.32465773\C,0,-0.3887815,-0.740677
 31,0.29725243\C,0,1.91856712,0.58519193,-1.21139118\C,0,1.59563134,0.5
 4379045,0.1993933\O,0,0.22538386,0.53100844,0.5567718\H,0,-1.61913633,
 1.11773369,-0.66336516\H,0,-2.17920801,-0.15479329,1.3349026\H,0,-2.41
 405333,-1.45318143,0.1336659\H,0,-0.07954518,-1.48360545,1.05656764\H,

 Normal termination of Gaussian 16 at Wed Apr  9 03:05:55 2025.
