 Gaussian 16, Revision C.01,

 ----------------------------------------------------------------------
 #t hf aug-cc-pvdz symm=none int=(grid=ultrafine) guess=(read,tcheck) s
 table=(opt,rrhf)
 ----------------------------------------------------------------------
 -----
 title
 -----
 Symbolic Z-matrix:
 Charge =  0 Multiplicity = 1

 SCF Done:  E(RHF) =  -333.559022330     A.U. after   17 cycles
 Normal termination of Gaussian 16 at Wed Apr  9 03:32:32 2025.
 Gaussian 16:  ES64L-G16RevC.01  3-Jul-2019

 ----------------------------------------------------------------------
 #t hf aug-cc-pvdz iop(5/13=1,5/36=2,99/5=2) pseudo=read geom=check gue
 ss=(read,tcheck) scf=(maxcycle=1)
 ----------------------------------------------------------------------
 -----
 title
 -----
 Structure from the checkpoint file:  "Grambow2020_wb97xd3_006982_reverse_mol1.chk"
 Charge =  0 Multiplicity = 1

                         Standard orientation:
 ---------------------------------------------------------------------
 Center     Atomic      Atomic             Coordinates (Angstroms)
 Number     Number       Type             X           Y           Z
 ---------------------------------------------------------------------
      1          7           0        2.211634   -0.277403   -0.252143
      2          6           0        0.948057    0.067473    0.102440
      3          6           0       -0.178109   -0.728070    0.589033
      4          7           0       -1.030368   -1.199935   -0.327464
      5          6           0       -1.691958   -0.046342   -0.303368
      6          7           0       -1.076601    1.052319    0.199753
      7          7           0        0.355937    1.189555   -0.057772
      8          1           0        2.770956    0.474647   -0.620909
      9          1           0        2.701004   -0.933090    0.330342
     10          1           0       -0.436366   -0.697505    1.651011
     11          1           0       -2.727754    0.045830   -0.625693
 ---------------------------------------------------------------------

 SCF Done:  E(RHF) =  -335.064968805     A.U. after    2 cycles

 The electronic state is 1-A.
 Alpha  occ. eigenvalues --  -15.80407 -15.75619 -15.73400 -15.73178 -11.57270
 Alpha  occ. eigenvalues --  -11.48380 -11.45616  -1.62622  -1.41591  -1.33752
 Alpha  occ. eigenvalues --   -1.17150  -0.98230  -0.88165  -0.77987  -0.73090
 Alpha  occ. eigenvalues --   -0.70409  -0.65077  -0.60904  -0.56255  -0.50150
 Alpha  occ. eigenvalues --   -0.47921  -0.40549  -0.35675  -0.34038  -0.29186
 Alpha virt. eigenvalues --    0.02537   0.04707   0.05120   0.05839   0.07228
 Alpha virt. eigenvalues --    0.09458   0.10546   0.11193   0.11508   0.12256
 Alpha virt. eigenvalues --    0.12606   0.13680   0.14728   0.15388   0.16471

 Mulliken charges:
               1
     1  N   -3.155380
     2  C    4.375679
     3  C   -0.880904
     4  N   -2.640861
     5  C    1.698351
     6  N   -1.634482
     7  N   -2.010765
     8  H    0.695481
     9  H    0.574854
    10  H    1.595543
    11  H    1.382484
 Sum of Mulliken charges =  -0.00000

 Dipole moment (field-independent basis, Debye):
    X=              3.0169    Y=             -2.1329    Z=              1.4344  Tot=              3.9634

 Test job not archived.
 1\1\GINC-SE026\SP\RHF\Aug-CC-pVDZ\C3H4N4\OHZDE\09-Apr-2025\0\\#t hf au
 g-cc-pvdz iop(5/13=1,5/36=2,99/5=2) pseudo=read geom=check guess=(read
 ,tcheck) scf=(maxcycle=1)\\title\\0,1\N,0,2.01893546,-0.4400068,-0.200
 50652\C,0,0.69533115,-0.18303701,-0.35326569\C,0,-0.17374634,0.8333382
 7,0.23800089\N,0,-0.81276659,0.50542757,1.3663169\C,0,-1.77930862,-0.0
 6344462,0.65130666\N,0,-1.52955152,-0.40064694,-0.63817605\N,0,-0.1876
 0884,-0.88948697,-0.9504985\H,0,2.35320296,-1.25669584,-0.68598878\H,0
 ,2.65061809,0.34064369,-0.18444576\H,0,-0.47606153,1.69516202,-0.36307

 Normal termination of Gaussian 16 at Wed Apr  9 03:32:36 2025.
