 Gaussian 16, Revision C.01,

 ----------------------------------------------------------------------
 #t hf aug-cc-pvdz symm=none int=(grid=ultrafine) guess=(read,tcheck) s
 table=(opt,rrhf)
 ----------------------------------------------------------------------
 -----
 title
 -----
 Symbolic Z-matrix:
 Charge =  0 Multiplicity = 1

 SCF Done:  E(RHF) =  -283.673299633     A.U. after   14 cycles
 Normal termination of Gaussian 16 at Wed Apr  9 03:09:14 2025.
 Gaussian 16:  ES64L-G16RevC.01  3-Jul-2019

 ----------------------------------------------------------------------
 #t hf aug-cc-pvdz iop(5/13=1,5/36=2,99/5=2) pseudo=read geom=check gue
 ss=(read,tcheck) scf=(maxcycle=1)
 ----------------------------------------------------------------------
 -----
 title
 -----
 Structure from the checkpoint file:  "Grambow2020_b97d3_006653_forward_mol2.chk"
 Charge =  0 Multiplicity = 1

                         Standard orientation:
 ---------------------------------------------------------------------
 Center     Atomic      Atomic             Coordinates (Angstroms)
 Number     Number       Type             X           Y           Z
 ---------------------------------------------------------------------
      1          7           0       -2.732820    0.515854   -0.099891
      2          6           0       -1.736050   -0.073262    0.066289
      3          6           0       -0.465238   -0.778530    0.249326
      4          6           0        0.678907   -0.070622   -0.472467
      5          6           0        1.537347    0.890874    0.233826
      6          8           0        1.989055   -0.449133   -0.044996
      7          1           0       -0.563823   -1.807815   -0.127811
      8          1           0       -0.233598   -0.845609    1.322109
      9          1           0        0.550936    0.029291   -1.554858
     10          1           0        2.035461    1.684583   -0.329277
     11          1           0        1.338535    1.110878    1.287201
 ---------------------------------------------------------------------

 SCF Done:  E(RHF) =  -284.944794131     A.U. after    2 cycles

 The electronic state is 1-A.
 Alpha  occ. eigenvalues --  -21.08517 -15.77253 -11.52163 -11.47846 -11.44526
 Alpha  occ. eigenvalues --  -11.42944  -1.79872  -1.32163  -1.16810  -0.98990
 Alpha  occ. eigenvalues --   -0.89391  -0.74388  -0.69472  -0.65429  -0.60758
 Alpha  occ. eigenvalues --   -0.55408  -0.52999  -0.47182  -0.43905  -0.43209
 Alpha  occ. eigenvalues --   -0.39231  -0.33366
 Alpha virt. eigenvalues --    0.03205   0.05026   0.05496   0.05560   0.06157
 Alpha virt. eigenvalues --    0.09194   0.10012   0.11127   0.11584   0.12492
 Alpha virt. eigenvalues --    0.13055   0.13917   0.14336   0.15165   0.15593

 Mulliken charges:
               1
     1  N   -2.314181
     2  C    2.027327
     3  C   -3.375223
     4  C    1.177168
     5  C   -2.092574
     6  O   -2.528829
     7  H    1.430159
     8  H    1.414381
     9  H    1.417174
    10  H    1.430965
    11  H    1.413632
 Sum of Mulliken charges =   0.00000

 Dipole moment (field-independent basis, Debye):
    X=              2.9415    Y=             -1.1991    Z=              0.3483  Tot=              3.1955

 Test job not archived.
 1\1\GINC-SE051\SP\RHF\Aug-CC-pVDZ\C4H5N1O1\OHZDE\09-Apr-2025\0\\#t hf
 aug-cc-pvdz iop(5/13=1,5/36=2,99/5=2) pseudo=read geom=check guess=(re
 ad,tcheck) scf=(maxcycle=1)\\title\\0,1\N,0,2.93602161,0.53958457,0.25
 562708\C,0,1.95431165,-0.06582175,0.06081444\C,0,0.70096367,-0.7913652
 9,-0.15958092\C,0,-0.48000385,-0.08649907,0.50349256\C,0,-1.32195448,0
 .85073382,-0.25344707\O,0,-1.76712954,-0.49018436,0.03143838\H,0,0.797
 69262,-1.81244877,0.23968226\H,0,0.51307412,-0.88037677,-1.23930106\H,
 0,-0.39649735,0.03410065,1.58811721\H,0,-1.85224544,1.6473622,0.275090

 Normal termination of Gaussian 16 at Wed Apr  9 03:09:17 2025.
