 Gaussian 16, Revision C.01,

 ----------------------------------------------------------------------
 #t hf aug-cc-pvdz symm=none int=(grid=ultrafine) guess=(read,tcheck) s
 table=(opt,rrhf)
 ----------------------------------------------------------------------
 -----
 title
 -----
 Symbolic Z-matrix:
 Charge =  0 Multiplicity = 1

 SCF Done:  E(RHF) =  -342.459457128     A.U. after   17 cycles
 Normal termination of Gaussian 16 at Wed Apr  9 19:29:09 2025.
 Gaussian 16:  ES64L-G16RevC.01  3-Jul-2019

 ----------------------------------------------------------------------
 #t hf aug-cc-pvdz iop(5/13=1,5/36=2,99/5=2) pseudo=read geom=check gue
 ss=(read,tcheck) scf=(maxcycle=1)
 ----------------------------------------------------------------------
 -----
 title
 -----
 Structure from the checkpoint file:  "Grambow2020_wb97xd3_009060_forward_mol1.chk"
 Charge =  0 Multiplicity = 1

                         Standard orientation:
 ---------------------------------------------------------------------
 Center     Atomic      Atomic             Coordinates (Angstroms)
 Number     Number       Type             X           Y           Z
 ---------------------------------------------------------------------
      1          8           0        2.295729   -0.741318   -0.275685
      2          6           0        1.260764   -0.209276    0.018904
      3          6           0        1.149144    1.281892    0.230008
      4          6           0       -1.247342    1.218041   -0.406714
      5          6           0       -1.263151   -0.153169   -0.017396
      6          8           0       -2.404539   -0.589644   -0.000288
      7          6           0       -0.026614   -0.980627    0.215700
      8          1           0        2.051161    1.799370   -0.091481
      9          1           0        0.926909    1.518882    1.270715
     10          1           0        0.329672    1.675936   -0.444398
     11          1           0       -1.569866    1.908562    0.378122
     12          1           0       -0.041146   -1.876519   -0.405252
     13          1           0       -0.063057   -1.319702    1.257069
 ---------------------------------------------------------------------

 SCF Done:  E(RHF) =  -343.971190739     A.U. after    2 cycles

 The electronic state is 1-A.
 Alpha  occ. eigenvalues --  -21.08031 -21.05984 -11.53473 -11.51890 -11.45466
 Alpha  occ. eigenvalues --  -11.43575 -11.42481  -1.74676  -1.71921  -1.24577
 Alpha  occ. eigenvalues --   -1.09576  -1.04381  -0.80948  -0.77036  -0.67980
 Alpha  occ. eigenvalues --   -0.64816  -0.64631  -0.60313  -0.55857  -0.53934
 Alpha  occ. eigenvalues --   -0.50819  -0.48547  -0.43336  -0.33948  -0.32752
 Alpha  occ. eigenvalues --   -0.28736
 Alpha virt. eigenvalues --    0.02366   0.04734   0.04953   0.05300   0.06656
 Alpha virt. eigenvalues --    0.07201   0.08153   0.08343   0.09840   0.11117
 Alpha virt. eigenvalues --    0.12142   0.12962   0.13429   0.13956   0.14035

 Mulliken charges:
               1
     1  O   -3.362496
     2  C    4.395724
     3  C   -4.453394
     4  C   -3.025440
     5  C    5.211200
     6  O   -3.286520
     7  C   -3.732417
     8  H    1.064543
     9  H    1.368106
    10  H    1.816065
    11  H    1.247331
    12  H    1.390630
    13  H    1.366670
 Sum of Mulliken charges =  -0.00000

 Dipole moment (field-independent basis, Debye):
    X=              1.2124    Y=              0.4403    Z=              2.0084  Tot=              2.3869

 Test job not archived.
 1\1\GINC-SE115\SP\RHF\Aug-CC-pVDZ\C5H6O2\OHZDE\09-Apr-2025\0\\#t hf au
 g-cc-pvdz iop(5/13=1,5/36=2,99/5=2) pseudo=read geom=check guess=(read
 ,tcheck) scf=(maxcycle=1)\\title\\0,1\O,0,0.70936177,-2.3622599,0.0469
 4553\C,0,0.30807247,-1.23698282,-0.07019239\C,0,-1.16421688,-0.9026838
 9,-0.10505223\C,0,-0.69631566,1.36424663,0.78642429\C,0,0.6214143,1.24
 703789,0.25549376\O,0,1.21509094,2.31333304,0.31976533\C,0,1.23641201,
 -0.04889465,-0.20317942\H,0,-1.77526775,-1.76139158,0.16699887\H,0,-1.
 46055586,-0.52120645,-1.08243706\H,0,-1.37226983,-0.13005479,0.6958130

 Normal termination of Gaussian 16 at Wed Apr  9 19:29:13 2025.
