 Gaussian 16, Revision C.01,

 ----------------------------------------------------------------------
 #t hf aug-cc-pvdz symm=none int=(grid=ultrafine) guess=(read,tcheck) s
 table=(opt,rrhf)
 ----------------------------------------------------------------------
 -----
 title
 -----
 Symbolic Z-matrix:
 Charge =  0 Multiplicity = 1

 SCF Done:  E(RHF) =  -302.776403403     A.U. after   15 cycles
 Normal termination of Gaussian 16 at Wed Apr  9 19:23:09 2025.
 Gaussian 16:  ES64L-G16RevC.01  3-Jul-2019

 ----------------------------------------------------------------------
 #t hf aug-cc-pvdz iop(5/13=1,5/36=2,99/5=2) pseudo=read geom=check gue
 ss=(read,tcheck) scf=(maxcycle=1)
 ----------------------------------------------------------------------
 -----
 title
 -----
 Structure from the checkpoint file:  "Grambow2020_wb97xd3_008842_forward_mol1.chk"
 Charge =  0 Multiplicity = 1

                         Standard orientation:
 ---------------------------------------------------------------------
 Center     Atomic      Atomic             Coordinates (Angstroms)
 Number     Number       Type             X           Y           Z
 ---------------------------------------------------------------------
      1          6           0        0.534375    1.663759   -0.118166
      2          6           0        0.561139    0.151624   -0.014441
      3          6           0       -0.596864   -0.480712    0.746990
      4          6           0       -1.883395   -0.279988    0.084003
      5          7           0       -2.879837   -0.102445   -0.455070
      6          6           0        1.801216   -0.974966   -0.832851
      7          7           0        1.842503   -0.375963    0.458598
      8          1           0       -0.419998    2.011521   -0.514308
      9          1           0        0.682967    2.102744    0.871111
     10          1           0        1.328499    2.009627   -0.780416
     11          1           0       -0.642846   -0.040744    1.746132
     12          1           0       -0.419638   -1.549353    0.870822
     13          1           0        0.535379   -0.161410   -1.150920
     14          1           0        1.178437   -1.881284   -0.708380
     15          1           0        2.519715    0.379457    0.448055
 ---------------------------------------------------------------------

 SCF Done:  E(RHF) =  -304.215205441     A.U. after    2 cycles

 The electronic state is 1-A.
 Alpha  occ. eigenvalues --  -15.76954 -15.76399 -11.52218 -11.48328 -11.43844
 Alpha  occ. eigenvalues --  -11.43034 -11.40895  -1.50034  -1.32665  -1.18496
 Alpha  occ. eigenvalues --   -1.08554  -0.94023  -0.85847  -0.74494  -0.67423
 Alpha  occ. eigenvalues --   -0.65200  -0.62683  -0.59385  -0.56023  -0.53841
 Alpha  occ. eigenvalues --   -0.51341  -0.50453  -0.44869  -0.44468  -0.42128
 Alpha  occ. eigenvalues --   -0.33050
 Alpha virt. eigenvalues --    0.03053   0.05053   0.05213   0.05714   0.05962
 Alpha virt. eigenvalues --    0.06786   0.07172   0.07946   0.08998   0.10509
 Alpha virt. eigenvalues --    0.11704   0.12011   0.13054   0.13345   0.13666

 Mulliken charges:
               1
     1  C   -3.716111
     2  C    0.737584
     3  C   -3.246526
     4  C    2.182253
     5  N   -2.466091
     6  C   -1.638200
     7  N   -2.450298
     8  H    1.247250
     9  H    1.138278
    10  H    1.078122
    11  H    1.401816
    12  H    1.599217
    13  H    2.446022
    14  H    1.021331
    15  H    0.665352
 Sum of Mulliken charges =   0.00000

 Dipole moment (field-independent basis, Debye):
    X=              1.6038    Y=              1.1740    Z=              2.5620  Tot=              3.2426

 Test job not archived.
 1\1\GINC-SE018\SP\RHF\Aug-CC-pVDZ\C5H8N2\OHZDE\09-Apr-2025\0\\#t hf au
 g-cc-pvdz iop(5/13=1,5/36=2,99/5=2) pseudo=read geom=check guess=(read
 ,tcheck) scf=(maxcycle=1)\\title\\0,1\C,0,-1.02859394,1.12749572,-0.15
 130252\C,0,-0.23181409,-0.14989891,0.02599032\C,0,1.19536568,-0.119607
 04,-0.50583594\C,0,2.04425792,0.82802898,0.21275572\N,0,2.68566734,1.5
 8308135,0.79025541\C,0,-0.80486732,-1.67450175,0.93372764\N,0,-0.93569
 872,-1.34417836,-0.44544627\H,0,-0.48788147,1.98445195,0.2511279\H,0,-
 1.21544327,1.29969401,-1.21379478\H,0,-1.98476111,1.04956422,0.3668716

 Normal termination of Gaussian 16 at Wed Apr  9 19:23:14 2025.
