 Gaussian 16, Revision C.01,

 ----------------------------------------------------------------------
 #t hf aug-cc-pvdz symm=none int=(grid=ultrafine) guess=(read,tcheck) s
 table=(opt,rrhf)
 ----------------------------------------------------------------------
 -----
 title
 -----
 Symbolic Z-matrix:
 Charge =  0 Multiplicity = 1

 SCF Done:  E(RHF) =  -287.897514859     A.U. after   16 cycles

 1\1\GINC-SE120\Stability\RHF\Aug-CC-pVDZ\C6H11N1\OHZDE\09-Apr-2025\0\\
 #t hf aug-cc-pvdz symm=none int=(grid=ultrafine) guess=(read,tcheck) s
 table=(opt,rrhf)\\title\\0,1\C,0,1.81615917,-0.60512237,0.45132239\C,0
 ,0.47113699,0.11711418,0.48190734\C,0,0.50665715,1.40070561,-0.2527679
 2\C,0,-0.66281599,-0.82867832,-0.06661224\C,0,-2.05368232,-0.49528649,
 0.47747329\C,0,-0.68230454,-0.62720015,-1.55322788\N,0,-0.24715119,0.3
 9133648,-2.0310972\H,0,1.78074318,-1.5415724,1.01141181\H,0,2.60493772
 ,0.01400921,0.88136649\H,0,2.10007854,-0.84318943,-0.57713106\H,0,0.17

 Normal termination of Gaussian 16 at Wed Apr  9 03:46:17 2025.
 Gaussian 16:  ES64L-G16RevC.01  3-Jul-2019

 ----------------------------------------------------------------------
 #t hf aug-cc-pvdz iop(5/13=1,5/36=2,99/5=2) pseudo=read geom=check gue
 ss=(read,tcheck) scf=(maxcycle=1)
 ----------------------------------------------------------------------
 -----
 title
 -----
 Structure from the checkpoint file:  "Grambow2020_wb97xd3_007880_forward_mol1.chk"
 Charge =  0 Multiplicity = 1

                         Standard orientation:
 ---------------------------------------------------------------------
 Center     Atomic      Atomic             Coordinates (Angstroms)
 Number     Number       Type             X           Y           Z
 ---------------------------------------------------------------------
      1          6           0        1.837995   -0.863941   -0.568684
      2          6           0        0.670818   -0.572632    0.371785
      3          6           0        0.865028    0.679017    1.136162
      4          6           0       -0.681367   -0.549733   -0.435878
      5          6           0       -1.906806   -0.894995    0.413112
      6          6           0       -0.839048    0.857018   -0.933057
      7          7           0       -0.276018    1.763679   -0.370832
      8          1           0        1.689932   -1.798514   -1.113242
      9          1           0        2.776897   -0.940877   -0.018251
     10          1           0        1.945835   -0.063330   -1.305159
     11          1           0        0.542991   -1.411799    1.066865
     12          1           0        0.383342    2.304021    0.173195
     13          1           0        1.889352    1.033748    1.232555
     14          1           0        0.287855    0.803112    2.049293
     15          1           0       -0.622662   -1.249737   -1.272819
     16          1           0       -2.821902   -0.821269   -0.174097
     17          1           0       -1.824531   -1.914098    0.793538
     18          1           0       -1.994701   -0.215407    1.263309
 ---------------------------------------------------------------------

 SCF Done:  E(RHF) =  -289.350087942     A.U. after    2 cycles

 The electronic state is 1-A.
 Alpha  occ. eigenvalues --  -15.79577 -11.44748 -11.42756 -11.40510 -11.39165
 Alpha  occ. eigenvalues --  -11.38098 -11.35523  -1.40729  -1.23242  -1.11516
 Alpha  occ. eigenvalues --   -0.98682  -0.94154  -0.82627  -0.80165  -0.66050
 Alpha  occ. eigenvalues --   -0.63413  -0.60952  -0.57226  -0.55333  -0.52568
 Alpha  occ. eigenvalues --   -0.51464  -0.48796  -0.46725  -0.45923  -0.42425
 Alpha  occ. eigenvalues --   -0.39370  -0.24173
 Alpha virt. eigenvalues --    0.03948   0.05089   0.05211   0.05468   0.05637
 Alpha virt. eigenvalues --    0.05888   0.06262   0.06923   0.07259   0.08668
 Alpha virt. eigenvalues --    0.08894   0.10566   0.12028   0.12447   0.12985

 Mulliken charges:
               1
     1  C   -3.933101
     2  C   -1.310117
     3  C   -3.402099
     4  C   -0.933547
     5  C   -3.687873
     6  C    0.536779
     7  N   -2.356896
     8  H    1.246541
     9  H    1.179183
    10  H    1.353112
    11  H    1.866462
    12  H    1.031175
    13  H    1.391109
    14  H    1.307389
    15  H    1.888927
    16  H    1.172099
    17  H    1.287307
    18  H    1.363550
 Sum of Mulliken charges =  -0.00000

 Dipole moment (field-independent basis, Debye):
    X=              1.1034    Y=             -0.4152    Z=              1.3828  Tot=              1.8172

 Test job not archived.
 1\1\GINC-SE120\SP\RHF\Aug-CC-pVDZ\C6H11N1\OHZDE\09-Apr-2025\0\\#t hf a
 ug-cc-pvdz iop(5/13=1,5/36=2,99/5=2) pseudo=read geom=check guess=(rea
 d,tcheck) scf=(maxcycle=1)\\title\\0,1\C,0,1.81615917,-0.60512237,0.45
 132239\C,0,0.47113699,0.11711418,0.48190734\C,0,0.50665715,1.40070561,
 -0.25276792\C,0,-0.66281599,-0.82867832,-0.06661224\C,0,-2.05368232,-0
 .49528649,0.47747329\C,0,-0.68230454,-0.62720015,-1.55322788\N,0,-0.24
 715119,0.39133648,-2.0310972\H,0,1.78074318,-1.5415724,1.01141181\H,0,
 2.60493772,0.01400921,0.88136649\H,0,2.10007854,-0.84318943,-0.5771310

 Normal termination of Gaussian 16 at Wed Apr  9 03:46:24 2025.
