 Gaussian 16, Revision C.01,

 ----------------------------------------------------------------------
 #t hf aug-cc-pvdz symm=none int=(grid=ultrafine) guess=(read,tcheck) s
 table=(opt,rrhf)
 ----------------------------------------------------------------------
 -----
 title
 -----
 Symbolic Z-matrix:
 Charge =  0 Multiplicity = 1

 SCF Done:  E(RHF) =  -343.553958322     A.U. after   15 cycles
 Normal termination of Gaussian 16 at Wed Apr  9 18:31:29 2025.
 Gaussian 16:  ES64L-G16RevC.01  3-Jul-2019

 ----------------------------------------------------------------------
 #t hf aug-cc-pvdz iop(5/13=1,5/36=2,99/5=2) pseudo=read geom=check gue
 ss=(read,tcheck) scf=(maxcycle=1)
 ----------------------------------------------------------------------
 -----
 title
 -----
 Structure from the checkpoint file:  "Grambow2020_wb97xd3_007225_forward_mol1.chk"
 Charge =  0 Multiplicity = 1

                         Standard orientation:
 ---------------------------------------------------------------------
 Center     Atomic      Atomic             Coordinates (Angstroms)
 Number     Number       Type             X           Y           Z
 ---------------------------------------------------------------------
      1          8           0        2.503518   -0.064160    0.034700
      2          6           0        1.273520   -0.687801   -0.298472
      3          6           0        0.177887   -0.029375    0.497056
      4          6           0       -0.129431    1.397405    0.000421
      5          6           0       -1.489868    0.937639   -0.417057
      6          6           0       -1.271715   -0.381476    0.047553
      7          8           0       -1.857732   -1.441484    0.082603
      8          1           0        3.214049   -0.506803   -0.431602
      9          1           0        1.280708   -1.754686   -0.052505
     10          1           0        1.057266   -0.590517   -1.370519
     11          1           0        0.383034   -0.113227    1.567817
     12          1           0        0.078868    2.081850    1.105166
     13          1           0        0.538335    2.005946   -0.606962
     14          1           0       -2.273535    1.477344   -0.926182
     15          1           0       -0.807373    2.026891    0.799365
 ---------------------------------------------------------------------

 SCF Done:  E(RHF) =  -345.123320819     A.U. after    2 cycles

 The electronic state is 1-A.
 Alpha  occ. eigenvalues --  -21.08523 -20.99293 -11.56182 -11.47425 -11.45347
 Alpha  occ. eigenvalues --  -11.40835 -11.37257  -1.73110  -1.65367  -1.36015
 Alpha  occ. eigenvalues --   -1.07328  -0.98247  -0.88798  -0.74675  -0.72978
 Alpha  occ. eigenvalues --   -0.65287  -0.63300  -0.60765  -0.56906  -0.53686
 Alpha  occ. eigenvalues --   -0.47034  -0.44053  -0.43223  -0.42240  -0.33865
 Alpha  occ. eigenvalues --   -0.24859  -0.24306
 Alpha virt. eigenvalues --    0.02396   0.04248   0.04655   0.04964   0.05253
 Alpha virt. eigenvalues --    0.06036   0.06849   0.07442   0.10610   0.11461
 Alpha virt. eigenvalues --    0.11926   0.12562   0.13689   0.13937   0.14965

 Mulliken charges:
               1
     1  O   -2.680226
     2  C   -0.850195
     3  C   -2.426312
     4  C   -3.641883
     5  C   -1.226275
     6  C    4.637279
     7  O   -3.384496
     8  H    0.769805
     9  H    1.362259
    10  H    1.524235
    11  H    1.534795
    12  H    0.528525
    13  H    1.323865
    14  H    1.146006
    15  H    1.382618
 Sum of Mulliken charges =  -0.00000

 Dipole moment (field-independent basis, Debye):
    X=              3.1952    Y=              3.4847    Z=              0.5639  Tot=              4.7614

 Test job not archived.
 1\1\GINC-SE105\SP\RHF\Aug-CC-pVDZ\C5H8O2\OHZDE\09-Apr-2025\0\\#t hf au
 g-cc-pvdz iop(5/13=1,5/36=2,99/5=2) pseudo=read geom=check guess=(read
 ,tcheck) scf=(maxcycle=1)\\title\\0,1\O,0,2.25255359,0.54399258,0.2858
 981\C,0,1.40655928,-0.51442966,-0.13465266\C,0,0.0255566,-0.26151894,0
 .40910315\C,0,-0.67804112,0.91099068,-0.30290923\C,0,-1.68725888,-0.05
 009416,-0.84536263\C,0,-1.09822004,-1.15839893,-0.19098483\O,0,-1.2630
 3629,-2.35571249,-0.10416855\H,0,3.14494597,0.36879011,-0.01603592\H,0
 ,1.75077655,-1.48262037,0.24339046\H,0,1.36354713,-0.57626598,-1.23002

 Normal termination of Gaussian 16 at Wed Apr  9 18:31:34 2025.
